Title t= 419.00000 step= 209500
44434
    1GLY      N    1   4.025   3.559   5.437
    1GLY    HT1    2   4.008   3.563   5.539
    1GLY    HT2    3   3.948   3.593   5.376
    1GLY    HT3    4   4.104   3.623   5.416
    1GLY     CA    5   4.062   3.420   5.403
    1GLY    HA1    6   3.971   3.368   5.377
    1GLY    HA2    7   4.119   3.377   5.484
    1GLY      C    8   4.139   3.419   5.273
    1GLY      O    9   4.163   3.534   5.221
    2PRO      N   10   4.187   3.305   5.225
    2PRO     CD   11   4.176   3.173   5.286
    2PRO    HD1   12   4.089   3.112   5.252
    2PRO    HD2   13   4.181   3.162   5.397
    2PRO     CA   14   4.286   3.301   5.107
    2PRO     HA   15   4.378   3.353   5.130
    2PRO     CB   16   4.310   3.149   5.093
    2PRO    HB1   17   4.412   3.143   5.050
    2PRO    HB2   18   4.244   3.108   5.014
    2PRO     CG   19   4.305   3.098   5.230
    2PRO    HG1   20   4.290   2.988   5.236
    2PRO    HG2   21   4.392   3.136   5.286
    2PRO      C   22   4.237   3.375   4.975
    2PRO      O   23   4.127   3.344   4.934
    3GLY      N   24   4.318   3.461   4.909
    3GLY     HN   25   4.412   3.480   4.936
    3GLY     CA   26   4.268   3.527   4.790
    3GLY    HA1   27   4.209   3.613   4.817
    3GLY    HA2   28   4.229   3.452   4.722
    3GLY      C   29   4.390   3.567   4.708
    3GLY      O   30   4.501   3.545   4.758
    4ASP      N   31   4.370   3.618   4.583
    4ASP     HN   32   4.278   3.627   4.545
    4ASP     CA   33   4.469   3.667   4.482
    4ASP     HA   34   4.535   3.587   4.452
    4ASP     CB   35   4.416   3.724   4.351
    4ASP    HB1   36   4.507   3.737   4.290
    4ASP    HB2   37   4.362   3.821   4.360
    4ASP     CG   38   4.318   3.620   4.294
    4ASP    OD1   39   4.360   3.515   4.246
    4ASP    OD2   40   4.198   3.636   4.320
    4ASP      C   41   4.553   3.779   4.542
    4ASP      O   42   4.502   3.864   4.618
    5PRO      N   43   4.678   3.798   4.497
    5PRO     CD   44   4.767   3.695   4.452
    5PRO    HD1   45   4.731   3.658   4.354
    5PRO    HD2   46   4.771   3.606   4.517
    5PRO     CA   47   4.734   3.933   4.483
    5PRO     HA   48   4.759   3.971   4.581
    5PRO     CB   49   4.856   3.910   4.393
    5PRO    HB1   50   4.933   3.989   4.406
    5PRO    HB2   51   4.830   3.902   4.286
    5PRO     CG   52   4.904   3.767   4.442
    5PRO    HG1   53   4.984   3.711   4.387
    5PRO    HG2   54   4.948   3.777   4.543
    5PRO      C   55   4.637   4.040   4.437
    5PRO      O   56   4.551   4.009   4.353
    6GLY      N   57   4.628   4.159   4.502
    6GLY     HN   58   4.689   4.181   4.577
    6GLY     CA   59   4.542   4.265   4.454
    6GLY    HA1   60   4.561   4.342   4.528
    6GLY    HA2   61   4.440   4.232   4.464
    6GLY      C   62   4.571   4.336   4.321
    6GLY      O   63   4.643   4.281   4.240
    7SER      N   64   4.519   4.458   4.295
    7SER     HN   65   4.462   4.503   4.363
    7SER     CA   66   4.551   4.521   4.166
    7SER     HA   67   4.570   4.444   4.093
    7SER     CB   68   4.436   4.602   4.117
    7SER    HB1   69   4.462   4.653   4.022
    7SER    HB2   70   4.406   4.688   4.181
    7SER     OG   71   4.322   4.519   4.086
    7SER    HG1   72   4.308   4.461   4.161
    7SER      C   73   4.671   4.608   4.186
    7SER      O   74   4.700   4.639   4.299
    8GLY      N   75   4.742   4.638   4.079
    8GLY     HN   76   4.738   4.587   3.993
    8GLY     CA   77   4.852   4.727   4.088
    8GLY    HA1   78   4.923   4.672   4.028
    8GLY    HA2   79   4.894   4.738   4.187
    8GLY      C   80   4.846   4.865   4.024
    8GLY      O   81   4.739   4.907   3.978
    9ASN      N   82   4.951   4.948   4.026
    9ASN     HN   83   5.036   4.916   4.066
    9ASN     CA   84   4.952   5.071   3.949
    9ASN     HA   85   4.879   5.145   3.977
    9ASN     CB   86   5.073   5.151   3.991
    9ASN    HB1   87   5.174   5.106   3.976
    9ASN    HB2   88   5.067   5.162   4.101
    9ASN     CG   89   5.070   5.291   3.936
    9ASN    OD1   90   4.983   5.371   3.970
    9ASN    ND2   91   5.157   5.320   3.843
    9ASN   HD21   92   5.142   5.404   3.789
    9ASN   HD22   93   5.222   5.252   3.809
    9ASN      C   94   4.955   5.043   3.797
    9ASN      O   95   5.032   4.961   3.749
   10PRO      N   96   4.877   5.109   3.712
   10PRO     CD   97   4.760   5.192   3.750
   10PRO    HD1   98   4.779   5.273   3.824
   10PRO    HD2   99   4.690   5.120   3.797
   10PRO     CA  100   4.893   5.104   3.570
   10PRO     HA  101   4.850   5.008   3.548
   10PRO     CB  102   4.800   5.210   3.510
   10PRO    HB1  103   4.763   5.175   3.411
   10PRO    HB2  104   4.864   5.300   3.500
   10PRO     CG  105   4.694   5.243   3.617
   10PRO    HG1  106   4.661   5.349   3.623
   10PRO    HG2  107   4.600   5.194   3.583
   10PRO      C  108   5.036   5.108   3.504
   10PRO      O  109   5.111   5.202   3.537
   11GLY      N  110   5.069   5.012   3.410
   11GLY     HN  111   4.999   4.945   3.388
   11GLY     CA  112   5.207   4.984   3.360
   11GLY    HA1  113   5.209   4.879   3.333
   11GLY    HA2  114   5.277   5.008   3.438
   11GLY      C  115   5.241   5.072   3.248
   11GLY      O  116   5.158   5.131   3.182
   12SER      N  117   5.373   5.073   3.224
   12SER     HN  118   5.434   5.016   3.278
   12SER     CA  119   5.430   5.136   3.102
   12SER     HA  120   5.357   5.158   3.027
   12SER     CB  121   5.504   5.273   3.132
   12SER    HB1  122   5.519   5.316   3.031
   12SER    HB2  123   5.603   5.262   3.183
   12SER     OG  124   5.424   5.363   3.203
   12SER    HG1  125   5.404   5.337   3.293
   12SER      C  126   5.530   5.050   3.024
   12SER      O  127   5.598   4.973   3.082
   13GLY      N  128   5.529   5.059   2.892
   13GLY     HN  129   5.460   5.121   2.857
   13GLY     CA  130   5.624   4.998   2.803
   13GLY    HA1  131   5.596   5.032   2.705
   13GLY    HA2  132   5.618   4.891   2.817
   13GLY      C  133   5.771   5.037   2.813
   13GLY      O  134   5.821   5.114   2.896
   14ASP      N  135   5.850   4.977   2.723
   14ASP     HN  136   5.803   4.920   2.656
   14ASP     CA  137   5.992   4.998   2.702
   14ASP     HA  138   6.038   4.983   2.799
   14ASP     CB  139   6.059   4.903   2.594
   14ASP    HB1  140   6.168   4.919   2.595
   14ASP    HB2  141   6.011   4.916   2.494
   14ASP     CG  142   6.035   4.764   2.644
   14ASP    OD1  143   6.025   4.668   2.563
   14ASP    OD2  144   6.050   4.732   2.767
   14ASP      C  145   6.021   5.143   2.664
   14ASP      O  146   5.938   5.196   2.586
   15PRO      N  147   6.123   5.211   2.706
   15PRO     CD  148   6.213   5.163   2.813
   15PRO    HD1  149   6.240   5.057   2.792
   15PRO    HD2  150   6.161   5.157   2.911
   15PRO     CA  151   6.155   5.351   2.667
   15PRO     HA  152   6.062   5.405   2.673
   15PRO     CB  153   6.261   5.397   2.765
   15PRO    HB1  154   6.210   5.459   2.842
   15PRO    HB2  155   6.332   5.464   2.713
   15PRO     CG  156   6.322   5.269   2.821
   15PRO    HG1  157   6.412   5.236   2.765
   15PRO    HG2  158   6.376   5.284   2.917
   15PRO      C  159   6.204   5.358   2.524
   15PRO    OT1  160   6.306   5.288   2.495
   15PRO    OT2  161   6.138   5.421   2.438
   16LIT    LIT  162   4.319   3.425   4.092
   17LIT    LIT  163   6.167   3.283   3.030
   18LIT    LIT  164   5.970   2.268   0.744
   19LIT    LIT  165   2.399   4.602   4.751
   20LIT    LIT  166   5.792   3.450   4.071
   21LIT    LIT  167   2.636   6.732   0.461
   22LIT    LIT  168   2.072   2.500   6.177
   23LIT    LIT  169   5.631   0.862   1.748
   24LIT    LIT  170   6.085   5.543   3.992
   25LIT    LIT  171   7.930   1.211   4.190
   26LIT    LIT  172   2.119   2.949   4.086
   27LIT    LIT  173   7.169   7.152   4.667
   28LIT    LIT  174   7.048   2.714   2.106
   29LIT    LIT  175   7.900   1.692   2.484
   30LIT    LIT  176   8.059   0.526   5.937
   31LIT    LIT  177   1.251   0.155   0.804
   32LIT    LIT  178   1.983   3.223   4.841
   33LIT    LIT  179   1.524   7.282   1.807
   34LIT    LIT  180   0.170   6.290   0.684
   35LIT    LIT  181   4.450   4.994   0.099
   36LIT    LIT  182   4.580   5.612   1.805
   37LIT    LIT  183   1.340   5.215   3.252
   38LIT    LIT  184   2.661   0.627   0.638
   39LIT    LIT  185   1.900   1.090   5.612
   40LIT    LIT  186   6.460   5.610   3.081
   41LIT    LIT  187   6.270   5.347   2.312
   42LIT    LIT  188   6.306   5.708   0.199
   43LIT    LIT  189   0.197   0.483   1.641
   44LIT    LIT  190   6.301   5.897   2.236
   45LIT    LIT  191   0.217   2.404   2.070
   46LIT    LIT  192   6.641   7.340   6.735
   47LIT    LIT  193   2.995   2.028   0.167
   48LIT    LIT  194   6.963   5.267   4.922
   49LIT    LIT  195   5.986   4.544   2.725
   50LIT    LIT  196   5.575   2.051   2.459
   51LIT    LIT  197   0.143   7.577   0.161
   52LIT    LIT  198   7.891   2.540   5.589
   53LIT    LIT  199   2.348   4.967   3.938
   54LIT    LIT  200   8.056   6.738   3.996
   55LIT    LIT  201   1.218   0.443   4.951
   56LIT    LIT  202   2.823   0.021   1.672
   57LIT    LIT  203   6.261   0.850   2.040
   58LIT    LIT  204   7.323   4.541   0.263
   59LIT    LIT  205   4.630   4.916   2.026
   60CLA    CLA  206   1.563   0.832   5.029
   61CLA    CLA  207   6.403   4.249   5.047
   62CLA    CLA  208   5.925   5.461   2.029
   63CLA    CLA  209   1.044   3.534   1.755
   64CLA    CLA  210   5.882   7.642   5.469
   65CLA    CLA  211   4.688   0.227   1.864
   66CLA    CLA  212   4.212   1.785   5.366
   67CLA    CLA  213   2.038   6.347   1.855
   68CLA    CLA  214   7.960   1.442   3.247
   69CLA    CLA  215   7.811   2.417   4.001
   70CLA    CLA  216   5.956   5.150   0.565
   71CLA    CLA  217   1.706   1.626   6.224
   72CLA    CLA  218   6.388   3.134   4.038
   73CLA    CLA  219   3.397   4.471   4.850
   74CLA    CLA  220   4.498   4.952   2.464
   75CLA    CLA  221   5.388   0.057   4.978
   76CLA    CLA  222   2.047   5.216   4.187
   77CLA    CLA  223   3.224   2.317   5.386
   78CLA    CLA  224   2.999   6.078   5.660
   79CLA    CLA  225   1.389   0.075   2.363
   80CLA    CLA  226   5.632   1.887   0.111
   81CLA    CLA  227   6.364   1.055   2.023
   82CLA    CLA  228   7.741   0.371   6.021
   83CLA    CLA  229   7.910   3.533   4.423
   84CLA    CLA  230   5.939   2.128   5.370
   85CLA    CLA  231   5.860   0.350   0.417
   86CLA    CLA  232   6.596   2.836   1.975
   87CLA    CLA  233   7.060   6.911   2.816
   88CLA    CLA  234   7.816   4.643   3.397
   89CLA    CLA  235   3.058   0.923   0.493
   90CLA    CLA  236   7.274   7.203   2.420
   91CLA    CLA  237   2.078   4.156   5.286
   92CLA    CLA  238   0.751   0.067   0.322
   93CLA    CLA  239   3.707   1.008   2.783
   94CLA    CLA  240   4.942   5.972   6.288
   95CLA    CLA  241   7.320   4.305   0.194
   96CLA    CLA  242   8.069   1.134   4.349
   97CLA    CLA  243   5.486   5.480   3.742
   98CLA    CLA  244   2.641   2.191   5.366
   99CLA    CLA  245   0.681   0.057   6.524
  100CLA    CLA  246   3.154   3.854   2.798
  101CLA    CLA  247   8.080   0.559   0.813
  102TIP3   OH2  248   2.989   1.367   4.256
  102TIP3    H1  249   2.998   1.447   4.206
  102TIP3    H2  250   2.930   1.312   4.205
  103TIP3   OH2  251   4.487   5.855   6.177
  103TIP3    H1  252   4.561   5.868   6.119
  103TIP3    H2  253   4.476   5.939   6.222
  104TIP3   OH2  254   2.072   0.969   6.761
  104TIP3    H1  255   2.065   0.947   6.668
  104TIP3    H2  256   2.120   1.052   6.762
  105TIP3   OH2  257   4.897   6.555   0.625
  105TIP3    H1  258   4.816   6.542   0.674
  105TIP3    H2  259   4.896   6.647   0.601
  106TIP3   OH2  260   4.591   3.773   0.473
  106TIP3    H1  261   4.655   3.828   0.519
  106TIP3    H2  262   4.506   3.801   0.509
  107TIP3   OH2  263   2.417   1.164   6.263
  107TIP3    H1  264   2.413   1.080   6.309
  107TIP3    H2  265   2.402   1.142   6.171
  108TIP3   OH2  266   3.565   5.931   6.393
  108TIP3    H1  267   3.615   5.957   6.315
  108TIP3    H2  268   3.489   5.885   6.357
  109TIP3   OH2  269   4.847   0.859   1.407
  109TIP3    H1  270   4.933   0.851   1.366
  109TIP3    H2  271   4.863   0.901   1.491
  110TIP3   OH2  272   5.904   2.074   0.014
  110TIP3    H1  273   5.849   2.007   0.053
  110TIP3    H2  274   5.980   2.026  -0.019
  111TIP3   OH2  275   2.396   6.553   0.812
  111TIP3    H1  276   2.333   6.603   0.864
  111TIP3    H2  277   2.369   6.462   0.823
  112TIP3   OH2  278   3.199   2.866   6.712
  112TIP3    H1  279   3.198   2.931   6.782
  112TIP3    H2  280   3.109   2.834   6.708
  113TIP3   OH2  281   3.382   0.798   5.990
  113TIP3    H1  282   3.322   0.847   5.933
  113TIP3    H2  283   3.445   0.863   6.020
  114TIP3   OH2  284   0.893   0.231   1.781
  114TIP3    H1  285   0.874   0.250   1.689
  114TIP3    H2  286   0.921   0.316   1.818
  115TIP3   OH2  287   7.575   3.212   1.653
  115TIP3    H1  288   7.567   3.301   1.688
  115TIP3    H2  289   7.611   3.224   1.566
  116TIP3   OH2  290   2.449   1.528   3.095
  116TIP3    H1  291   2.493   1.613   3.088
  116TIP3    H2  292   2.519   1.466   3.113
  117TIP3   OH2  293   0.856   6.234   4.128
  117TIP3    H1  294   0.940   6.211   4.168
  117TIP3    H2  295   0.842   6.326   4.151
  118TIP3   OH2  296   2.939   0.288   5.595
  118TIP3    H1  297   2.992   0.319   5.522
  118TIP3    H2  298   3.002   0.254   5.659
  119TIP3   OH2  299   1.701   4.488   1.010
  119TIP3    H1  300   1.633   4.514   0.947
  119TIP3    H2  301   1.778   4.468   0.956
  120TIP3   OH2  302   0.148   5.036   4.672
  120TIP3    H1  303   0.153   4.953   4.624
  120TIP3    H2  304   0.083   5.021   4.740
  121TIP3   OH2  305   8.062   1.110   0.607
  121TIP3    H1  306   8.149   1.147   0.591
  121TIP3    H2  307   8.048   1.049   0.535
  122TIP3   OH2  308   5.520   1.145   6.575
  122TIP3    H1  309   5.460   1.187   6.636
  122TIP3    H2  310   5.528   1.055   6.607
  123TIP3   OH2  311   5.518   6.087   1.580
  123TIP3    H1  312   5.598   6.088   1.527
  123TIP3    H2  313   5.549   6.102   1.670
  124TIP3   OH2  314   2.345   3.870   6.133
  124TIP3    H1  315   2.381   3.784   6.113
  124TIP3    H2  316   2.362   3.883   6.227
  125TIP3   OH2  317   0.276   0.458   2.795
  125TIP3    H1  318   0.230   0.407   2.862
  125TIP3    H2  319   0.207   0.488   2.736
  126TIP3   OH2  320   1.990   6.041   6.596
  126TIP3    H1  321   2.067   6.091   6.623
  126TIP3    H2  322   1.921   6.069   6.657
  127TIP3   OH2  323   6.335   0.755   3.689
  127TIP3    H1  324   6.373   0.668   3.676
  127TIP3    H2  325   6.245   0.747   3.658
  128TIP3   OH2  326   2.073   1.067   5.091
  128TIP3    H1  327   2.055   0.976   5.110
  128TIP3    H2  328   1.987   1.107   5.078
  129TIP3   OH2  329   8.024   5.966   0.089
  129TIP3    H1  330   8.110   5.930   0.066
  129TIP3    H2  331   7.997   6.014   0.011
  130TIP3   OH2  332   2.365   7.504   4.698
  130TIP3    H1  333   2.359   7.424   4.645
  130TIP3    H2  334   2.296   7.560   4.664
  131TIP3   OH2  335   6.251   0.455   5.605
  131TIP3    H1  336   6.260   0.364   5.634
  131TIP3    H2  337   6.276   0.454   5.513
  132TIP3   OH2  338   1.649   2.120   3.279
  132TIP3    H1  339   1.684   2.148   3.195
  132TIP3    H2  340   1.566   2.078   3.258
  133TIP3   OH2  341   0.101   1.473   5.681
  133TIP3    H1  342   0.028   1.428   5.638
  133TIP3    H2  343   0.067   1.496   5.767
  134TIP3   OH2  344   3.932   1.101   4.519
  134TIP3    H1  345   3.934   1.098   4.614
  134TIP3    H2  346   3.840   1.112   4.496
  135TIP3   OH2  347   3.408   7.115   1.067
  135TIP3    H1  348   3.492   7.089   1.029
  135TIP3    H2  349   3.393   7.203   1.034
  136TIP3   OH2  350   1.658   6.007   3.209
  136TIP3    H1  351   1.596   6.075   3.182
  136TIP3    H2  352   1.645   5.936   3.147
  137TIP3   OH2  353   8.203   4.426   4.994
  137TIP3    H1  354   8.121   4.425   5.044
  137TIP3    H2  355   8.261   4.367   5.042
  138TIP3   OH2  356   0.911   7.221   3.869
  138TIP3    H1  357   0.977   7.286   3.894
  138TIP3    H2  358   0.895   7.172   3.949
  139TIP3   OH2  359   6.663   3.732   4.716
  139TIP3    H1  360   6.578   3.728   4.759
  139TIP3    H2  361   6.701   3.814   4.746
  140TIP3   OH2  362   0.972   6.215   4.574
  140TIP3    H1  363   0.957   6.172   4.658
  140TIP3    H2  364   0.899   6.276   4.564
  141TIP3   OH2  365   4.477   5.758   2.939
  141TIP3    H1  366   4.533   5.761   3.016
  141TIP3    H2  367   4.425   5.678   2.950
  142TIP3   OH2  368   3.304   2.188   2.890
  142TIP3    H1  369   3.326   2.098   2.914
  142TIP3    H2  370   3.381   2.219   2.842
  143TIP3   OH2  371   2.428   6.901   0.876
  143TIP3    H1  372   2.490   6.828   0.883
  143TIP3    H2  373   2.469   6.961   0.813
  144TIP3   OH2  374   5.946   4.350   5.605
  144TIP3    H1  375   5.961   4.436   5.644
  144TIP3    H2  376   5.959   4.364   5.511
  145TIP3   OH2  377   3.463   6.060   0.977
  145TIP3    H1  378   3.432   5.972   0.956
  145TIP3    H2  379   3.529   6.047   1.044
  146TIP3   OH2  380   3.277   5.041   1.212
  146TIP3    H1  381   3.274   4.988   1.292
  146TIP3    H2  382   3.314   4.982   1.146
  147TIP3   OH2  383   4.369   1.254   3.998
  147TIP3    H1  384   4.321   1.192   4.053
  147TIP3    H2  385   4.420   1.306   4.059
  148TIP3   OH2  386   8.145   0.893   3.412
  148TIP3    H1  387   8.220   0.841   3.380
  148TIP3    H2  388   8.137   0.869   3.504
  149TIP3   OH2  389   5.068   4.670   2.806
  149TIP3    H1  390   5.000   4.726   2.844
  149TIP3    H2  391   5.128   4.652   2.879
  150TIP3   OH2  392   1.462   3.804   4.057
  150TIP3    H1  393   1.540   3.858   4.069
  150TIP3    H2  394   1.469   3.772   3.967
  151TIP3   OH2  395   3.857   4.060   6.526
  151TIP3    H1  396   3.895   4.022   6.605
  151TIP3    H2  397   3.763   4.063   6.544
  152TIP3   OH2  398   6.447   3.454   5.553
  152TIP3    H1  399   6.402   3.501   5.483
  152TIP3    H2  400   6.520   3.410   5.509
  153TIP3   OH2  401   4.465   0.662   2.210
  153TIP3    H1  402   4.506   0.749   2.210
  153TIP3    H2  403   4.529   0.605   2.167
  154TIP3   OH2  404   7.981   4.676   0.885
  154TIP3    H1  405   7.889   4.683   0.860
  154TIP3    H2  406   8.015   4.603   0.835
  155TIP3   OH2  407   3.726   5.492   4.837
  155TIP3    H1  408   3.685   5.503   4.923
  155TIP3    H2  409   3.658   5.517   4.775
  156TIP3   OH2  410   7.156   3.231   0.685
  156TIP3    H1  411   7.134   3.324   0.683
  156TIP3    H2  412   7.159   3.205   0.593
  157TIP3   OH2  413   0.957   1.064   3.615
  157TIP3    H1  414   0.917   1.149   3.595
  157TIP3    H2  415   1.049   1.085   3.632
  158TIP3   OH2  416   5.583   0.049   3.709
  158TIP3    H1  417   5.640   0.126   3.712
  158TIP3    H2  418   5.504   0.076   3.755
  159TIP3   OH2  419   0.032   0.243   1.305
  159TIP3    H1  420   0.069   0.224   1.218
  159TIP3    H2  421   0.084   0.190   1.365
  160TIP3   OH2  422   5.837   0.999   4.163
  160TIP3    H1  423   5.863   1.086   4.193
  160TIP3    H2  424   5.897   0.980   4.090
  161TIP3   OH2  425   3.736   3.268   5.221
  161TIP3    H1  426   3.720   3.281   5.315
  161TIP3    H2  427   3.728   3.355   5.183
  162TIP3   OH2  428   2.378   1.477   3.720
  162TIP3    H1  429   2.399   1.429   3.640
  162TIP3    H2  430   2.332   1.413   3.774
  163TIP3   OH2  431   2.918   4.420   1.636
  163TIP3    H1  432   2.863   4.448   1.709
  163TIP3    H2  433   2.904   4.326   1.630
  164TIP3   OH2  434   1.008   7.633   0.419
  164TIP3    H1  435   1.083   7.595   0.465
  164TIP3    H2  436   0.951   7.559   0.400
  165TIP3   OH2  437   0.763   2.076   0.577
  165TIP3    H1  438   0.698   2.012   0.607
  165TIP3    H2  439   0.828   2.078   0.647
  166TIP3   OH2  440   6.864   4.728   6.735
  166TIP3    H1  441   6.771   4.729   6.711
  166TIP3    H2  442   6.869   4.665   6.807
  167TIP3   OH2  443   5.319   7.567   2.332
  167TIP3    H1  444   5.365   7.496   2.289
  167TIP3    H2  445   5.374   7.644   2.318
  168TIP3   OH2  446   4.104   4.774   0.357
  168TIP3    H1  447   4.121   4.783   0.263
  168TIP3    H2  448   4.147   4.850   0.396
  169TIP3   OH2  449   5.906   0.863   6.677
  169TIP3    H1  450   5.903   0.936   6.616
  169TIP3    H2  451   5.999   0.847   6.691
  170TIP3   OH2  452   4.181   2.158   0.300
  170TIP3    H1  453   4.156   2.088   0.240
  170TIP3    H2  454   4.098   2.199   0.324
  171TIP3   OH2  455   3.615   1.381   5.115
  171TIP3    H1  456   3.689   1.353   5.168
  171TIP3    H2  457   3.650   1.391   5.027
  172TIP3   OH2  458   5.969   7.194   5.421
  172TIP3    H1  459   5.975   7.254   5.346
  172TIP3    H2  460   5.876   7.172   5.425
  173TIP3   OH2  461   4.728   0.659   1.243
  173TIP3    H1  462   4.755   0.735   1.295
  173TIP3    H2  463   4.663   0.615   1.297
  174TIP3   OH2  464   3.391   7.129   3.834
  174TIP3    H1  465   3.418   7.053   3.783
  174TIP3    H2  466   3.376   7.095   3.922
  175TIP3   OH2  467   5.053   5.016   2.213
  175TIP3    H1  468   4.996   4.940   2.201
  175TIP3    H2  469   5.069   5.020   2.307
  176TIP3   OH2  470   0.925   7.448   4.816
  176TIP3    H1  471   0.906   7.437   4.723
  176TIP3    H2  472   0.852   7.500   4.849
  177TIP3   OH2  473   7.586   4.188   1.823
  177TIP3    H1  474   7.633   4.144   1.752
  177TIP3    H2  475   7.654   4.233   1.873
  178TIP3   OH2  476   7.257   6.449   6.055
  178TIP3    H1  477   7.348   6.424   6.069
  178TIP3    H2  478   7.207   6.397   6.118
  179TIP3   OH2  479   5.390   7.666   1.720
  179TIP3    H1  480   5.452   7.598   1.745
  179TIP3    H2  481   5.335   7.678   1.798
  180TIP3   OH2  482   6.277   2.028   5.987
  180TIP3    H1  483   6.255   1.935   5.981
  180TIP3    H2  484   6.249   2.065   5.903
  181TIP3   OH2  485   2.797   7.728   2.981
  181TIP3    H1  486   2.846   7.646   2.974
  181TIP3    H2  487   2.787   7.743   3.075
  182TIP3   OH2  488   6.428   2.880   0.859
  182TIP3    H1  489   6.513   2.919   0.882
  182TIP3    H2  490   6.450   2.806   0.802
  183TIP3   OH2  491   2.798   1.392   2.000
  183TIP3    H1  492   2.805   1.458   2.069
  183TIP3    H2  493   2.883   1.348   2.000
  184TIP3   OH2  494   3.650   6.264   2.422
  184TIP3    H1  495   3.698   6.210   2.485
  184TIP3    H2  496   3.719   6.305   2.369
  185TIP3   OH2  497   1.863   7.590   4.063
  185TIP3    H1  498   1.932   7.565   4.001
  185TIP3    H2  499   1.846   7.511   4.114
  186TIP3   OH2  500   3.942   3.330   1.919
  186TIP3    H1  501   3.896   3.338   1.836
  186TIP3    H2  502   4.006   3.260   1.905
  187TIP3   OH2  503   0.851   7.101   5.348
  187TIP3    H1  504   0.944   7.106   5.369
  187TIP3    H2  505   0.839   7.014   5.310
  188TIP3   OH2  506   4.507   0.935   3.395
  188TIP3    H1  507   4.577   0.885   3.437
  188TIP3    H2  508   4.473   0.877   3.327
  189TIP3   OH2  509   5.672   4.199   6.196
  189TIP3    H1  510   5.583   4.170   6.175
  189TIP3    H2  511   5.675   4.200   6.291
  190TIP3   OH2  512   0.731   6.241   2.191
  190TIP3    H1  513   0.711   6.149   2.205
  190TIP3    H2  514   0.713   6.283   2.275
  191TIP3   OH2  515   0.172   3.941   0.795
  191TIP3    H1  516   0.077   3.938   0.793
  191TIP3    H2  517   0.195   4.017   0.740
  192TIP3   OH2  518   7.008   4.245   0.270
  192TIP3    H1  519   7.099   4.263   0.245
  192TIP3    H2  520   6.956   4.293   0.206
  193TIP3   OH2  521   0.530   7.276   1.897
  193TIP3    H1  522   0.501   7.245   1.983
  193TIP3    H2  523   0.599   7.215   1.872
  194TIP3   OH2  524   5.746   1.866   3.735
  194TIP3    H1  525   5.798   1.797   3.775
  194TIP3    H2  526   5.784   1.947   3.769
  195TIP3   OH2  527   0.364   3.031   5.770
  195TIP3    H1  528   0.436   3.086   5.742
  195TIP3    H2  529   0.392   2.942   5.749
  196TIP3   OH2  530   7.985   3.606   4.985
  196TIP3    H1  531   7.897   3.571   4.998
  196TIP3    H2  532   8.041   3.528   4.978
  197TIP3   OH2  533   2.672   1.716   5.697
  197TIP3    H1  534   2.667   1.811   5.703
  197TIP3    H2  535   2.618   1.685   5.769
  198TIP3   OH2  536   5.864   6.372   5.825
  198TIP3    H1  537   5.800   6.301   5.821
  198TIP3    H2  538   5.928   6.350   5.757
  199TIP3   OH2  539   6.255   7.255   4.675
  199TIP3    H1  540   6.324   7.199   4.640
  199TIP3    H2  541   6.195   7.269   4.602
  200TIP3   OH2  542   2.633   2.527   5.425
  200TIP3    H1  543   2.645   2.436   5.397
  200TIP3    H2  544   2.719   2.552   5.459
  201TIP3   OH2  545   4.058   5.924   4.166
  201TIP3    H1  546   4.129   5.986   4.182
  201TIP3    H2  547   4.087   5.843   4.208
  202TIP3   OH2  548   6.940   1.529   5.553
  202TIP3    H1  549   7.033   1.511   5.568
  202TIP3    H2  550   6.898   1.444   5.560
  203TIP3   OH2  551   5.317   3.787   1.797
  203TIP3    H1  552   5.295   3.880   1.803
  203TIP3    H2  553   5.296   3.764   1.706
  204TIP3   OH2  554   2.654   6.906   6.525
  204TIP3    H1  555   2.614   6.823   6.499
  204TIP3    H2  556   2.581   6.960   6.554
  205TIP3   OH2  557   3.727   0.038   3.459
  205TIP3    H1  558   3.760   0.012   3.373
  205TIP3    H2  559   3.692   0.125   3.446
  206TIP3   OH2  560   6.754   3.592   4.276
  206TIP3    H1  561   6.702   3.522   4.237
  206TIP3    H2  562   6.764   3.567   4.368
  207TIP3   OH2  563   7.267   1.501   6.148
  207TIP3    H1  564   7.310   1.579   6.113
  207TIP3    H2  565   7.196   1.535   6.203
  208TIP3   OH2  566   2.552   6.945   3.745
  208TIP3    H1  567   2.543   7.037   3.770
  208TIP3    H2  568   2.564   6.947   3.651
  209TIP3   OH2  569   3.883   2.190   3.946
  209TIP3    H1  570   3.947   2.127   3.979
  209TIP3    H2  571   3.920   2.276   3.968
  210TIP3   OH2  572   1.524   4.482   4.458
  210TIP3    H1  573   1.531   4.390   4.484
  210TIP3    H2  574   1.434   4.491   4.427
  211TIP3   OH2  575   2.764   1.077   5.714
  211TIP3    H1  576   2.773   1.172   5.707
  211TIP3    H2  577   2.759   1.047   5.623
  212TIP3   OH2  578   7.211   1.446   5.704
  212TIP3    H1  579   7.290   1.406   5.667
  212TIP3    H2  580   7.196   1.399   5.786
  213TIP3   OH2  581   7.607   4.344   2.654
  213TIP3    H1  582   7.669   4.333   2.726
  213TIP3    H2  583   7.577   4.255   2.634
  214TIP3   OH2  584   4.027   3.768   0.801
  214TIP3    H1  585   3.986   3.786   0.716
  214TIP3    H2  586   4.087   3.841   0.815
  215TIP3   OH2  587   7.576   4.082   1.458
  215TIP3    H1  588   7.491   4.074   1.416
  215TIP3    H2  589   7.585   4.176   1.475
  216TIP3   OH2  590   1.173   0.636   5.259
  216TIP3    H1  591   1.251   0.689   5.244
  216TIP3    H2  592   1.110   0.698   5.298
  217TIP3   OH2  593   6.802   5.036   6.676
  217TIP3    H1  594   6.797   4.972   6.605
  217TIP3    H2  595   6.864   4.999   6.738
  218TIP3   OH2  596   4.380   0.520   2.702
  218TIP3    H1  597   4.456   0.544   2.647
  218TIP3    H2  598   4.390   0.426   2.717
  219TIP3   OH2  599   7.374   4.458   6.446
  219TIP3    H1  600   7.302   4.451   6.509
  219TIP3    H2  601   7.414   4.543   6.464
  220TIP3   OH2  602   4.176   7.459   0.592
  220TIP3    H1  603   4.193   7.438   0.684
  220TIP3    H2  604   4.200   7.551   0.583
  221TIP3   OH2  605   2.568   7.652   3.164
  221TIP3    H1  606   2.474   7.634   3.157
  221TIP3    H2  607   2.573   7.742   3.196
  222TIP3   OH2  608   4.747   2.599   2.388
  222TIP3    H1  609   4.830   2.644   2.405
  222TIP3    H2  610   4.709   2.646   2.313
  223TIP3   OH2  611   5.432   6.677   4.665
  223TIP3    H1  612   5.406   6.649   4.577
  223TIP3    H2  613   5.371   6.630   4.723
  224TIP3   OH2  614   0.168   1.320   2.814
  224TIP3    H1  615   0.103   1.313   2.884
  224TIP3    H2  616   0.152   1.243   2.760
  225TIP3   OH2  617   1.599   3.830   2.529
  225TIP3    H1  618   1.566   3.798   2.446
  225TIP3    H2  619   1.524   3.828   2.588
  226TIP3   OH2  620   5.163   0.698   5.058
  226TIP3    H1  621   5.112   0.763   5.108
  226TIP3    H2  622   5.229   0.668   5.120
  227TIP3   OH2  623   5.398   5.334   0.787
  227TIP3    H1  624   5.490   5.329   0.763
  227TIP3    H2  625   5.365   5.245   0.773
  228TIP3   OH2  626   3.762   7.253   0.139
  228TIP3    H1  627   3.820   7.177   0.150
  228TIP3    H2  628   3.688   7.235   0.196
  229TIP3   OH2  629   4.441   2.379   2.949
  229TIP3    H1  630   4.387   2.321   3.003
  229TIP3    H2  631   4.485   2.319   2.889
  230TIP3   OH2  632   2.185   4.564   5.835
  230TIP3    H1  633   2.234   4.639   5.867
  230TIP3    H2  634   2.252   4.507   5.797
  231TIP3   OH2  635   6.747   3.012   0.101
  231TIP3    H1  636   6.688   2.955   0.151
  231TIP3    H2  637   6.696   3.091   0.086
  232TIP3   OH2  638   5.334   7.795   3.577
  232TIP3    H1  639   5.423   7.811   3.607
  232TIP3    H2  640   5.343   7.778   3.483
  233TIP3   OH2  641   7.928   4.996   5.013
  233TIP3    H1  642   7.933   4.938   5.089
  233TIP3    H2  643   7.841   5.037   5.021
  234TIP3   OH2  644   4.144   0.193   6.469
  234TIP3    H1  645   4.071   0.233   6.422
  234TIP3    H2  646   4.222   0.227   6.425
  235TIP3   OH2  647   7.064   5.521   3.424
  235TIP3    H1  648   7.037   5.610   3.402
  235TIP3    H2  649   7.139   5.533   3.482
  236TIP3   OH2  650   8.057   2.037   5.788
  236TIP3    H1  651   8.045   2.079   5.702
  236TIP3    H2  652   8.079   1.946   5.767
  237TIP3   OH2  653   3.195   2.587   6.082
  237TIP3    H1  654   3.163   2.590   5.992
  237TIP3    H2  655   3.124   2.547   6.132
  238TIP3   OH2  656   2.633   6.214   2.928
  238TIP3    H1  657   2.712   6.209   2.981
  238TIP3    H2  658   2.655   6.167   2.847
  239TIP3   OH2  659   7.209   1.618   4.041
  239TIP3    H1  660   7.222   1.529   4.074
  239TIP3    H2  661   7.289   1.665   4.067
  240TIP3   OH2  662   1.654   4.482   0.319
  240TIP3    H1  663   1.749   4.471   0.324
  240TIP3    H2  664   1.632   4.462   0.228
  241TIP3   OH2  665   4.969   4.215   1.825
  241TIP3    H1  666   5.058   4.203   1.792
  241TIP3    H2  667   4.977   4.199   1.919
  242TIP3   OH2  668   0.519   2.740   1.746
  242TIP3    H1  669   0.535   2.690   1.826
  242TIP3    H2  670   0.593   2.800   1.740
  243TIP3   OH2  671   3.759   2.157   0.723
  243TIP3    H1  672   3.683   2.204   0.758
  243TIP3    H2  673   3.747   2.158   0.629
  244TIP3   OH2  674   2.072   0.286   2.347
  244TIP3    H1  675   1.978   0.275   2.363
  244TIP3    H2  676   2.113   0.246   2.424
  245TIP3   OH2  677   5.503   6.265   4.819
  245TIP3    H1  678   5.528   6.344   4.770
  245TIP3    H2  679   5.496   6.293   4.910
  246TIP3   OH2  680   2.813   3.848   3.593
  246TIP3    H1  681   2.880   3.823   3.656
  246TIP3    H2  682   2.741   3.881   3.646
  247TIP3   OH2  683   7.721   7.113   5.023
  247TIP3    H1  684   7.672   7.173   5.080
  247TIP3    H2  685   7.768   7.057   5.084
  248TIP3   OH2  686   3.199   2.066   1.729
  248TIP3    H1  687   3.161   2.036   1.646
  248TIP3    H2  688   3.250   2.144   1.705
  249TIP3   OH2  689   1.482   5.697   1.202
  249TIP3    H1  690   1.550   5.764   1.209
  249TIP3    H2  691   1.514   5.638   1.134
  250TIP3   OH2  692   8.131   7.150   4.910
  250TIP3    H1  693   8.066   7.211   4.944
  250TIP3    H2  694   8.184   7.202   4.849
  251TIP3   OH2  695   6.869   3.290   2.030
  251TIP3    H1  696   6.957   3.263   2.005
  251TIP3    H2  697   6.828   3.317   1.948
  252TIP3   OH2  698   2.624   5.340   3.704
  252TIP3    H1  699   2.718   5.326   3.700
  252TIP3    H2  700   2.586   5.260   3.668
  253TIP3   OH2  701   3.900   1.965   4.918
  253TIP3    H1  702   3.916   2.059   4.925
  253TIP3    H2  703   3.955   1.926   4.986
  254TIP3   OH2  704   6.906   4.667   2.392
  254TIP3    H1  705   6.993   4.687   2.428
  254TIP3    H2  706   6.884   4.745   2.341
  255TIP3   OH2  707   1.821   6.415   4.655
  255TIP3    H1  708   1.816   6.375   4.568
  255TIP3    H2  709   1.851   6.345   4.713
  256TIP3   OH2  710   5.083   6.485   1.969
  256TIP3    H1  711   5.022   6.508   1.899
  256TIP3    H2  712   5.053   6.534   2.045
  257TIP3   OH2  713   6.426   4.169   0.471
  257TIP3    H1  714   6.508   4.119   0.470
  257TIP3    H2  715   6.414   4.195   0.562
  258TIP3   OH2  716   1.865   5.711   6.171
  258TIP3    H1  717   1.806   5.745   6.105
  258TIP3    H2  718   1.923   5.651   6.124
  259TIP3   OH2  719   7.506   5.194   1.694
  259TIP3    H1  720   7.468   5.203   1.607
  259TIP3    H2  721   7.538   5.282   1.716
  260TIP3   OH2  722   2.100   3.946   3.545
  260TIP3    H1  723   2.078   4.033   3.511
  260TIP3    H2  724   2.196   3.946   3.549
  261TIP3   OH2  725   5.476   2.391   0.091
  261TIP3    H1  726   5.540   2.417   0.025
  261TIP3    H2  727   5.423   2.325   0.048
  262TIP3   OH2  728   0.257   4.179   6.286
  262TIP3    H1  729   0.205   4.185   6.366
  262TIP3    H2  730   0.335   4.130   6.311
  263TIP3   OH2  731   4.435   3.311   4.399
  263TIP3    H1  732   4.341   3.304   4.417
  263TIP3    H2  733   4.444   3.387   4.342
  264TIP3   OH2  734   4.733   3.959   5.679
  264TIP3    H1  735   4.656   3.961   5.737
  264TIP3    H2  736   4.760   4.051   5.672
  265TIP3   OH2  737   4.733   6.685   4.322
  265TIP3    H1  738   4.657   6.655   4.274
  265TIP3    H2  739   4.804   6.684   4.258
  266TIP3   OH2  740   6.458   0.938   3.944
  266TIP3    H1  741   6.389   0.911   3.884
  266TIP3    H2  742   6.528   0.972   3.888
  267TIP3   OH2  743   7.409   4.107   4.925
  267TIP3    H1  744   7.466   4.091   4.849
  267TIP3    H2  745   7.468   4.098   5.001
  268TIP3   OH2  746   7.378   4.815   3.558
  268TIP3    H1  747   7.458   4.805   3.507
  268TIP3    H2  748   7.331   4.888   3.517
  269TIP3   OH2  749   6.245   6.520   0.808
  269TIP3    H1  750   6.231   6.615   0.811
  269TIP3    H2  751   6.180   6.488   0.746
  270TIP3   OH2  752   3.371   4.483   6.271
  270TIP3    H1  753   3.439   4.534   6.227
  270TIP3    H2  754   3.293   4.539   6.267
  271TIP3   OH2  755   6.365   4.053   6.350
  271TIP3    H1  756   6.300   4.012   6.293
  271TIP3    H2  757   6.446   4.055   6.298
  272TIP3   OH2  758   4.917   0.992   4.986
  272TIP3    H1  759   4.831   0.952   4.992
  272TIP3    H2  760   4.970   0.928   4.937
  273TIP3   OH2  761   7.409   3.608   2.193
  273TIP3    H1  762   7.363   3.525   2.202
  273TIP3    H2  763   7.473   3.608   2.265
  274TIP3   OH2  764   3.449   6.235   3.251
  274TIP3    H1  765   3.504   6.273   3.320
  274TIP3    H2  766   3.459   6.140   3.263
  275TIP3   OH2  767   4.567   2.218   5.788
  275TIP3    H1  768   4.639   2.156   5.791
  275TIP3    H2  769   4.520   2.205   5.871
  276TIP3   OH2  770   2.210   2.654   4.811
  276TIP3    H1  771   2.298   2.672   4.844
  276TIP3    H2  772   2.186   2.733   4.761
  277TIP3   OH2  773   0.140   0.315   4.339
  277TIP3    H1  774   0.136   0.406   4.309
  277TIP3    H2  775   0.148   0.264   4.258
  278TIP3   OH2  776   6.843   1.124   5.168
  278TIP3    H1  777   6.890   1.206   5.183
  278TIP3    H2  778   6.911   1.056   5.172
  279TIP3   OH2  779   5.223   1.366   2.521
  279TIP3    H1  780   5.236   1.271   2.517
  279TIP3    H2  781   5.128   1.377   2.517
  280TIP3   OH2  782   2.615   1.962   4.314
  280TIP3    H1  783   2.641   2.023   4.245
  280TIP3    H2  784   2.628   1.876   4.275
  281TIP3   OH2  785   0.601   6.630   5.114
  281TIP3    H1  786   0.675   6.638   5.053
  281TIP3    H2  787   0.600   6.538   5.139
  282TIP3   OH2  788   2.060   5.162   4.519
  282TIP3    H1  789   1.987   5.123   4.566
  282TIP3    H2  790   2.035   5.158   4.427
  283TIP3   OH2  791   7.728   2.530   1.078
  283TIP3    H1  792   7.638   2.545   1.048
  283TIP3    H2  793   7.719   2.473   1.154
  284TIP3   OH2  794   0.448   1.176   3.815
  284TIP3    H1  795   0.446   1.159   3.909
  284TIP3    H2  796   0.359   1.206   3.794
  285TIP3   OH2  797   3.299   3.769   0.329
  285TIP3    H1  798   3.220   3.820   0.311
  285TIP3    H2  799   3.364   3.802   0.267
  286TIP3   OH2  800   5.417   6.035   5.803
  286TIP3    H1  801   5.386   5.999   5.886
  286TIP3    H2  802   5.481   6.102   5.829
  287TIP3   OH2  803   3.057   7.342   6.214
  287TIP3    H1  804   2.981   7.399   6.206
  287TIP3    H2  805   3.066   7.326   6.308
  288TIP3   OH2  806   5.201   3.754   4.629
  288TIP3    H1  807   5.134   3.730   4.693
  288TIP3    H2  808   5.205   3.849   4.633
  289TIP3   OH2  809   3.714   2.567   6.715
  289TIP3    H1  810   3.714   2.609   6.801
  289TIP3    H2  811   3.708   2.639   6.652
  290TIP3   OH2  812   6.356   5.270   3.424
  290TIP3    H1  813   6.328   5.193   3.472
  290TIP3    H2  814   6.439   5.295   3.465
  291TIP3   OH2  815   2.844   1.483   6.723
  291TIP3    H1  816   2.814   1.488   6.632
  291TIP3    H2  817   2.768   1.508   6.775
  292TIP3   OH2  818   8.118   0.535   4.916
  292TIP3    H1  819   8.147   0.456   4.870
  292TIP3    H2  820   8.102   0.506   5.006
  293TIP3   OH2  821   0.116   5.042   1.881
  293TIP3    H1  822   0.050   5.112   1.881
  293TIP3    H2  823   0.065   4.961   1.884
  294TIP3   OH2  824   6.727   3.107   6.794
  294TIP3    H1  825   6.668   3.170   6.752
  294TIP3    H2  826   6.797   3.094   6.731
  295TIP3   OH2  827   4.692   0.254   4.669
  295TIP3    H1  828   4.613   0.220   4.711
  295TIP3    H2  829   4.677   0.348   4.662
  296TIP3   OH2  830   5.184   0.563   2.444
  296TIP3    H1  831   5.257   0.521   2.398
  296TIP3    H2  832   5.111   0.503   2.435
  297TIP3   OH2  833   1.635   7.705   2.343
  297TIP3    H1  834   1.607   7.743   2.260
  297TIP3    H2  835   1.659   7.615   2.321
  298TIP3   OH2  836   2.816   5.743   4.438
  298TIP3    H1  837   2.732   5.711   4.403
  298TIP3    H2  838   2.859   5.784   4.363
  299TIP3   OH2  839   4.730   4.137   2.757
  299TIP3    H1  840   4.639   4.152   2.783
  299TIP3    H2  841   4.771   4.224   2.763
  300TIP3   OH2  842   0.352   7.354   4.138
  300TIP3    H1  843   0.392   7.270   4.161
  300TIP3    H2  844   0.417   7.419   4.163
  301TIP3   OH2  845   6.267   5.233   5.564
  301TIP3    H1  846   6.259   5.216   5.658
  301TIP3    H2  847   6.245   5.326   5.555
  302TIP3   OH2  848   2.864   4.715   0.310
  302TIP3    H1  849   2.920   4.760   0.373
  302TIP3    H2  850   2.801   4.667   0.364
  303TIP3   OH2  851   4.082   5.530   4.937
  303TIP3    H1  852   4.046   5.476   4.867
  303TIP3    H2  853   4.168   5.557   4.906
  304TIP3   OH2  854   3.068   3.311   0.643
  304TIP3    H1  855   3.057   3.233   0.698
  304TIP3    H2  856   3.078   3.383   0.705
  305TIP3   OH2  857   2.958   0.308   1.447
  305TIP3    H1  858   2.908   0.342   1.521
  305TIP3    H2  859   2.955   0.377   1.381
  306TIP3   OH2  860   7.507   1.388   0.408
  306TIP3    H1  861   7.415   1.376   0.433
  306TIP3    H2  862   7.524   1.316   0.347
  307TIP3   OH2  863   1.946   4.068   6.261
  307TIP3    H1  864   2.031   4.077   6.304
  307TIP3    H2  865   1.898   4.005   6.315
  308TIP3   OH2  866   6.764   5.237   4.935
  308TIP3    H1  867   6.724   5.156   4.901
  308TIP3    H2  868   6.709   5.262   5.008
  309TIP3   OH2  869   1.640   7.475   2.171
  309TIP3    H1  870   1.595   7.511   2.095
  309TIP3    H2  871   1.709   7.419   2.134
  310TIP3   OH2  872   7.991   5.469   2.678
  310TIP3    H1  873   8.003   5.396   2.739
  310TIP3    H2  874   8.040   5.541   2.717
  311TIP3   OH2  875   2.176   4.026   2.488
  311TIP3    H1  876   2.115   4.044   2.417
  311TIP3    H2  877   2.258   4.002   2.444
  312TIP3   OH2  878   1.248   2.522   3.485
  312TIP3    H1  879   1.305   2.451   3.456
  312TIP3    H2  880   1.308   2.592   3.510
  313TIP3   OH2  881   3.235   5.074   2.646
  313TIP3    H1  882   3.317   5.050   2.603
  313TIP3    H2  883   3.252   5.062   2.739
  314TIP3   OH2  884   7.667   0.163   6.234
  314TIP3    H1  885   7.690   0.204   6.151
  314TIP3    H2  886   7.716   0.080   6.234
  315TIP3   OH2  887   3.109   3.860   0.160
  315TIP3    H1  888   3.129   3.935   0.104
  315TIP3    H2  889   3.081   3.792   0.099
  316TIP3   OH2  890   4.505   3.024   5.533
  316TIP3    H1  891   4.508   2.936   5.571
  316TIP3    H2  892   4.459   3.012   5.450
  317TIP3   OH2  893   3.596   4.081   6.597
  317TIP3    H1  894   3.523   4.086   6.659
  317TIP3    H2  895   3.576   4.150   6.532
  318TIP3   OH2  896   0.075   5.004   6.318
  318TIP3    H1  897   0.031   4.990   6.402
  318TIP3    H2  898   0.081   5.099   6.310
  319TIP3   OH2  899   4.597   5.695   4.917
  319TIP3    H1  900   4.623   5.675   4.827
  319TIP3    H2  901   4.603   5.790   4.923
  320TIP3   OH2  902   7.506   6.215   4.304
  320TIP3    H1  903   7.495   6.120   4.306
  320TIP3    H2  904   7.416   6.248   4.295
  321TIP3   OH2  905   5.119   7.534   1.528
  321TIP3    H1  906   5.103   7.622   1.562
  321TIP3    H2  907   5.101   7.476   1.603
  322TIP3   OH2  908   4.349   7.662   4.640
  322TIP3    H1  909   4.419   7.721   4.610
  322TIP3    H2  910   4.271   7.692   4.594
  323TIP3   OH2  911   3.296   6.026   2.973
  323TIP3    H1  912   3.332   5.955   3.027
  323TIP3    H2  913   3.238   6.074   3.032
  324TIP3   OH2  914   6.681   3.244   2.235
  324TIP3    H1  915   6.612   3.180   2.218
  324TIP3    H2  916   6.736   3.240   2.156
  325TIP3   OH2  917   3.561   3.722   0.155
  325TIP3    H1  918   3.619   3.712   0.230
  325TIP3    H2  919   3.550   3.817   0.146
  326TIP3   OH2  920   7.373   1.328   0.110
  326TIP3    H1  921   7.337   1.255   0.160
  326TIP3    H2  922   7.468   1.315   0.115
  327TIP3   OH2  923   7.501   7.793   2.327
  327TIP3    H1  924   7.577   7.749   2.365
  327TIP3    H2  925   7.470   7.852   2.396
  328TIP3   OH2  926   1.936   0.618   2.224
  328TIP3    H1  927   1.910   0.527   2.209
  328TIP3    H2  928   1.955   0.652   2.136
  329TIP3   OH2  929   2.967   0.814   0.204
  329TIP3    H1  930   2.920   0.895   0.185
  329TIP3    H2  931   2.962   0.805   0.299
  330TIP3   OH2  932   6.465   2.183   5.143
  330TIP3    H1  933   6.537   2.239   5.111
  330TIP3    H2  934   6.429   2.231   5.217
  331TIP3   OH2  935   0.223   6.999   6.198
  331TIP3    H1  936   0.301   7.010   6.145
  331TIP3    H2  937   0.233   6.912   6.238
  332TIP3   OH2  938   1.455   4.598   0.489
  332TIP3    H1  939   1.368   4.589   0.451
  332TIP3    H2  940   1.511   4.543   0.434
  333TIP3   OH2  941   5.946   5.668   2.333
  333TIP3    H1  942   5.873   5.678   2.393
  333TIP3    H2  943   5.942   5.576   2.306
  334TIP3   OH2  944   5.937   1.885   1.356
  334TIP3    H1  945   5.920   1.834   1.435
  334TIP3    H2  946   5.952   1.974   1.388
  335TIP3   OH2  947   3.085   4.967   6.007
  335TIP3    H1  948   3.073   4.911   6.083
  335TIP3    H2  949   3.103   5.054   6.043
  336TIP3   OH2  950   6.259   1.985   5.082
  336TIP3    H1  951   6.285   2.002   4.992
  336TIP3    H2  952   6.309   2.047   5.134
  337TIP3   OH2  953   0.383   6.720   1.170
  337TIP3    H1  954   0.297   6.743   1.207
  337TIP3    H2  955   0.427   6.804   1.156
  338TIP3   OH2  956   3.547   6.899   3.107
  338TIP3    H1  957   3.634   6.873   3.138
  338TIP3    H2  958   3.488   6.876   3.179
  339TIP3   OH2  959   2.172   0.243   2.063
  339TIP3    H1  960   2.154   0.315   2.003
  339TIP3    H2  961   2.159   0.281   2.150
  340TIP3   OH2  962   6.529   5.994   1.733
  340TIP3    H1  963   6.622   6.016   1.739
  340TIP3    H2  964   6.523   5.903   1.760
  341TIP3   OH2  965   0.063   6.232   6.192
  341TIP3    H1  966   0.148   6.275   6.195
  341TIP3    H2  967   0.004   6.290   6.240
  342TIP3   OH2  968   6.841   5.596   6.025
  342TIP3    H1  969   6.885   5.539   5.961
  342TIP3    H2  970   6.804   5.667   5.972
  343TIP3   OH2  971   2.888   5.282  -0.026
  343TIP3    H1  972   2.832   5.205  -0.034
  343TIP3    H2  973   2.901   5.292   0.069
  344TIP3   OH2  974   7.366   7.534   6.775
  344TIP3    H1  975   7.455   7.567   6.771
  344TIP3    H2  976   7.366   7.457   6.718
  345TIP3   OH2  977   6.814   2.320   0.788
  345TIP3    H1  978   6.776   2.282   0.709
  345TIP3    H2  979   6.777   2.268   0.860
  346TIP3   OH2  980   1.625   3.514   5.543
  346TIP3    H1  981   1.683   3.517   5.467
  346TIP3    H2  982   1.538   3.498   5.506
  347TIP3   OH2  983   5.463   3.504   1.952
  347TIP3    H1  984   5.384   3.504   1.898
  347TIP3    H2  985   5.443   3.565   2.023
  348TIP3   OH2  986   4.180   0.993   6.168
  348TIP3    H1  987   4.093   0.984   6.128
  348TIP3    H2  988   4.212   1.078   6.135
  349TIP3   OH2  989   8.017   3.193   2.156
  349TIP3    H1  990   7.926   3.168   2.172
  349TIP3    H2  991   8.053   3.122   2.104
  350TIP3   OH2  992   0.595   6.116   4.186
  350TIP3    H1  993   0.685   6.147   4.177
  350TIP3    H2  994   0.572   6.084   4.099
  351TIP3   OH2  995   6.870   7.779   3.049
  351TIP3    H1  996   6.945   7.780   3.109
  351TIP3    H2  997   6.867   7.868   3.013
  352TIP3   OH2  998   8.145   5.797   5.939
  352TIP3    H1  999   8.104   5.786   5.853
  352TIP3    H2 1000   8.229   5.752   5.931
  353TIP3   OH2 1001   6.700   1.354   0.049
  353TIP3    H1 1002   6.700   1.397  -0.036
  353TIP3    H2 1003   6.781   1.303   0.051
  354TIP3   OH2 1004   0.809   6.748   2.076
  354TIP3    H1 1005   0.776   6.774   1.990
  354TIP3    H2 1006   0.779   6.658   2.088
  355TIP3   OH2 1007   7.991   1.375   2.300
  355TIP3    H1 1008   7.910   1.419   2.272
  355TIP3    H2 1009   8.049   1.380   2.224
  356TIP3   OH2 1010   7.837   1.842   2.610
  356TIP3    H1 1011   7.890   1.873   2.683
  356TIP3    H2 1012   7.780   1.915   2.588
  357TIP3   OH2 1013   1.610   0.767   5.493
  357TIP3    H1 1014   1.554   0.798   5.563
  357TIP3    H2 1015   1.699   0.768   5.530
  358TIP3   OH2 1016   3.429   4.184   2.388
  358TIP3    H1 1017   3.397   4.093   2.387
  358TIP3    H2 1018   3.353   4.236   2.359
  359TIP3   OH2 1019   2.503   1.038   1.359
  359TIP3    H1 1020   2.443   0.964   1.349
  359TIP3    H2 1021   2.514   1.048   1.453
  360TIP3   OH2 1022   2.638   2.745   4.689
  360TIP3    H1 1023   2.633   2.813   4.622
  360TIP3    H2 1024   2.731   2.737   4.708
  361TIP3   OH2 1025   5.075   2.285   1.131
  361TIP3    H1 1026   5.035   2.303   1.046
  361TIP3    H2 1027   5.114   2.198   1.122
  362TIP3   OH2 1028   4.702   4.173   5.021
  362TIP3    H1 1029   4.681   4.082   5.002
  362TIP3    H2 1030   4.792   4.171   5.053
  363TIP3   OH2 1031   3.650   3.273   4.518
  363TIP3    H1 1032   3.581   3.235   4.572
  363TIP3    H2 1033   3.665   3.207   4.449
  364TIP3   OH2 1034   5.066   5.535   2.357
  364TIP3    H1 1035   5.018   5.572   2.283
  364TIP3    H2 1036   5.113   5.609   2.394
  365TIP3   OH2 1037   0.200   2.682   6.551
  365TIP3    H1 1038   0.156   2.609   6.593
  365TIP3    H2 1039   0.200   2.660   6.458
  366TIP3   OH2 1040   1.911   0.728   0.200
  366TIP3    H1 1041   1.849   0.801   0.203
  366TIP3    H2 1042   1.861   0.656   0.162
  367TIP3   OH2 1043   2.005   5.494   2.190
  367TIP3    H1 1044   1.958   5.451   2.262
  367TIP3    H2 1045   2.064   5.556   2.233
  368TIP3   OH2 1046   0.171   3.546   4.127
  368TIP3    H1 1047   0.179   3.463   4.174
  368TIP3    H2 1048   0.085   3.543   4.087
  369TIP3   OH2 1049   4.713   5.042   1.652
  369TIP3    H1 1050   4.764   4.978   1.603
  369TIP3    H2 1051   4.644   5.069   1.590
  370TIP3   OH2 1052   6.843   3.189   5.405
  370TIP3    H1 1053   6.905   3.142   5.348
  370TIP3    H2 1054   6.878   3.278   5.408
  371TIP3   OH2 1055   2.861   0.396   1.691
  371TIP3    H1 1056   2.810   0.456   1.746
  371TIP3    H2 1057   2.950   0.429   1.695
  372TIP3   OH2 1058   7.951   0.529   3.924
  372TIP3    H1 1059   7.941   0.455   3.864
  372TIP3    H2 1060   7.937   0.491   4.011
  373TIP3   OH2 1061   2.426   1.015   5.719
  373TIP3    H1 1062   2.449   0.985   5.807
  373TIP3    H2 1063   2.394   1.104   5.732
  374TIP3   OH2 1064   1.961   0.815   5.186
  374TIP3    H1 1065   2.048   0.827   5.224
  374TIP3    H2 1066   1.969   0.736   5.132
  375TIP3   OH2 1067   1.410   4.739   1.565
  375TIP3    H1 1068   1.371   4.732   1.652
  375TIP3    H2 1069   1.404   4.651   1.528
  376TIP3   OH2 1070   6.425   7.031   3.720
  376TIP3    H1 1071   6.473   7.015   3.638
  376TIP3    H2 1072   6.492   7.030   3.788
  377TIP3   OH2 1073   0.513   2.579   3.623
  377TIP3    H1 1074   0.585   2.564   3.561
  377TIP3    H2 1075   0.557   2.591   3.707
  378TIP3   OH2 1076   7.572   7.771   1.820
  378TIP3    H1 1077   7.660   7.740   1.839
  378TIP3    H2 1078   7.537   7.798   1.905
  379TIP3   OH2 1079   5.862   0.481   6.663
  379TIP3    H1 1080   5.900   0.529   6.738
  379TIP3    H2 1081   5.890   0.390   6.677
  380TIP3   OH2 1082   7.633   3.224   1.390
  380TIP3    H1 1083   7.586   3.215   1.308
  380TIP3    H2 1084   7.721   3.251   1.364
  381TIP3   OH2 1085   4.766   3.912   4.994
  381TIP3    H1 1086   4.742   3.851   4.925
  381TIP3    H2 1087   4.850   3.880   5.026
  382TIP3   OH2 1088   2.953   4.261   1.954
  382TIP3    H1 1089   2.967   4.236   2.046
  382TIP3    H2 1090   2.868   4.224   1.932
  383TIP3   OH2 1091   6.612   1.730   2.821
  383TIP3    H1 1092   6.563   1.811   2.807
  383TIP3    H2 1093   6.556   1.662   2.784
  384TIP3   OH2 1094   5.361   4.438   0.206
  384TIP3    H1 1095   5.326   4.364   0.157
  384TIP3    H2 1096   5.330   4.425   0.295
  385TIP3   OH2 1097   2.536   0.307   4.368
  385TIP3    H1 1098   2.545   0.286   4.460
  385TIP3    H2 1099   2.615   0.272   4.327
  386TIP3   OH2 1100   0.249   0.123   0.308
  386TIP3    H1 1101   0.215   0.110   0.396
  386TIP3    H2 1102   0.337   0.085   0.310
  387TIP3   OH2 1103   4.095   4.038   0.403
  387TIP3    H1 1104   4.137   4.122   0.423
  387TIP3    H2 1105   4.017   4.061   0.353
  388TIP3   OH2 1106   4.214   7.467   1.952
  388TIP3    H1 1107   4.231   7.375   1.974
  388TIP3    H2 1108   4.164   7.501   2.027
  389TIP3   OH2 1109   4.534   5.168   0.114
  389TIP3    H1 1110   4.628   5.154   0.128
  389TIP3    H2 1111   4.530   5.232   0.043
  390TIP3   OH2 1112   0.692   1.039   2.640
  390TIP3    H1 1113   0.742   1.030   2.559
  390TIP3    H2 1114   0.702   0.954   2.684
  391TIP3   OH2 1115   0.893   4.991   4.911
  391TIP3    H1 1116   0.915   4.906   4.948
  391TIP3    H2 1117   0.892   5.051   4.986
  392TIP3   OH2 1118   5.672   4.291   2.494
  392TIP3    H1 1119   5.766   4.296   2.476
  392TIP3    H2 1120   5.641   4.218   2.440
  393TIP3   OH2 1121   1.831   0.643   6.305
  393TIP3    H1 1122   1.869   0.556   6.293
  393TIP3    H2 1123   1.835   0.658   6.400
  394TIP3   OH2 1124   4.887   3.037   3.969
  394TIP3    H1 1125   4.794   3.058   3.966
  394TIP3    H2 1126   4.902   2.982   3.893
  395TIP3   OH2 1127   4.885   4.248   4.152
  395TIP3    H1 1128   4.876   4.236   4.058
  395TIP3    H2 1129   4.794   4.252   4.184
  396TIP3   OH2 1130   6.798   6.249  -0.002
  396TIP3    H1 1131   6.736   6.227   0.068
  396TIP3    H2 1132   6.847   6.168  -0.018
  397TIP3   OH2 1133   8.267  -0.024   5.940
  397TIP3    H1 1134   8.174  -0.005   5.928
  397TIP3    H2 1135   8.288   0.015   6.025
  398TIP3   OH2 1136   4.210   1.502   1.648
  398TIP3    H1 1137   4.274   1.432   1.641
  398TIP3    H2 1138   4.239   1.568   1.585
  399TIP3   OH2 1139   1.396   2.765   4.826
  399TIP3    H1 1140   1.431   2.737   4.742
  399TIP3    H2 1141   1.430   2.854   4.838
  400TIP3   OH2 1142   7.915   3.234   4.190
  400TIP3    H1 1143   7.827   3.269   4.175
  400TIP3    H2 1144   7.904   3.139   4.190
  401TIP3   OH2 1145   6.110   3.780   4.691
  401TIP3    H1 1146   6.156   3.713   4.640
  401TIP3    H2 1147   6.072   3.732   4.765
  402TIP3   OH2 1148   8.233   0.226   5.323
  402TIP3    H1 1149   8.142   0.204   5.339
  402TIP3    H2 1150   8.263   0.160   5.260
  403TIP3   OH2 1151   7.229   3.426   2.744
  403TIP3    H1 1152   7.181   3.456   2.822
  403TIP3    H2 1153   7.267   3.342   2.770
  404TIP3   OH2 1154   5.618   1.514   0.917
  404TIP3    H1 1155   5.653   1.445   0.860
  404TIP3    H2 1156   5.633   1.481   1.006
  405TIP3   OH2 1157   5.248   1.016   6.756
  405TIP3    H1 1158   5.155   0.996   6.766
  405TIP3    H2 1159   5.284   0.940   6.710
  406TIP3   OH2 1160   1.845   7.644   4.542
  406TIP3    H1 1161   1.799   7.586   4.481
  406TIP3    H2 1162   1.825   7.732   4.511
  407TIP3   OH2 1163   1.567   5.078   4.032
  407TIP3    H1 1164   1.628   5.127   4.088
  407TIP3    H2 1165   1.492   5.137   4.022
  408TIP3   OH2 1166   0.510   3.810   1.878
  408TIP3    H1 1167   0.595   3.852   1.864
  408TIP3    H2 1168   0.523   3.720   1.847
  409TIP3   OH2 1169   6.961   4.811   1.304
  409TIP3    H1 1170   6.990   4.841   1.389
  409TIP3    H2 1171   6.981   4.883   1.244
  410TIP3   OH2 1172   5.093   5.509   1.716
  410TIP3    H1 1173   5.179   5.485   1.681
  410TIP3    H2 1174   5.107   5.520   1.810
  411TIP3   OH2 1175   7.955   4.483   4.490
  411TIP3    H1 1176   7.905   4.441   4.559
  411TIP3    H2 1177   7.928   4.439   4.409
  412TIP3   OH2 1178   5.607   5.844   0.301
  412TIP3    H1 1179   5.663   5.783   0.253
  412TIP3    H2 1180   5.588   5.799   0.383
  413TIP3   OH2 1181   6.215   6.891   6.658
  413TIP3    H1 1182   6.134   6.881   6.708
  413TIP3    H2 1183   6.207   6.977   6.617
  414TIP3   OH2 1184   4.451   3.374   6.043
  414TIP3    H1 1185   4.438   3.450   5.986
  414TIP3    H2 1186   4.381   3.314   6.018
  415TIP3   OH2 1187   2.943   2.169   1.289
  415TIP3    H1 1188   2.864   2.117   1.306
  415TIP3    H2 1189   2.917   2.259   1.305
  416TIP3   OH2 1190   6.776   3.144   6.414
  416TIP3    H1 1191   6.839   3.116   6.481
  416TIP3    H2 1192   6.739   3.062   6.381
  417TIP3   OH2 1193   0.395   2.795   2.491
  417TIP3    H1 1194   0.419   2.777   2.583
  417TIP3    H2 1195   0.415   2.888   2.479
  418TIP3   OH2 1196   4.354   1.347   5.778
  418TIP3    H1 1197   4.289   1.353   5.708
  418TIP3    H2 1198   4.307   1.304   5.850
  419TIP3   OH2 1199   0.908   3.953   5.705
  419TIP3    H1 1200   0.972   3.889   5.675
  419TIP3    H2 1201   0.959   4.031   5.724
  420TIP3   OH2 1202   3.273   0.802   2.960
  420TIP3    H1 1203   3.331   0.872   2.927
  420TIP3    H2 1204   3.330   0.747   3.013
  421TIP3   OH2 1205   2.830   1.101   0.603
  421TIP3    H1 1206   2.865   1.117   0.691
  421TIP3    H2 1207   2.895   1.044   0.561
  422TIP3   OH2 1208   0.506   0.400   5.541
  422TIP3    H1 1209   0.600   0.386   5.546
  422TIP3    H2 1210   0.483   0.375   5.452
  423TIP3   OH2 1211   1.790   6.496   1.731
  423TIP3    H1 1212   1.862   6.462   1.785
  423TIP3    H2 1213   1.768   6.424   1.672
  424TIP3   OH2 1214   4.994   0.373   6.466
  424TIP3    H1 1215   4.956   0.459   6.447
  424TIP3    H2 1216   5.080   0.392   6.503
  425TIP3   OH2 1217   3.984   2.736   0.132
  425TIP3    H1 1218   4.063   2.789   0.121
  425TIP3    H2 1219   3.972   2.693   0.047
  426TIP3   OH2 1220   6.679   6.771   1.474
  426TIP3    H1 1221   6.771   6.797   1.463
  426TIP3    H2 1222   6.683   6.682   1.510
  427TIP3   OH2 1223   2.726   0.060   4.471
  427TIP3    H1 1224   2.786   0.089   4.540
  427TIP3    H2 1225   2.653   0.021   4.518
  428TIP3   OH2 1226   7.893   5.355   4.082
  428TIP3    H1 1227   7.931   5.296   4.147
  428TIP3    H2 1228   7.845   5.420   4.135
  429TIP3   OH2 1229   6.421   7.463   4.846
  429TIP3    H1 1230   6.460   7.515   4.775
  429TIP3    H2 1231   6.358   7.406   4.802
  430TIP3   OH2 1232   6.172   3.772   0.188
  430TIP3    H1 1233   6.218   3.839   0.239
  430TIP3    H2 1234   6.221   3.691   0.205
  431TIP3   OH2 1235   8.201   4.678   3.704
  431TIP3    H1 1236   8.184   4.609   3.640
  431TIP3    H2 1237   8.119   4.686   3.753
  432TIP3   OH2 1238   5.365   1.489   5.607
  432TIP3    H1 1239   5.381   1.404   5.649
  432TIP3    H2 1240   5.272   1.504   5.618
  433TIP3   OH2 1241   6.888   6.272   3.940
  433TIP3    H1 1242   6.815   6.215   3.913
  433TIP3    H2 1243   6.921   6.231   4.020
  434TIP3   OH2 1244   4.797   2.013   1.155
  434TIP3    H1 1245   4.834   2.090   1.199
  434TIP3    H2 1246   4.705   2.034   1.141
  435TIP3   OH2 1247   4.835   7.338   5.000
  435TIP3    H1 1248   4.842   7.409   5.063
  435TIP3    H2 1249   4.745   7.340   4.970
  436TIP3   OH2 1250   7.194   6.727   1.081
  436TIP3    H1 1251   7.286   6.741   1.059
  436TIP3    H2 1252   7.147   6.740   0.998
  437TIP3   OH2 1253   5.591   1.372   1.179
  437TIP3    H1 1254   5.612   1.454   1.224
  437TIP3    H2 1255   5.495   1.369   1.180
  438TIP3   OH2 1256   4.835   2.324   3.955
  438TIP3    H1 1257   4.885   2.246   3.934
  438TIP3    H2 1258   4.748   2.309   3.918
  439TIP3   OH2 1259   2.467   4.528   0.361
  439TIP3    H1 1260   2.515   4.517   0.279
  439TIP3    H2 1261   2.434   4.618   0.357
  440TIP3   OH2 1262   3.838   7.475   1.329
  440TIP3    H1 1263   3.867   7.515   1.247
  440TIP3    H2 1264   3.890   7.517   1.397
  441TIP3   OH2 1265   3.086   1.040   3.006
  441TIP3    H1 1266   3.132   0.956   3.003
  441TIP3    H2 1267   3.113   1.085   2.926
  442TIP3   OH2 1268   6.725   3.649   1.265
  442TIP3    H1 1269   6.775   3.718   1.220
  442TIP3    H2 1270   6.646   3.639   1.212
  443TIP3   OH2 1271   2.819   2.041   3.731
  443TIP3    H1 1272   2.736   2.086   3.742
  443TIP3    H2 1273   2.811   1.995   3.647
  444TIP3   OH2 1274   6.822   7.129   2.408
  444TIP3    H1 1275   6.876   7.066   2.457
  444TIP3    H2 1276   6.757   7.159   2.472
  445TIP3   OH2 1277   4.730   6.425   2.166
  445TIP3    H1 1278   4.785   6.421   2.087
  445TIP3    H2 1279   4.711   6.334   2.187
  446TIP3   OH2 1280   2.711   0.818   6.543
  446TIP3    H1 1281   2.710   0.773   6.628
  446TIP3    H2 1282   2.739   0.907   6.563
  447TIP3   OH2 1283   5.408   7.328   2.893
  447TIP3    H1 1284   5.482   7.380   2.861
  447TIP3    H2 1285   5.447   7.246   2.924
  448TIP3   OH2 1286   2.458   1.070   3.928
  448TIP3    H1 1287   2.467   0.982   3.891
  448TIP3    H2 1288   2.482   1.128   3.856
  449TIP3   OH2 1289   5.299   6.158   5.558
  449TIP3    H1 1290   5.206   6.143   5.578
  449TIP3    H2 1291   5.346   6.117   5.631
  450TIP3   OH2 1292   7.627   5.413   6.400
  450TIP3    H1 1293   7.571   5.349   6.357
  450TIP3    H2 1294   7.697   5.430   6.336
  451TIP3   OH2 1295   4.191   6.198   4.790
  451TIP3    H1 1296   4.249   6.127   4.820
  451TIP3    H2 1297   4.178   6.252   4.868
  452TIP3   OH2 1298   5.710   4.983   2.318
  452TIP3    H1 1299   5.767   4.987   2.241
  452TIP3    H2 1300   5.662   4.901   2.308
  453TIP3   OH2 1301   2.960   1.918   1.591
  453TIP3    H1 1302   2.946   1.856   1.662
  453TIP3    H2 1303   2.909   1.995   1.617
  454TIP3   OH2 1304   5.639   5.316   0.398
  454TIP3    H1 1305   5.566   5.304   0.337
  454TIP3    H2 1306   5.667   5.227   0.420
  455TIP3   OH2 1307   1.216   5.216   2.620
  455TIP3    H1 1308   1.189   5.261   2.699
  455TIP3    H2 1309   1.136   5.174   2.587
  456TIP3   OH2 1310   2.487   7.198   0.754
  456TIP3    H1 1311   2.428   7.248   0.810
  456TIP3    H2 1312   2.445   7.200   0.667
  457TIP3   OH2 1313   5.993   7.569   4.131
  457TIP3    H1 1314   6.057   7.626   4.089
  457TIP3    H2 1315   5.994   7.595   4.223
  458TIP3   OH2 1316   0.638   4.716   1.364
  458TIP3    H1 1317   0.689   4.755   1.434
  458TIP3    H2 1318   0.549   4.748   1.379
  459TIP3   OH2 1319   7.170   6.992   1.537
  459TIP3    H1 1320   7.187   6.963   1.448
  459TIP3    H2 1321   7.181   6.914   1.591
  460TIP3   OH2 1322   7.258   0.316   1.179
  460TIP3    H1 1323   7.287   0.363   1.101
  460TIP3    H2 1324   7.251   0.225   1.150
  461TIP3   OH2 1325   2.663   3.790   3.356
  461TIP3    H1 1326   2.686   3.843   3.280
  461TIP3    H2 1327   2.714   3.828   3.428
  462TIP3   OH2 1328   3.405   1.867   6.194
  462TIP3    H1 1329   3.359   1.864   6.278
  462TIP3    H2 1330   3.375   1.947   6.152
  463TIP3   OH2 1331   1.108   0.531   0.041
  463TIP3    H1 1332   1.014   0.526   0.059
  463TIP3    H2 1333   1.134   0.617   0.073
  464TIP3   OH2 1334   7.233   6.020   2.573
  464TIP3    H1 1335   7.237   6.016   2.477
  464TIP3    H2 1336   7.275   5.940   2.602
  465TIP3   OH2 1337   2.294   1.338   2.741
  465TIP3    H1 1338   2.380   1.295   2.737
  465TIP3    H2 1339   2.307   1.422   2.698
  466TIP3   OH2 1340   7.193   2.266   0.382
  466TIP3    H1 1341   7.225   2.345   0.427
  466TIP3    H2 1342   7.098   2.272   0.387
  467TIP3   OH2 1343   7.129   5.952   0.896
  467TIP3    H1 1344   7.041   5.957   0.934
  467TIP3    H2 1345   7.118   5.979   0.805
  468TIP3   OH2 1346   0.728   5.544   4.769
  468TIP3    H1 1347   0.680   5.535   4.686
  468TIP3    H2 1348   0.664   5.581   4.830
  469TIP3   OH2 1349   3.554   3.107   5.066
  469TIP3    H1 1350   3.537   3.102   5.160
  469TIP3    H2 1351   3.634   3.160   5.059
  470TIP3   OH2 1352   2.103   3.699   2.881
  470TIP3    H1 1353   2.104   3.724   2.974
  470TIP3    H2 1354   2.018   3.731   2.849
  471TIP3   OH2 1355   3.616   3.807   6.724
  471TIP3    H1 1356   3.599   3.896   6.695
  471TIP3    H2 1357   3.703   3.810   6.763
  472TIP3   OH2 1358   5.118   4.140   5.996
  472TIP3    H1 1359   5.172   4.091   6.058
  472TIP3    H2 1360   5.180   4.191   5.945
  473TIP3   OH2 1361   3.498   2.264   2.695
  473TIP3    H1 1362   3.592   2.259   2.676
  473TIP3    H2 1363   3.456   2.213   2.626
  474TIP3   OH2 1364   8.207   0.391   2.328
  474TIP3    H1 1365   8.173   0.350   2.407
  474TIP3    H2 1366   8.278   0.334   2.299
  475TIP3   OH2 1367   3.279   3.783   3.714
  475TIP3    H1 1368   3.310   3.696   3.689
  475TIP3    H2 1369   3.241   3.770   3.801
  476TIP3   OH2 1370   4.926   6.674   1.418
  476TIP3    H1 1371   4.937   6.702   1.509
  476TIP3    H2 1372   4.966   6.587   1.414
  477TIP3   OH2 1373   7.567   2.014   5.033
  477TIP3    H1 1374   7.623   1.968   5.096
  477TIP3    H2 1375   7.502   2.059   5.088
  478TIP3   OH2 1376   7.223   2.911   1.781
  478TIP3    H1 1377   7.138   2.905   1.738
  478TIP3    H2 1378   7.250   3.002   1.768
  479TIP3   OH2 1379   1.130   0.624   2.541
  479TIP3    H1 1380   1.119   0.700   2.483
  479TIP3    H2 1381   1.218   0.592   2.522
  480TIP3   OH2 1382   2.445   0.103   1.636
  480TIP3    H1 1383   2.354   0.116   1.611
  480TIP3    H2 1384   2.484   0.055   1.563
  481TIP3   OH2 1385   1.517   5.241   3.648
  481TIP3    H1 1386   1.488   5.166   3.701
  481TIP3    H2 1387   1.594   5.208   3.601
  482TIP3   OH2 1388   4.822   4.779   2.971
  482TIP3    H1 1389   4.855   4.707   3.025
  482TIP3    H2 1390   4.783   4.736   2.895
  483TIP3   OH2 1391   4.887   5.850   0.018
  483TIP3    H1 1392   4.829   5.784  -0.021
  483TIP3    H2 1393   4.874   5.841   0.112
  484TIP3   OH2 1394   3.921   1.227   3.844
  484TIP3    H1 1395   3.956   1.314   3.860
  484TIP3    H2 1396   3.998   1.173   3.827
  485TIP3   OH2 1397   3.916   4.486   5.987
  485TIP3    H1 1398   3.882   4.539   6.060
  485TIP3    H2 1399   3.837   4.457   5.940
  486TIP3   OH2 1400   6.080   5.074   0.176
  486TIP3    H1 1401   6.118   5.044   0.093
  486TIP3    H2 1402   6.050   5.163   0.157
  487TIP3   OH2 1403   5.998   5.955   0.735
  487TIP3    H1 1404   6.084   5.995   0.731
  487TIP3    H2 1405   6.004   5.891   0.806
  488TIP3   OH2 1406   7.293   2.953   1.398
  488TIP3    H1 1407   7.270   3.019   1.332
  488TIP3    H2 1408   7.249   2.982   1.478
  489TIP3   OH2 1409   2.216   5.070   2.799
  489TIP3    H1 1410   2.222   5.043   2.890
  489TIP3    H2 1411   2.301   5.109   2.779
  490TIP3   OH2 1412   1.440   3.798   5.011
  490TIP3    H1 1413   1.498   3.824   4.939
  490TIP3    H2 1414   1.475   3.843   5.088
  491TIP3   OH2 1415   3.012   3.628   0.044
  491TIP3    H1 1416   2.941   3.574   0.078
  491TIP3    H2 1417   3.089   3.570   0.047
  492TIP3   OH2 1418   4.524   2.237   2.702
  492TIP3    H1 1419   4.589   2.307   2.692
  492TIP3    H2 1420   4.476   2.237   2.619
  493TIP3   OH2 1421   5.777   6.954   2.828
  493TIP3    H1 1422   5.749   6.897   2.900
  493TIP3    H2 1423   5.771   6.899   2.750
  494TIP3   OH2 1424   4.910   0.170   3.539
  494TIP3    H1 1425   4.863   0.102   3.587
  494TIP3    H2 1426   4.938   0.127   3.458
  495TIP3   OH2 1427   1.273   0.539   1.371
  495TIP3    H1 1428   1.215   0.596   1.320
  495TIP3    H2 1429   1.215   0.483   1.421
  496TIP3   OH2 1430   3.293   5.676   4.900
  496TIP3    H1 1431   3.376   5.718   4.922
  496TIP3    H2 1432   3.290   5.678   4.804
  497TIP3   OH2 1433   3.391   1.375   0.028
  497TIP3    H1 1434   3.403   1.315  -0.046
  497TIP3    H2 1435   3.444   1.338   0.098
  498TIP3   OH2 1436   5.992   2.706   4.588
  498TIP3    H1 1437   6.040   2.631   4.624
  498TIP3    H2 1438   6.016   2.780   4.645
  499TIP3   OH2 1439   5.298   4.809   0.075
  499TIP3    H1 1440   5.354   4.861   0.134
  499TIP3    H2 1441   5.251   4.750   0.134
  500TIP3   OH2 1442   0.703   6.049   2.542
  500TIP3    H1 1443   0.744   6.128   2.576
  500TIP3    H2 1444   0.619   6.078   2.507
  501TIP3   OH2 1445   2.616   4.425   4.012
  501TIP3    H1 1446   2.697   4.434   3.963
  501TIP3    H2 1447   2.563   4.365   3.960
  502TIP3   OH2 1448   2.483   4.442   4.819
  502TIP3    H1 1449   2.484   4.353   4.785
  502TIP3    H2 1450   2.506   4.433   4.911
  503TIP3   OH2 1451   5.395   6.690   2.688
  503TIP3    H1 1452   5.316   6.720   2.733
  503TIP3    H2 1453   5.443   6.641   2.755
  504TIP3   OH2 1454   2.209   2.104   1.936
  504TIP3    H1 1455   2.295   2.108   1.893
  504TIP3    H2 1456   2.155   2.052   1.876
  505TIP3   OH2 1457   2.915   4.921   5.792
  505TIP3    H1 1458   2.826   4.915   5.828
  505TIP3    H2 1459   2.968   4.953   5.865
  506TIP3   OH2 1460   7.192   0.444   3.632
  506TIP3    H1 1461   7.182   0.465   3.539
  506TIP3    H2 1462   7.145   0.362   3.643
  507TIP3   OH2 1463   0.560   5.521   3.689
  507TIP3    H1 1464   0.646   5.531   3.649
  507TIP3    H2 1465   0.518   5.451   3.639
  508TIP3   OH2 1466   7.711   7.138   0.636
  508TIP3    H1 1467   7.706   7.132   0.540
  508TIP3    H2 1468   7.700   7.231   0.655
  509TIP3   OH2 1469   5.559   6.403   5.683
  509TIP3    H1 1470   5.563   6.490   5.724
  509TIP3    H2 1471   5.583   6.419   5.591
  510TIP3   OH2 1472   6.440   6.197   6.677
  510TIP3    H1 1473   6.469   6.214   6.588
  510TIP3    H2 1474   6.346   6.180   6.670
  511TIP3   OH2 1475   4.738   2.603   4.974
  511TIP3    H1 1476   4.758   2.525   4.923
  511TIP3    H2 1477   4.791   2.593   5.054
  512TIP3   OH2 1478   3.915   6.773   6.120
  512TIP3    H1 1479   3.893   6.866   6.110
  512TIP3    H2 1480   3.874   6.748   6.202
  513TIP3   OH2 1481   7.945   5.263   1.691
  513TIP3    H1 1482   7.996   5.241   1.613
  513TIP3    H2 1483   7.874   5.318   1.657
  514TIP3   OH2 1484   0.244   5.375   1.730
  514TIP3    H1 1485   0.216   5.462   1.702
  514TIP3    H2 1486   0.305   5.346   1.661
  515TIP3   OH2 1487   2.527   3.486   0.080
  515TIP3    H1 1488   2.505   3.579   0.093
  515TIP3    H2 1489   2.525   3.474  -0.015
  516TIP3   OH2 1490   4.653   5.102   5.631
  516TIP3    H1 1491   4.600   5.032   5.668
  516TIP3    H2 1492   4.735   5.099   5.681
  517TIP3   OH2 1493   3.752   4.227   3.633
  517TIP3    H1 1494   3.782   4.202   3.546
  517TIP3    H2 1495   3.832   4.249   3.680
  518TIP3   OH2 1496   5.687   5.470   4.984
  518TIP3    H1 1497   5.634   5.518   5.047
  518TIP3    H2 1498   5.630   5.402   4.951
  519TIP3   OH2 1499   0.482   1.926   6.153
  519TIP3    H1 1500   0.421   1.916   6.080
  519TIP3    H2 1501   0.567   1.943   6.112
  520TIP3   OH2 1502   2.599   7.160   3.465
  520TIP3    H1 1503   2.689   7.188   3.481
  520TIP3    H2 1504   2.603   7.064   3.461
  521TIP3   OH2 1505   3.037   3.254   3.075
  521TIP3    H1 1506   2.997   3.248   2.988
  521TIP3    H2 1507   2.980   3.201   3.131
  522TIP3   OH2 1508   2.049   0.784   2.988
  522TIP3    H1 1509   2.073   0.839   2.914
  522TIP3    H2 1510   2.123   0.790   3.048
  523TIP3   OH2 1511   7.998   7.297   3.086
  523TIP3    H1 1512   8.079   7.348   3.088
  523TIP3    H2 1513   7.929   7.360   3.105
  524TIP3   OH2 1514   4.619   3.925   1.737
  524TIP3    H1 1515   4.544   3.891   1.785
  524TIP3    H2 1516   4.659   3.847   1.698
  525TIP3   OH2 1517   4.393   1.533   2.815
  525TIP3    H1 1518   4.480   1.506   2.788
  525TIP3    H2 1519   4.336   1.460   2.791
  526TIP3   OH2 1520   7.616   3.648   0.093
  526TIP3    H1 1521   7.671   3.571   0.078
  526TIP3    H2 1522   7.538   3.613   0.135
  527TIP3   OH2 1523   2.907   4.842   0.954
  527TIP3    H1 1524   2.948   4.840   1.040
  527TIP3    H2 1525   2.908   4.934   0.928
  528TIP3   OH2 1526   1.688   0.835   5.782
  528TIP3    H1 1527   1.647   0.766   5.834
  528TIP3    H2 1528   1.621   0.902   5.773
  529TIP3   OH2 1529   5.727   2.486   2.756
  529TIP3    H1 1530   5.652   2.476   2.814
  529TIP3    H2 1531   5.696   2.543   2.686
  530TIP3   OH2 1532   0.852   0.591   4.790
  530TIP3    H1 1533   0.763   0.557   4.776
  530TIP3    H2 1534   0.860   0.663   4.728
  531TIP3   OH2 1535   2.261   2.383   1.105
  531TIP3    H1 1536   2.253   2.293   1.074
  531TIP3    H2 1537   2.332   2.380   1.169
  532TIP3   OH2 1538   4.967   5.515   4.351
  532TIP3    H1 1539   4.987   5.421   4.343
  532TIP3    H2 1540   5.038   5.558   4.302
  533TIP3   OH2 1541   2.208   4.555   2.687
  533TIP3    H1 1542   2.300   4.579   2.689
  533TIP3    H2 1543   2.169   4.613   2.622
  534TIP3   OH2 1544   1.806   3.455   4.509
  534TIP3    H1 1545   1.884   3.494   4.469
  534TIP3    H2 1546   1.736   3.471   4.446
  535TIP3   OH2 1547   1.714   1.220   4.586
  535TIP3    H1 1548   1.696   1.132   4.555
  535TIP3    H2 1549   1.697   1.217   4.680
  536TIP3   OH2 1550   5.259   0.202   6.744
  536TIP3    H1 1551   5.287   0.266   6.678
  536TIP3    H2 1552   5.171   0.176   6.716
  537TIP3   OH2 1553   4.930   2.871   0.763
  537TIP3    H1 1554   4.917   2.814   0.839
  537TIP3    H2 1555   4.858   2.849   0.704
  538TIP3   OH2 1556   0.738   2.120   1.837
  538TIP3    H1 1557   0.733   2.207   1.798
  538TIP3    H2 1558   0.811   2.125   1.899
  539TIP3   OH2 1559   0.516   2.533   3.197
  539TIP3    H1 1560   0.477   2.447   3.179
  539TIP3    H2 1561   0.443   2.594   3.192
  540TIP3   OH2 1562   2.449   7.488   3.794
  540TIP3    H1 1563   2.365   7.534   3.792
  540TIP3    H2 1564   2.498   7.530   3.865
  541TIP3   OH2 1565   3.957   0.025   3.603
  541TIP3    H1 1566   4.013   0.096   3.571
  541TIP3    H2 1567   3.871   0.044   3.565
  542TIP3   OH2 1568   3.102   4.131   5.070
  542TIP3    H1 1569   3.150   4.164   4.994
  542TIP3    H2 1570   3.122   4.037   5.072
  543TIP3   OH2 1571   3.425   0.410   6.291
  543TIP3    H1 1572   3.370   0.332   6.290
  543TIP3    H2 1573   3.364   0.483   6.299
  544TIP3   OH2 1574   4.551   1.632   3.694
  544TIP3    H1 1575   4.592   1.563   3.643
  544TIP3    H2 1576   4.559   1.711   3.641
  545TIP3   OH2 1577   1.292   0.444   2.890
  545TIP3    H1 1578   1.301   0.359   2.932
  545TIP3    H2 1579   1.382   0.474   2.878
  546TIP3   OH2 1580   5.125   5.939   3.235
  546TIP3    H1 1581   5.057   5.996   3.271
  546TIP3    H2 1582   5.199   5.997   3.219
  547TIP3   OH2 1583   4.848   3.303   5.635
  547TIP3    H1 1584   4.820   3.260   5.716
  547TIP3    H2 1585   4.883   3.388   5.664
  548TIP3   OH2 1586   8.181   5.315   0.525
  548TIP3    H1 1587   8.192   5.410   0.521
  548TIP3    H2 1588   8.266   5.280   0.498
  549TIP3   OH2 1589   5.123   2.998   2.753
  549TIP3    H1 1590   5.192   3.063   2.768
  549TIP3    H2 1591   5.099   2.967   2.840
  550TIP3   OH2 1592   7.073   5.615   6.205
  550TIP3    H1 1593   7.021   5.642   6.129
  550TIP3    H2 1594   7.042   5.526   6.225
  551TIP3   OH2 1595   1.257   4.726   3.213
  551TIP3    H1 1596   1.339   4.752   3.255
  551TIP3    H2 1597   1.199   4.701   3.286
  552TIP3   OH2 1598   2.994   3.462   0.910
  552TIP3    H1 1599   2.954   3.549   0.917
  552TIP3    H2 1600   2.951   3.410   0.977
  553TIP3   OH2 1601   2.250   0.290   2.578
  553TIP3    H1 1602   2.216   0.317   2.663
  553TIP3    H2 1603   2.317   0.224   2.598
  554TIP3   OH2 1604   4.934   0.938   0.453
  554TIP3    H1 1605   4.955   1.030   0.437
  554TIP3    H2 1606   4.886   0.911   0.375
  555TIP3   OH2 1607   5.735   5.237   4.558
  555TIP3    H1 1608   5.682   5.219   4.480
  555TIP3    H2 1609   5.801   5.168   4.559
  556TIP3   OH2 1610   1.574   3.786   6.395
  556TIP3    H1 1611   1.547   3.839   6.321
  556TIP3    H2 1612   1.565   3.843   6.471
  557TIP3   OH2 1613   0.297   2.955   1.445
  557TIP3    H1 1614   0.339   2.994   1.523
  557TIP3    H2 1615   0.234   3.021   1.416
  558TIP3   OH2 1616   7.210   6.693   5.168
  558TIP3    H1 1617   7.114   6.699   5.163
  558TIP3    H2 1618   7.226   6.620   5.228
  559TIP3   OH2 1619   4.038   2.736   0.817
  559TIP3    H1 1620   4.098   2.803   0.786
  559TIP3    H2 1621   4.079   2.653   0.792
  560TIP3   OH2 1622   4.047   6.321   1.408
  560TIP3    H1 1623   4.128   6.284   1.373
  560TIP3    H2 1624   4.036   6.404   1.361
  561TIP3   OH2 1625   8.062   2.810   3.406
  561TIP3    H1 1626   8.006   2.767   3.341
  561TIP3    H2 1627   8.081   2.741   3.469
  562TIP3   OH2 1628   3.266   7.286   1.579
  562TIP3    H1 1629   3.287   7.273   1.487
  562TIP3    H2 1630   3.174   7.313   1.579
  563TIP3   OH2 1631   6.040   0.316   0.102
  563TIP3    H1 1632   6.017   0.231   0.139
  563TIP3    H2 1633   5.979   0.378   0.142
  564TIP3   OH2 1634   3.534   5.764   5.081
  564TIP3    H1 1635   3.491   5.817   5.148
  564TIP3    H2 1636   3.502   5.675   5.097
  565TIP3   OH2 1637   8.079   3.342   5.781
  565TIP3    H1 1638   8.135   3.394   5.724
  565TIP3    H2 1639   8.134   3.323   5.857
  566TIP3   OH2 1640   1.016   3.154   3.513
  566TIP3    H1 1641   1.019   3.239   3.558
  566TIP3    H2 1642   1.090   3.156   3.453
  567TIP3   OH2 1643   1.842   2.478   1.126
  567TIP3    H1 1644   1.768   2.538   1.120
  567TIP3    H2 1645   1.833   2.437   1.212
  568TIP3   OH2 1646   0.627   3.135   3.941
  568TIP3    H1 1647   0.568   3.183   3.884
  568TIP3    H2 1648   0.712   3.139   3.897
  569TIP3   OH2 1649   6.262   6.983   0.282
  569TIP3    H1 1650   6.196   6.950   0.222
  569TIP3    H2 1651   6.305   7.055   0.235
  570TIP3   OH2 1652   2.827   2.552   5.181
  570TIP3    H1 1653   2.913   2.551   5.223
  570TIP3    H2 1654   2.840   2.504   5.099
  571TIP3   OH2 1655   7.329   2.098   1.619
  571TIP3    H1 1656   7.300   2.024   1.566
  571TIP3    H2 1657   7.424   2.092   1.618
  572TIP3   OH2 1658   0.996   7.126   5.982
  572TIP3    H1 1659   1.054   7.112   5.907
  572TIP3    H2 1660   0.913   7.155   5.943
  573TIP3   OH2 1661   3.220   2.343   6.475
  573TIP3    H1 1662   3.275   2.420   6.488
  573TIP3    H2 1663   3.140   2.361   6.524
  574TIP3   OH2 1664   4.690   1.547   2.887
  574TIP3    H1 1665   4.773   1.502   2.895
  574TIP3    H2 1666   4.691   1.614   2.955
  575TIP3   OH2 1667   5.158   6.725   0.149
  575TIP3    H1 1668   5.114   6.648   0.185
  575TIP3    H2 1669   5.086   6.781   0.119
  576TIP3   OH2 1670   2.131   2.955   5.743
  576TIP3    H1 1671   2.073   2.880   5.751
  576TIP3    H2 1672   2.219   2.918   5.747
  577TIP3   OH2 1673   5.058   2.093   2.889
  577TIP3    H1 1674   5.064   2.154   2.963
  577TIP3    H2 1675   5.042   2.148   2.813
  578TIP3   OH2 1676   2.727   2.013   4.559
  578TIP3    H1 1677   2.734   1.917   4.553
  578TIP3    H2 1678   2.644   2.033   4.516
  579TIP3   OH2 1679   4.854   4.043   1.168
  579TIP3    H1 1680   4.769   4.066   1.130
  579TIP3    H2 1681   4.882   3.965   1.119
  580TIP3   OH2 1682   2.913   5.758   3.777
  580TIP3    H1 1683   2.866   5.838   3.753
  580TIP3    H2 1684   2.953   5.778   3.862
  581TIP3   OH2 1685   6.373   2.504   1.636
  581TIP3    H1 1686   6.394   2.595   1.657
  581TIP3    H2 1687   6.305   2.510   1.570
  582TIP3   OH2 1688   7.191   3.679   1.463
  582TIP3    H1 1689   7.163   3.673   1.372
  582TIP3    H2 1690   7.279   3.642   1.464
  583TIP3   OH2 1691   2.397   6.749   6.403
  583TIP3    H1 1692   2.352   6.818   6.355
  583TIP3    H2 1693   2.367   6.759   6.494
  584TIP3   OH2 1694   3.676   6.416   5.042
  584TIP3    H1 1695   3.643   6.372   4.964
  584TIP3    H2 1696   3.754   6.367   5.066
  585TIP3   OH2 1697   6.091   5.981   1.218
  585TIP3    H1 1698   6.005   6.009   1.250
  585TIP3    H2 1699   6.080   5.888   1.197
  586TIP3   OH2 1700   3.152   3.206   5.928
  586TIP3    H1 1701   3.062   3.181   5.906
  586TIP3    H2 1702   3.193   3.124   5.957
  587TIP3   OH2 1703   1.693   7.410   1.157
  587TIP3    H1 1704   1.742   7.354   1.096
  587TIP3    H2 1705   1.617   7.358   1.181
  588TIP3   OH2 1706   2.518   4.882   0.926
  588TIP3    H1 1707   2.585   4.858   0.990
  588TIP3    H2 1708   2.515   4.808   0.865
  589TIP3   OH2 1709   4.999   3.771   2.719
  589TIP3    H1 1710   5.070   3.746   2.778
  589TIP3    H2 1711   5.041   3.784   2.634
  590TIP3   OH2 1712   7.785   6.068   5.793
  590TIP3    H1 1713   7.838   6.126   5.847
  590TIP3    H2 1714   7.701   6.063   5.840
  591TIP3   OH2 1715   4.320   5.827   1.342
  591TIP3    H1 1716   4.289   5.750   1.390
  591TIP3    H2 1717   4.241   5.878   1.326
  592TIP3   OH2 1718   7.800   2.319   4.994
  592TIP3    H1 1719   7.723   2.293   4.943
  592TIP3    H2 1720   7.853   2.239   5.001
  593TIP3   OH2 1721   6.134   4.669   4.834
  593TIP3    H1 1722   6.113   4.626   4.917
  593TIP3    H2 1723   6.227   4.689   4.840
  594TIP3   OH2 1724   3.937   6.490   4.692
  594TIP3    H1 1725   3.918   6.572   4.648
  594TIP3    H2 1726   3.962   6.430   4.621
  595TIP3   OH2 1727   7.517   6.299   0.609
  595TIP3    H1 1728   7.480   6.330   0.691
  595TIP3    H2 1729   7.491   6.207   0.604
  596TIP3   OH2 1730   0.652   3.742   0.462
  596TIP3    H1 1731   0.611   3.800   0.398
  596TIP3    H2 1732   0.611   3.657   0.448
  597TIP3   OH2 1733   0.206   0.351   4.759
  597TIP3    H1 1734   0.157   0.417   4.710
  597TIP3    H2 1735   0.257   0.401   4.822
  598TIP3   OH2 1736   4.092   2.339   1.941
  598TIP3    H1 1737   4.182   2.372   1.945
  598TIP3    H2 1738   4.098   2.250   1.974
  599TIP3   OH2 1739   2.859   0.836   2.582
  599TIP3    H1 1740   2.826   0.850   2.493
  599TIP3    H2 1741   2.913   0.913   2.601
  600TIP3   OH2 1742   5.404   3.865   3.737
  600TIP3    H1 1743   5.361   3.933   3.788
  600TIP3    H2 1744   5.470   3.911   3.685
  601TIP3   OH2 1745   7.063   5.701   4.791
  601TIP3    H1 1746   7.119   5.774   4.765
  601TIP3    H2 1747   6.978   5.741   4.809
  602TIP3   OH2 1748   2.055   6.435   1.506
  602TIP3    H1 1749   2.149   6.434   1.521
  602TIP3    H2 1750   2.017   6.404   1.588
  603TIP3   OH2 1751   1.560   6.931   5.215
  603TIP3    H1 1752   1.531   6.999   5.276
  603TIP3    H2 1753   1.650   6.956   5.192
  604TIP3   OH2 1754   2.782   5.559   4.073
  604TIP3    H1 1755   2.770   5.512   4.156
  604TIP3    H2 1756   2.869   5.534   4.043
  605TIP3   OH2 1757   7.181   0.528   2.687
  605TIP3    H1 1758   7.169   0.475   2.608
  605TIP3    H2 1759   7.103   0.584   2.690
  606TIP3   OH2 1760   0.725   5.285   4.078
  606TIP3    H1 1761   0.776   5.296   3.998
  606TIP3    H2 1762   0.692   5.373   4.098
  607TIP3   OH2 1763   2.159   7.684   4.625
  607TIP3    H1 1764   2.068   7.688   4.595
  607TIP3    H2 1765   2.178   7.772   4.658
  608TIP3   OH2 1766   3.236   5.745   1.409
  608TIP3    H1 1767   3.157   5.692   1.420
  608TIP3    H2 1768   3.306   5.681   1.396
  609TIP3   OH2 1769   5.333   2.531   5.109
  609TIP3    H1 1770   5.380   2.581   5.043
  609TIP3    H2 1771   5.392   2.531   5.185
  610TIP3   OH2 1772   7.184   5.036   5.917
  610TIP3    H1 1773   7.195   4.942   5.906
  610TIP3    H2 1774   7.224   5.055   6.002
  611TIP3   OH2 1775   4.466   5.235   5.969
  611TIP3    H1 1776   4.561   5.224   5.957
  611TIP3    H2 1777   4.440   5.158   6.020
  612TIP3   OH2 1778   4.738   7.618   6.106
  612TIP3    H1 1779   4.780   7.578   6.182
  612TIP3    H2 1780   4.651   7.580   6.102
  613TIP3   OH2 1781   5.790   3.112   0.104
  613TIP3    H1 1782   5.867   3.102   0.160
  613TIP3    H2 1783   5.793   3.204   0.075
  614TIP3   OH2 1784   3.169   6.073   6.314
  614TIP3    H1 1785   3.237   6.139   6.330
  614TIP3    H2 1786   3.216   5.991   6.305
  615TIP3   OH2 1787   1.737   2.307   1.376
  615TIP3    H1 1788   1.825   2.305   1.413
  615TIP3    H2 1789   1.694   2.380   1.421
  616TIP3   OH2 1790   6.912   5.960   3.131
  616TIP3    H1 1791   6.970   6.024   3.090
  616TIP3    H2 1792   6.921   5.881   3.077
  617TIP3   OH2 1793   1.418   0.909   2.087
  617TIP3    H1 1794   1.375   0.876   2.166
  617TIP3    H2 1795   1.505   0.870   2.090
  618TIP3   OH2 1796   3.209   0.457   0.389
  618TIP3    H1 1797   3.216   0.551   0.401
  618TIP3    H2 1798   3.213   0.421   0.477
  619TIP3   OH2 1799   1.322   4.959   2.279
  619TIP3    H1 1800   1.295   4.879   2.234
  619TIP3    H2 1801   1.402   4.986   2.233
  620TIP3   OH2 1802   0.752   0.908   5.060
  620TIP3    H1 1803   0.709   0.936   4.980
  620TIP3    H2 1804   0.686   0.920   5.129
  621TIP3   OH2 1805   7.748   3.101   5.335
  621TIP3    H1 1806   7.775   3.019   5.375
  621TIP3    H2 1807   7.811   3.166   5.367
  622TIP3   OH2 1808   1.794   4.919   2.373
  622TIP3    H1 1809   1.820   4.978   2.302
  622TIP3    H2 1810   1.841   4.837   2.354
  623TIP3   OH2 1811   0.355   0.514   4.206
  623TIP3    H1 1812   0.271   0.522   4.160
  623TIP3    H2 1813   0.417   0.563   4.152
  624TIP3   OH2 1814   1.736   5.897   5.986
  624TIP3    H1 1815   1.701   5.985   5.973
  624TIP3    H2 1816   1.670   5.839   5.948
  625TIP3   OH2 1817   6.087   2.888   4.748
  625TIP3    H1 1818   6.147   2.858   4.815
  625TIP3    H2 1819   6.070   2.980   4.769
  626TIP3   OH2 1820   6.676   4.782   1.407
  626TIP3    H1 1821   6.631   4.722   1.467
  626TIP3    H2 1822   6.761   4.742   1.393
  627TIP3   OH2 1823   0.766   4.808   0.632
  627TIP3    H1 1824   0.802   4.789   0.719
  627TIP3    H2 1825   0.680   4.766   0.633
  628TIP3   OH2 1826   4.482   6.078   0.327
  628TIP3    H1 1827   4.444   6.145   0.384
  628TIP3    H2 1828   4.530   6.021   0.386
  629TIP3   OH2 1829   1.120   2.046   2.210
  629TIP3    H1 1830   1.060   2.026   2.281
  629TIP3    H2 1831   1.189   1.980   2.217
  630TIP3   OH2 1832   4.140   7.643   1.753
  630TIP3    H1 1833   4.177   7.590   1.824
  630TIP3    H2 1834   4.104   7.720   1.797
  631TIP3   OH2 1835   2.714   6.900   0.553
  631TIP3    H1 1836   2.705   6.980   0.501
  631TIP3    H2 1837   2.799   6.909   0.597
  632TIP3   OH2 1838   1.249   4.678  -0.006
  632TIP3    H1 1839   1.177   4.684  -0.070
  632TIP3    H2 1840   1.328   4.697  -0.058
  633TIP3   OH2 1841   5.897   7.244   0.137
  633TIP3    H1 1842   5.863   7.188   0.207
  633TIP3    H2 1843   5.874   7.333   0.164
  634TIP3   OH2 1844   4.004   5.273   3.863
  634TIP3    H1 1845   4.079   5.276   3.923
  634TIP3    H2 1846   4.039   5.233   3.783
  635TIP3   OH2 1847   0.440   4.806   2.572
  635TIP3    H1 1848   0.415   4.744   2.640
  635TIP3    H2 1849   0.370   4.801   2.507
  636TIP3   OH2 1850   2.881   2.731   4.793
  636TIP3    H1 1851   2.962   2.778   4.776
  636TIP3    H2 1852   2.893   2.693   4.880
  637TIP3   OH2 1853   6.388   6.172   3.521
  637TIP3    H1 1854   6.449   6.192   3.450
  637TIP3    H2 1855   6.424   6.215   3.598
  638TIP3   OH2 1856   1.892   6.720   1.566
  638TIP3    H1 1857   1.827   6.705   1.498
  638TIP3    H2 1858   1.865   6.664   1.639
  639TIP3   OH2 1859   1.415   0.746   1.507
  639TIP3    H1 1860   1.367   0.674   1.466
  639TIP3    H2 1861   1.376   0.753   1.595
  640TIP3   OH2 1862   5.402   4.156   0.106
  640TIP3    H1 1863   5.471   4.089   0.104
  640TIP3    H2 1864   5.424   4.211   0.181
  641TIP3   OH2 1865   1.089   5.040   5.963
  641TIP3    H1 1866   1.056   5.079   6.044
  641TIP3    H2 1867   1.030   5.072   5.895
  642TIP3   OH2 1868   0.114   0.585   6.389
  642TIP3    H1 1869   0.130   0.506   6.338
  642TIP3    H2 1870   0.035   0.623   6.351
  643TIP3   OH2 1871   6.303   6.284   2.557
  643TIP3    H1 1872   6.328   6.375   2.571
  643TIP3    H2 1873   6.342   6.237   2.631
  644TIP3   OH2 1874   0.804   2.745   0.085
  644TIP3    H1 1875   0.721   2.698   0.094
  644TIP3    H2 1876   0.868   2.690   0.129
  645TIP3   OH2 1877   6.658   0.744   2.432
  645TIP3    H1 1878   6.611   0.771   2.353
  645TIP3    H2 1879   6.683   0.826   2.475
  646TIP3   OH2 1880   2.017   2.582   2.236
  646TIP3    H1 1881   1.990   2.578   2.144
  646TIP3    H2 1882   1.942   2.621   2.281
  647TIP3   OH2 1883   7.626   5.570   1.980
  647TIP3    H1 1884   7.615   5.664   1.986
  647TIP3    H2 1885   7.686   5.548   2.052
  648TIP3   OH2 1886   3.717   2.427   3.792
  648TIP3    H1 1887   3.650   2.465   3.848
  648TIP3    H2 1888   3.707   2.333   3.802
  649TIP3   OH2 1889   6.672   4.650   2.943
  649TIP3    H1 1890   6.657   4.730   2.995
  649TIP3    H2 1891   6.714   4.681   2.863
  650TIP3   OH2 1892   2.346   2.136   1.004
  650TIP3    H1 1893   2.413   2.192   0.963
  650TIP3    H2 1894   2.323   2.073   0.936
  651TIP3   OH2 1895   5.049   3.189   4.780
  651TIP3    H1 1896   5.032   3.275   4.741
  651TIP3    H2 1897   5.022   3.126   4.714
  652TIP3   OH2 1898   4.582   6.813   0.295
  652TIP3    H1 1899   4.598   6.772   0.380
  652TIP3    H2 1900   4.623   6.755   0.231
  653TIP3   OH2 1901   0.811   3.679   4.576
  653TIP3    H1 1902   0.745   3.713   4.516
  653TIP3    H2 1903   0.762   3.626   4.639
  654TIP3   OH2 1904   3.646   2.322   1.953
  654TIP3    H1 1905   3.695   2.256   1.903
  654TIP3    H2 1906   3.709   2.393   1.967
  655TIP3   OH2 1907   0.401   0.753   1.741
  655TIP3    H1 1908   0.310   0.764   1.766
  655TIP3    H2 1909   0.425   0.837   1.702
  656TIP3   OH2 1910   7.964   3.164   0.854
  656TIP3    H1 1911   7.892   3.207   0.810
  656TIP3    H2 1912   7.967   3.205   0.941
  657TIP3   OH2 1913   3.263   4.548   5.143
  657TIP3    H1 1914   3.170   4.568   5.135
  657TIP3    H2 1915   3.293   4.539   5.053
  658TIP3   OH2 1916   4.845   7.533   5.195
  658TIP3    H1 1917   4.880   7.622   5.185
  658TIP3    H2 1918   4.760   7.545   5.236
  659TIP3   OH2 1919   4.911   2.342   5.821
  659TIP3    H1 1920   4.995   2.376   5.853
  659TIP3    H2 1921   4.881   2.409   5.759
  660TIP3   OH2 1922   3.742   3.917   5.493
  660TIP3    H1 1923   3.820   3.914   5.548
  660TIP3    H2 1924   3.673   3.880   5.548
  661TIP3   OH2 1925   6.606   3.992   2.921
  661TIP3    H1 1926   6.609   3.935   2.998
  661TIP3    H2 1927   6.562   4.072   2.951
  662TIP3   OH2 1928   3.524   5.572   5.815
  662TIP3    H1 1929   3.459   5.640   5.796
  662TIP3    H2 1930   3.602   5.621   5.842
  663TIP3   OH2 1931   4.035   1.690   0.367
  663TIP3    H1 1932   4.075   1.608   0.339
  663TIP3    H2 1933   4.107   1.752   0.372
  664TIP3   OH2 1934   3.314   2.774   2.596
  664TIP3    H1 1935   3.330   2.808   2.684
  664TIP3    H2 1936   3.351   2.685   2.597
  665TIP3   OH2 1937   5.262   2.130   0.623
  665TIP3    H1 1938   5.336   2.184   0.593
  665TIP3    H2 1939   5.264   2.138   0.718
  666TIP3   OH2 1940   0.725   4.512   3.887
  666TIP3    H1 1941   0.760   4.452   3.821
  666TIP3    H2 1942   0.667   4.457   3.940
  667TIP3   OH2 1943   8.293   2.016   0.116
  667TIP3    H1 1944   8.245   2.000   0.035
  667TIP3    H2 1945   8.256   1.954   0.179
  668TIP3   OH2 1946   3.992   0.677   6.426
  668TIP3    H1 1947   4.069   0.710   6.473
  668TIP3    H2 1948   4.028   0.639   6.345
  669TIP3   OH2 1949   6.533   3.538   2.103
  669TIP3    H1 1950   6.596   3.531   2.030
  669TIP3    H2 1951   6.583   3.509   2.180
  670TIP3   OH2 1952   3.139   0.680   3.733
  670TIP3    H1 1953   3.077   0.638   3.793
  670TIP3    H2 1954   3.194   0.609   3.700
  671TIP3   OH2 1955   3.863   7.711   2.160
  671TIP3    H1 1956   3.802   7.655   2.112
  671TIP3    H2 1957   3.855   7.683   2.252
  672TIP3   OH2 1958   0.757   6.115   3.000
  672TIP3    H1 1959   0.780   6.193   2.951
  672TIP3    H2 1960   0.822   6.110   3.070
  673TIP3   OH2 1961   5.780   4.336   6.717
  673TIP3    H1 1962   5.854   4.296   6.763
  673TIP3    H2 1963   5.790   4.430   6.732
  674TIP3   OH2 1964   0.442   7.552   4.928
  674TIP3    H1 1965   0.381   7.494   4.884
  674TIP3    H2 1966   0.459   7.510   5.012
  675TIP3   OH2 1967   5.883   3.453   2.611
  675TIP3    H1 1968   5.975   3.429   2.620
  675TIP3    H2 1969   5.885   3.540   2.571
  676TIP3   OH2 1970   2.750   5.765   3.425
  676TIP3    H1 1971   2.772   5.672   3.416
  676TIP3    H2 1972   2.655   5.769   3.418
  677TIP3   OH2 1973   2.689   4.364   0.816
  677TIP3    H1 1974   2.597   4.343   0.804
  677TIP3    H2 1975   2.699   4.452   0.778
  678TIP3   OH2 1976   1.797   3.070   6.003
  678TIP3    H1 1977   1.852   3.100   5.930
  678TIP3    H2 1978   1.835   2.986   6.029
  679TIP3   OH2 1979   1.002   2.398   2.441
  679TIP3    H1 1980   0.976   2.348   2.364
  679TIP3    H2 1981   0.975   2.488   2.422
  680TIP3   OH2 1982   0.496   4.671   4.307
  680TIP3    H1 1983   0.591   4.684   4.303
  680TIP3    H2 1984   0.461   4.759   4.326
  681TIP3   OH2 1985   1.694   5.986   4.114
  681TIP3    H1 1986   1.707   6.081   4.107
  681TIP3    H2 1987   1.695   5.954   4.024
  682TIP3   OH2 1988   7.667   1.603   4.206
  682TIP3    H1 1989   7.741   1.661   4.227
  682TIP3    H2 1990   7.660   1.545   4.282
  683TIP3   OH2 1991   3.704   3.314   1.399
  683TIP3    H1 1992   3.691   3.226   1.363
  683TIP3    H2 1993   3.618   3.340   1.431
  684TIP3   OH2 1994   3.463   7.309   6.264
  684TIP3    H1 1995   3.454   7.396   6.303
  684TIP3    H2 1996   3.387   7.261   6.294
  685TIP3   OH2 1997   4.217   3.883   4.081
  685TIP3    H1 1998   4.174   3.885   3.995
  685TIP3    H2 1999   4.207   3.792   4.111
  686TIP3   OH2 2000   6.963   0.606   0.603
  686TIP3    H1 2001   6.924   0.565   0.526
  686TIP3    H2 2002   6.944   0.700   0.592
  687TIP3   OH2 2003   1.328   2.718   6.084
  687TIP3    H1 2004   1.338   2.809   6.057
  687TIP3    H2 2005   1.397   2.705   6.150
  688TIP3   OH2 2006   4.758   2.756   4.038
  688TIP3    H1 2007   4.781   2.752   4.131
  688TIP3    H2 2008   4.841   2.738   3.992
  689TIP3   OH2 2009   5.630   2.273   5.466
  689TIP3    H1 2010   5.557   2.235   5.417
  689TIP3    H2 2011   5.693   2.201   5.473
  690TIP3   OH2 2012   6.801   0.043   0.985
  690TIP3    H1 2013   6.787   0.128   0.942
  690TIP3    H2 2014   6.738  -0.016   0.942
  691TIP3   OH2 2015   1.753   2.034   2.099
  691TIP3    H1 2016   1.663   2.045   2.070
  691TIP3    H2 2017   1.797   1.990   2.026
  692TIP3   OH2 2018   0.450   2.533   4.895
  692TIP3    H1 2019   0.472   2.556   4.805
  692TIP3    H2 2020   0.491   2.601   4.948
  693TIP3   OH2 2021   2.961   4.743   1.966
  693TIP3    H1 2022   3.036   4.781   2.012
  693TIP3    H2 2023   2.925   4.815   1.914
  694TIP3   OH2 2024   4.185   0.611   3.190
  694TIP3    H1 2025   4.117   0.553   3.156
  694TIP3    H2 2026   4.214   0.662   3.114
  695TIP3   OH2 2027   0.445   4.046   5.720
  695TIP3    H1 2028   0.493   3.965   5.739
  695TIP3    H2 2029   0.354   4.019   5.714
  696TIP3   OH2 2030   5.993   6.634   6.182
  696TIP3    H1 2031   5.937   6.679   6.245
  696TIP3    H2 2032   5.938   6.565   6.146
  697TIP3   OH2 2033   1.148   7.201   0.540
  697TIP3    H1 2034   1.058   7.214   0.568
  697TIP3    H2 2035   1.142   7.194   0.444
  698TIP3   OH2 2036   2.199   2.910   0.081
  698TIP3    H1 2037   2.287   2.916   0.046
  698TIP3    H2 2038   2.142   2.922   0.005
  699TIP3   OH2 2039   5.097   1.280   1.051
  699TIP3    H1 2040   5.148   1.304   0.974
  699TIP3    H2 2041   5.028   1.222   1.017
  700TIP3   OH2 2042   6.523   1.445   1.177
  700TIP3    H1 2043   6.496   1.523   1.225
  700TIP3    H2 2044   6.480   1.372   1.223
  701TIP3   OH2 2045   2.588   6.293   2.162
  701TIP3    H1 2046   2.513   6.351   2.154
  701TIP3    H2 2047   2.550   6.205   2.165
  702TIP3   OH2 2048   2.470   5.989   4.759
  702TIP3    H1 2049   2.486   6.081   4.781
  702TIP3    H2 2050   2.506   5.978   4.671
  703TIP3   OH2 2051   2.598   3.376   1.209
  703TIP3    H1 2052   2.511   3.338   1.207
  703TIP3    H2 2053   2.616   3.399   1.118
  704TIP3   OH2 2054   0.479   1.421   1.305
  704TIP3    H1 2055   0.525   1.505   1.316
  704TIP3    H2 2056   0.411   1.422   1.372
  705TIP3   OH2 2057   1.038   1.824   1.591
  705TIP3    H1 2058   1.060   1.731   1.603
  705TIP3    H2 2059   1.030   1.834   1.496
  706TIP3   OH2 2060   1.239   7.790   5.073
  706TIP3    H1 2061   1.249   7.860   5.137
  706TIP3    H2 2062   1.308   7.727   5.094
  707TIP3   OH2 2063   5.183   1.065   3.872
  707TIP3    H1 2064   5.278   1.066   3.879
  707TIP3    H2 2065   5.157   0.985   3.919
  708TIP3   OH2 2066   1.707   4.685   1.232
  708TIP3    H1 2067   1.635   4.743   1.206
  708TIP3    H2 2068   1.744   4.655   1.149
  709TIP3   OH2 2069   3.770   2.293   2.611
  709TIP3    H1 2070   3.825   2.339   2.548
  709TIP3    H2 2071   3.784   2.200   2.591
  710TIP3   OH2 2072   3.230   3.137   2.302
  710TIP3    H1 2073   3.262   3.148   2.213
  710TIP3    H2 2074   3.164   3.068   2.294
  711TIP3   OH2 2075   2.760   1.834   0.569
  711TIP3    H1 2076   2.838   1.875   0.531
  711TIP3    H2 2077   2.770   1.741   0.551
  712TIP3   OH2 2078   6.782   0.458   1.860
  712TIP3    H1 2079   6.812   0.439   1.949
  712TIP3    H2 2080   6.835   0.532   1.832
  713TIP3   OH2 2081   2.802   1.034   5.388
  713TIP3    H1 2082   2.845   1.002   5.308
  713TIP3    H2 2083   2.709   1.024   5.371
  714TIP3   OH2 2084   8.022   7.093   0.654
  714TIP3    H1 2085   8.114   7.082   0.679
  714TIP3    H2 2086   7.992   7.004   0.633
  715TIP3   OH2 2087   3.315   3.973   6.456
  715TIP3    H1 2088   3.295   3.883   6.480
  715TIP3    H2 2089   3.332   3.970   6.362
  716TIP3   OH2 2090   3.251   0.652   1.377
  716TIP3    H1 2091   3.320   0.675   1.315
  716TIP3    H2 2092   3.178   0.622   1.323
  717TIP3   OH2 2093   0.201   2.528   2.251
  717TIP3    H1 2094   0.267   2.597   2.245
  717TIP3    H2 2095   0.180   2.523   2.345
  718TIP3   OH2 2096   4.689   1.334   5.871
  718TIP3    H1 2097   4.729   1.262   5.822
  718TIP3    H2 2098   4.651   1.390   5.804
  719TIP3   OH2 2099   3.407   4.112   4.521
  719TIP3    H1 2100   3.388   4.100   4.615
  719TIP3    H2 2101   3.448   4.030   4.495
  720TIP3   OH2 2102   4.354   5.518   6.672
  720TIP3    H1 2103   4.381   5.607   6.692
  720TIP3    H2 2104   4.317   5.523   6.583
  721TIP3   OH2 2105   5.438   5.894   4.482
  721TIP3    H1 2106   5.501   5.900   4.554
  721TIP3    H2 2107   5.377   5.825   4.509
  722TIP3   OH2 2108   0.128   5.926   4.839
  722TIP3    H1 2109   0.153   6.017   4.856
  722TIP3    H2 2110   0.071   5.931   4.762
  723TIP3   OH2 2111   7.545   4.246   6.382
  723TIP3    H1 2112   7.546   4.203   6.467
  723TIP3    H2 2113   7.479   4.314   6.390
  724TIP3   OH2 2114   8.124   5.778   4.421
  724TIP3    H1 2115   8.219   5.779   4.407
  724TIP3    H2 2116   8.113   5.727   4.501
  725TIP3   OH2 2117   3.274   2.836   0.036
  725TIP3    H1 2118   3.207   2.849  -0.031
  725TIP3    H2 2119   3.249   2.896   0.107
  726TIP3   OH2 2120   7.222   7.389   3.748
  726TIP3    H1 2121   7.272   7.466   3.775
  726TIP3    H2 2122   7.187   7.354   3.830
  727TIP3   OH2 2123   7.321   0.125   0.260
  727TIP3    H1 2124   7.363   0.168   0.334
  727TIP3    H2 2125   7.373   0.152   0.184
  728TIP3   OH2 2126   6.800   7.015   0.577
  728TIP3    H1 2127   6.846   7.059   0.648
  728TIP3    H2 2128   6.731   6.966   0.621
  729TIP3   OH2 2129   6.086   2.418   4.200
  729TIP3    H1 2130   6.125   2.502   4.221
  729TIP3    H2 2131   6.072   2.421   4.105
  730TIP3   OH2 2132   8.098   6.313   1.358
  730TIP3    H1 2133   8.082   6.219   1.363
  730TIP3    H2 2134   8.131   6.336   1.445
  731TIP3   OH2 2135   6.526   2.656   5.689
  731TIP3    H1 2136   6.595   2.702   5.738
  731TIP3    H2 2137   6.574   2.607   5.621
  732TIP3   OH2 2138   3.414   4.182   3.144
  732TIP3    H1 2139   3.405   4.164   3.051
  732TIP3    H2 2140   3.507   4.168   3.162
  733TIP3   OH2 2141   4.062   7.576   2.468
  733TIP3    H1 2142   4.027   7.488   2.485
  733TIP3    H2 2143   4.002   7.635   2.514
  734TIP3   OH2 2144   7.895   2.873   5.066
  734TIP3    H1 2145   7.826   2.842   5.125
  734TIP3    H2 2146   7.850   2.889   4.983
  735TIP3   OH2 2147   3.127   1.358   3.294
  735TIP3    H1 2148   3.077   1.278   3.278
  735TIP3    H2 2149   3.213   1.326   3.322
  736TIP3   OH2 2150   7.480   4.076   2.358
  736TIP3    H1 2151   7.519   4.027   2.285
  736TIP3    H2 2152   7.455   4.160   2.319
  737TIP3   OH2 2153   5.779   2.011   0.952
  737TIP3    H1 2154   5.696   2.056   0.967
  737TIP3    H2 2155   5.781   1.941   1.018
  738TIP3   OH2 2156   3.265   2.555   3.029
  738TIP3    H1 2157   3.182   2.510   3.011
  738TIP3    H2 2158   3.333   2.490   3.012
  739TIP3   OH2 2159   7.513   6.441   1.644
  739TIP3    H1 2160   7.590   6.494   1.624
  739TIP3    H2 2161   7.467   6.434   1.560
  740TIP3   OH2 2162   4.300   4.620   5.075
  740TIP3    H1 2163   4.354   4.556   5.120
  740TIP3    H2 2164   4.354   4.651   5.002
  741TIP3   OH2 2165   3.157   3.116   2.629
  741TIP3    H1 2166   3.174   3.134   2.537
  741TIP3    H2 2167   3.095   3.184   2.656
  742TIP3   OH2 2168   6.646   4.673   0.361
  742TIP3    H1 2169   6.608   4.646   0.277
  742TIP3    H2 2170   6.665   4.766   0.350
  743TIP3   OH2 2171   3.447   1.704   3.645
  743TIP3    H1 2172   3.431   1.774   3.582
  743TIP3    H2 2173   3.361   1.663   3.658
  744TIP3   OH2 2174   6.253   0.927   2.351
  744TIP3    H1 2175   6.231   1.019   2.336
  744TIP3    H2 2176   6.266   0.920   2.445
  745TIP3   OH2 2177   5.745   4.598   4.233
  745TIP3    H1 2178   5.803   4.657   4.184
  745TIP3    H2 2179   5.663   4.597   4.184
  746TIP3   OH2 2180   0.820   7.110   1.093
  746TIP3    H1 2181   0.901   7.068   1.124
  746TIP3    H2 2182   0.802   7.178   1.158
  747TIP3   OH2 2183   5.651   0.164   0.592
  747TIP3    H1 2184   5.692   0.213   0.664
  747TIP3    H2 2185   5.701   0.190   0.514
  748TIP3   OH2 2186   0.824   3.628   1.571
  748TIP3    H1 2187   0.886   3.584   1.629
  748TIP3    H2 2188   0.872   3.642   1.490
  749TIP3   OH2 2189   3.770   5.576   4.204
  749TIP3    H1 2190   3.755   5.485   4.229
  749TIP3    H2 2191   3.818   5.613   4.278
  750TIP3   OH2 2192   0.922   4.009   2.360
  750TIP3    H1 2193   0.913   3.914   2.363
  750TIP3    H2 2194   1.015   4.024   2.348
  751TIP3   OH2 2195   5.640   2.189   4.453
  751TIP3    H1 2196   5.553   2.170   4.419
  751TIP3    H2 2197   5.668   2.268   4.405
  752TIP3   OH2 2198   4.382   0.823   4.858
  752TIP3    H1 2199   4.294   0.811   4.824
  752TIP3    H2 2200   4.393   0.918   4.864
  753TIP3   OH2 2201   6.473   2.852   5.315
  753TIP3    H1 2202   6.485   2.770   5.267
  753TIP3    H2 2203   6.551   2.903   5.294
  754TIP3   OH2 2204   5.232   3.923   6.484
  754TIP3    H1 2205   5.195   3.897   6.399
  754TIP3    H2 2206   5.161   3.972   6.527
  755TIP3   OH2 2207   1.261   1.086   1.034
  755TIP3    H1 2208   1.345   1.044   1.054
  755TIP3    H2 2209   1.199   1.048   1.096
  756TIP3   OH2 2210   1.132   2.249   6.468
  756TIP3    H1 2211   1.075   2.181   6.503
  756TIP3    H2 2212   1.203   2.257   6.533
  757TIP3   OH2 2213   4.733   6.639   1.066
  757TIP3    H1 2214   4.751   6.548   1.089
  757TIP3    H2 2215   4.802   6.689   1.110
  758TIP3   OH2 2216   2.392   7.642   3.431
  758TIP3    H1 2217   2.445   7.712   3.395
  758TIP3    H2 2218   2.446   7.563   3.420
  759TIP3   OH2 2219   3.420   5.553   5.271
  759TIP3    H1 2220   3.330   5.523   5.283
  759TIP3    H2 2221   3.454   5.563   5.360
  760TIP3   OH2 2222   5.868   4.152   5.807
  760TIP3    H1 2223   5.842   4.223   5.748
  760TIP3    H2 2224   5.900   4.197   5.886
  761TIP3   OH2 2225   5.562   7.083   4.224
  761TIP3    H1 2226   5.479   7.122   4.195
  761TIP3    H2 2227   5.596   7.145   4.288
  762TIP3   OH2 2228   1.777   4.390   6.718
  762TIP3    H1 2229   1.707   4.325   6.717
  762TIP3    H2 2230   1.787   4.413   6.811
  763TIP3   OH2 2231   1.455   0.182   2.661
  763TIP3    H1 2232   1.540   0.160   2.698
  763TIP3    H2 2233   1.453   0.139   2.576
  764TIP3   OH2 2234   2.907   6.685   5.408
  764TIP3    H1 2235   2.959   6.661   5.485
  764TIP3    H2 2236   2.817   6.663   5.431
  765TIP3   OH2 2237   0.834   2.124   1.470
  765TIP3    H1 2238   0.755   2.079   1.499
  765TIP3    H2 2239   0.873   2.157   1.551
  766TIP3   OH2 2240   2.765   0.118   1.512
  766TIP3    H1 2241   2.834   0.167   1.467
  766TIP3    H2 2242   2.686   0.140   1.463
  767TIP3   OH2 2243   6.396   2.405   5.983
  767TIP3    H1 2244   6.481   2.402   6.028
  767TIP3    H2 2245   6.362   2.492   6.002
  768TIP3   OH2 2246   5.665   4.641   6.533
  768TIP3    H1 2247   5.726   4.603   6.596
  768TIP3    H2 2248   5.676   4.588   6.454
  769TIP3   OH2 2249   0.341   6.109   1.258
  769TIP3    H1 2250   0.314   6.018   1.275
  769TIP3    H2 2251   0.259   6.157   1.249
  770TIP3   OH2 2252   6.192   2.903   1.748
  770TIP3    H1 2253   6.152   2.858   1.674
  770TIP3    H2 2254   6.147   2.987   1.753
  771TIP3   OH2 2255   6.157   5.906   4.516
  771TIP3    H1 2256   6.063   5.889   4.522
  771TIP3    H2 2257   6.174   5.912   4.422
  772TIP3   OH2 2258   2.463   1.086   5.447
  772TIP3    H1 2259   2.446   1.055   5.536
  772TIP3    H2 2260   2.377   1.093   5.406
  773TIP3   OH2 2261   4.967   3.162   1.811
  773TIP3    H1 2262   4.910   3.180   1.886
  773TIP3    H2 2263   4.945   3.230   1.748
  774TIP3   OH2 2264   0.452   5.026   3.660
  774TIP3    H1 2265   0.387   5.034   3.590
  774TIP3    H2 2266   0.448   4.934   3.686
  775TIP3   OH2 2267   3.962   6.030   3.945
  775TIP3    H1 2268   4.034   5.977   3.910
  775TIP3    H2 2269   3.958   6.008   4.038
  776TIP3   OH2 2270   0.805   5.436   5.626
  776TIP3    H1 2271   0.845   5.519   5.649
  776TIP3    H2 2272   0.742   5.418   5.696
  777TIP3   OH2 2273   3.228   4.649   0.600
  777TIP3    H1 2274   3.300   4.692   0.647
  777TIP3    H2 2275   3.160   4.639   0.666
  778TIP3   OH2 2276   5.682   4.037   4.594
  778TIP3    H1 2277   5.663   4.086   4.514
  778TIP3    H2 2278   5.778   4.039   4.601
  779TIP3   OH2 2279   2.483   6.843   5.804
  779TIP3    H1 2280   2.554   6.889   5.848
  779TIP3    H2 2281   2.422   6.820   5.875
  780TIP3   OH2 2282   7.290   5.160   5.431
  780TIP3    H1 2283   7.259   5.110   5.356
  780TIP3    H2 2284   7.254   5.115   5.507
  781TIP3   OH2 2285   6.530   1.141   0.496
  781TIP3    H1 2286   6.547   1.133   0.403
  781TIP3    H2 2287   6.607   1.185   0.532
  782TIP3   OH2 2288   7.710   4.266   4.942
  782TIP3    H1 2289   7.761   4.346   4.957
  782TIP3    H2 2290   7.628   4.297   4.904
  783TIP3   OH2 2291   8.227   2.086   1.588
  783TIP3    H1 2292   8.211   2.011   1.531
  783TIP3    H2 2293   8.145   2.096   1.637
  784TIP3   OH2 2294   6.874   1.533   0.434
  784TIP3    H1 2295   6.856   1.486   0.516
  784TIP3    H2 2296   6.865   1.466   0.366
  785TIP3   OH2 2297   4.637   0.085   2.163
  785TIP3    H1 2298   4.686   0.103   2.083
  785TIP3    H2 2299   4.553   0.051   2.133
  786TIP3   OH2 2300   8.231   1.704   0.879
  786TIP3    H1 2301   8.322   1.731   0.863
  786TIP3    H2 2302   8.218   1.628   0.821
  787TIP3   OH2 2303   0.059   1.513   5.346
  787TIP3    H1 2304   0.126   1.509   5.278
  787TIP3    H2 2305   0.038   1.606   5.354
  788TIP3   OH2 2306   1.679   0.797   2.051
  788TIP3    H1 2307   1.748   0.858   2.026
  788TIP3    H2 2308   1.696   0.719   1.998
  789TIP3   OH2 2309   0.099   6.704   2.031
  789TIP3    H1 2310   0.158   6.768   1.991
  789TIP3    H2 2311   0.013   6.744   2.024
  790TIP3   OH2 2312   0.093   3.694   2.499
  790TIP3    H1 2313   0.080   3.683   2.405
  790TIP3    H2 2314   0.169   3.752   2.505
  791TIP3   OH2 2315   2.704   5.159   0.475
  791TIP3    H1 2316   2.794   5.127   0.472
  791TIP3    H2 2317   2.704   5.226   0.543
  792TIP3   OH2 2318   8.319   3.560   4.532
  792TIP3    H1 2319   8.246   3.602   4.575
  792TIP3    H2 2320   8.292   3.468   4.522
  793TIP3   OH2 2321   0.715   6.315   2.592
  793TIP3    H1 2322   0.629   6.358   2.595
  793TIP3    H2 2323   0.774   6.378   2.633
  794TIP3   OH2 2324   6.604   2.378   6.630
  794TIP3    H1 2325   6.650   2.294   6.625
  794TIP3    H2 2326   6.561   2.377   6.715
  795TIP3   OH2 2327   7.283   7.077   4.810
  795TIP3    H1 2328   7.348   7.140   4.842
  795TIP3    H2 2329   7.251   7.034   4.889
  796TIP3   OH2 2330   1.758   5.819   1.969
  796TIP3    H1 2331   1.682   5.866   1.937
  796TIP3    H2 2332   1.833   5.860   1.924
  797TIP3   OH2 2333   0.747   1.177   5.914
  797TIP3    H1 2334   0.660   1.169   5.874
  797TIP3    H2 2335   0.747   1.265   5.953
  798TIP3   OH2 2336   6.936   2.058   2.463
  798TIP3    H1 2337   6.934   1.975   2.510
  798TIP3    H2 2338   6.911   2.036   2.373
  799TIP3   OH2 2339   1.411   4.044   4.532
  799TIP3    H1 2340   1.447   4.110   4.591
  799TIP3    H2 2341   1.411   4.087   4.446
  800TIP3   OH2 2342   3.136   7.654   6.533
  800TIP3    H1 2343   3.045   7.655   6.564
  800TIP3    H2 2344   3.138   7.716   6.461
  801TIP3   OH2 2345   7.346   3.788   3.610
  801TIP3    H1 2346   7.383   3.767   3.524
  801TIP3    H2 2347   7.421   3.801   3.667
  802TIP3   OH2 2348   8.121   5.637   4.674
  802TIP3    H1 2349   8.049   5.687   4.710
  802TIP3    H2 2350   8.152   5.583   4.747
  803TIP3   OH2 2351   3.250   1.728   4.142
  803TIP3    H1 2352   3.204   1.810   4.124
  803TIP3    H2 2353   3.335   1.738   4.098
  804TIP3   OH2 2354   3.162   5.386   1.653
  804TIP3    H1 2355   3.248   5.383   1.695
  804TIP3    H2 2356   3.100   5.366   1.724
  805TIP3   OH2 2357   3.282   6.690   5.522
  805TIP3    H1 2358   3.217   6.679   5.592
  805TIP3    H2 2359   3.357   6.639   5.550
  806TIP3   OH2 2360   8.271   3.619   2.078
  806TIP3    H1 2361   8.245   3.528   2.097
  806TIP3    H2 2362   8.239   3.634   1.989
  807TIP3   OH2 2363   0.978   0.541   3.474
  807TIP3    H1 2364   0.956   0.591   3.395
  807TIP3    H2 2365   0.981   0.606   3.544
  808TIP3   OH2 2366   0.191   0.987   2.001
  808TIP3    H1 2367   0.123   1.050   2.027
  808TIP3    H2 2368   0.164   0.957   1.915
  809TIP3   OH2 2369   3.326   1.433   6.779
  809TIP3    H1 2370   3.309   1.366   6.712
  809TIP3    H2 2371   3.240   1.459   6.809
  810TIP3   OH2 2372   6.072   3.090   6.336
  810TIP3    H1 2373   6.103   3.027   6.271
  810TIP3    H2 2374   6.090   3.175   6.297
  811TIP3   OH2 2375   6.531   6.032   2.618
  811TIP3    H1 2376   6.612   6.017   2.665
  811TIP3    H2 2377   6.464   6.039   2.686
  812TIP3   OH2 2378   6.698   2.394   4.875
  812TIP3    H1 2379   6.740   2.456   4.816
  812TIP3    H2 2380   6.760   2.321   4.881
  813TIP3   OH2 2381   3.955   3.726   4.765
  813TIP3    H1 2382   3.882   3.783   4.740
  813TIP3    H2 2383   4.013   3.727   4.690
  814TIP3   OH2 2384   7.014   2.676   0.774
  814TIP3    H1 2385   6.935   2.671   0.719
  814TIP3    H2 2386   7.048   2.587   0.775
  815TIP3   OH2 2387   4.291   4.934   4.777
  815TIP3    H1 2388   4.273   4.868   4.710
  815TIP3    H2 2389   4.219   4.926   4.839
  816TIP3   OH2 2390   7.007   2.615   1.919
  816TIP3    H1 2391   7.008   2.519   1.914
  816TIP3    H2 2392   6.922   2.640   1.884
  817TIP3   OH2 2393   6.509   3.569   6.827
  817TIP3    H1 2394   6.501   3.517   6.747
  817TIP3    H2 2395   6.420   3.597   6.846
  818TIP3   OH2 2396   7.878   4.324   1.634
  818TIP3    H1 2397   7.959   4.310   1.683
  818TIP3    H2 2398   7.892   4.277   1.551
  819TIP3   OH2 2399   0.571   5.767   4.446
  819TIP3    H1 2400   0.663   5.768   4.418
  819TIP3    H2 2401   0.527   5.826   4.385
  820TIP3   OH2 2402   5.169   3.710   1.554
  820TIP3    H1 2403   5.099   3.665   1.507
  820TIP3    H2 2404   5.130   3.792   1.582
  821TIP3   OH2 2405   7.140   1.779   4.412
  821TIP3    H1 2406   7.153   1.709   4.476
  821TIP3    H2 2407   7.087   1.739   4.343
  822TIP3   OH2 2408   6.986   1.214   0.839
  822TIP3    H1 2409   6.912   1.181   0.890
  822TIP3    H2 2410   7.060   1.211   0.899
  823TIP3   OH2 2411   2.402   3.956   6.700
  823TIP3    H1 2412   2.308   3.970   6.694
  823TIP3    H2 2413   2.427   3.993   6.785
  824TIP3   OH2 2414   2.589   6.677   2.412
  824TIP3    H1 2415   2.626   6.764   2.396
  824TIP3    H2 2416   2.609   6.659   2.504
  825TIP3   OH2 2417   8.103   5.463   1.779
  825TIP3    H1 2418   8.101   5.516   1.699
  825TIP3    H2 2419   8.046   5.389   1.760
  826TIP3   OH2 2420   4.255   0.798   2.699
  826TIP3    H1 2421   4.215   0.732   2.643
  826TIP3    H2 2422   4.348   0.796   2.677
  827TIP3   OH2 2423   1.386   3.519   0.634
  827TIP3    H1 2424   1.344   3.462   0.699
  827TIP3    H2 2425   1.378   3.607   0.672
  828TIP3   OH2 2426   5.143   6.784   2.743
  828TIP3    H1 2427   5.179   6.873   2.743
  828TIP3    H2 2428   5.048   6.797   2.743
  829TIP3   OH2 2429   6.267   2.708   6.763
  829TIP3    H1 2430   6.343   2.755   6.728
  829TIP3    H2 2431   6.263   2.733   6.855
  830TIP3   OH2 2432   6.416   1.063   3.586
  830TIP3    H1 2433   6.357   0.989   3.597
  830TIP3    H2 2434   6.382   1.111   3.511
  831TIP3   OH2 2435   0.354   1.335   6.406
  831TIP3    H1 2436   0.372   1.284   6.327
  831TIP3    H2 2437   0.299   1.278   6.460
  832TIP3   OH2 2438   3.712   3.908   2.942
  832TIP3    H1 2439   3.763   3.922   2.862
  832TIP3    H2 2440   3.627   3.877   2.912
  833TIP3   OH2 2441   0.876   5.361   6.265
  833TIP3    H1 2442   0.809   5.297   6.239
  833TIP3    H2 2443   0.848   5.443   6.224
  834TIP3   OH2 2444   0.299   2.318   2.450
  834TIP3    H1 2445   0.346   2.398   2.474
  834TIP3    H2 2446   0.214   2.325   2.495
  835TIP3   OH2 2447   3.932   3.890   0.130
  835TIP3    H1 2448   3.920   3.965   0.072
  835TIP3    H2 2449   3.858   3.894   0.191
  836TIP3   OH2 2450   7.010   0.492   1.056
  836TIP3    H1 2451   6.966   0.453   1.130
  836TIP3    H2 2452   6.983   0.584   1.056
  837TIP3   OH2 2453   6.143   2.605   1.132
  837TIP3    H1 2454   6.133   2.528   1.187
  837TIP3    H2 2455   6.219   2.586   1.077
  838TIP3   OH2 2456   1.220   5.617   6.765
  838TIP3    H1 2457   1.204   5.582   6.853
  838TIP3    H2 2458   1.307   5.586   6.741
  839TIP3   OH2 2459   1.950  -0.027   3.465
  839TIP3    H1 2460   1.983  -0.060   3.548
  839TIP3    H2 2461   1.894   0.047   3.490
  840TIP3   OH2 2462   2.537   5.596   3.614
  840TIP3    H1 2463   2.563   5.509   3.644
  840TIP3    H2 2464   2.580   5.656   3.675
  841TIP3   OH2 2465   4.667   5.778   4.247
  841TIP3    H1 2466   4.613   5.851   4.277
  841TIP3    H2 2467   4.733   5.767   4.315
  842TIP3   OH2 2468   4.095   0.298   6.011
  842TIP3    H1 2469   4.001   0.287   6.021
  842TIP3    H2 2470   4.132   0.269   6.095
  843TIP3   OH2 2471   6.378   3.898   4.603
  843TIP3    H1 2472   6.378   3.805   4.623
  843TIP3    H2 2473   6.429   3.938   4.674
  844TIP3   OH2 2474   5.582   2.898   2.178
  844TIP3    H1 2475   5.580   2.819   2.124
  844TIP3    H2 2476   5.512   2.954   2.142
  845TIP3   OH2 2477   0.577   3.005   4.437
  845TIP3    H1 2478   0.563   3.059   4.515
  845TIP3    H2 2479   0.627   2.930   4.469
  846TIP3   OH2 2480   4.365   7.316   1.206
  846TIP3    H1 2481   4.453   7.292   1.235
  846TIP3    H2 2482   4.348   7.400   1.249
  847TIP3   OH2 2483   6.496   6.941   6.674
  847TIP3    H1 2484   6.406   6.917   6.652
  847TIP3    H2 2485   6.550   6.888   6.617
  848TIP3   OH2 2486   5.845   7.082   4.978
  848TIP3    H1 2487   5.830   7.171   4.949
  848TIP3    H2 2488   5.882   7.037   4.902
  849TIP3   OH2 2489   1.185   2.611   1.131
  849TIP3    H1 2490   1.135   2.567   1.200
  849TIP3    H2 2491   1.192   2.702   1.161
  850TIP3   OH2 2492   1.631   2.202   1.147
  850TIP3    H1 2493   1.539   2.227   1.133
  850TIP3    H2 2494   1.659   2.254   1.223
  851TIP3   OH2 2495   6.780   3.069   4.664
  851TIP3    H1 2496   6.837   3.138   4.698
  851TIP3    H2 2497   6.798   2.993   4.719
  852TIP3   OH2 2498   2.114   4.693   5.363
  852TIP3    H1 2499   2.079   4.604   5.357
  852TIP3    H2 2500   2.170   4.702   5.286
  853TIP3   OH2 2501   5.096   5.641   3.716
  853TIP3    H1 2502   5.128   5.649   3.627
  853TIP3    H2 2503   5.174   5.652   3.771
  854TIP3   OH2 2504   2.109   6.094   2.002
  854TIP3    H1 2505   2.104   6.035   1.926
  854TIP3    H2 2506   2.072   6.177   1.970
  855TIP3   OH2 2507   7.444   4.200   4.279
  855TIP3    H1 2508   7.368   4.155   4.315
  855TIP3    H2 2509   7.437   4.186   4.185
  856TIP3   OH2 2510   1.404   7.441   6.604
  856TIP3    H1 2511   1.413   7.368   6.665
  856TIP3    H2 2512   1.309   7.448   6.589
  857TIP3   OH2 2513   7.299   1.611   2.634
  857TIP3    H1 2514   7.314   1.520   2.609
  857TIP3    H2 2515   7.250   1.607   2.716
  858TIP3   OH2 2516   1.212   3.117   1.217
  858TIP3    H1 2517   1.239   3.190   1.273
  858TIP3    H2 2518   1.219   3.152   1.128
  859TIP3   OH2 2519   0.169   0.822   3.907
  859TIP3    H1 2520   0.203   0.820   3.818
  859TIP3    H2 2521   0.096   0.759   3.906
  860TIP3   OH2 2522   2.819   1.467   4.733
  860TIP3    H1 2523   2.905   1.483   4.772
  860TIP3    H2 2524   2.834   1.398   4.669
  861TIP3   OH2 2525   3.564   2.292   0.194
  861TIP3    H1 2526   3.610   2.322   0.116
  861TIP3    H2 2527   3.535   2.372   0.237
  862TIP3   OH2 2528   1.933   0.165   2.573
  862TIP3    H1 2529   1.896   0.234   2.628
  862TIP3    H2 2530   1.984   0.112   2.634
  863TIP3   OH2 2531   7.447   0.488   0.876
  863TIP3    H1 2532   7.468   0.526   0.961
  863TIP3    H2 2533   7.360   0.523   0.854
  864TIP3   OH2 2534   5.554   2.231   6.403
  864TIP3    H1 2535   5.598   2.258   6.483
  864TIP3    H2 2536   5.611   2.165   6.364
  865TIP3   OH2 2537   0.450   5.175   5.628
  865TIP3    H1 2538   0.475   5.104   5.686
  865TIP3    H2 2539   0.466   5.141   5.540
  866TIP3   OH2 2540   5.495   4.482   2.782
  866TIP3    H1 2541   5.459   4.558   2.827
  866TIP3    H2 2542   5.419   4.427   2.763
  867TIP3   OH2 2543   3.196   3.323   1.770
  867TIP3    H1 2544   3.132   3.346   1.838
  867TIP3    H2 2545   3.188   3.392   1.705
  868TIP3   OH2 2546   7.512   1.648   2.453
  868TIP3    H1 2547   7.595   1.640   2.501
  868TIP3    H2 2548   7.449   1.600   2.506
  869TIP3   OH2 2549   3.932   2.899   3.198
  869TIP3    H1 2550   3.888   2.947   3.127
  869TIP3    H2 2551   3.941   2.810   3.165
  870TIP3   OH2 2552   4.920   2.642   0.948
  870TIP3    H1 2553   4.895   2.650   1.040
  870TIP3    H2 2554   4.974   2.563   0.945
  871TIP3   OH2 2555   1.962   5.425   5.536
  871TIP3    H1 2556   2.030   5.491   5.544
  871TIP3    H2 2557   1.941   5.423   5.442
  872TIP3   OH2 2558   5.729   0.750   2.629
  872TIP3    H1 2559   5.657   0.762   2.567
  872TIP3    H2 2560   5.687   0.737   2.713
  873TIP3   OH2 2561   3.084   2.551   5.803
  873TIP3    H1 2562   2.991   2.572   5.810
  873TIP3    H2 2563   3.104   2.561   5.710
  874TIP3   OH2 2564   4.970   6.746   4.161
  874TIP3    H1 2565   5.046   6.695   4.188
  874TIP3    H2 2566   4.960   6.727   4.067
  875TIP3   OH2 2567   0.631   1.358   4.798
  875TIP3    H1 2568   0.642   1.427   4.732
  875TIP3    H2 2569   0.715   1.312   4.799
  876TIP3   OH2 2570   6.489   0.249   5.477
  876TIP3    H1 2571   6.449   0.311   5.415
  876TIP3    H2 2572   6.531   0.184   5.421
  877TIP3   OH2 2573   6.808   3.920   5.296
  877TIP3    H1 2574   6.765   3.835   5.307
  877TIP3    H2 2575   6.753   3.966   5.234
  878TIP3   OH2 2576   3.678   1.315   3.742
  878TIP3    H1 2577   3.714   1.394   3.784
  878TIP3    H2 2578   3.751   1.254   3.738
  879TIP3   OH2 2579   8.204   1.676   3.241
  879TIP3    H1 2580   8.297   1.656   3.248
  879TIP3    H2 2581   8.161   1.591   3.234
  880TIP3   OH2 2582   5.616   4.545   3.236
  880TIP3    H1 2583   5.671   4.511   3.306
  880TIP3    H2 2584   5.545   4.591   3.281
  881TIP3   OH2 2585   3.535   6.805   4.071
  881TIP3    H1 2586   3.512   6.896   4.090
  881TIP3    H2 2587   3.614   6.811   4.017
  882TIP3   OH2 2588   0.690   2.556   3.415
  882TIP3    H1 2589   0.781   2.532   3.402
  882TIP3    H2 2590   0.646   2.530   3.334
  883TIP3   OH2 2591   0.509   0.792   0.554
  883TIP3    H1 2592   0.557   0.868   0.587
  883TIP3    H2 2593   0.482   0.818   0.466
  884TIP3   OH2 2594   0.514   3.724   6.414
  884TIP3    H1 2595   0.486   3.815   6.418
  884TIP3    H2 2596   0.449   3.676   6.465
  885TIP3   OH2 2597   6.895   5.970   1.120
  885TIP3    H1 2598   6.889   6.013   1.205
  885TIP3    H2 2599   6.832   6.017   1.065
  886TIP3   OH2 2600   4.436   1.309   0.072
  886TIP3    H1 2601   4.346   1.342   0.076
  886TIP3    H2 2602   4.482   1.355   0.143
  887TIP3   OH2 2603   1.339   1.547   4.416
  887TIP3    H1 2604   1.408   1.482   4.401
  887TIP3    H2 2605   1.260   1.495   4.433
  888TIP3   OH2 2606   3.271   1.309   6.525
  888TIP3    H1 2607   3.255   1.374   6.457
  888TIP3    H2 2608   3.185   1.287   6.560
  889TIP3   OH2 2609   1.658   7.721   4.217
  889TIP3    H1 2610   1.742   7.692   4.183
  889TIP3    H2 2611   1.593   7.683   4.157
  890TIP3   OH2 2612   7.697   0.089   3.536
  890TIP3    H1 2613   7.773   0.056   3.585
  890TIP3    H2 2614   7.703   0.046   3.450
  891TIP3   OH2 2615   0.715   1.461   6.061
  891TIP3    H1 2616   0.788   1.523   6.059
  891TIP3    H2 2617   0.636   1.515   6.059
  892TIP3   OH2 2618   3.315   1.288   5.546
  892TIP3    H1 2619   3.390   1.326   5.500
  892TIP3    H2 2620   3.314   1.334   5.631
  893TIP3   OH2 2621   0.194   3.937   5.691
  893TIP3    H1 2622   0.248   3.866   5.657
  893TIP3    H2 2623   0.157   3.978   5.613
  894TIP3   OH2 2624   1.188   6.022   3.886
  894TIP3    H1 2625   1.172   6.085   3.815
  894TIP3    H2 2626   1.213   6.076   3.961
  895TIP3   OH2 2627   2.176   3.493   5.730
  895TIP3    H1 2628   2.094   3.489   5.680
  895TIP3    H2 2629   2.242   3.456   5.671
  896TIP3   OH2 2630   6.870   1.871   6.446
  896TIP3    H1 2631   6.782   1.905   6.431
  896TIP3    H2 2632   6.922   1.949   6.469
  897TIP3   OH2 2633   4.300   3.589   2.866
  897TIP3    H1 2634   4.247   3.509   2.859
  897TIP3    H2 2635   4.360   3.572   2.938
  898TIP3   OH2 2636   2.807   7.135   2.735
  898TIP3    H1 2637   2.736   7.142   2.671
  898TIP3    H2 2638   2.787   7.054   2.783
  899TIP3   OH2 2639   2.558   6.351   0.124
  899TIP3    H1 2640   2.618   6.278   0.137
  899TIP3    H2 2641   2.523   6.338   0.036
  900TIP3   OH2 2642   6.756   2.780   1.631
  900TIP3    H1 2643   6.670   2.819   1.618
  900TIP3    H2 2644   6.748   2.731   1.712
  901TIP3   OH2 2645   2.192   6.029   6.265
  901TIP3    H1 2646   2.132   6.072   6.204
  901TIP3    H2 2647   2.194   5.938   6.236
  902TIP3   OH2 2648   4.871   0.481   0.864
  902TIP3    H1 2649   4.780   0.457   0.884
  902TIP3    H2 2650   4.866   0.572   0.835
  903TIP3   OH2 2651   7.586   4.900   2.771
  903TIP3    H1 2652   7.552   4.932   2.855
  903TIP3    H2 2653   7.508   4.878   2.720
  904TIP3   OH2 2654   0.487   7.355   3.489
  904TIP3    H1 2655   0.452   7.326   3.573
  904TIP3    H2 2656   0.582   7.362   3.503
  905TIP3   OH2 2657   2.044   2.615   0.351
  905TIP3    H1 2658   1.995   2.654   0.278
  905TIP3    H2 2659   2.054   2.686   0.414
  906TIP3   OH2 2660   3.243   7.272   1.302
  906TIP3    H1 2661   3.149   7.256   1.293
  906TIP3    H2 2662   3.281   7.226   1.227
  907TIP3   OH2 2663   2.507   5.149   5.107
  907TIP3    H1 2664   2.423   5.148   5.153
  907TIP3    H2 2665   2.564   5.201   5.163
  908TIP3   OH2 2666   1.383   0.832   2.367
  908TIP3    H1 2667   1.343   0.918   2.378
  908TIP3    H2 2668   1.469   0.840   2.408
  909TIP3   OH2 2669   5.407   4.703   6.629
  909TIP3    H1 2670   5.485   4.648   6.626
  909TIP3    H2 2671   5.343   4.656   6.574
  910TIP3   OH2 2672   1.589   0.191   0.987
  910TIP3    H1 2673   1.558   0.137   1.060
  910TIP3    H2 2674   1.685   0.191   0.997
  911TIP3   OH2 2675   7.880   2.807   6.604
  911TIP3    H1 2676   7.822   2.832   6.531
  911TIP3    H2 2677   7.963   2.852   6.585
  912TIP3   OH2 2678   1.983   5.637   2.775
  912TIP3    H1 2679   1.888   5.624   2.775
  912TIP3    H2 2680   2.015   5.580   2.845
  913TIP3   OH2 2681   5.390   4.776   3.918
  913TIP3    H1 2682   5.366   4.839   3.851
  913TIP3    H2 2683   5.470   4.736   3.887
  914TIP3   OH2 2684   1.495   3.335   6.735
  914TIP3    H1 2685   1.565   3.277   6.706
  914TIP3    H2 2686   1.510   3.417   6.688
  915TIP3   OH2 2687   2.094   6.104   4.916
  915TIP3    H1 2688   2.099   6.197   4.896
  915TIP3    H2 2689   2.001   6.084   4.914
  916TIP3   OH2 2690   7.774   0.261   3.057
  916TIP3    H1 2691   7.687   0.228   3.034
  916TIP3    H2 2692   7.761   0.355   3.069
  917TIP3   OH2 2693   2.691   5.911   4.915
  917TIP3    H1 2694   2.717   5.831   4.869
  917TIP3    H2 2695   2.622   5.949   4.861
  918TIP3   OH2 2696   1.993   5.554   1.802
  918TIP3    H1 2697   1.924   5.551   1.868
  918TIP3    H2 2698   1.968   5.489   1.737
  919TIP3   OH2 2699   6.319   6.789   1.093
  919TIP3    H1 2700   6.373   6.854   1.139
  919TIP3    H2 2701   6.302   6.722   1.159
  920TIP3   OH2 2702   5.846   4.231   2.984
  920TIP3    H1 2703   5.762   4.270   2.958
  920TIP3    H2 2704   5.891   4.302   3.030
  921TIP3   OH2 2705   0.843   3.657   1.275
  921TIP3    H1 2706   0.869   3.708   1.198
  921TIP3    H2 2707   0.893   3.575   1.268
  922TIP3   OH2 2708   7.547   1.143   0.663
  922TIP3    H1 2709   7.590   1.077   0.608
  922TIP3    H2 2710   7.609   1.216   0.665
  923TIP3   OH2 2711   1.360   6.811   0.508
  923TIP3    H1 2712   1.345   6.837   0.417
  923TIP3    H2 2713   1.274   6.813   0.549
  924TIP3   OH2 2714   5.340   6.642   4.031
  924TIP3    H1 2715   5.429   6.605   4.036
  924TIP3    H2 2716   5.295   6.586   3.968
  925TIP3   OH2 2717   0.842   0.235   3.792
  925TIP3    H1 2718   0.813   0.309   3.845
  925TIP3    H2 2719   0.791   0.161   3.823
  926TIP3   OH2 2720   5.571   5.415   6.360
  926TIP3    H1 2721   5.481   5.449   6.367
  926TIP3    H2 2722   5.581   5.397   6.266
  927TIP3   OH2 2723   8.113   3.045   5.399
  927TIP3    H1 2724   8.082   2.959   5.426
  927TIP3    H2 2725   8.181   3.026   5.333
  928TIP3   OH2 2726   3.407   5.423   0.823
  928TIP3    H1 2727   3.454   5.432   0.906
  928TIP3    H2 2728   3.439   5.340   0.787
  929TIP3   OH2 2729   2.630   5.784   1.079
  929TIP3    H1 2730   2.716   5.825   1.090
  929TIP3    H2 2731   2.569   5.845   1.120
  930TIP3   OH2 2732   5.067   5.949   1.839
  930TIP3    H1 2733   5.081   6.043   1.826
  930TIP3    H2 2734   5.152   5.915   1.865
  931TIP3   OH2 2735   2.711   7.407   0.463
  931TIP3    H1 2736   2.789   7.452   0.428
  931TIP3    H2 2737   2.643   7.474   0.461
  932TIP3   OH2 2738   5.491   3.846   4.144
  932TIP3    H1 2739   5.567   3.902   4.130
  932TIP3    H2 2740   5.436   3.894   4.207
  933TIP3   OH2 2741   0.668   5.147   6.218
  933TIP3    H1 2742   0.582   5.168   6.184
  933TIP3    H2 2743   0.658   5.063   6.262
  934TIP3   OH2 2744   6.293   7.454   5.822
  934TIP3    H1 2745   6.212   7.459   5.771
  934TIP3    H2 2746   6.266   7.474   5.912
  935TIP3   OH2 2747   5.152   6.589   6.385
  935TIP3    H1 2748   5.231   6.599   6.439
  935TIP3    H2 2749   5.079   6.605   6.446
  936TIP3   OH2 2750   2.408   1.365   5.201
  936TIP3    H1 2751   2.341   1.409   5.148
  936TIP3    H2 2752   2.359   1.299   5.251
  937TIP3   OH2 2753   6.786   3.419   1.505
  937TIP3    H1 2754   6.801   3.429   1.599
  937TIP3    H2 2755   6.691   3.411   1.497
  938TIP3   OH2 2756   7.923   1.743   3.620
  938TIP3    H1 2757   7.935   1.685   3.695
  938TIP3    H2 2758   7.886   1.688   3.551
  939TIP3   OH2 2759   0.888   1.541   4.761
  939TIP3    H1 2760   0.947   1.487   4.710
  939TIP3    H2 2761   0.830   1.582   4.697
  940TIP3   OH2 2762   7.349   5.332   5.066
  940TIP3    H1 2763   7.384   5.347   5.154
  940TIP3    H2 2764   7.345   5.420   5.027
  941TIP3   OH2 2765   2.046   4.041   4.230
  941TIP3    H1 2766   1.988   4.073   4.299
  941TIP3    H2 2767   2.083   4.120   4.191
  942TIP3   OH2 2768   1.578   0.222   2.166
  942TIP3    H1 2769   1.520   0.201   2.239
  942TIP3    H2 2770   1.593   0.139   2.122
  943TIP3   OH2 2771   5.432   0.581   1.589
  943TIP3    H1 2772   5.365   0.638   1.627
  943TIP3    H2 2773   5.397   0.556   1.504
  944TIP3   OH2 2774   0.613   3.914   6.191
  944TIP3    H1 2775   0.677   3.866   6.243
  944TIP3    H2 2776   0.529   3.873   6.211
  945TIP3   OH2 2777   0.916   7.476   2.102
  945TIP3    H1 2778   0.897   7.382   2.105
  945TIP3    H2 2779   0.875   7.506   2.021
  946TIP3   OH2 2780   2.805   1.671   3.421
  946TIP3    H1 2781   2.711   1.686   3.435
  946TIP3    H2 2782   2.812   1.577   3.408
  947TIP3   OH2 2783   1.285   7.170   2.357
  947TIP3    H1 2784   1.233   7.094   2.383
  947TIP3    H2 2785   1.221   7.232   2.322
  948TIP3   OH2 2786   0.818   4.198   2.121
  948TIP3    H1 2787   0.745   4.218   2.179
  948TIP3    H2 2788   0.858   4.120   2.159
  949TIP3   OH2 2789   1.756   6.055   4.554
  949TIP3    H1 2790   1.793   6.027   4.470
  949TIP3    H2 2791   1.821   6.115   4.590
  950TIP3   OH2 2792   0.736   4.972   0.939
  950TIP3    H1 2793   0.688   4.894   0.966
  950TIP3    H2 2794   0.670   5.028   0.897
  951TIP3   OH2 2795   2.400   7.309   2.325
  951TIP3    H1 2796   2.444   7.281   2.406
  951TIP3    H2 2797   2.334   7.241   2.309
  952TIP3   OH2 2798   3.501   3.186   2.374
  952TIP3    H1 2799   3.530   3.143   2.293
  952TIP3    H2 2800   3.409   3.161   2.382
  953TIP3   OH2 2801   4.742   3.352   2.670
  953TIP3    H1 2802   4.649   3.334   2.657
  953TIP3    H2 2803   4.784   3.267   2.662
  954TIP3   OH2 2804   1.192   1.505   2.292
  954TIP3    H1 2805   1.191   1.546   2.379
  954TIP3    H2 2806   1.246   1.427   2.303
  955TIP3   OH2 2807   2.087   1.841   0.060
  955TIP3    H1 2808   2.081   1.891  -0.022
  955TIP3    H2 2809   2.026   1.886   0.119
  956TIP3   OH2 2810   5.929   6.363   3.340
  956TIP3    H1 2811   5.958   6.454   3.339
  956TIP3    H2 2812   6.000   6.314   3.298
  957TIP3   OH2 2813   7.798   7.484   0.346
  957TIP3    H1 2814   7.864   7.454   0.284
  957TIP3    H2 2815   7.777   7.573   0.316
  958TIP3   OH2 2816   8.032   1.529   0.676
  958TIP3    H1 2817   7.981   1.605   0.703
  958TIP3    H2 2818   8.080   1.559   0.599
  959TIP3   OH2 2819   6.769   0.359   3.963
  959TIP3    H1 2820   6.830   0.416   3.917
  959TIP3    H2 2821   6.821   0.283   3.988
  960TIP3   OH2 2822   0.059   4.919   3.591
  960TIP3    H1 2823  -0.015   4.872   3.629
  960TIP3    H2 2824   0.061   5.003   3.636
  961TIP3   OH2 2825   1.838   4.452   1.661
  961TIP3    H1 2826   1.748   4.419   1.658
  961TIP3    H2 2827   1.829   4.546   1.678
  962TIP3   OH2 2828   8.165   1.221   5.904
  962TIP3    H1 2829   8.241   1.190   5.855
  962TIP3    H2 2830   8.128   1.290   5.850
  963TIP3   OH2 2831   6.407   4.637   6.448
  963TIP3    H1 2832   6.327   4.687   6.433
  963TIP3    H2 2833   6.400   4.607   6.539
  964TIP3   OH2 2834   4.699   6.187   3.633
  964TIP3    H1 2835   4.646   6.116   3.669
  964TIP3    H2 2836   4.772   6.143   3.590
  965TIP3   OH2 2837   2.564   2.859   6.243
  965TIP3    H1 2838   2.579   2.879   6.336
  965TIP3    H2 2839   2.539   2.943   6.205
  966TIP3   OH2 2840   6.200   0.107   6.069
  966TIP3    H1 2841   6.182   0.056   5.990
  966TIP3    H2 2842   6.210   0.197   6.038
  967TIP3   OH2 2843   4.372   1.170   3.459
  967TIP3    H1 2844   4.277   1.166   3.475
  967TIP3    H2 2845   4.396   1.079   3.442
  968TIP3   OH2 2846   2.029  -0.003   0.289
  968TIP3    H1 2847   2.111  -0.010   0.239
  968TIP3    H2 2848   2.052   0.051   0.365
  969TIP3   OH2 2849   7.689   6.830   5.485
  969TIP3    H1 2850   7.662   6.818   5.576
  969TIP3    H2 2851   7.773   6.876   5.491
  970TIP3   OH2 2852   0.697   4.061   1.640
  970TIP3    H1 2853   0.692   4.118   1.717
  970TIP3    H2 2854   0.652   4.110   1.571
  971TIP3   OH2 2855   3.955   0.675   5.227
  971TIP3    H1 2856   3.928   0.764   5.204
  971TIP3    H2 2857   4.010   0.686   5.305
  972TIP3   OH2 2858   4.827   1.127   3.695
  972TIP3    H1 2859   4.733   1.146   3.698
  972TIP3    H2 2860   4.865   1.179   3.765
  973TIP3   OH2 2861   8.291   5.064   2.359
  973TIP3    H1 2862   8.228   5.076   2.288
  973TIP3    H2 2863   8.255   4.992   2.411
  974TIP3   OH2 2864   2.079   2.618   1.248
  974TIP3    H1 2865   2.172   2.631   1.232
  974TIP3    H2 2866   2.041   2.602   1.162
  975TIP3   OH2 2867   7.507   1.295   3.368
  975TIP3    H1 2868   7.524   1.258   3.281
  975TIP3    H2 2869   7.594   1.304   3.407
  976TIP3   OH2 2870   5.729   5.653   1.280
  976TIP3    H1 2871   5.704   5.596   1.208
  976TIP3    H2 2872   5.715   5.600   1.359
  977TIP3   OH2 2873   7.475   3.879   1.591
  977TIP3    H1 2874   7.522   3.947   1.543
  977TIP3    H2 2875   7.408   3.927   1.641
  978TIP3   OH2 2876   5.365   0.076   5.300
  978TIP3    H1 2877   5.378   0.077   5.205
  978TIP3    H2 2878   5.440   0.124   5.335
  979TIP3   OH2 2879   1.134   6.304   6.329
  979TIP3    H1 2880   1.182   6.222   6.315
  979TIP3    H2 2881   1.177   6.367   6.272
  980TIP3   OH2 2882   7.321   6.152   1.023
  980TIP3    H1 2883   7.274   6.103   0.955
  980TIP3    H2 2884   7.367   6.221   0.975
  981TIP3   OH2 2885   3.467   4.907   5.916
  981TIP3    H1 2886   3.557   4.877   5.903
  981TIP3    H2 2887   3.419   4.828   5.941
  982TIP3   OH2 2888   4.162   1.276   1.368
  982TIP3    H1 2889   4.107   1.216   1.316
  982TIP3    H2 2890   4.236   1.222   1.395
  983TIP3   OH2 2891   4.616   6.208   0.703
  983TIP3    H1 2892   4.600   6.264   0.628
  983TIP3    H2 2893   4.696   6.160   0.681
  984TIP3   OH2 2894   5.530   6.508   2.037
  984TIP3    H1 2895   5.565   6.526   2.125
  984TIP3    H2 2896   5.458   6.447   2.052
  985TIP3   OH2 2897   2.223   6.985   1.368
  985TIP3    H1 2898   2.291   6.973   1.301
  985TIP3    H2 2899   2.269   7.027   1.440
  986TIP3   OH2 2900   7.209   7.252   6.320
  986TIP3    H1 2901   7.195   7.316   6.389
  986TIP3    H2 2902   7.153   7.282   6.248
  987TIP3   OH2 2903   3.781   5.614   5.941
  987TIP3    H1 2904   3.834   5.550   5.988
  987TIP3    H2 2905   3.833   5.635   5.863
  988TIP3   OH2 2906   7.522   1.236   4.622
  988TIP3    H1 2907   7.502   1.280   4.540
  988TIP3    H2 2908   7.440   1.239   4.672
  989TIP3   OH2 2909   1.148   1.667   3.798
  989TIP3    H1 2910   1.239   1.666   3.828
  989TIP3    H2 2911   1.151   1.624   3.712
  990TIP3   OH2 2912   6.104   7.674   3.398
  990TIP3    H1 2913   6.078   7.583   3.412
  990TIP3    H2 2914   6.198   7.674   3.415
  991TIP3   OH2 2915   7.503   0.418   4.359
  991TIP3    H1 2916   7.567   0.357   4.323
  991TIP3    H2 2917   7.441   0.362   4.406
  992TIP3   OH2 2918   5.977   1.839   4.587
  992TIP3    H1 2919   5.957   1.857   4.495
  992TIP3    H2 2920   5.891   1.839   4.630
  993TIP3   OH2 2921   4.812   2.022   3.039
  993TIP3    H1 2922   4.889   2.055   3.086
  993TIP3    H2 2923   4.754   2.098   3.033
  994TIP3   OH2 2924   4.411   7.651   2.021
  994TIP3    H1 2925   4.346   7.581   2.015
  994TIP3    H2 2926   4.434   7.671   1.930
  995TIP3   OH2 2927   4.050   0.929   5.666
  995TIP3    H1 2928   4.069   0.917   5.759
  995TIP3    H2 2929   4.020   1.019   5.659
  996TIP3   OH2 2930   2.611   0.059   3.223
  996TIP3    H1 2931   2.610   0.155   3.212
  996TIP3    H2 2932   2.526   0.039   3.262
  997TIP3   OH2 2933   8.077   1.326   5.188
  997TIP3    H1 2934   8.105   1.344   5.278
  997TIP3    H2 2935   8.143   1.265   5.154
  998TIP3   OH2 2936   6.639   5.879   4.977
  998TIP3    H1 2937   6.572   5.935   4.938
  998TIP3    H2 2938   6.673   5.931   5.050
  999TIP3   OH2 2939   5.354   7.624   5.720
  999TIP3    H1 2940   5.438   7.612   5.764
  999TIP3    H2 2941   5.347   7.549   5.661
 1000TIP3   OH2 2942   6.404   7.702   3.407
 1000TIP3    H1 2943   6.473   7.720   3.343
 1000TIP3    H2 2944   6.442   7.727   3.491
 1001TIP3   OH2 2945   7.680   7.620   6.729
 1001TIP3    H1 2946   7.739   7.566   6.677
 1001TIP3    H2 2947   7.712   7.612   6.819
 1002TIP3   OH2 2948   4.119   3.259   4.509
 1002TIP3    H1 2949   4.061   3.288   4.580
 1002TIP3    H2 2950   4.170   3.188   4.548
 1003TIP3   OH2 2951   2.101   1.384   6.502
 1003TIP3    H1 2952   2.141   1.446   6.563
 1003TIP3    H2 2953   2.042   1.438   6.449
 1004TIP3   OH2 2954   7.276   7.041   5.752
 1004TIP3    H1 2955   7.271   6.946   5.744
 1004TIP3    H2 2956   7.201   7.065   5.807
 1005TIP3   OH2 2957   3.006   3.884   6.101
 1005TIP3    H1 2958   2.937   3.863   6.038
 1005TIP3    H2 2959   2.982   3.970   6.135
 1006TIP3   OH2 2960   5.580   6.501   4.081
 1006TIP3    H1 2961   5.561   6.456   3.999
 1006TIP3    H2 2962   5.675   6.509   4.084
 1007TIP3   OH2 2963   3.050   4.301   5.714
 1007TIP3    H1 2964   3.021   4.363   5.647
 1007TIP3    H2 2965   3.078   4.224   5.665
 1008TIP3   OH2 2966   2.915   6.233   6.617
 1008TIP3    H1 2967   3.009   6.246   6.604
 1008TIP3    H2 2968   2.874   6.300   6.563
 1009TIP3   OH2 2969   5.085   3.046   5.630
 1009TIP3    H1 2970   5.067   3.016   5.719
 1009TIP3    H2 2971   5.000   3.045   5.587
 1010TIP3   OH2 2972   5.822   3.951   2.907
 1010TIP3    H1 2973   5.775   3.943   2.824
 1010TIP3    H2 2974   5.815   4.044   2.930
 1011TIP3   OH2 2975   2.681   7.152   6.267
 1011TIP3    H1 2976   2.597   7.193   6.285
 1011TIP3    H2 2977   2.744   7.203   6.317
 1012TIP3   OH2 2978   5.127   2.503   4.263
 1012TIP3    H1 2979   5.051   2.445   4.261
 1012TIP3    H2 2980   5.095   2.582   4.307
 1013TIP3   OH2 2981   4.580   7.364   3.109
 1013TIP3    H1 2982   4.536   7.449   3.105
 1013TIP3    H2 2983   4.661   7.376   3.060
 1014TIP3   OH2 2984   7.741   5.588   3.523
 1014TIP3    H1 2985   7.729   5.602   3.617
 1014TIP3    H2 2986   7.831   5.556   3.514
 1015TIP3   OH2 2987   1.805   5.478   0.767
 1015TIP3    H1 2988   1.815   5.410   0.834
 1015TIP3    H2 2989   1.895   5.498   0.740
 1016TIP3   OH2 2990   4.318   5.372   0.864
 1016TIP3    H1 2991   4.357   5.424   0.794
 1016TIP3    H2 2992   4.240   5.334   0.825
 1017TIP3   OH2 2993   0.158   5.254   0.892
 1017TIP3    H1 2994   0.115   5.183   0.845
 1017TIP3    H2 2995   0.151   5.330   0.834
 1018TIP3   OH2 2996   8.215   6.419   3.616
 1018TIP3    H1 2997   8.153   6.382   3.679
 1018TIP3    H2 2998   8.182   6.507   3.599
 1019TIP3   OH2 2999   1.753   2.977   1.121
 1019TIP3    H1 3000   1.736   2.962   1.028
 1019TIP3    H2 3001   1.833   2.927   1.139
 1020TIP3   OH2 3002   1.313   6.885   0.233
 1020TIP3    H1 3003   1.264   6.927   0.163
 1020TIP3    H2 3004   1.376   6.951   0.263
 1021TIP3   OH2 3005   2.994   7.473   4.178
 1021TIP3    H1 3006   2.978   7.537   4.248
 1021TIP3    H2 3007   3.089   7.460   4.179
 1022TIP3   OH2 3008   2.133   1.449   1.711
 1022TIP3    H1 3009   2.196   1.429   1.781
 1022TIP3    H2 3010   2.178   1.513   1.656
 1023TIP3   OH2 3011   1.878   6.064   1.759
 1023TIP3    H1 3012   1.950   6.127   1.760
 1023TIP3    H2 3013   1.921   5.978   1.756
 1024TIP3   OH2 3014   8.076   2.865   4.536
 1024TIP3    H1 3015   8.002   2.807   4.518
 1024TIP3    H2 3016   8.103   2.898   4.450
 1025TIP3   OH2 3017   0.351   2.341   4.713
 1025TIP3    H1 3018   0.341   2.400   4.788
 1025TIP3    H2 3019   0.371   2.256   4.752
 1026TIP3   OH2 3020   2.857   6.740   4.006
 1026TIP3    H1 3021   2.898   6.825   3.994
 1026TIP3    H2 3022   2.887   6.711   4.093
 1027TIP3   OH2 3023   5.925   3.798   6.103
 1027TIP3    H1 3024   5.898   3.730   6.164
 1027TIP3    H2 3025   5.846   3.820   6.053
 1028TIP3   OH2 3026   2.207   3.199   6.483
 1028TIP3    H1 3027   2.186   3.269   6.544
 1028TIP3    H2 3028   2.278   3.151   6.525
 1029TIP3   OH2 3029   3.122   3.788   1.877
 1029TIP3    H1 3030   3.168   3.871   1.861
 1029TIP3    H2 3031   3.115   3.782   1.972
 1030TIP3   OH2 3032   3.003   7.595   0.454
 1030TIP3    H1 3033   2.971   7.634   0.536
 1030TIP3    H2 3034   3.095   7.623   0.449
 1031TIP3   OH2 3035   7.094   0.528   5.915
 1031TIP3    H1 3036   7.046   0.493   5.990
 1031TIP3    H2 3037   7.118   0.451   5.864
 1032TIP3   OH2 3038   0.829   4.234   5.251
 1032TIP3    H1 3039   0.857   4.162   5.195
 1032TIP3    H2 3040   0.851   4.205   5.340
 1033TIP3   OH2 3041   4.391   1.239   1.135
 1033TIP3    H1 3042   4.485   1.254   1.123
 1033TIP3    H2 3043   4.355   1.327   1.148
 1034TIP3   OH2 3044   8.110   2.685   1.468
 1034TIP3    H1 3045   8.163   2.614   1.432
 1034TIP3    H2 3046   8.020   2.655   1.457
 1035TIP3   OH2 3047   7.465   3.451   6.482
 1035TIP3    H1 3048   7.383   3.427   6.439
 1035TIP3    H2 3049   7.439   3.494   6.563
 1036TIP3   OH2 3050   3.647   2.654   3.128
 1036TIP3    H1 3051   3.594   2.646   3.207
 1036TIP3    H2 3052   3.605   2.724   3.077
 1037TIP3   OH2 3053   6.568   1.941   3.791
 1037TIP3    H1 3054   6.504   1.952   3.721
 1037TIP3    H2 3055   6.630   2.013   3.779
 1038TIP3   OH2 3056   4.991   3.697   4.807
 1038TIP3    H1 3057   4.900   3.685   4.779
 1038TIP3    H2 3058   4.987   3.765   4.874
 1039TIP3   OH2 3059   5.661   5.948   3.120
 1039TIP3    H1 3060   5.734   5.899   3.158
 1039TIP3    H2 3061   5.619   5.886   3.060
 1040TIP3   OH2 3062   6.759   1.093   4.752
 1040TIP3    H1 3063   6.843   1.115   4.713
 1040TIP3    H2 3064   6.776   1.011   4.800
 1041TIP3   OH2 3065   2.335   3.799   2.750
 1041TIP3    H1 3066   2.270   3.763   2.810
 1041TIP3    H2 3067   2.304   3.887   2.731
 1042TIP3   OH2 3068   6.285   0.609   5.103
 1042TIP3    H1 3069   6.234   0.551   5.047
 1042TIP3    H2 3070   6.221   0.671   5.137
 1043TIP3   OH2 3071   6.401   5.329   4.599
 1043TIP3    H1 3072   6.401   5.332   4.503
 1043TIP3    H2 3073   6.457   5.402   4.625
 1044TIP3   OH2 3074   5.796   4.436   4.431
 1044TIP3    H1 3075   5.778   4.498   4.361
 1044TIP3    H2 3076   5.735   4.363   4.416
 1045TIP3   OH2 3077   5.475   4.590   0.022
 1045TIP3    H1 3078   5.434   4.522   0.075
 1045TIP3    H2 3079   5.492   4.662   0.083
 1046TIP3   OH2 3080   6.528   5.785   5.472
 1046TIP3    H1 3081   6.545   5.766   5.380
 1046TIP3    H2 3082   6.545   5.703   5.518
 1047TIP3   OH2 3083   1.598   6.506   6.499
 1047TIP3    H1 3084   1.667   6.502   6.566
 1047TIP3    H2 3085   1.636   6.462   6.423
 1048TIP3   OH2 3086   3.426   3.136   6.332
 1048TIP3    H1 3087   3.399   3.059   6.381
 1048TIP3    H2 3088   3.345   3.168   6.291
 1049TIP3   OH2 3089   4.498   2.843   6.388
 1049TIP3    H1 3090   4.460   2.928   6.367
 1049TIP3    H2 3091   4.499   2.796   6.304
 1050TIP3   OH2 3092   8.102   3.164   1.125
 1050TIP3    H1 3093   8.044   3.121   1.188
 1050TIP3    H2 3094   8.142   3.092   1.077
 1051TIP3   OH2 3095   5.212   1.127   2.811
 1051TIP3    H1 3096   5.182   1.167   2.893
 1051TIP3    H2 3097   5.226   1.035   2.832
 1052TIP3   OH2 3098   7.039   5.090   4.907
 1052TIP3    H1 3099   7.011   5.012   4.859
 1052TIP3    H2 3100   7.128   5.069   4.937
 1053TIP3   OH2 3101   5.680   0.146   2.729
 1053TIP3    H1 3102   5.658   0.089   2.803
 1053TIP3    H2 3103   5.746   0.097   2.680
 1054TIP3   OH2 3104   6.494   6.342   3.740
 1054TIP3    H1 3105   6.453   6.382   3.817
 1054TIP3    H2 3106   6.573   6.393   3.725
 1055TIP3   OH2 3107   8.033   3.811   1.381
 1055TIP3    H1 3108   7.972   3.881   1.407
 1055TIP3    H2 3109   8.096   3.854   1.323
 1056TIP3   OH2 3110   0.055   0.131   5.034
 1056TIP3    H1 3111   0.065   0.096   4.946
 1056TIP3    H2 3112   0.017   0.059   5.084
 1057TIP3   OH2 3113   0.596   3.924   2.913
 1057TIP3    H1 3114   0.608   3.936   3.007
 1057TIP3    H2 3115   0.633   4.002   2.874
 1058TIP3   OH2 3116   1.293   6.456   6.737
 1058TIP3    H1 3117   1.278   6.389   6.671
 1058TIP3    H2 3118   1.317   6.534   6.687
 1059TIP3   OH2 3119   3.930   4.019   4.998
 1059TIP3    H1 3120   3.891   3.995   5.083
 1059TIP3    H2 3121   4.014   3.971   4.997
 1060TIP3   OH2 3122   2.657   7.470   0.764
 1060TIP3    H1 3123   2.652   7.401   0.697
 1060TIP3    H2 3124   2.700   7.543   0.720
 1061TIP3   OH2 3125   1.366   0.138   1.403
 1061TIP3    H1 3126   1.323   0.158   1.486
 1061TIP3    H2 3127   1.294   0.127   1.341
 1062TIP3   OH2 3128   0.710   0.417   6.481
 1062TIP3    H1 3129   0.729   0.325   6.498
 1062TIP3    H2 3130   0.774   0.443   6.415
 1063TIP3   OH2 3131   6.148   5.146   0.824
 1063TIP3    H1 3132   6.108   5.125   0.739
 1063TIP3    H2 3133   6.081   5.195   0.871
 1064TIP3   OH2 3134   1.579   7.619   1.946
 1064TIP3    H1 3135   1.672   7.636   1.930
 1064TIP3    H2 3136   1.546   7.700   1.985
 1065TIP3   OH2 3137   5.362   5.509   4.853
 1065TIP3    H1 3138   5.271   5.480   4.865
 1065TIP3    H2 3139   5.404   5.436   4.809
 1066TIP3   OH2 3140   4.157   7.042   0.538
 1066TIP3    H1 3141   4.226   6.976   0.554
 1066TIP3    H2 3142   4.100   7.034   0.615
 1067TIP3   OH2 3143   4.963   4.835   5.649
 1067TIP3    H1 3144   5.056   4.811   5.648
 1067TIP3    H2 3145   4.920   4.765   5.600
 1068TIP3   OH2 3146   3.225   7.124   2.100
 1068TIP3    H1 3147   3.296   7.182   2.130
 1068TIP3    H2 3148   3.269   7.041   2.080
 1069TIP3   OH2 3149   5.605   4.955   1.586
 1069TIP3    H1 3150   5.689   4.908   1.587
 1069TIP3    H2 3151   5.555   4.915   1.657
 1070TIP3   OH2 3152   5.975   1.510   6.434
 1070TIP3    H1 3153   5.967   1.598   6.470
 1070TIP3    H2 3154   5.891   1.494   6.390
 1071TIP3   OH2 3155   7.207   3.687   5.899
 1071TIP3    H1 3156   7.140   3.620   5.905
 1071TIP3    H2 3157   7.196   3.725   5.812
 1072TIP3   OH2 3158   5.286   4.689   1.224
 1072TIP3    H1 3159   5.291   4.708   1.317
 1072TIP3    H2 3160   5.221   4.750   1.190
 1073TIP3   OH2 3161   6.322   5.968   6.170
 1073TIP3    H1 3162   6.308   5.975   6.264
 1073TIP3    H2 3163   6.357   6.053   6.144
 1074TIP3   OH2 3164   6.213   2.907   5.001
 1074TIP3    H1 3165   6.211   2.824   5.048
 1074TIP3    H2 3166   6.129   2.948   5.022
 1075TIP3   OH2 3167   5.506   2.057   4.032
 1075TIP3    H1 3168   5.474   1.979   4.078
 1075TIP3    H2 3169   5.494   2.128   4.094
 1076TIP3   OH2 3170   0.110   5.483   3.251
 1076TIP3    H1 3171   0.187   5.497   3.196
 1076TIP3    H2 3172   0.051   5.555   3.227
 1077TIP3   OH2 3173   4.793   4.138   0.846
 1077TIP3    H1 3174   4.818   4.210   0.903
 1077TIP3    H2 3175   4.866   4.076   0.851
 1078TIP3   OH2 3176   3.836   6.043   5.536
 1078TIP3    H1 3177   3.871   5.967   5.491
 1078TIP3    H2 3178   3.790   6.008   5.612
 1079TIP3   OH2 3179   8.108   6.681   3.552
 1079TIP3    H1 3180   8.156   6.709   3.474
 1079TIP3    H2 3181   8.103   6.760   3.606
 1080TIP3   OH2 3182   4.070   6.904   5.247
 1080TIP3    H1 3183   4.115   6.822   5.270
 1080TIP3    H2 3184   4.082   6.959   5.325
 1081TIP3   OH2 3185   7.556   5.958   2.250
 1081TIP3    H1 3186   7.578   6.034   2.304
 1081TIP3    H2 3187   7.630   5.948   2.190
 1082TIP3   OH2 3188   1.573   5.862   3.791
 1082TIP3    H1 3189   1.524   5.924   3.738
 1082TIP3    H2 3190   1.664   5.873   3.764
 1083TIP3   OH2 3191   5.271   1.753   5.462
 1083TIP3    H1 3192   5.289   1.741   5.368
 1083TIP3    H2 3193   5.357   1.752   5.503
 1084TIP3   OH2 3194   4.523   2.029   5.433
 1084TIP3    H1 3195   4.507   1.961   5.367
 1084TIP3    H2 3196   4.438   2.040   5.477
 1085TIP3   OH2 3197   6.398   5.552   3.673
 1085TIP3    H1 3198   6.322   5.566   3.617
 1085TIP3    H2 3199   6.460   5.504   3.618
 1086TIP3   OH2 3200   7.983   4.419   5.171
 1086TIP3    H1 3201   8.029   4.389   5.250
 1086TIP3    H2 3202   7.909   4.469   5.205
 1087TIP3   OH2 3203   3.537   5.169   2.283
 1087TIP3    H1 3204   3.519   5.246   2.336
 1087TIP3    H2 3205   3.602   5.198   2.219
 1088TIP3   OH2 3206   7.650   6.116   1.522
 1088TIP3    H1 3207   7.669   6.178   1.452
 1088TIP3    H2 3208   7.621   6.037   1.477
 1089TIP3   OH2 3209   3.561   4.355   4.619
 1089TIP3    H1 3210   3.489   4.307   4.578
 1089TIP3    H2 3211   3.519   4.404   4.690
 1090TIP3   OH2 3212   0.556   7.809   2.018
 1090TIP3    H1 3213   0.638   7.841   2.056
 1090TIP3    H2 3214   0.488   7.858   2.064
 1091TIP3   OH2 3215   4.126   0.025   5.672
 1091TIP3    H1 3216   4.064   0.021   5.599
 1091TIP3    H2 3217   4.157   0.116   5.672
 1092TIP3   OH2 3218   7.133   6.584   2.020
 1092TIP3    H1 3219   7.203   6.543   1.969
 1092TIP3    H2 3220   7.166   6.586   2.110
 1093TIP3   OH2 3221   3.664   4.625   0.489
 1093TIP3    H1 3222   3.588   4.673   0.456
 1093TIP3    H2 3223   3.629   4.572   0.561
 1094TIP3   OH2 3224   0.747   7.209   4.986
 1094TIP3    H1 3225   0.796   7.275   5.035
 1094TIP3    H2 3226   0.669   7.192   5.039
 1095TIP3   OH2 3227   1.533   4.359   2.583
 1095TIP3    H1 3228   1.537   4.326   2.673
 1095TIP3    H2 3229   1.443   4.341   2.555
 1096TIP3   OH2 3230   0.550   5.999   0.074
 1096TIP3    H1 3231   0.638   5.974   0.045
 1096TIP3    H2 3232   0.524   5.928   0.133
 1097TIP3   OH2 3233   1.072   4.533   1.779
 1097TIP3    H1 3234   1.033   4.490   1.855
 1097TIP3    H2 3235   1.025   4.497   1.704
 1098TIP3   OH2 3236   1.662   1.612   2.137
 1098TIP3    H1 3237   1.600   1.655   2.079
 1098TIP3    H2 3238   1.748   1.640   2.105
 1099TIP3   OH2 3239   6.428   4.509   2.999
 1099TIP3    H1 3240   6.482   4.557   3.062
 1099TIP3    H2 3241   6.485   4.496   2.924
 1100TIP3   OH2 3242   0.408   0.812   3.626
 1100TIP3    H1 3243   0.481   0.872   3.616
 1100TIP3    H2 3244   0.343   0.841   3.562
 1101TIP3   OH2 3245   3.298   6.530   2.913
 1101TIP3    H1 3246   3.265   6.514   2.825
 1101TIP3    H2 3247   3.352   6.609   2.904
 1102TIP3   OH2 3248   8.171   0.208   0.416
 1102TIP3    H1 3249   8.116   0.239   0.487
 1102TIP3    H2 3250   8.172   0.280   0.353
 1103TIP3   OH2 3251   6.499   6.090   4.447
 1103TIP3    H1 3252   6.485   6.168   4.394
 1103TIP3    H2 3253   6.579   6.051   4.412
 1104TIP3   OH2 3254   2.614   3.865   4.962
 1104TIP3    H1 3255   2.519   3.855   4.948
 1104TIP3    H2 3256   2.647   3.895   4.878
 1105TIP3   OH2 3257   5.621   4.891   5.824
 1105TIP3    H1 3258   5.586   4.864   5.738
 1105TIP3    H2 3259   5.553   4.947   5.860
 1106TIP3   OH2 3260   3.993   1.731   6.565
 1106TIP3    H1 3261   4.016   1.790   6.493
 1106TIP3    H2 3262   3.907   1.697   6.542
 1107TIP3   OH2 3263   7.989   5.848   2.353
 1107TIP3    H1 3264   8.052   5.840   2.281
 1107TIP3    H2 3265   8.002   5.769   2.405
 1108TIP3   OH2 3266   1.802   0.464   5.802
 1108TIP3    H1 3267   1.754   0.456   5.885
 1108TIP3    H2 3268   1.743   0.426   5.737
 1109TIP3   OH2 3269   4.560   0.647   1.473
 1109TIP3    H1 3270   4.473   0.673   1.504
 1109TIP3    H2 3271   4.618   0.717   1.502
 1110TIP3   OH2 3272   5.190   3.978   5.321
 1110TIP3    H1 3273   5.191   3.883   5.316
 1110TIP3    H2 3274   5.210   4.007   5.232
 1111TIP3   OH2 3275   4.241   4.467   1.121
 1111TIP3    H1 3276   4.332   4.449   1.143
 1111TIP3    H2 3277   4.191   4.433   1.195
 1112TIP3   OH2 3278   6.352   0.837   3.270
 1112TIP3    H1 3279   6.283   0.877   3.324
 1112TIP3    H2 3280   6.418   0.906   3.262
 1113TIP3   OH2 3281   5.186   1.999   2.597
 1113TIP3    H1 3282   5.175   2.011   2.502
 1113TIP3    H2 3283   5.248   2.068   2.622
 1114TIP3   OH2 3284   4.589   4.739   6.569
 1114TIP3    H1 3285   4.649   4.665   6.568
 1114TIP3    H2 3286   4.594   4.774   6.658
 1115TIP3   OH2 3287   3.104   3.139   3.619
 1115TIP3    H1 3288   3.136   3.118   3.707
 1115TIP3    H2 3289   3.167   3.202   3.585
 1116TIP3   OH2 3290   4.400   6.417   5.981
 1116TIP3    H1 3291   4.390   6.487   5.917
 1116TIP3    H2 3292   4.491   6.425   6.011
 1117TIP3   OH2 3293   4.268   2.670   1.513
 1117TIP3    H1 3294   4.224   2.718   1.583
 1117TIP3    H2 3295   4.354   2.711   1.506
 1118TIP3   OH2 3296   6.620   6.666   3.221
 1118TIP3    H1 3297   6.539   6.669   3.271
 1118TIP3    H2 3298   6.602   6.608   3.148
 1119TIP3   OH2 3299   5.848   4.394   0.763
 1119TIP3    H1 3300   5.758   4.408   0.734
 1119TIP3    H2 3301   5.901   4.446   0.702
 1120TIP3   OH2 3302   6.382   1.967   4.834
 1120TIP3    H1 3303   6.392   1.992   4.742
 1120TIP3    H2 3304   6.468   1.934   4.860
 1121TIP3   OH2 3305   4.480   4.164   5.223
 1121TIP3    H1 3306   4.424   4.241   5.228
 1121TIP3    H2 3307   4.529   4.176   5.142
 1122TIP3   OH2 3308   1.287   5.577   3.580
 1122TIP3    H1 3309   1.296   5.486   3.608
 1122TIP3    H2 3310   1.368   5.595   3.532
 1123TIP3   OH2 3311   0.309   0.863   0.130
 1123TIP3    H1 3312   0.367   0.822   0.066
 1123TIP3    H2 3313   0.352   0.947   0.150
 1124TIP3   OH2 3314   6.992   5.418   3.943
 1124TIP3    H1 3315   7.005   5.504   3.902
 1124TIP3    H2 3316   7.080   5.379   3.947
 1125TIP3   OH2 3317   7.117   5.462   0.570
 1125TIP3    H1 3318   7.061   5.538   0.557
 1125TIP3    H2 3319   7.204   5.490   0.540
 1126TIP3   OH2 3320   3.505   0.681   2.067
 1126TIP3    H1 3321   3.496   0.616   1.998
 1126TIP3    H2 3322   3.592   0.719   2.054
 1127TIP3   OH2 3323   5.205   4.350   4.070
 1127TIP3    H1 3324   5.150   4.298   4.011
 1127TIP3    H2 3325   5.219   4.433   4.024
 1128TIP3   OH2 3326   8.106   3.783   3.862
 1128TIP3    H1 3327   8.175   3.748   3.919
 1128TIP3    H2 3328   8.100   3.720   3.790
 1129TIP3   OH2 3329   5.748   1.025   4.849
 1129TIP3    H1 3330   5.814   0.995   4.786
 1129TIP3    H2 3331   5.793   1.090   4.902
 1130TIP3   OH2 3332   4.217   5.648   1.898
 1130TIP3    H1 3333   4.146   5.712   1.902
 1130TIP3    H2 3334   4.190   5.579   1.958
 1131TIP3   OH2 3335   4.093   5.996   6.441
 1131TIP3    H1 3336   4.183   6.022   6.424
 1131TIP3    H2 3337   4.100   5.932   6.512
 1132TIP3   OH2 3338   2.584   1.930   2.426
 1132TIP3    H1 3339   2.678   1.948   2.430
 1132TIP3    H2 3340   2.562   1.902   2.515
 1133TIP3   OH2 3341   2.034   7.426   3.920
 1133TIP3    H1 3342   2.017   7.338   3.885
 1133TIP3    H2 3343   2.113   7.416   3.972
 1134TIP3   OH2 3344   4.486   5.929   1.009
 1134TIP3    H1 3345   4.551   5.921   1.080
 1134TIP3    H2 3346   4.408   5.965   1.052
 1135TIP3   OH2 3347   1.551   1.731   5.373
 1135TIP3    H1 3348   1.577   1.813   5.416
 1135TIP3    H2 3349   1.522   1.757   5.286
 1136TIP3   OH2 3350   1.993   1.530   6.303
 1136TIP3    H1 3351   1.898   1.540   6.301
 1136TIP3    H2 3352   2.019   1.523   6.211
 1137TIP3   OH2 3353   5.523   2.845   3.981
 1137TIP3    H1 3354   5.576   2.769   4.004
 1137TIP3    H2 3355   5.539   2.858   3.888
 1138TIP3   OH2 3356   0.137   1.517   2.163
 1138TIP3    H1 3357   0.149   1.428   2.196
 1138TIP3    H2 3358   0.206   1.568   2.205
 1139TIP3   OH2 3359   4.130   5.436   5.305
 1139TIP3    H1 3360   4.134   5.429   5.400
 1139TIP3    H2 3361   4.220   5.425   5.276
 1140TIP3   OH2 3362   5.254   1.716   0.346
 1140TIP3    H1 3363   5.314   1.784   0.379
 1140TIP3    H2 3364   5.217   1.677   0.425
 1141TIP3   OH2 3365   2.004   1.642   5.529
 1141TIP3    H1 3366   1.964   1.703   5.591
 1141TIP3    H2 3367   1.933   1.621   5.468
 1142TIP3   OH2 3368   5.110   0.737   0.607
 1142TIP3    H1 3369   5.154   0.692   0.535
 1142TIP3    H2 3370   5.090   0.824   0.572
 1143TIP3   OH2 3371   0.105   1.114   1.450
 1143TIP3    H1 3372   0.140   1.067   1.525
 1143TIP3    H2 3373   0.155   1.082   1.375
 1144TIP3   OH2 3374   2.766   7.432   3.135
 1144TIP3    H1 3375   2.730   7.424   3.047
 1144TIP3    H2 3376   2.710   7.496   3.178
 1145TIP3   OH2 3377   3.137   4.546   3.853
 1145TIP3    H1 3378   3.167   4.497   3.930
 1145TIP3    H2 3379   3.075   4.610   3.888
 1146TIP3   OH2 3380   5.948   1.466   5.192
 1146TIP3    H1 3381   5.876   1.513   5.151
 1146TIP3    H2 3382   5.913   1.378   5.210
 1147TIP3   OH2 3383   2.290   7.527   5.415
 1147TIP3    H1 3384   2.335   7.504   5.496
 1147TIP3    H2 3385   2.358   7.566   5.360
 1148TIP3   OH2 3386   1.744   3.714   3.319
 1148TIP3    H1 3387   1.746   3.689   3.412
 1148TIP3    H2 3388   1.817   3.776   3.310
 1149TIP3   OH2 3389   8.258   4.821   2.526
 1149TIP3    H1 3390   8.223   4.818   2.615
 1149TIP3    H2 3391   8.272   4.729   2.503
 1150TIP3   OH2 3392   2.934   7.488   2.537
 1150TIP3    H1 3393   3.010   7.491   2.478
 1150TIP3    H2 3394   2.860   7.472   2.479
 1151TIP3   OH2 3395   5.671   0.522   1.042
 1151TIP3    H1 3396   5.758   0.530   1.003
 1151TIP3    H2 3397   5.620   0.591   0.999
 1152TIP3   OH2 3398   5.550   2.505   5.664
 1152TIP3    H1 3399   5.563   2.454   5.585
 1152TIP3    H2 3400   5.612   2.577   5.657
 1153TIP3   OH2 3401   1.060   5.225   3.991
 1153TIP3    H1 3402   1.019   5.162   4.050
 1153TIP3    H2 3403   1.023   5.204   3.905
 1154TIP3   OH2 3404   3.062   0.391   3.456
 1154TIP3    H1 3405   3.004   0.322   3.422
 1154TIP3    H2 3406   3.105   0.426   3.378
 1155TIP3   OH2 3407   4.815   0.952   6.667
 1155TIP3    H1 3408   4.777   1.028   6.623
 1155TIP3    H2 3409   4.740   0.898   6.693
 1156TIP3   OH2 3410   0.375   6.773   5.756
 1156TIP3    H1 3411   0.285   6.759   5.727
 1156TIP3    H2 3412   0.416   6.687   5.751
 1157TIP3   OH2 3413   6.827   3.503   2.205
 1157TIP3    H1 3414   6.848   3.459   2.123
 1157TIP3    H2 3415   6.883   3.460   2.270
 1158TIP3   OH2 3416   4.524   1.666   1.819
 1158TIP3    H1 3417   4.610   1.630   1.841
 1158TIP3    H2 3418   4.477   1.593   1.777
 1159TIP3   OH2 3419   6.357   0.076   3.218
 1159TIP3    H1 3420   6.299   0.009   3.254
 1159TIP3    H2 3421   6.405   0.032   3.148
 1160TIP3   OH2 3422   4.633   7.636   5.608
 1160TIP3    H1 3423   4.598   7.699   5.545
 1160TIP3    H2 3424   4.579   7.648   5.686
 1161TIP3   OH2 3425   6.767   0.731   4.517
 1161TIP3    H1 3426   6.679   0.767   4.514
 1161TIP3    H2 3427   6.793   0.722   4.425
 1162TIP3   OH2 3428   4.502   7.508   6.152
 1162TIP3    H1 3429   4.443   7.521   6.077
 1162TIP3    H2 3430   4.447   7.465   6.218
 1163TIP3   OH2 3431   1.153   6.555   2.960
 1163TIP3    H1 3432   1.224   6.615   2.984
 1163TIP3    H2 3433   1.076   6.590   3.004
 1164TIP3   OH2 3434   3.193   7.801   0.991
 1164TIP3    H1 3435   3.286   7.824   0.985
 1164TIP3    H2 3436   3.183   7.764   1.079
 1165TIP3   OH2 3437   0.572   5.141   0.504
 1165TIP3    H1 3438   0.588   5.225   0.462
 1165TIP3    H2 3439   0.638   5.082   0.467
 1166TIP3   OH2 3440   4.825   4.026   3.158
 1166TIP3    H1 3441   4.747   4.025   3.215
 1166TIP3    H2 3442   4.884   4.090   3.199
 1167TIP3   OH2 3443   5.092   0.936   5.261
 1167TIP3    H1 3444   5.044   0.857   5.288
 1167TIP3    H2 3445   5.057   1.004   5.318
 1168TIP3   OH2 3446   7.552   6.544   1.130
 1168TIP3    H1 3447   7.562   6.624   1.183
 1168TIP3    H2 3448   7.497   6.571   1.056
 1169TIP3   OH2 3449   0.090   0.337   1.630
 1169TIP3    H1 3450  -0.005   0.323   1.635
 1169TIP3    H2 3451   0.126   0.251   1.613
 1170TIP3   OH2 3452   1.314   4.943   0.398
 1170TIP3    H1 3453   1.283   4.853   0.384
 1170TIP3    H2 3454   1.336   4.975   0.310
 1171TIP3   OH2 3455   1.923   3.986   0.747
 1171TIP3    H1 3456   1.960   3.938   0.674
 1171TIP3    H2 3457   1.895   3.918   0.809
 1172TIP3   OH2 3458   5.302   3.342   1.357
 1172TIP3    H1 3459   5.310   3.285   1.433
 1172TIP3    H2 3460   5.381   3.397   1.359
 1173TIP3   OH2 3461   2.565   5.427   5.222
 1173TIP3    H1 3462   2.471   5.447   5.215
 1173TIP3    H2 3463   2.604   5.469   5.146
 1174TIP3   OH2 3464   5.508   7.761   2.301
 1174TIP3    H1 3465   5.547   7.812   2.371
 1174TIP3    H2 3466   5.570   7.690   2.285
 1175TIP3   OH2 3467   3.500   1.575   1.877
 1175TIP3    H1 3468   3.463   1.663   1.873
 1175TIP3    H2 3469   3.553   1.567   1.797
 1176TIP3   OH2 3470   2.497   2.300   6.002
 1176TIP3    H1 3471   2.511   2.214   6.043
 1176TIP3    H2 3472   2.579   2.316   5.954
 1177TIP3   OH2 3473   5.025   5.261   5.498
 1177TIP3    H1 3474   4.953   5.312   5.463
 1177TIP3    H2 3475   4.993   5.228   5.582
 1178TIP3   OH2 3476   3.254   1.306   4.318
 1178TIP3    H1 3477   3.166   1.331   4.291
 1178TIP3    H2 3478   3.241   1.227   4.370
 1179TIP3   OH2 3479   5.432   2.164   1.624
 1179TIP3    H1 3480   5.388   2.134   1.704
 1179TIP3    H2 3481   5.471   2.248   1.649
 1180TIP3   OH2 3482   2.436   0.356   0.615
 1180TIP3    H1 3483   2.350   0.354   0.573
 1180TIP3    H2 3484   2.417   0.357   0.709
 1181TIP3   OH2 3485   3.148   1.441   2.893
 1181TIP3    H1 3486   3.226   1.392   2.866
 1181TIP3    H2 3487   3.179   1.501   2.960
 1182TIP3   OH2 3488   7.531   5.580   4.328
 1182TIP3    H1 3489   7.470   5.555   4.259
 1182TIP3    H2 3490   7.609   5.609   4.282
 1183TIP3   OH2 3491   4.179   1.277   5.989
 1183TIP3    H1 3492   4.119   1.320   6.050
 1183TIP3    H2 3493   4.127   1.206   5.951
 1184TIP3   OH2 3494   4.466   3.782   0.855
 1184TIP3    H1 3495   4.428   3.720   0.793
 1184TIP3    H2 3496   4.450   3.868   0.817
 1185TIP3   OH2 3497   2.303   3.424   4.238
 1185TIP3    H1 3498   2.339   3.513   4.235
 1185TIP3    H2 3499   2.275   3.407   4.148
 1186TIP3   OH2 3500   4.414   4.998   6.727
 1186TIP3    H1 3501   4.348   5.067   6.719
 1186TIP3    H2 3502   4.491   5.033   6.682
 1187TIP3   OH2 3503   6.589   6.244   4.972
 1187TIP3    H1 3504   6.521   6.228   5.038
 1187TIP3    H2 3505   6.553   6.206   4.891
 1188TIP3   OH2 3506   0.687   2.172   3.202
 1188TIP3    H1 3507   0.603   2.219   3.208
 1188TIP3    H2 3508   0.667   2.094   3.150
 1189TIP3   OH2 3509   2.232   0.608   5.755
 1189TIP3    H1 3510   2.227   0.671   5.683
 1189TIP3    H2 3511   2.164   0.544   5.735
 1190TIP3   OH2 3512   0.711   3.873   1.400
 1190TIP3    H1 3513   0.766   3.916   1.465
 1190TIP3    H2 3514   0.762   3.797   1.371
 1191TIP3   OH2 3515   2.497   0.450   5.821
 1191TIP3    H1 3516   2.453   0.513   5.878
 1191TIP3    H2 3517   2.516   0.500   5.741
 1192TIP3   OH2 3518   4.219   2.021   4.805
 1192TIP3    H1 3519   4.182   1.934   4.817
 1192TIP3    H2 3520   4.286   2.010   4.737
 1193TIP3   OH2 3521   4.626   1.015   1.413
 1193TIP3    H1 3522   4.698   0.959   1.384
 1193TIP3    H2 3523   4.647   1.038   1.503
 1194TIP3   OH2 3524   1.921   0.043   6.235
 1194TIP3    H1 3525   2.007  -0.001   6.237
 1194TIP3    H2 3526   1.886   0.020   6.148
 1195TIP3   OH2 3527   1.784   3.860   4.494
 1195TIP3    H1 3528   1.782   3.825   4.405
 1195TIP3    H2 3529   1.695   3.847   4.527
 1196TIP3   OH2 3530   2.512   1.113   1.618
 1196TIP3    H1 3531   2.468   1.192   1.648
 1196TIP3    H2 3532   2.547   1.073   1.698
 1197TIP3   OH2 3533   6.343   4.472   0.919
 1197TIP3    H1 3534   6.297   4.391   0.938
 1197TIP3    H2 3535   6.411   4.447   0.856
 1198TIP3   OH2 3536   6.719   6.441   6.277
 1198TIP3    H1 3537   6.625   6.427   6.268
 1198TIP3    H2 3538   6.758   6.385   6.210
 1199TIP3   OH2 3539   4.902   1.579   3.286
 1199TIP3    H1 3540   4.848   1.655   3.268
 1199TIP3    H2 3541   4.984   1.596   3.240
 1200TIP3   OH2 3542   7.780   1.208   2.635
 1200TIP3    H1 3543   7.691   1.206   2.598
 1200TIP3    H2 3544   7.772   1.265   2.712
 1201TIP3   OH2 3545   5.913   1.258   4.238
 1201TIP3    H1 3546   5.886   1.347   4.262
 1201TIP3    H2 3547   5.995   1.269   4.190
 1202TIP3   OH2 3548   0.274   4.783   5.622
 1202TIP3    H1 3549   0.200   4.837   5.597
 1202TIP3    H2 3550   0.338   4.844   5.657
 1203TIP3   OH2 3551   0.756   2.982   0.193
 1203TIP3    H1 3552   0.824   2.972   0.259
 1203TIP3    H2 3553   0.767   2.906   0.136
 1204TIP3   OH2 3554   0.547   7.778   0.712
 1204TIP3    H1 3555   0.534   7.721   0.788
 1204TIP3    H2 3556   0.628   7.825   0.731
 1205TIP3   OH2 3557   3.086   6.401   4.248
 1205TIP3    H1 3558   3.143   6.362   4.182
 1205TIP3    H2 3559   3.071   6.331   4.312
 1206TIP3   OH2 3560   5.699   2.640   4.059
 1206TIP3    H1 3561   5.670   2.564   4.009
 1206TIP3    H2 3562   5.788   2.656   4.029
 1207TIP3   OH2 3563   7.385   1.877   4.331
 1207TIP3    H1 3564   7.304   1.831   4.351
 1207TIP3    H2 3565   7.356   1.956   4.284
 1208TIP3   OH2 3566   5.517   3.498   1.283
 1208TIP3    H1 3567   5.500   3.566   1.348
 1208TIP3    H2 3568   5.608   3.512   1.256
 1209TIP3   OH2 3569   0.211   5.022   2.170
 1209TIP3    H1 3570   0.146   5.016   2.240
 1209TIP3    H2 3571   0.161   5.056   2.095
 1210TIP3   OH2 3572   4.530   7.318   2.635
 1210TIP3    H1 3573   4.610   7.285   2.676
 1210TIP3    H2 3574   4.508   7.396   2.687
 1211TIP3   OH2 3575   2.332   2.445   5.323
 1211TIP3    H1 3576   2.413   2.410   5.285
 1211TIP3    H2 3577   2.355   2.465   5.414
 1212TIP3   OH2 3578   1.072   0.443   6.425
 1212TIP3    H1 3579   1.026   0.489   6.495
 1212TIP3    H2 3580   1.067   0.350   6.449
 1213TIP3   OH2 3581   1.840   6.096   6.331
 1213TIP3    H1 3582   1.774   6.153   6.371
 1213TIP3    H2 3583   1.882   6.053   6.406
 1214TIP3   OH2 3584   1.111   1.560   1.837
 1214TIP3    H1 3585   1.171   1.564   1.763
 1214TIP3    H2 3586   1.032   1.519   1.801
 1215TIP3   OH2 3587   1.273   1.924   4.906
 1215TIP3    H1 3588   1.199   1.965   4.862
 1215TIP3    H2 3589   1.317   1.873   4.838
 1216TIP3   OH2 3590   2.761   5.492   4.625
 1216TIP3    H1 3591   2.665   5.494   4.627
 1216TIP3    H2 3592   2.783   5.399   4.624
 1217TIP3   OH2 3593   2.653   5.568   0.922
 1217TIP3    H1 3594   2.724   5.601   0.867
 1217TIP3    H2 3595   2.625   5.643   0.974
 1218TIP3   OH2 3596   6.021   0.975   3.134
 1218TIP3    H1 3597   5.982   1.012   3.213
 1218TIP3    H2 3598   6.005   1.040   3.066
 1219TIP3   OH2 3599   2.975   1.272   3.532
 1219TIP3    H1 3600   2.952   1.328   3.458
 1219TIP3    H2 3601   2.988   1.333   3.605
 1220TIP3   OH2 3602   6.452   5.516   2.443
 1220TIP3    H1 3603   6.542   5.505   2.473
 1220TIP3    H2 3604   6.410   5.432   2.464
 1221TIP3   OH2 3605   4.861   1.180   0.944
 1221TIP3    H1 3606   4.873   1.097   0.897
 1221TIP3    H2 3607   4.850   1.245   0.875
 1222TIP3   OH2 3608   5.335   0.642   4.444
 1222TIP3    H1 3609   5.361   0.628   4.536
 1222TIP3    H2 3610   5.413   0.680   4.403
 1223TIP3   OH2 3611   4.504   7.374   1.842
 1223TIP3    H1 3612   4.490   7.385   1.937
 1223TIP3    H2 3613   4.453   7.297   1.819
 1224TIP3   OH2 3614   6.516   6.991   4.844
 1224TIP3    H1 3615   6.516   6.902   4.807
 1224TIP3    H2 3616   6.455   6.986   4.917
 1225TIP3   OH2 3617   5.572   2.334   1.795
 1225TIP3    H1 3618   5.663   2.310   1.780
 1225TIP3    H2 3619   5.560   2.326   1.890
 1226TIP3   OH2 3620   4.226   7.460   4.203
 1226TIP3    H1 3621   4.179   7.386   4.240
 1226TIP3    H2 3622   4.317   7.445   4.226
 1227TIP3   OH2 3623   0.882   4.713   0.853
 1227TIP3    H1 3624   0.975   4.700   0.831
 1227TIP3    H2 3625   0.883   4.733   0.947
 1228TIP3   OH2 3626   5.242   2.734   6.522
 1228TIP3    H1 3627   5.337   2.738   6.509
 1228TIP3    H2 3628   5.213   2.661   6.468
 1229TIP3   OH2 3629   5.620   0.917   2.199
 1229TIP3    H1 3630   5.622   1.013   2.197
 1229TIP3    H2 3631   5.710   0.892   2.217
 1230TIP3   OH2 3632   2.099   6.033   1.424
 1230TIP3    H1 3633   2.181   6.074   1.452
 1230TIP3    H2 3634   2.091   5.955   1.478
 1231TIP3   OH2 3635   6.277   3.784   1.310
 1231TIP3    H1 3636   6.216   3.720   1.346
 1231TIP3    H2 3637   6.356   3.773   1.363
 1232TIP3   OH2 3638   4.144   5.870   3.779
 1232TIP3    H1 3639   4.214   5.855   3.715
 1232TIP3    H2 3640   4.156   5.800   3.844
 1233TIP3   OH2 3641   7.481   2.665   4.361
 1233TIP3    H1 3642   7.473   2.656   4.266
 1233TIP3    H2 3643   7.393   2.685   4.392
 1234TIP3   OH2 3644   4.200   5.233   2.562
 1234TIP3    H1 3645   4.129   5.256   2.502
 1234TIP3    H2 3646   4.183   5.141   2.584
 1235TIP3   OH2 3647   6.604   6.822   0.655
 1235TIP3    H1 3648   6.530   6.878   0.630
 1235TIP3    H2 3649   6.577   6.782   0.737
 1236TIP3   OH2 3650   3.585   0.362   0.133
 1236TIP3    H1 3651   3.618   0.375   0.044
 1236TIP3    H2 3652   3.533   0.282   0.128
 1237TIP3   OH2 3653   1.157   3.833   6.694
 1237TIP3    H1 3654   1.184   3.836   6.602
 1237TIP3    H2 3655   1.192   3.751   6.727
 1238TIP3   OH2 3656   2.696   6.472   1.839
 1238TIP3    H1 3657   2.604   6.496   1.847
 1238TIP3    H2 3658   2.710   6.461   1.745
 1239TIP3   OH2 3659   5.849   6.157   0.544
 1239TIP3    H1 3660   5.776   6.175   0.604
 1239TIP3    H2 3661   5.895   6.084   0.584
 1240TIP3   OH2 3662   1.045   3.682   3.799
 1240TIP3    H1 3663   1.033   3.758   3.742
 1240TIP3    H2 3664   0.965   3.679   3.852
 1241TIP3   OH2 3665   5.350   1.578   4.102
 1241TIP3    H1 3666   5.312   1.517   4.165
 1241TIP3    H2 3667   5.313   1.663   4.126
 1242TIP3   OH2 3668   2.865   1.158   3.862
 1242TIP3    H1 3669   2.958   1.150   3.843
 1242TIP3    H2 3670   2.860   1.164   3.957
 1243TIP3   OH2 3671   6.746   0.409   5.581
 1243TIP3    H1 3672   6.787   0.323   5.589
 1243TIP3    H2 3673   6.690   0.415   5.659
 1244TIP3   OH2 3674   0.832   1.412   2.878
 1244TIP3    H1 3675   0.747   1.368   2.882
 1244TIP3    H2 3676   0.845   1.430   2.784
 1245TIP3   OH2 3677   3.830   3.057   2.940
 1245TIP3    H1 3678   3.837   3.151   2.955
 1245TIP3    H2 3679   3.857   3.045   2.849
 1246TIP3   OH2 3680   1.181   5.685   6.410
 1246TIP3    H1 3681   1.231   5.605   6.427
 1246TIP3    H2 3682   1.107   5.680   6.470
 1247TIP3   OH2 3683   1.314   3.310   1.466
 1247TIP3    H1 3684   1.244   3.262   1.511
 1247TIP3    H2 3685   1.276   3.395   1.447
 1248TIP3   OH2 3686   1.493   1.643   3.471
 1248TIP3    H1 3687   1.565   1.674   3.527
 1248TIP3    H2 3688   1.489   1.549   3.488
 1249TIP3   OH2 3689   2.190   6.281   2.294
 1249TIP3    H1 3690   2.239   6.328   2.227
 1249TIP3    H2 3691   2.182   6.192   2.261
 1250TIP3   OH2 3692   7.954   1.553   4.614
 1250TIP3    H1 3693   8.016   1.585   4.681
 1250TIP3    H2 3694   7.888   1.622   4.608
 1251TIP3   OH2 3695   1.079   4.907   1.810
 1251TIP3    H1 3696   1.003   4.893   1.754
 1251TIP3    H2 3697   1.042   4.924   1.897
 1252TIP3   OH2 3698   1.663   2.856   0.111
 1252TIP3    H1 3699   1.648   2.845   0.017
 1252TIP3    H2 3700   1.583   2.899   0.143
 1253TIP3   OH2 3701   6.098   3.784   1.105
 1253TIP3    H1 3702   6.148   3.772   1.186
 1253TIP3    H2 3703   6.008   3.765   1.129
 1254TIP3   OH2 3704   0.191   4.525   1.498
 1254TIP3    H1 3705   0.187   4.551   1.590
 1254TIP3    H2 3706   0.239   4.442   1.499
 1255TIP3   OH2 3707   2.704   1.745   1.402
 1255TIP3    H1 3708   2.792   1.751   1.438
 1255TIP3    H2 3709   2.706   1.668   1.345
 1256TIP3   OH2 3710   5.129   0.635   5.621
 1256TIP3    H1 3711   5.097   0.709   5.672
 1256TIP3    H2 3712   5.051   0.600   5.577
 1257TIP3   OH2 3713   7.841   2.970   0.439
 1257TIP3    H1 3714   7.905   2.917   0.391
 1257TIP3    H2 3715   7.788   2.906   0.487
 1258TIP3   OH2 3716   4.746   2.763   6.215
 1258TIP3    H1 3717   4.699   2.823   6.158
 1258TIP3    H2 3718   4.797   2.819   6.274
 1259TIP3   OH2 3719   1.082   2.929   6.216
 1259TIP3    H1 3720   1.056   2.837   6.222
 1259TIP3    H2 3721   1.023   2.975   6.275
 1260TIP3   OH2 3722   1.988   5.828   1.753
 1260TIP3    H1 3723   1.998   5.733   1.763
 1260TIP3    H2 3724   2.060   5.854   1.695
 1261TIP3   OH2 3725   3.959   1.763   0.615
 1261TIP3    H1 3726   3.876   1.715   0.617
 1261TIP3    H2 3727   3.992   1.750   0.526
 1262TIP3   OH2 3728   6.476   0.208   2.380
 1262TIP3    H1 3729   6.440   0.281   2.430
 1262TIP3    H2 3730   6.546   0.246   2.329
 1263TIP3   OH2 3731   7.461   7.522   3.347
 1263TIP3    H1 3732   7.452   7.601   3.402
 1263TIP3    H2 3733   7.372   7.487   3.342
 1264TIP3   OH2 3734   2.303   6.321   2.566
 1264TIP3    H1 3735   2.214   6.306   2.534
 1264TIP3    H2 3736   2.354   6.250   2.528
 1265TIP3   OH2 3737   4.991   4.215   0.582
 1265TIP3    H1 3738   5.028   4.130   0.558
 1265TIP3    H2 3739   4.964   4.205   0.673
 1266TIP3   OH2 3740   0.042   1.211   1.069
 1266TIP3    H1 3741  -0.034   1.268   1.085
 1266TIP3    H2 3742   0.095   1.259   1.006
 1267TIP3   OH2 3743   7.548   4.398   1.001
 1267TIP3    H1 3744   7.542   4.307   0.970
 1267TIP3    H2 3745   7.634   4.428   0.969
 1268TIP3   OH2 3746   6.413   5.273   2.204
 1268TIP3    H1 3747   6.398   5.277   2.109
 1268TIP3    H2 3748   6.485   5.211   2.215
 1269TIP3   OH2 3749   7.604   4.158   4.543
 1269TIP3    H1 3750   7.548   4.081   4.556
 1269TIP3    H2 3751   7.639   4.147   4.455
 1270TIP3   OH2 3752   0.178   3.595   3.742
 1270TIP3    H1 3753   0.104   3.539   3.767
 1270TIP3    H2 3754   0.146   3.684   3.754
 1271TIP3   OH2 3755   1.250   5.326   3.657
 1271TIP3    H1 3756   1.320   5.293   3.714
 1271TIP3    H2 3757   1.259   5.275   3.577
 1272TIP3   OH2 3758   2.683   7.536   1.276
 1272TIP3    H1 3759   2.661   7.451   1.314
 1272TIP3    H2 3760   2.642   7.536   1.190
 1273TIP3   OH2 3761   7.871   4.336   2.562
 1273TIP3    H1 3762   7.789   4.382   2.579
 1273TIP3    H2 3763   7.846   4.244   2.558
 1274TIP3   OH2 3764   6.107   2.203   4.355
 1274TIP3    H1 3765   6.085   2.266   4.286
 1274TIP3    H2 3766   6.201   2.211   4.366
 1275TIP3   OH2 3767   5.636   3.369   0.043
 1275TIP3    H1 3768   5.566   3.342  -0.016
 1275TIP3    H2 3769   5.612   3.332   0.128
 1276TIP3   OH2 3770   2.947   2.665   2.089
 1276TIP3    H1 3771   3.010   2.599   2.117
 1276TIP3    H2 3772   2.924   2.712   2.170
 1277TIP3   OH2 3773   7.559   2.347   3.323
 1277TIP3    H1 3774   7.499   2.316   3.256
 1277TIP3    H2 3775   7.545   2.288   3.397
 1278TIP3   OH2 3776   8.276   3.006   5.625
 1278TIP3    H1 3777   8.212   3.018   5.555
 1278TIP3    H2 3778   8.344   2.952   5.586
 1279TIP3   OH2 3779   1.663   2.544   3.324
 1279TIP3    H1 3780   1.577   2.549   3.282
 1279TIP3    H2 3781   1.686   2.451   3.318
 1280TIP3   OH2 3782   6.758   6.850   1.920
 1280TIP3    H1 3783   6.753   6.907   1.997
 1280TIP3    H2 3784   6.836   6.880   1.873
 1281TIP3   OH2 3785   6.048   3.199   0.260
 1281TIP3    H1 3786   6.132   3.240   0.242
 1281TIP3    H2 3787   6.061   3.154   0.343
 1282TIP3   OH2 3788   4.374   0.841   5.911
 1282TIP3    H1 3789   4.282   0.825   5.932
 1282TIP3    H2 3790   4.378   0.935   5.893
 1283TIP3   OH2 3791   1.071   4.853   2.632
 1283TIP3    H1 3792   1.077   4.897   2.717
 1283TIP3    H2 3793   1.061   4.924   2.569
 1284TIP3   OH2 3794   4.855   2.925   1.439
 1284TIP3    H1 3795   4.894   2.857   1.494
 1284TIP3    H2 3796   4.775   2.886   1.406
 1285TIP3   OH2 3797   4.551   3.410   6.292
 1285TIP3    H1 3798   4.473   3.391   6.240
 1285TIP3    H2 3799   4.528   3.383   6.380
 1286TIP3   OH2 3800   4.497   3.739   6.679
 1286TIP3    H1 3801   4.579   3.696   6.653
 1286TIP3    H2 3802   4.441   3.732   6.601
 1287TIP3   OH2 3803   1.266   2.978   3.547
 1287TIP3    H1 3804   1.269   3.069   3.516
 1287TIP3    H2 3805   1.321   2.930   3.485
 1288TIP3   OH2 3806   3.037   3.930   0.789
 1288TIP3    H1 3807   3.024   3.863   0.856
 1288TIP3    H2 3808   2.951   3.944   0.751
 1289TIP3   OH2 3809   6.725   5.080   3.236
 1289TIP3    H1 3810   6.650   5.140   3.236
 1289TIP3    H2 3811   6.694   5.004   3.186
 1290TIP3   OH2 3812   3.434   7.287   2.496
 1290TIP3    H1 3813   3.352   7.238   2.497
 1290TIP3    H2 3814   3.451   7.305   2.404
 1291TIP3   OH2 3815   4.363   1.210   0.401
 1291TIP3    H1 3816   4.375   1.139   0.338
 1291TIP3    H2 3817   4.384   1.170   0.486
 1292TIP3   OH2 3818   6.012   0.860   0.362
 1292TIP3    H1 3819   6.084   0.819   0.315
 1292TIP3    H2 3820   5.950   0.789   0.379
 1293TIP3   OH2 3821   0.131   0.862   1.322
 1293TIP3    H1 3822   0.143   0.837   1.231
 1293TIP3    H2 3823   0.219   0.859   1.359
 1294TIP3   OH2 3824   6.510   2.680   3.790
 1294TIP3    H1 3825   6.423   2.703   3.757
 1294TIP3    H2 3826   6.555   2.764   3.799
 1295TIP3   OH2 3827   3.466   5.970   3.344
 1295TIP3    H1 3828   3.388   5.914   3.349
 1295TIP3    H2 3829   3.534   5.915   3.305
 1296TIP3   OH2 3830   4.931   1.015   2.630
 1296TIP3    H1 3831   4.946   1.105   2.599
 1296TIP3    H2 3832   5.018   0.975   2.628
 1297TIP3   OH2 3833   2.108   5.667   3.058
 1297TIP3    H1 3834   2.126   5.761   3.062
 1297TIP3    H2 3835   2.023   5.656   3.100
 1298TIP3   OH2 3836   4.328   4.892   4.395
 1298TIP3    H1 3837   4.240   4.931   4.394
 1298TIP3    H2 3838   4.371   4.929   4.318
 1299TIP3   OH2 3839   4.960   3.675   6.090
 1299TIP3    H1 3840   4.916   3.704   6.010
 1299TIP3    H2 3841   4.894   3.621   6.135
 1300TIP3   OH2 3842   5.685   5.784   1.864
 1300TIP3    H1 3843   5.615   5.732   1.823
 1300TIP3    H2 3844   5.706   5.736   1.944
 1301TIP3   OH2 3845   7.091   0.779   3.115
 1301TIP3    H1 3846   7.091   0.717   3.187
 1301TIP3    H2 3847   7.001   0.812   3.112
 1302TIP3   OH2 3848   2.932   4.668   5.717
 1302TIP3    H1 3849   2.838   4.654   5.705
 1302TIP3    H2 3850   2.940   4.763   5.728
 1303TIP3   OH2 3851   2.586   5.368   0.027
 1303TIP3    H1 3852   2.540   5.331  -0.048
 1303TIP3    H2 3853   2.613   5.292   0.079
 1304TIP3   OH2 3854   3.203   2.311   5.901
 1304TIP3    H1 3855   3.267   2.281   5.836
 1304TIP3    H2 3856   3.171   2.395   5.866
 1305TIP3   OH2 3857   2.424   4.182   4.727
 1305TIP3    H1 3858   2.481   4.168   4.802
 1305TIP3    H2 3859   2.483   4.192   4.652
 1306TIP3   OH2 3860   8.170   6.264   3.344
 1306TIP3    H1 3861   8.190   6.193   3.405
 1306TIP3    H2 3862   8.160   6.341   3.400
 1307TIP3   OH2 3863   1.173   1.187   4.894
 1307TIP3    H1 3864   1.223   1.117   4.937
 1307TIP3    H2 3865   1.236   1.258   4.882
 1308TIP3   OH2 3866   0.443   0.315   3.874
 1308TIP3    H1 3867   0.483   0.229   3.857
 1308TIP3    H2 3868   0.371   0.321   3.812
 1309TIP3   OH2 3869   7.076   7.719   6.144
 1309TIP3    H1 3870   7.151   7.687   6.094
 1309TIP3    H2 3871   7.074   7.664   6.222
 1310TIP3   OH2 3872   5.579   0.264   5.326
 1310TIP3    H1 3873   5.572   0.357   5.307
 1310TIP3    H2 3874   5.667   0.240   5.296
 1311TIP3   OH2 3875   3.707   1.648   4.770
 1311TIP3    H1 3876   3.640   1.580   4.780
 1311TIP3    H2 3877   3.657   1.727   4.747
 1312TIP3   OH2 3878   4.789   4.769   5.938
 1312TIP3    H1 3879   4.816   4.718   6.014
 1312TIP3    H2 3880   4.830   4.724   5.864
 1313TIP3   OH2 3881   5.517   7.496   4.207
 1313TIP3    H1 3882   5.466   7.445   4.270
 1313TIP3    H2 3883   5.484   7.585   4.217
 1314TIP3   OH2 3884   5.087   2.646   5.192
 1314TIP3    H1 3885   5.041   2.605   5.266
 1314TIP3    H2 3886   5.174   2.604   5.192
 1315TIP3   OH2 3887   3.628   1.052   5.836
 1315TIP3    H1 3888   3.661   1.032   5.923
 1315TIP3    H2 3889   3.615   1.147   5.837
 1316TIP3   OH2 3890   6.107   4.091   4.398
 1316TIP3    H1 3891   6.201   4.110   4.398
 1316TIP3    H2 3892   6.078   4.119   4.485
 1317TIP3   OH2 3893   0.028   2.960   0.080
 1317TIP3    H1 3894   0.048   2.934   0.170
 1317TIP3    H2 3895  -0.038   3.029   0.090
 1318TIP3   OH2 3896   6.541   4.966   3.493
 1318TIP3    H1 3897   6.607   4.916   3.444
 1318TIP3    H2 3898   6.457   4.936   3.457
 1319TIP3   OH2 3899   2.152   4.855   4.571
 1319TIP3    H1 3900   2.222   4.904   4.616
 1319TIP3    H2 3901   2.128   4.910   4.497
 1320TIP3   OH2 3902   6.520   0.534   4.568
 1320TIP3    H1 3903   6.523   0.630   4.575
 1320TIP3    H2 3904   6.442   0.517   4.516
 1321TIP3   OH2 3905   2.894   2.024   5.807
 1321TIP3    H1 3906   2.820   2.011   5.746
 1321TIP3    H2 3907   2.964   2.060   5.752
 1322TIP3   OH2 3908   3.250   6.761   6.482
 1322TIP3    H1 3909   3.271   6.841   6.531
 1322TIP3    H2 3910   3.238   6.694   6.550
 1323TIP3   OH2 3911   1.740   1.450   1.217
 1323TIP3    H1 3912   1.685   1.461   1.139
 1323TIP3    H2 3913   1.789   1.370   1.199
 1324TIP3   OH2 3914   3.185   2.961   3.225
 1324TIP3    H1 3915   3.261   3.013   3.202
 1324TIP3    H2 3916   3.138   2.949   3.142
 1325TIP3   OH2 3917   2.920   6.078   2.865
 1325TIP3    H1 3918   2.977   6.155   2.858
 1325TIP3    H2 3919   2.881   6.069   2.778
 1326TIP3   OH2 3920   6.603   6.266   2.507
 1326TIP3    H1 3921   6.590   6.236   2.417
 1326TIP3    H2 3922   6.571   6.194   2.561
 1327TIP3   OH2 3923   6.999   6.231   1.978
 1327TIP3    H1 3924   7.081   6.233   1.930
 1327TIP3    H2 3925   7.025   6.214   2.069
 1328TIP3   OH2 3926   0.551   6.579   6.531
 1328TIP3    H1 3927   0.538   6.622   6.447
 1328TIP3    H2 3928   0.620   6.515   6.516
 1329TIP3   OH2 3929   5.951   3.621   4.104
 1329TIP3    H1 3930   5.940   3.629   4.199
 1329TIP3    H2 3931   6.043   3.594   4.093
 1330TIP3   OH2 3932   5.713   4.073   1.446
 1330TIP3    H1 3933   5.782   4.106   1.389
 1330TIP3    H2 3934   5.728   3.979   1.451
 1331TIP3   OH2 3935   3.067   4.556   1.147
 1331TIP3    H1 3936   3.160   4.534   1.152
 1331TIP3    H2 3937   3.035   4.545   1.236
 1332TIP3   OH2 3938   1.727   7.289   4.604
 1332TIP3    H1 3939   1.638   7.311   4.577
 1332TIP3    H2 3940   1.780   7.296   4.525
 1333TIP3   OH2 3941   2.708   3.736   1.407
 1333TIP3    H1 3942   2.665   3.781   1.334
 1333TIP3    H2 3943   2.770   3.677   1.366
 1334TIP3   OH2 3944   2.947   6.528   5.197
 1334TIP3    H1 3945   2.967   6.578   5.276
 1334TIP3    H2 3946   2.856   6.550   5.177
 1335TIP3   OH2 3947   7.888   3.308   1.299
 1335TIP3    H1 3948   7.850   3.396   1.297
 1335TIP3    H2 3949   7.935   3.299   1.216
 1336TIP3   OH2 3950   5.847   3.419   3.289
 1336TIP3    H1 3951   5.807   3.363   3.222
 1336TIP3    H2 3952   5.896   3.484   3.239
 1337TIP3   OH2 3953   3.583   6.889   5.598
 1337TIP3    H1 3954   3.507   6.833   5.615
 1337TIP3    H2 3955   3.617   6.859   5.514
 1338TIP3   OH2 3956   6.679   7.337   4.848
 1338TIP3    H1 3957   6.592   7.345   4.809
 1338TIP3    H2 3958   6.739   7.348   4.774
 1339TIP3   OH2 3959   4.389   2.256   0.486
 1339TIP3    H1 3960   4.373   2.217   0.572
 1339TIP3    H2 3961   4.326   2.214   0.428
 1340TIP3   OH2 3962   3.087   3.050   1.194
 1340TIP3    H1 3963   3.144   2.999   1.136
 1340TIP3    H2 3964   3.066   2.990   1.266
 1341TIP3   OH2 3965   5.332   6.264   3.376
 1341TIP3    H1 3966   5.383   6.292   3.299
 1341TIP3    H2 3967   5.391   6.206   3.423
 1342TIP3   OH2 3968   4.395   5.257   3.824
 1342TIP3    H1 3969   4.461   5.325   3.836
 1342TIP3    H2 3970   4.372   5.261   3.731
 1343TIP3   OH2 3971   6.547   4.033   1.249
 1343TIP3    H1 3972   6.599   4.014   1.328
 1343TIP3    H2 3973   6.468   4.077   1.282
 1344TIP3   OH2 3974   5.888  -0.074   3.487
 1344TIP3    H1 3975   5.802  -0.033   3.497
 1344TIP3    H2 3976   5.918  -0.045   3.401
 1345TIP3   OH2 3977   5.336   3.319   0.466
 1345TIP3    H1 3978   5.254   3.347   0.424
 1345TIP3    H2 3979   5.363   3.242   0.416
 1346TIP3   OH2 3980   3.958   7.780   5.786
 1346TIP3    H1 3981   3.924   7.732   5.710
 1346TIP3    H2 3982   3.985   7.711   5.846
 1347TIP3   OH2 3983   3.748   2.466   2.808
 1347TIP3    H1 3984   3.814   2.442   2.872
 1347TIP3    H2 3985   3.737   2.389   2.752
 1348TIP3   OH2 3986   6.058   2.144   3.848
 1348TIP3    H1 3987   6.091   2.234   3.850
 1348TIP3    H2 3988   6.100   2.101   3.922
 1349TIP3   OH2 3989   5.968   1.045   1.297
 1349TIP3    H1 3990   5.881   1.085   1.291
 1349TIP3    H2 3991   5.951   0.951   1.300
 1350TIP3   OH2 3992   4.767   3.114   2.899
 1350TIP3    H1 3993   4.685   3.139   2.856
 1350TIP3    H2 3994   4.745   3.033   2.946
 1351TIP3   OH2 3995   1.739   5.550   3.593
 1351TIP3    H1 3996   1.718   5.496   3.669
 1351TIP3    H2 3997   1.662   5.606   3.582
 1352TIP3   OH2 3998   2.101   7.718   0.688
 1352TIP3    H1 3999   2.091   7.790   0.626
 1352TIP3    H2 4000   2.165   7.660   0.648
 1353TIP3   OH2 4001   1.534   2.864   6.280
 1353TIP3    H1 4002   1.479   2.912   6.218
 1353TIP3    H2 4003   1.618   2.910   6.278
 1354TIP3   OH2 4004   1.441   2.852   2.501
 1354TIP3    H1 4005   1.408   2.900   2.425
 1354TIP3    H2 4006   1.513   2.906   2.534
 1355TIP3   OH2 4007   0.780   0.240   2.701
 1355TIP3    H1 4008   0.862   0.199   2.728
 1355TIP3    H2 4009   0.806   0.325   2.665
 1356TIP3   OH2 4010   7.322   4.308   1.853
 1356TIP3    H1 4011   7.334   4.374   1.921
 1356TIP3    H2 4012   7.411   4.279   1.833
 1357TIP3   OH2 4013   3.778   7.580   1.752
 1357TIP3    H1 4014   3.692   7.620   1.767
 1357TIP3    H2 4015   3.774   7.497   1.800
 1358TIP3   OH2 4016   4.527   4.890   5.741
 1358TIP3    H1 4017   4.598   4.846   5.786
 1358TIP3    H2 4018   4.454   4.828   5.745
 1359TIP3   OH2 4019   4.139   0.587   3.892
 1359TIP3    H1 4020   4.172   0.617   3.976
 1359TIP3    H2 4021   4.193   0.511   3.870
 1360TIP3   OH2 4022   3.376   6.874   5.811
 1360TIP3    H1 4023   3.310   6.929   5.854
 1360TIP3    H2 4024   3.452   6.877   5.870
 1361TIP3   OH2 4025   2.919   6.360   0.484
 1361TIP3    H1 4026   2.848   6.337   0.544
 1361TIP3    H2 4027   2.996   6.318   0.523
 1362TIP3   OH2 4028   3.904   2.719   1.965
 1362TIP3    H1 4029   3.903   2.705   1.870
 1362TIP3    H2 4030   3.997   2.725   1.987
 1363TIP3   OH2 4031   1.479   2.514   6.266
 1363TIP3    H1 4032   1.387   2.496   6.245
 1363TIP3    H2 4033   1.482   2.521   6.361
 1364TIP3   OH2 4034   6.966   6.451   3.766
 1364TIP3    H1 4035   6.894   6.420   3.711
 1364TIP3    H2 4036   6.973   6.385   3.835
 1365TIP3   OH2 4037   7.088   3.514   2.993
 1365TIP3    H1 4038   7.180   3.537   3.006
 1365TIP3    H2 4039   7.068   3.453   3.063
 1366TIP3   OH2 4040   7.564   0.608   5.094
 1366TIP3    H1 4041   7.603   0.658   5.022
 1366TIP3    H2 4042   7.504   0.547   5.052
 1367TIP3   OH2 4043   6.589   7.377   2.827
 1367TIP3    H1 4044   6.683   7.385   2.842
 1367TIP3    H2 4045   6.570   7.441   2.757
 1368TIP3   OH2 4046   3.828   6.540   6.618
 1368TIP3    H1 4047   3.883   6.488   6.559
 1368TIP3    H2 4048   3.848   6.507   6.705
 1369TIP3   OH2 4049   7.398   3.254   5.752
 1369TIP3    H1 4050   7.374   3.181   5.809
 1369TIP3    H2 4051   7.399   3.330   5.811
 1370TIP3   OH2 4052   3.707   1.530   4.148
 1370TIP3    H1 4053   3.741   1.559   4.063
 1370TIP3    H2 4054   3.628   1.480   4.126
 1371TIP3   OH2 4055   2.989   3.795   1.070
 1371TIP3    H1 4056   3.042   3.866   1.108
 1371TIP3    H2 4057   3.027   3.715   1.107
 1372TIP3   OH2 4058   2.447   0.596   0.095
 1372TIP3    H1 4059   2.506   0.671   0.090
 1372TIP3    H2 4060   2.368   0.630   0.138
 1373TIP3   OH2 4061   0.741   2.658   5.832
 1373TIP3    H1 4062   0.677   2.619   5.892
 1373TIP3    H2 4063   0.810   2.592   5.824
 1374TIP3   OH2 4064   3.153   4.584   5.503
 1374TIP3    H1 4065   3.089   4.514   5.491
 1374TIP3    H2 4066   3.124   4.629   5.583
 1375TIP3   OH2 4067   4.385   5.906   6.589
 1375TIP3    H1 4068   4.313   5.855   6.628
 1375TIP3    H2 4069   4.450   5.840   6.565
 1376TIP3   OH2 4070   6.584   4.504   6.270
 1376TIP3    H1 4071   6.610   4.422   6.312
 1376TIP3    H2 4072   6.550   4.558   6.342
 1377TIP3   OH2 4073   6.813   3.870   6.057
 1377TIP3    H1 4074   6.732   3.819   6.058
 1377TIP3    H2 4075   6.805   3.925   5.979
 1378TIP3   OH2 4076   6.944   1.651   4.281
 1378TIP3    H1 4077   6.861   1.605   4.289
 1378TIP3    H2 4078   6.950   1.675   4.188
 1379TIP3   OH2 4079   0.316   1.117   0.496
 1379TIP3    H1 4080   0.376   1.092   0.567
 1379TIP3    H2 4081   0.314   1.212   0.498
 1380TIP3   OH2 4082   4.886   6.121   1.258
 1380TIP3    H1 4083   4.796   6.117   1.288
 1380TIP3    H2 4084   4.938   6.126   1.338
 1381TIP3   OH2 4085   8.285   3.789   4.836
 1381TIP3    H1 4086   8.217   3.855   4.850
 1381TIP3    H2 4087   8.335   3.822   4.760
 1382TIP3   OH2 4088   8.016   0.983   6.042
 1382TIP3    H1 4089   7.997   1.004   6.134
 1382TIP3    H2 4090   8.052   1.064   6.006
 1383TIP3   OH2 4091   3.703   2.785   6.463
 1383TIP3    H1 4092   3.667   2.835   6.390
 1383TIP3    H2 4093   3.712   2.696   6.429
 1384TIP3   OH2 4094   4.162   0.515   3.467
 1384TIP3    H1 4095   4.178   0.420   3.465
 1384TIP3    H2 4096   4.163   0.541   3.375
 1385TIP3   OH2 4097   6.920   5.719   0.800
 1385TIP3    H1 4098   6.932   5.736   0.707
 1385TIP3    H2 4099   6.847   5.657   0.804
 1386TIP3   OH2 4100   5.203   0.259   3.029
 1386TIP3    H1 4101   5.124   0.306   3.005
 1386TIP3    H2 4102   5.206   0.184   2.968
 1387TIP3   OH2 4103   1.952   2.531   1.973
 1387TIP3    H1 4104   1.986   2.447   2.005
 1387TIP3    H2 4105   1.873   2.508   1.924
 1388TIP3   OH2 4106   0.481   2.148   1.457
 1388TIP3    H1 4107   0.532   2.094   1.517
 1388TIP3    H2 4108   0.443   2.217   1.512
 1389TIP3   OH2 4109   4.118   7.726   3.702
 1389TIP3    H1 4110   4.125   7.814   3.667
 1389TIP3    H2 4111   4.168   7.671   3.641
 1390TIP3   OH2 4112   6.003   1.448   6.730
 1390TIP3    H1 4113   5.995   1.526   6.676
 1390TIP3    H2 4114   5.927   1.394   6.706
 1391TIP3   OH2 4115   5.037   7.271   0.496
 1391TIP3    H1 4116   5.115   7.323   0.511
 1391TIP3    H2 4117   4.988   7.275   0.578
 1392TIP3   OH2 4118   6.454   7.094   3.227
 1392TIP3    H1 4119   6.383   7.109   3.290
 1392TIP3    H2 4120   6.471   7.180   3.189
 1393TIP3   OH2 4121   7.274   2.061   4.166
 1393TIP3    H1 4122   7.222   2.133   4.129
 1393TIP3    H2 4123   7.339   2.042   4.099
 1394TIP3   OH2 4124   7.167   4.543   6.624
 1394TIP3    H1 4125   7.135   4.596   6.551
 1394TIP3    H2 4126   7.095   4.483   6.643
 1395TIP3   OH2 4127   2.241   7.779   5.222
 1395TIP3    H1 4128   2.149   7.754   5.208
 1395TIP3    H2 4129   2.289   7.734   5.153
 1396TIP3   OH2 4130   3.018   4.632   4.127
 1396TIP3    H1 4131   2.950   4.597   4.184
 1396TIP3    H2 4132   3.069   4.691   4.182
 1397TIP3   OH2 4133   5.055   4.359   6.698
 1397TIP3    H1 4134   5.099   4.357   6.613
 1397TIP3    H2 4135   5.120   4.396   6.758
 1398TIP3   OH2 4136   0.483   3.057   1.041
 1398TIP3    H1 4137   0.397   3.077   1.077
 1398TIP3    H2 4138   0.500   3.128   0.979
 1399TIP3   OH2 4139   1.916   4.562   3.534
 1399TIP3    H1 4140   1.905   4.535   3.443
 1399TIP3    H2 4141   1.828   4.556   3.571
 1400TIP3   OH2 4142   0.373   1.633   3.445
 1400TIP3    H1 4143   0.374   1.686   3.524
 1400TIP3    H2 4144   0.362   1.543   3.477
 1401TIP3   OH2 4145   3.950   4.019   1.302
 1401TIP3    H1 4146   3.990   4.011   1.216
 1401TIP3    H2 4147   4.014   3.983   1.363
 1402TIP3   OH2 4148   3.966   3.511   0.896
 1402TIP3    H1 4149   3.974   3.600   0.860
 1402TIP3    H2 4150   3.956   3.455   0.820
 1403TIP3   OH2 4151   0.996   6.454   4.784
 1403TIP3    H1 4152   1.043   6.526   4.828
 1403TIP3    H2 4153   0.927   6.430   4.846
 1404TIP3   OH2 4154   4.073   1.040   1.718
 1404TIP3    H1 4155   4.142   1.002   1.664
 1404TIP3    H2 4156   4.043   1.117   1.669
 1405TIP3   OH2 4157   0.532   4.353   4.057
 1405TIP3    H1 4158   0.562   4.270   4.093
 1405TIP3    H2 4159   0.445   4.365   4.095
 1406TIP3   OH2 4160   6.733   6.462   4.782
 1406TIP3    H1 4161   6.705   6.538   4.833
 1406TIP3    H2 4162   6.652   6.418   4.757
 1407TIP3   OH2 4163   1.228   2.538   5.706
 1407TIP3    H1 4164   1.274   2.577   5.632
 1407TIP3    H2 4165   1.296   2.520   5.770
 1408TIP3   OH2 4166   2.586   7.333   1.530
 1408TIP3    H1 4167   2.624   7.263   1.583
 1408TIP3    H2 4168   2.575   7.406   1.591
 1409TIP3   OH2 4169   3.657   4.445   5.865
 1409TIP3    H1 4170   3.630   4.454   5.773
 1409TIP3    H2 4171   3.650   4.351   5.882
 1410TIP3   OH2 4172   0.600   4.769   5.912
 1410TIP3    H1 4173   0.596   4.677   5.937
 1410TIP3    H2 4174   0.685   4.798   5.945
 1411TIP3   OH2 4175   5.606   2.831   0.538
 1411TIP3    H1 4176   5.654   2.783   0.605
 1411TIP3    H2 4177   5.619   2.923   0.560
 1412TIP3   OH2 4178   3.094   5.606   5.884
 1412TIP3    H1 4179   3.177   5.559   5.879
 1412TIP3    H2 4180   3.089   5.657   5.803
 1413TIP3   OH2 4181   6.415   6.831   5.710
 1413TIP3    H1 4182   6.364   6.901   5.668
 1413TIP3    H2 4183   6.359   6.801   5.782
 1414TIP3   OH2 4184   2.854   1.912   4.863
 1414TIP3    H1 4185   2.785   1.872   4.811
 1414TIP3    H2 4186   2.809   1.945   4.941
 1415TIP3   OH2 4187   7.654   2.287   0.704
 1415TIP3    H1 4188   7.624   2.197   0.713
 1415TIP3    H2 4189   7.577   2.340   0.725
 1416TIP3   OH2 4190   3.902   4.737   2.168
 1416TIP3    H1 4191   3.974   4.703   2.221
 1416TIP3    H2 4192   3.945   4.792   2.102
 1417TIP3   OH2 4193   3.059   6.791   2.157
 1417TIP3    H1 4194   3.040   6.697   2.163
 1417TIP3    H2 4195   3.021   6.829   2.236
 1418TIP3   OH2 4196   1.556   0.098   4.999
 1418TIP3    H1 4197   1.532   0.075   5.088
 1418TIP3    H2 4198   1.651   0.099   4.999
 1419TIP3   OH2 4199   1.978   0.530   6.668
 1419TIP3    H1 4200   2.069   0.504   6.659
 1419TIP3    H2 4201   1.933   0.450   6.697
 1420TIP3   OH2 4202   2.567   3.868   1.186
 1420TIP3    H1 4203   2.478   3.871   1.149
 1420TIP3    H2 4204   2.622   3.841   1.113
 1421TIP3   OH2 4205   2.002   0.172   1.319
 1421TIP3    H1 4206   1.984   0.248   1.264
 1421TIP3    H2 4207   1.934   0.174   1.386
 1422TIP3   OH2 4208   7.179   2.640   2.589
 1422TIP3    H1 4209   7.189   2.628   2.684
 1422TIP3    H2 4210   7.237   2.713   2.568
 1423TIP3   OH2 4211   6.011   1.820   5.593
 1423TIP3    H1 4212   5.973   1.809   5.506
 1423TIP3    H2 4213   6.023   1.915   5.602
 1424TIP3   OH2 4214   6.320   6.504   5.680
 1424TIP3    H1 4215   6.287   6.593   5.672
 1424TIP3    H2 4216   6.248   6.455   5.719
 1425TIP3   OH2 4217   7.919   7.318   0.783
 1425TIP3    H1 4218   7.947   7.241   0.733
 1425TIP3    H2 4219   7.845   7.353   0.733
 1426TIP3   OH2 4220   2.839   4.902   1.749
 1426TIP3    H1 4221   2.762   4.865   1.706
 1426TIP3    H2 4222   2.815   4.993   1.767
 1427TIP3   OH2 4223   6.063   1.506   2.136
 1427TIP3    H1 4224   6.012   1.461   2.204
 1427TIP3    H2 4225   6.090   1.436   2.076
 1428TIP3   OH2 4226   2.261   1.240   3.394
 1428TIP3    H1 4227   2.221   1.154   3.387
 1428TIP3    H2 4228   2.190   1.299   3.421
 1429TIP3   OH2 4229   4.902   5.776   6.498
 1429TIP3    H1 4230   4.808   5.771   6.484
 1429TIP3    H2 4231   4.935   5.828   6.424
 1430TIP3   OH2 4232   2.588   4.027   0.788
 1430TIP3    H1 4233   2.558   4.060   0.703
 1430TIP3    H2 4234   2.674   3.989   0.771
 1431TIP3   OH2 4235   4.090   1.841   3.072
 1431TIP3    H1 4236   4.116   1.925   3.111
 1431TIP3    H2 4237   4.100   1.778   3.144
 1432TIP3   OH2 4238   7.201   5.131   2.918
 1432TIP3    H1 4239   7.137   5.065   2.946
 1432TIP3    H2 4240   7.166   5.165   2.836
 1433TIP3   OH2 4241   1.137   6.937   2.946
 1433TIP3    H1 4242   1.096   6.853   2.927
 1433TIP3    H2 4243   1.206   6.916   3.010
 1434TIP3   OH2 4244   4.119   5.236   2.934
 1434TIP3    H1 4245   4.120   5.218   3.028
 1434TIP3    H2 4246   4.211   5.232   2.908
 1435TIP3   OH2 4247   7.883   6.366   2.717
 1435TIP3    H1 4248   7.962   6.370   2.770
 1435TIP3    H2 4249   7.900   6.425   2.643
 1436TIP3   OH2 4250   7.654   3.003   5.773
 1436TIP3    H1 4251   7.743   2.968   5.788
 1436TIP3    H2 4252   7.668   3.079   5.717
 1437TIP3   OH2 4253   5.429   0.600   3.695
 1437TIP3    H1 4254   5.508   0.637   3.733
 1437TIP3    H2 4255   5.419   0.646   3.612
 1438TIP3   OH2 4256   3.950   2.143   2.348
 1438TIP3    H1 4257   4.015   2.089   2.304
 1438TIP3    H2 4258   3.935   2.099   2.432
 1439TIP3   OH2 4259   5.286   4.477   4.662
 1439TIP3    H1 4260   5.349   4.414   4.626
 1439TIP3    H2 4261   5.297   4.470   4.757
 1440TIP3   OH2 4262   7.406   6.937   4.202
 1440TIP3    H1 4263   7.407   6.842   4.206
 1440TIP3    H2 4264   7.443   6.966   4.285
 1441TIP3   OH2 4265   6.727   1.390   0.852
 1441TIP3    H1 4266   6.810   1.398   0.806
 1441TIP3    H2 4267   6.725   1.300   0.885
 1442TIP3   OH2 4268   5.516   4.125   3.238
 1442TIP3    H1 4269   5.522   4.070   3.159
 1442TIP3    H2 4270   5.597   4.105   3.286
 1443TIP3   OH2 4271   0.791   7.682   5.616
 1443TIP3    H1 4272   0.824   7.760   5.570
 1443TIP3    H2 4273   0.868   7.626   5.626
 1444TIP3   OH2 4274   2.376   4.133   3.275
 1444TIP3    H1 4275   2.450   4.146   3.333
 1444TIP3    H2 4276   2.408   4.160   3.189
 1445TIP3   OH2 4277   1.012   1.178   2.444
 1445TIP3    H1 4278   0.957   1.100   2.448
 1445TIP3    H2 4279   1.100   1.145   2.429
 1446TIP3   OH2 4280   3.918   6.885   2.221
 1446TIP3    H1 4281   3.884   6.941   2.291
 1446TIP3    H2 4282   3.935   6.945   2.149
 1447TIP3   OH2 4283   1.386   6.380   2.303
 1447TIP3    H1 4284   1.451   6.351   2.367
 1447TIP3    H2 4285   1.406   6.473   2.289
 1448TIP3   OH2 4286   4.027   0.261   3.495
 1448TIP3    H1 4287   4.001   0.244   3.404
 1448TIP3    H2 4288   3.964   0.327   3.525
 1449TIP3   OH2 4289   1.821   0.116   3.690
 1449TIP3    H1 4290   1.894   0.145   3.746
 1449TIP3    H2 4291   1.796   0.195   3.641
 1450TIP3   OH2 4292   7.229   5.080   0.823
 1450TIP3    H1 4293   7.178   5.159   0.842
 1450TIP3    H2 4294   7.165   5.018   0.788
 1451TIP3   OH2 4295   3.468   6.587   3.618
 1451TIP3    H1 4296   3.438   6.600   3.708
 1451TIP3    H2 4297   3.449   6.495   3.599
 1452TIP3   OH2 4298   6.302   1.862   0.102
 1452TIP3    H1 4299   6.385   1.888   0.141
 1452TIP3    H2 4300   6.317   1.772   0.073
 1453TIP3   OH2 4301   7.985   4.732   4.071
 1453TIP3    H1 4302   7.947   4.746   4.157
 1453TIP3    H2 4303   7.993   4.820   4.034
 1454TIP3   OH2 4304   4.633   2.568   5.234
 1454TIP3    H1 4305   4.715   2.563   5.284
 1454TIP3    H2 4306   4.638   2.493   5.174
 1455TIP3   OH2 4307   7.238   1.378   4.395
 1455TIP3    H1 4308   7.184   1.301   4.378
 1455TIP3    H2 4309   7.176   1.450   4.405
 1456TIP3   OH2 4310   6.826   0.163   3.592
 1456TIP3    H1 4311   6.833   0.240   3.536
 1456TIP3    H2 4312   6.733   0.160   3.616
 1457TIP3   OH2 4313   7.513   4.751   2.283
 1457TIP3    H1 4314   7.425   4.727   2.253
 1457TIP3    H2 4315   7.559   4.778   2.203
 1458TIP3   OH2 4316   2.280   1.844   5.884
 1458TIP3    H1 4317   2.188   1.839   5.857
 1458TIP3    H2 4318   2.277   1.839   5.980
 1459TIP3   OH2 4319   6.865   6.331   1.565
 1459TIP3    H1 4320   6.820   6.254   1.598
 1459TIP3    H2 4321   6.919   6.361   1.638
 1460TIP3   OH2 4322   1.216   4.663   2.336
 1460TIP3    H1 4323   1.186   4.572   2.330
 1460TIP3    H2 4324   1.229   4.690   2.246
 1461TIP3   OH2 4325   4.311   7.723   4.888
 1461TIP3    H1 4326   4.333   7.672   4.810
 1461TIP3    H2 4327   4.341   7.812   4.868
 1462TIP3   OH2 4328   0.276   1.664   0.495
 1462TIP3    H1 4329   0.243   1.673   0.405
 1462TIP3    H2 4330   0.348   1.726   0.501
 1463TIP3   OH2 4331   4.872   4.571   5.552
 1463TIP3    H1 4332   4.896   4.559   5.460
 1463TIP3    H2 4333   4.783   4.538   5.558
 1464TIP3   OH2 4334   6.085   7.133   0.692
 1464TIP3    H1 4335   6.137   7.079   0.752
 1464TIP3    H2 4336   5.997   7.131   0.729
 1465TIP3   OH2 4337   1.357   4.909   2.952
 1465TIP3    H1 4338   1.431   4.865   2.994
 1465TIP3    H2 4339   1.287   4.843   2.952
 1466TIP3   OH2 4340   3.490   5.532   2.662
 1466TIP3    H1 4341   3.556   5.597   2.684
 1466TIP3    H2 4342   3.470   5.489   2.746
 1467TIP3   OH2 4343   3.725   0.105   3.811
 1467TIP3    H1 4344   3.710   0.014   3.836
 1467TIP3    H2 4345   3.801   0.132   3.863
 1468TIP3   OH2 4346  -0.016   1.842   1.453
 1468TIP3    H1 4347  -0.056   1.775   1.399
 1468TIP3    H2 4348   0.078   1.826   1.447
 1469TIP3   OH2 4349   8.063   0.929   5.392
 1469TIP3    H1 4350   8.062   0.869   5.318
 1469TIP3    H2 4351   8.070   0.872   5.469
 1470TIP3   OH2 4352   0.095   0.049   2.564
 1470TIP3    H1 4353   0.187   0.041   2.588
 1470TIP3    H2 4354   0.062   0.121   2.618
 1471TIP3   OH2 4355   4.477   0.707   3.662
 1471TIP3    H1 4356   4.512   0.735   3.747
 1471TIP3    H2 4357   4.541   0.737   3.598
 1472TIP3   OH2 4358   1.508   1.815   1.329
 1472TIP3    H1 4359   1.574   1.863   1.279
 1472TIP3    H2 4360   1.534   1.826   1.421
 1473TIP3   OH2 4361   6.958   3.709   0.762
 1473TIP3    H1 4362   6.899   3.768   0.809
 1473TIP3    H2 4363   6.932   3.717   0.670
 1474TIP3   OH2 4364   5.610   1.809   5.339
 1474TIP3    H1 4365   5.572   1.894   5.318
 1474TIP3    H2 4366   5.580   1.790   5.428
 1475TIP3   OH2 4367   1.361   0.606   2.005
 1475TIP3    H1 4368   1.352   0.701   1.996
 1475TIP3    H2 4369   1.435   0.583   1.949
 1476TIP3   OH2 4370   0.339   5.214   4.124
 1476TIP3    H1 4371   0.299   5.128   4.129
 1476TIP3    H2 4372   0.366   5.223   4.033
 1477TIP3   OH2 4373   6.903   2.210   4.701
 1477TIP3    H1 4374   6.911   2.121   4.735
 1477TIP3    H2 4375   6.993   2.237   4.682
 1478TIP3   OH2 4376   8.031   2.119   3.282
 1478TIP3    H1 4377   8.037   2.157   3.370
 1478TIP3    H2 4378   7.978   2.041   3.294
 1479TIP3   OH2 4379   8.302   4.554   0.628
 1479TIP3    H1 4380   8.255   4.556   0.711
 1479TIP3    H2 4381   8.335   4.464   0.622
 1480TIP3   OH2 4382   7.553   3.334   0.563
 1480TIP3    H1 4383   7.517   3.305   0.479
 1480TIP3    H2 4384   7.551   3.429   0.558
 1481TIP3   OH2 4385   7.804   6.804   3.063
 1481TIP3    H1 4386   7.785   6.892   3.029
 1481TIP3    H2 4387   7.890   6.783   3.027
 1482TIP3   OH2 4388   5.045   3.450   1.812
 1482TIP3    H1 4389   5.018   3.398   1.736
 1482TIP3    H2 4390   5.134   3.478   1.791
 1483TIP3   OH2 4391   2.374   1.416   1.855
 1483TIP3    H1 4392   2.432   1.487   1.884
 1483TIP3    H2 4393   2.370   1.356   1.929
 1484TIP3   OH2 4394   4.759   6.811   6.650
 1484TIP3    H1 4395   4.746   6.895   6.606
 1484TIP3    H2 4396   4.698   6.752   6.606
 1485TIP3   OH2 4397   3.358   1.225   4.642
 1485TIP3    H1 4398   3.338   1.190   4.729
 1485TIP3    H2 4399   3.294   1.296   4.630
 1486TIP3   OH2 4400   0.463   3.067   0.154
 1486TIP3    H1 4401   0.551   3.030   0.159
 1486TIP3    H2 4402   0.423   3.045   0.238
 1487TIP3   OH2 4403   1.507   1.901   3.060
 1487TIP3    H1 4404   1.585   1.865   3.018
 1487TIP3    H2 4405   1.462   1.825   3.096
 1488TIP3   OH2 4406   0.834   4.636   1.153
 1488TIP3    H1 4407   0.760   4.685   1.188
 1488TIP3    H2 4408   0.802   4.546   1.145
 1489TIP3   OH2 4409   5.282   4.768   5.059
 1489TIP3    H1 4410   5.202   4.819   5.050
 1489TIP3    H2 4411   5.296   4.760   5.154
 1490TIP3   OH2 4412   1.286   4.021   6.347
 1490TIP3    H1 4413   1.367   4.015   6.298
 1490TIP3    H2 4414   1.258   3.930   6.358
 1491TIP3   OH2 4415   5.491   1.109   0.883
 1491TIP3    H1 4416   5.480   1.085   0.975
 1491TIP3    H2 4417   5.580   1.081   0.862
 1492TIP3   OH2 4418   5.999   0.062   3.250
 1492TIP3    H1 4419   5.956   0.021   3.175
 1492TIP3    H2 4420   6.075   0.107   3.213
 1493TIP3   OH2 4421   1.959   1.936   4.328
 1493TIP3    H1 4422   1.982   1.981   4.410
 1493TIP3    H2 4423   2.022   1.969   4.264
 1494TIP3   OH2 4424   8.230   1.414   4.177
 1494TIP3    H1 4425   8.297   1.387   4.240
 1494TIP3    H2 4426   8.167   1.464   4.229
 1495TIP3   OH2 4427   3.293   1.147   4.054
 1495TIP3    H1 4428   3.388   1.161   4.060
 1495TIP3    H2 4429   3.256   1.206   4.120
 1496TIP3   OH2 4430   2.300   2.735   3.784
 1496TIP3    H1 4431   2.394   2.728   3.795
 1496TIP3    H2 4432   2.285   2.826   3.759
 1497TIP3   OH2 4433   3.735   5.851   6.109
 1497TIP3    H1 4434   3.818   5.898   6.112
 1497TIP3    H2 4435   3.745   5.788   6.038
 1498TIP3   OH2 4436   6.120   2.216   1.544
 1498TIP3    H1 4437   6.042   2.202   1.490
 1498TIP3    H2 4438   6.099   2.293   1.597
 1499TIP3   OH2 4439   3.959   1.898   5.468
 1499TIP3    H1 4440   3.948   1.960   5.396
 1499TIP3    H2 4441   4.050   1.869   5.462
 1500TIP3   OH2 4442   4.567   0.141   6.576
 1500TIP3    H1 4443   4.485   0.098   6.550
 1500TIP3    H2 4444   4.636   0.081   6.549
 1501TIP3   OH2 4445   4.744   0.518   0.293
 1501TIP3    H1 4446   4.752   0.446   0.356
 1501TIP3    H2 4447   4.689   0.582   0.338
 1502TIP3   OH2 4448   6.458   0.673   1.673
 1502TIP3    H1 4449   6.456   0.718   1.588
 1502TIP3    H2 4450   6.443   0.581   1.652
 1503TIP3   OH2 4451   3.016   6.182   2.587
 1503TIP3    H1 4452   2.962   6.240   2.641
 1503TIP3    H2 4453   2.989   6.203   2.497
 1504TIP3   OH2 4454   5.404   0.719   1.212
 1504TIP3    H1 4455   5.409   0.638   1.263
 1504TIP3    H2 4456   5.444   0.696   1.128
 1505TIP3   OH2 4457   8.193   0.856   6.661
 1505TIP3    H1 4458   8.179   0.863   6.756
 1505TIP3    H2 4459   8.253   0.782   6.651
 1506TIP3   OH2 4460   1.438   4.138   5.044
 1506TIP3    H1 4461   1.382   4.081   5.097
 1506TIP3    H2 4462   1.445   4.218   5.095
 1507TIP3   OH2 4463   7.811   7.311   1.098
 1507TIP3    H1 4464   7.869   7.338   1.027
 1507TIP3    H2 4465   7.733   7.366   1.087
 1508TIP3   OH2 4466   3.587   3.927   1.126
 1508TIP3    H1 4467   3.666   3.875   1.111
 1508TIP3    H2 4468   3.614   4.016   1.105
 1509TIP3   OH2 4469   3.182   2.221   4.587
 1509TIP3    H1 4470   3.133   2.153   4.540
 1509TIP3    H2 4471   3.135   2.232   4.670
 1510TIP3   OH2 4472   0.949   5.185   2.822
 1510TIP3    H1 4473   0.947   5.099   2.864
 1510TIP3    H2 4474   0.866   5.190   2.773
 1511TIP3   OH2 4475   4.047   5.675   6.230
 1511TIP3    H1 4476   4.114   5.643   6.291
 1511TIP3    H2 4477   4.097   5.704   6.154
 1512TIP3   OH2 4478   7.769   2.177   1.460
 1512TIP3    H1 4479   7.735   2.139   1.380
 1512TIP3    H2 4480   7.719   2.258   1.471
 1513TIP3   OH2 4481   8.064   0.373   1.653
 1513TIP3    H1 4482   8.026   0.424   1.582
 1513TIP3    H2 4483   8.050   0.427   1.732
 1514TIP3   OH2 4484   4.630   6.014   2.748
 1514TIP3    H1 4485   4.600   6.028   2.659
 1514TIP3    H2 4486   4.562   5.961   2.789
 1515TIP3   OH2 4487   4.029   1.965   5.911
 1515TIP3    H1 4488   4.122   1.984   5.902
 1515TIP3    H2 4489   3.989   2.051   5.929
 1516TIP3   OH2 4490   1.336   6.602   1.709
 1516TIP3    H1 4491   1.422   6.640   1.690
 1516TIP3    H2 4492   1.350   6.507   1.705
 1517TIP3   OH2 4493   2.482   6.288   4.154
 1517TIP3    H1 4494   2.511   6.197   4.145
 1517TIP3    H2 4495   2.532   6.322   4.228
 1518TIP3   OH2 4496   3.298   5.918   0.664
 1518TIP3    H1 4497   3.283   5.981   0.734
 1518TIP3    H2 4498   3.289   5.833   0.707
 1519TIP3   OH2 4499   1.532   3.138   5.987
 1519TIP3    H1 4500   1.553   3.190   5.909
 1519TIP3    H2 4501   1.615   3.134   6.035
 1520TIP3   OH2 4502   3.410   3.082   2.790
 1520TIP3    H1 4503   3.349   3.036   2.849
 1520TIP3    H2 4504   3.360   3.095   2.710
 1521TIP3   OH2 4505   6.261   3.293   5.694
 1521TIP3    H1 4506   6.330   3.331   5.639
 1521TIP3    H2 4507   6.182   3.340   5.668
 1522TIP3   OH2 4508   3.719   1.734   2.572
 1522TIP3    H1 4509   3.715   1.806   2.635
 1522TIP3    H2 4510   3.813   1.713   2.567
 1523TIP3   OH2 4511   3.700   2.100   0.433
 1523TIP3    H1 4512   3.644   2.173   0.405
 1523TIP3    H2 4513   3.639   2.029   0.451
 1524TIP3   OH2 4514   7.485   4.704   1.182
 1524TIP3    H1 4515   7.453   4.736   1.266
 1524TIP3    H2 4516   7.441   4.758   1.117
 1525TIP3   OH2 4517   7.225   2.827   5.123
 1525TIP3    H1 4518   7.135   2.859   5.117
 1525TIP3    H2 4519   7.278   2.901   5.092
 1526TIP3   OH2 4520   1.538   4.232   6.750
 1526TIP3    H1 4521   1.504   4.306   6.699
 1526TIP3    H2 4522   1.509   4.155   6.703
 1527TIP3   OH2 4523   3.522   2.406   5.420
 1527TIP3    H1 4524   3.531   2.486   5.369
 1527TIP3    H2 4525   3.439   2.368   5.391
 1528TIP3   OH2 4526   0.936   6.751   1.051
 1528TIP3    H1 4527   0.849   6.747   1.012
 1528TIP3    H2 4528   0.995   6.763   0.977
 1529TIP3   OH2 4529   7.311   2.099   0.658
 1529TIP3    H1 4530   7.265   2.164   0.605
 1529TIP3    H2 4531   7.278   2.015   0.627
 1530TIP3   OH2 4532   2.429   1.952   1.602
 1530TIP3    H1 4533   2.414   1.982   1.513
 1530TIP3    H2 4534   2.484   1.874   1.592
 1531TIP3   OH2 4535   3.953   0.853   0.453
 1531TIP3    H1 4536   3.997   0.775   0.487
 1531TIP3    H2 4537   3.860   0.835   0.464
 1532TIP3   OH2 4538   4.243   2.995   4.599
 1532TIP3    H1 4539   4.330   2.976   4.636
 1532TIP3    H2 4540   4.246   2.957   4.511
 1533TIP3   OH2 4541   3.255   0.837   3.403
 1533TIP3    H1 4542   3.315   0.763   3.391
 1533TIP3    H2 4543   3.168   0.799   3.401
 1534TIP3   OH2 4544   1.886   5.340   1.679
 1534TIP3    H1 4545   1.820   5.284   1.637
 1534TIP3    H2 4546   1.894   5.304   1.768
 1535TIP3   OH2 4547   7.777   0.599   4.417
 1535TIP3    H1 4548   7.737   0.668   4.470
 1535TIP3    H2 4549   7.825   0.545   4.480
 1536TIP3   OH2 4550   7.731   5.606   5.656
 1536TIP3    H1 4551   7.716   5.614   5.750
 1536TIP3    H2 4552   7.705   5.516   5.635
 1537TIP3   OH2 4553   4.421   4.072   2.381
 1537TIP3    H1 4554   4.328   4.061   2.364
 1537TIP3    H2 4555   4.437   4.022   2.460
 1538TIP3   OH2 4556   0.785   4.373   1.130
 1538TIP3    H1 4557   0.752   4.283   1.127
 1538TIP3    H2 4558   0.853   4.371   1.197
 1539TIP3   OH2 4559   7.013   7.571   6.695
 1539TIP3    H1 4560   6.999   7.665   6.685
 1539TIP3    H2 4561   6.925   7.535   6.710
 1540TIP3   OH2 4562   5.810   2.879   1.942
 1540TIP3    H1 4563   5.848   2.888   1.854
 1540TIP3    H2 4564   5.766   2.963   1.958
 1541TIP3   OH2 4565   7.830   3.339   1.822
 1541TIP3    H1 4566   7.840   3.335   1.727
 1541TIP3    H2 4567   7.801   3.429   1.839
 1542TIP3   OH2 4568   3.727   1.259   4.060
 1542TIP3    H1 4569   3.753   1.242   3.970
 1542TIP3    H2 4570   3.786   1.327   4.090
 1543TIP3   OH2 4571   5.815   0.230   6.204
 1543TIP3    H1 4572   5.858   0.310   6.173
 1543TIP3    H2 4573   5.821   0.170   6.130
 1544TIP3   OH2 4574   1.312   4.677   2.598
 1544TIP3    H1 4575   1.264   4.732   2.659
 1544TIP3    H2 4576   1.276   4.698   2.512
 1545TIP3   OH2 4577   1.890   0.896   3.663
 1545TIP3    H1 4578   1.938   0.920   3.584
 1545TIP3    H2 4579   1.855   0.979   3.695
 1546TIP3   OH2 4580   4.517   2.154   3.500
 1546TIP3    H1 4581   4.564   2.235   3.519
 1546TIP3    H2 4582   4.580   2.085   3.517
 1547TIP3   OH2 4583   2.644   1.043   0.009
 1547TIP3    H1 4584   2.650   0.967  -0.049
 1547TIP3    H2 4585   2.571   1.023   0.067
 1548TIP3   OH2 4586   1.548   4.600   6.327
 1548TIP3    H1 4587   1.469   4.554   6.297
 1548TIP3    H2 4588   1.515   4.680   6.368
 1549TIP3   OH2 4589   3.095   1.836   0.220
 1549TIP3    H1 4590   3.025   1.773   0.235
 1549TIP3    H2 4591   3.131   1.813   0.135
 1550TIP3   OH2 4592   3.084   7.459   1.818
 1550TIP3    H1 4593   3.049   7.458   1.729
 1550TIP3    H2 4594   3.068   7.548   1.849
 1551TIP3   OH2 4595   3.410   1.847   3.409
 1551TIP3    H1 4596   3.337   1.896   3.371
 1551TIP3    H2 4597   3.425   1.775   3.348
 1552TIP3   OH2 4598   0.465   5.604   5.623
 1552TIP3    H1 4599   0.412   5.560   5.690
 1552TIP3    H2 4600   0.403   5.656   5.573
 1553TIP3   OH2 4601   3.371   3.739   5.075
 1553TIP3    H1 4602   3.397   3.830   5.087
 1553TIP3    H2 4603   3.453   3.690   5.076
 1554TIP3   OH2 4604   2.432   5.256   2.691
 1554TIP3    H1 4605   2.522   5.284   2.709
 1554TIP3    H2 4606   2.385   5.338   2.673
 1555TIP3   OH2 4607   0.252   0.760   2.800
 1555TIP3    H1 4608   0.234   0.771   2.706
 1555TIP3    H2 4609   0.329   0.703   2.803
 1556TIP3   OH2 4610   3.038   1.288   6.632
 1556TIP3    H1 4611   2.990   1.245   6.561
 1556TIP3    H2 4612   2.998   1.374   6.641
 1557TIP3   OH2 4613   5.548   6.096   0.191
 1557TIP3    H1 4614   5.518   6.127   0.276
 1557TIP3    H2 4615   5.564   6.003   0.204
 1558TIP3   OH2 4616   4.425   5.815   2.173
 1558TIP3    H1 4617   4.460   5.904   2.177
 1558TIP3    H2 4618   4.332   5.825   2.193
 1559TIP3   OH2 4619   0.622   4.062   3.190
 1559TIP3    H1 4620   0.566   4.020   3.255
 1559TIP3    H2 4621   0.688   4.109   3.242
 1560TIP3   OH2 4622   3.932   4.846   3.226
 1560TIP3    H1 4623   4.008   4.838   3.167
 1560TIP3    H2 4624   3.939   4.934   3.263
 1561TIP3   OH2 4625   3.315   5.308   4.246
 1561TIP3    H1 4626   3.282   5.221   4.265
 1561TIP3    H2 4627   3.376   5.295   4.173
 1562TIP3   OH2 4628   7.372   2.782   3.152
 1562TIP3    H1 4629   7.309   2.791   3.223
 1562TIP3    H2 4630   7.457   2.798   3.194
 1563TIP3   OH2 4631   0.142   0.363   0.724
 1563TIP3    H1 4632   0.199   0.417   0.669
 1563TIP3    H2 4633   0.133   0.413   0.805
 1564TIP3   OH2 4634   7.389   2.556   2.995
 1564TIP3    H1 4635   7.352   2.611   3.064
 1564TIP3    H2 4636   7.334   2.573   2.919
 1565TIP3   OH2 4637   4.390   2.115   3.066
 1565TIP3    H1 4638   4.379   2.066   3.147
 1565TIP3    H2 4639   4.393   2.049   2.997
 1566TIP3   OH2 4640   4.835   4.825   4.695
 1566TIP3    H1 4641   4.784   4.752   4.660
 1566TIP3    H2 4642   4.770   4.880   4.739
 1567TIP3   OH2 4643   3.485   3.546   4.561
 1567TIP3    H1 4644   3.457   3.499   4.639
 1567TIP3    H2 4645   3.574   3.514   4.544
 1568TIP3   OH2 4646   8.182   6.783   0.041
 1568TIP3    H1 4647   8.114   6.741   0.092
 1568TIP3    H2 4648   8.264   6.750   0.077
 1569TIP3   OH2 4649   6.623   6.304   1.831
 1569TIP3    H1 4650   6.588   6.298   1.743
 1569TIP3    H2 4651   6.614   6.396   1.855
 1570TIP3   OH2 4652   5.284   4.016   3.935
 1570TIP3    H1 4653   5.213   4.073   3.963
 1570TIP3    H2 4654   5.290   3.950   4.004
 1571TIP3   OH2 4655   5.362   5.313   3.492
 1571TIP3    H1 4656   5.406   5.340   3.572
 1571TIP3    H2 4657   5.286   5.263   3.522
 1572TIP3   OH2 4658   3.024   3.327   0.368
 1572TIP3    H1 4659   3.040   3.307   0.461
 1572TIP3    H2 4660   2.945   3.381   0.368
 1573TIP3   OH2 4661   1.247   2.253   5.055
 1573TIP3    H1 4662   1.180   2.288   5.114
 1573TIP3    H2 4663   1.271   2.327   5.000
 1574TIP3   OH2 4664   2.763   4.794   1.364
 1574TIP3    H1 4665   2.790   4.707   1.335
 1574TIP3    H2 4666   2.701   4.823   1.296
 1575TIP3   OH2 4667   1.904   5.809   4.694
 1575TIP3    H1 4668   1.826   5.757   4.676
 1575TIP3    H2 4669   1.901   5.880   4.631
 1576TIP3   OH2 4670   1.717   6.055   2.902
 1576TIP3    H1 4671   1.791   6.001   2.875
 1576TIP3    H2 4672   1.757   6.132   2.941
 1577TIP3   OH2 4673   1.642   6.886   1.974
 1577TIP3    H1 4674   1.648   6.933   1.890
 1577TIP3    H2 4675   1.624   6.955   2.038
 1578TIP3   OH2 4676   3.928   1.396   4.623
 1578TIP3    H1 4677   3.884   1.374   4.541
 1578TIP3    H2 4678   4.018   1.415   4.598
 1579TIP3   OH2 4679   1.274   5.997   2.225
 1579TIP3    H1 4680   1.287   5.904   2.206
 1579TIP3    H2 4681   1.316   6.011   2.310
 1580TIP3   OH2 4682   5.342   2.958   5.956
 1580TIP3    H1 4683   5.321   2.926   6.044
 1580TIP3    H2 4684   5.261   2.950   5.907
 1581TIP3   OH2 4685   2.221   6.116   0.550
 1581TIP3    H1 4686   2.234   6.127   0.456
 1581TIP3    H2 4687   2.171   6.193   0.577
 1582TIP3   OH2 4688   3.125   6.965   5.710
 1582TIP3    H1 4689   3.144   6.873   5.727
 1582TIP3    H2 4690   3.192   6.993   5.648
 1583TIP3   OH2 4691   7.624   6.874   3.308
 1583TIP3    H1 4692   7.577   6.956   3.302
 1583TIP3    H2 4693   7.691   6.879   3.240
 1584TIP3   OH2 4694   0.398   6.050   0.450
 1584TIP3    H1 4695   0.337   6.044   0.376
 1584TIP3    H2 4696   0.464   6.113   0.422
 1585TIP3   OH2 4697   2.064   6.732   3.059
 1585TIP3    H1 4698   1.973   6.743   3.031
 1585TIP3    H2 4699   2.087   6.643   3.032
 1586TIP3   OH2 4700   3.845   0.551   2.543
 1586TIP3    H1 4701   3.880   0.595   2.465
 1586TIP3    H2 4702   3.809   0.469   2.510
 1587TIP3   OH2 4703   3.672   5.709   2.769
 1587TIP3    H1 4704   3.718   5.644   2.822
 1587TIP3    H2 4705   3.651   5.779   2.830
 1588TIP3   OH2 4706   3.882   7.602   0.227
 1588TIP3    H1 4707   3.897   7.697   0.228
 1588TIP3    H2 4708   3.955   7.566   0.177
 1589TIP3   OH2 4709   3.392   1.117   4.899
 1589TIP3    H1 4710   3.441   1.042   4.933
 1589TIP3    H2 4711   3.388   1.178   4.972
 1590TIP3   OH2 4712   2.153   0.927   2.430
 1590TIP3    H1 4713   2.224   0.983   2.463
 1590TIP3    H2 4714   2.123   0.878   2.506
 1591TIP3   OH2 4715   2.359   4.834   6.323
 1591TIP3    H1 4716   2.374   4.783   6.403
 1591TIP3    H2 4717   2.274   4.804   6.292
 1592TIP3   OH2 4718   1.322   3.675   5.489
 1592TIP3    H1 4719   1.353   3.585   5.499
 1592TIP3    H2 4720   1.311   3.686   5.394
 1593TIP3   OH2 4721   1.520   4.761   1.929
 1593TIP3    H1 4722   1.453   4.722   1.873
 1593TIP3    H2 4723   1.522   4.853   1.903
 1594TIP3   OH2 4724   6.676   1.623   4.651
 1594TIP3    H1 4725   6.581   1.617   4.642
 1594TIP3    H2 4726   6.699   1.703   4.603
 1595TIP3   OH2 4727   1.282   2.066   1.800
 1595TIP3    H1 4728   1.317   1.980   1.778
 1595TIP3    H2 4729   1.190   2.062   1.772
 1596TIP3   OH2 4730   5.862   5.101   1.829
 1596TIP3    H1 4731   5.814   5.133   1.752
 1596TIP3    H2 4732   5.953   5.118   1.809
 1597TIP3   OH2 4733   5.078   4.421   2.476
 1597TIP3    H1 4734   5.032   4.355   2.425
 1597TIP3    H2 4735   5.010   4.470   2.521
 1598TIP3   OH2 4736   7.806   4.187   2.310
 1598TIP3    H1 4737   7.734   4.235   2.351
 1598TIP3    H2 4738   7.763   4.125   2.251
 1599TIP3   OH2 4739   6.627   0.678   2.972
 1599TIP3    H1 4740   6.554   0.618   2.990
 1599TIP3    H2 4741   6.599   0.726   2.894
 1600TIP3   OH2 4742   8.274   1.554   3.944
 1600TIP3    H1 4743   8.280   1.649   3.948
 1600TIP3    H2 4744   8.273   1.525   4.035
 1601TIP3   OH2 4745   5.142   5.759   3.028
 1601TIP3    H1 4746   5.164   5.673   3.065
 1601TIP3    H2 4747   5.139   5.817   3.104
 1602TIP3   OH2 4748   6.656   2.436   6.083
 1602TIP3    H1 4749   6.698   2.463   6.165
 1602TIP3    H2 4750   6.678   2.506   6.021
 1603TIP3   OH2 4751   0.757   6.857   0.629
 1603TIP3    H1 4752   0.773   6.766   0.605
 1603TIP3    H2 4753   0.663   6.869   0.616
 1604TIP3   OH2 4754   3.308   3.142   2.034
 1604TIP3    H1 4755   3.295   3.204   1.962
 1604TIP3    H2 4756   3.399   3.112   2.024
 1605TIP3   OH2 4757   5.568   3.509   6.491
 1605TIP3    H1 4758   5.595   3.531   6.401
 1605TIP3    H2 4759   5.536   3.419   6.485
 1606TIP3   OH2 4760   2.293   6.015   2.501
 1606TIP3    H1 4761   2.290   5.920   2.515
 1606TIP3    H2 4762   2.280   6.025   2.406
 1607TIP3   OH2 4763   8.192   3.311   5.096
 1607TIP3    H1 4764   8.240   3.347   5.170
 1607TIP3    H2 4765   8.228   3.357   5.019
 1608TIP3   OH2 4766   1.365   2.484   0.299
 1608TIP3    H1 4767   1.278   2.520   0.313
 1608TIP3    H2 4768   1.405   2.481   0.386
 1609TIP3   OH2 4769   5.566   4.280   2.949
 1609TIP3    H1 4770   5.498   4.288   3.016
 1609TIP3    H2 4771   5.569   4.366   2.908
 1610TIP3   OH2 4772   2.245   0.604   3.777
 1610TIP3    H1 4773   2.167   0.635   3.732
 1610TIP3    H2 4774   2.226   0.620   3.870
 1611TIP3   OH2 4775   2.096   4.717   4.999
 1611TIP3    H1 4776   2.102   4.621   4.999
 1611TIP3    H2 4777   2.008   4.736   5.032
 1612TIP3   OH2 4778   2.825   3.120   3.610
 1612TIP3    H1 4779   2.824   3.025   3.603
 1612TIP3    H2 4780   2.918   3.142   3.616
 1613TIP3   OH2 4781   7.187   3.764   6.368
 1613TIP3    H1 4782   7.234   3.841   6.337
 1613TIP3    H2 4783   7.134   3.737   6.294
 1614TIP3   OH2 4784   8.187   3.540   5.640
 1614TIP3    H1 4785   8.130   3.574   5.571
 1614TIP3    H2 4786   8.149   3.574   5.721
 1615TIP3   OH2 4787   6.125   4.481   5.059
 1615TIP3    H1 4788   6.037   4.455   5.030
 1615TIP3    H2 4789   6.172   4.398   5.070
 1616TIP3   OH2 4790   5.609   3.891   4.784
 1616TIP3    H1 4791   5.621   3.921   4.694
 1616TIP3    H2 4792   5.626   3.968   4.838
 1617TIP3   OH2 4793   7.090   5.611   1.440
 1617TIP3    H1 4794   7.088   5.701   1.405
 1617TIP3    H2 4795   7.004   5.599   1.479
 1618TIP3   OH2 4796   5.291   2.432   0.951
 1618TIP3    H1 4797   5.244   2.445   0.869
 1618TIP3    H2 4798   5.292   2.337   0.963
 1619TIP3   OH2 4799   5.424   5.487   4.355
 1619TIP3    H1 4800   5.409   5.393   4.356
 1619TIP3    H2 4801   5.515   5.497   4.324
 1620TIP3   OH2 4802   4.409   0.963   1.243
 1620TIP3    H1 4803   4.419   1.025   1.171
 1620TIP3    H2 4804   4.481   0.984   1.302
 1621TIP3   OH2 4805   6.441   1.192   1.268
 1621TIP3    H1 4806   6.511   1.135   1.236
 1621TIP3    H2 4807   6.365   1.170   1.215
 1622TIP3   OH2 4808   8.109   5.721   2.756
 1622TIP3    H1 4809   8.149   5.800   2.792
 1622TIP3    H2 4810   8.126   5.725   2.662
 1623TIP3   OH2 4811   7.119   2.435   5.088
 1623TIP3    H1 4812   7.155   2.377   5.021
 1623TIP3    H2 4813   7.123   2.522   5.050
 1624TIP3   OH2 4814   8.180   1.899   4.320
 1624TIP3    H1 4815   8.194   1.877   4.412
 1624TIP3    H2 4816   8.193   1.994   4.315
 1625TIP3   OH2 4817   0.318   6.316   0.570
 1625TIP3    H1 4818   0.398   6.267   0.551
 1625TIP3    H2 4819   0.307   6.375   0.495
 1626TIP3   OH2 4820   2.122   6.358   4.765
 1626TIP3    H1 4821   2.128   6.453   4.760
 1626TIP3    H2 4822   2.174   6.326   4.692
 1627TIP3   OH2 4823   6.625   3.245   3.076
 1627TIP3    H1 4824   6.648   3.319   3.020
 1627TIP3    H2 4825   6.667   3.266   3.160
 1628TIP3   OH2 4826   7.614   6.834   5.074
 1628TIP3    H1 4827   7.633   6.921   5.109
 1628TIP3    H2 4828   7.585   6.851   4.984
 1629TIP3   OH2 4829   7.948   3.682   6.716
 1629TIP3    H1 4830   8.016   3.749   6.712
 1629TIP3    H2 4831   7.866   3.731   6.708
 1630TIP3   OH2 4832   4.341   1.100   3.043
 1630TIP3    H1 4833   4.280   1.084   2.972
 1630TIP3    H2 4834   4.411   1.153   3.004
 1631TIP3   OH2 4835   7.555   5.169   0.456
 1631TIP3    H1 4836   7.482   5.154   0.515
 1631TIP3    H2 4837   7.632   5.143   0.506
 1632TIP3   OH2 4838   5.389   3.072   2.001
 1632TIP3    H1 4839   5.308   3.027   2.024
 1632TIP3    H2 4840   5.367   3.119   1.920
 1633TIP3   OH2 4841   2.077   6.586   2.532
 1633TIP3    H1 4842   2.161   6.539   2.532
 1633TIP3    H2 4843   2.052   6.591   2.440
 1634TIP3   OH2 4844   1.460   1.046   0.669
 1634TIP3    H1 4845   1.454   0.985   0.742
 1634TIP3    H2 4846   1.369   1.057   0.639
 1635TIP3   OH2 4847   3.966   0.530   2.019
 1635TIP3    H1 4848   3.914   0.545   1.940
 1635TIP3    H2 4849   3.970   0.435   2.027
 1636TIP3   OH2 4850   5.236   2.900   2.168
 1636TIP3    H1 4851   5.146   2.920   2.194
 1636TIP3    H2 4852   5.229   2.814   2.125
 1637TIP3   OH2 4853   7.613   5.485   1.162
 1637TIP3    H1 4854   7.557   5.459   1.088
 1637TIP3    H2 4855   7.624   5.405   1.213
 1638TIP3   OH2 4856   6.731   0.103   4.859
 1638TIP3    H1 4857   6.652   0.122   4.809
 1638TIP3    H2 4858   6.757   0.014   4.831
 1639TIP3   OH2 4859   7.676   2.808   6.394
 1639TIP3    H1 4860   7.630   2.763   6.465
 1639TIP3    H2 4861   7.675   2.746   6.321
 1640TIP3   OH2 4862   5.472   1.894   1.249
 1640TIP3    H1 4863   5.465   1.915   1.156
 1640TIP3    H2 4864   5.384   1.909   1.284
 1641TIP3   OH2 4865   1.827   2.047   2.840
 1641TIP3    H1 4866   1.788   1.962   2.819
 1641TIP3    H2 4867   1.885   2.065   2.766
 1642TIP3   OH2 4868   6.160   0.986   6.475
 1642TIP3    H1 4869   6.160   1.078   6.447
 1642TIP3    H2 4870   6.248   0.955   6.454
 1643TIP3   OH2 4871   3.426   1.017   0.511
 1643TIP3    H1 4872   3.358   1.006   0.578
 1643TIP3    H2 4873   3.488   1.079   0.549
 1644TIP3   OH2 4874   3.927   4.449   6.529
 1644TIP3    H1 4875   3.869   4.406   6.466
 1644TIP3    H2 4876   3.891   4.427   6.615
 1645TIP3   OH2 4877   4.896   0.669   3.361
 1645TIP3    H1 4878   4.895   0.579   3.392
 1645TIP3    H2 4879   4.885   0.662   3.266
 1646TIP3   OH2 4880   1.535   1.100   3.657
 1646TIP3    H1 4881   1.516   1.008   3.639
 1646TIP3    H2 4882   1.631   1.105   3.658
 1647TIP3   OH2 4883   5.364   5.677   1.290
 1647TIP3    H1 4884   5.450   5.661   1.252
 1647TIP3    H2 4885   5.376   5.753   1.347
 1648TIP3   OH2 4886   8.113   5.508   5.186
 1648TIP3    H1 4887   8.031   5.461   5.168
 1648TIP3    H2 4888   8.084   5.589   5.229
 1649TIP3   OH2 4889   7.214   1.451   0.970
 1649TIP3    H1 4890   7.294   1.454   0.917
 1649TIP3    H2 4891   7.201   1.358   0.989
 1650TIP3   OH2 4892   4.361   0.767   0.708
 1650TIP3    H1 4893   4.274   0.805   0.722
 1650TIP3    H2 4894   4.397   0.756   0.796
 1651TIP3   OH2 4895   3.652   6.560   4.193
 1651TIP3    H1 4896   3.673   6.569   4.286
 1651TIP3    H2 4897   3.557   6.563   4.189
 1652TIP3   OH2 4898   1.869   0.522   3.895
 1652TIP3    H1 4899   1.912   0.457   3.950
 1652TIP3    H2 4900   1.908   0.606   3.920
 1653TIP3   OH2 4901   0.985   1.299   5.432
 1653TIP3    H1 4902   1.018   1.314   5.343
 1653TIP3    H2 4903   0.891   1.314   5.426
 1654TIP3   OH2 4904   3.673   4.161   4.766
 1654TIP3    H1 4905   3.668   4.210   4.848
 1654TIP3    H2 4906   3.649   4.225   4.698
 1655TIP3   OH2 4907   7.319   0.483   4.997
 1655TIP3    H1 4908   7.296   0.408   5.051
 1655TIP3    H2 4909   7.242   0.499   4.943
 1656TIP3   OH2 4910   2.283   4.237   5.973
 1656TIP3    H1 4911   2.320   4.184   6.043
 1656TIP3    H2 4912   2.355   4.249   5.911
 1657TIP3   OH2 4913   7.365   5.079   1.207
 1657TIP3    H1 4914   7.432   5.029   1.254
 1657TIP3    H2 4915   7.400   5.088   1.118
 1658TIP3   OH2 4916   0.291   0.781   6.635
 1658TIP3    H1 4917   0.364   0.732   6.672
 1658TIP3    H2 4918   0.315   0.796   6.544
 1659TIP3   OH2 4919   0.175   0.869   5.245
 1659TIP3    H1 4920   0.157   0.878   5.339
 1659TIP3    H2 4921   0.179   0.959   5.213
 1660TIP3   OH2 4922   4.797   1.785   0.525
 1660TIP3    H1 4923   4.885   1.818   0.540
 1660TIP3    H2 4924   4.766   1.833   0.448
 1661TIP3   OH2 4925   6.921   5.680   5.334
 1661TIP3    H1 4926   6.922   5.767   5.373
 1661TIP3    H2 4927   7.001   5.676   5.281
 1662TIP3   OH2 4928   6.032   6.774   0.272
 1662TIP3    H1 4929   6.050   6.681   0.259
 1662TIP3    H2 4930   5.937   6.781   0.268
 1663TIP3   OH2 4931   2.854   3.631   1.789
 1663TIP3    H1 4932   2.805   3.703   1.749
 1663TIP3    H2 4933   2.941   3.667   1.806
 1664TIP3   OH2 4934   2.592   2.277   2.675
 1664TIP3    H1 4935   2.639   2.195   2.688
 1664TIP3    H2 4936   2.607   2.326   2.756
 1665TIP3   OH2 4937   1.622   1.380   2.700
 1665TIP3    H1 4938   1.597   1.379   2.607
 1665TIP3    H2 4939   1.689   1.312   2.707
 1666TIP3   OH2 4940   6.186   3.363   2.317
 1666TIP3    H1 4941   6.207   3.352   2.410
 1666TIP3    H2 4942   6.178   3.273   2.285
 1667TIP3   OH2 4943   2.207   7.244   6.610
 1667TIP3    H1 4944   2.239   7.328   6.577
 1667TIP3    H2 4945   2.197   7.258   6.704
 1668TIP3   OH2 4946   3.827   7.686   5.563
 1668TIP3    H1 4947   3.806   7.755   5.500
 1668TIP3    H2 4948   3.786   7.607   5.529
 1669TIP3   OH2 4949   1.315   3.779   0.743
 1669TIP3    H1 4950   1.223   3.763   0.720
 1669TIP3    H2 4951   1.317   3.771   0.839
 1670TIP3   OH2 4952   8.203   7.688   6.700
 1670TIP3    H1 4953   8.275   7.651   6.649
 1670TIP3    H2 4954   8.169   7.614   6.750
 1671TIP3   OH2 4955   4.500   6.083   5.254
 1671TIP3    H1 4956   4.527   6.175   5.250
 1671TIP3    H2 4957   4.452   6.076   5.337
 1672TIP3   OH2 4958   4.399   0.977   0.170
 1672TIP3    H1 4959   4.323   0.934   0.207
 1672TIP3    H2 4960   4.444   0.908   0.121
 1673TIP3   OH2 4961   0.042   1.937   3.615
 1673TIP3    H1 4962  -0.004   1.922   3.533
 1673TIP3    H2 4963   0.107   2.004   3.594
 1674TIP3   OH2 4964   1.292   3.416   0.927
 1674TIP3    H1 4965   1.356   3.437   0.994
 1674TIP3    H2 4966   1.221   3.478   0.940
 1675TIP3   OH2 4967   5.153   5.498   1.993
 1675TIP3    H1 4968   5.197   5.565   2.047
 1675TIP3    H2 4969   5.105   5.445   2.057
 1676TIP3   OH2 4970   1.440   0.196   5.267
 1676TIP3    H1 4971   1.416   0.241   5.347
 1676TIP3    H2 4972   1.475   0.265   5.210
 1677TIP3   OH2 4973   1.518   1.307   4.819
 1677TIP3    H1 4974   1.467   1.246   4.767
 1677TIP3    H2 4975   1.587   1.254   4.858
 1678TIP3   OH2 4976   3.099   2.593   5.262
 1678TIP3    H1 4977   3.175   2.548   5.299
 1678TIP3    H2 4978   3.098   2.678   5.306
 1679TIP3   OH2 4979   4.880   2.880   0.124
 1679TIP3    H1 4980   4.869   2.936   0.201
 1679TIP3    H2 4981   4.973   2.855   0.125
 1680TIP3   OH2 4982   2.910   2.360   5.437
 1680TIP3    H1 4983   2.848   2.345   5.365
 1680TIP3    H2 4984   2.996   2.342   5.398
 1681TIP3   OH2 4985   2.966   3.212   1.511
 1681TIP3    H1 4986   2.911   3.269   1.564
 1681TIP3    H2 4987   2.948   3.124   1.542
 1682TIP3   OH2 4988   6.955   4.738   3.490
 1682TIP3    H1 4989   7.030   4.704   3.441
 1682TIP3    H2 4990   6.986   4.741   3.581
 1683TIP3   OH2 4991   1.236   5.003   5.051
 1683TIP3    H1 4992   1.303   4.935   5.043
 1683TIP3    H2 4993   1.167   4.962   5.103
 1684TIP3   OH2 4994   6.318   2.932   0.039
 1684TIP3    H1 4995   6.367   2.944  -0.042
 1684TIP3    H2 4996   6.384   2.941   0.108
 1685TIP3   OH2 4997   2.271   3.632   2.527
 1685TIP3    H1 4998   2.309   3.706   2.574
 1685TIP3    H2 4999   2.223   3.671   2.455
 1686TIP3   OH2 5000   7.011   6.240   4.868
 1686TIP3    H1 5001   7.076   6.240   4.798
 1686TIP3    H2 5002   7.000   6.333   4.890
 1687TIP3   OH2 5003   7.976   0.153   3.245
 1687TIP3    H1 5004   8.053   0.210   3.242
 1687TIP3    H2 5005   7.901   0.211   3.235
 1688TIP3   OH2 5006   0.229   7.444   1.585
 1688TIP3    H1 5007   0.285   7.468   1.659
 1688TIP3    H2 5008   0.285   7.454   1.508
 1689TIP3   OH2 5009   6.293   5.509   5.589
 1689TIP3    H1 5010   6.380   5.531   5.555
 1689TIP3    H2 5011   6.298   5.529   5.683
 1690TIP3   OH2 5012   4.454   6.999   2.446
 1690TIP3    H1 5013   4.467   7.001   2.541
 1690TIP3    H2 5014   4.395   6.926   2.431
 1691TIP3   OH2 5015   5.131   2.616   6.034
 1691TIP3    H1 5016   5.215   2.616   6.080
 1691TIP3    H2 5017   5.154   2.632   5.943
 1692TIP3   OH2 5018   0.562   3.530   0.298
 1692TIP3    H1 5019   0.532   3.440   0.289
 1692TIP3    H2 5020   0.483   3.581   0.315
 1693TIP3   OH2 5021   6.368   1.509   1.839
 1693TIP3    H1 5022   6.303   1.562   1.793
 1693TIP3    H2 5023   6.319   1.469   1.911
 1694TIP3   OH2 5024   2.426   0.210   0.080
 1694TIP3    H1 5025   2.403   0.182  -0.008
 1694TIP3    H2 5026   2.521   0.219   0.079
 1695TIP3   OH2 5027   1.349   6.418   4.977
 1695TIP3    H1 5028   1.292   6.493   4.961
 1695TIP3    H2 5029   1.437   6.449   4.957
 1696TIP3   OH2 5030   3.358   2.608   1.581
 1696TIP3    H1 5031   3.397   2.661   1.650
 1696TIP3    H2 5032   3.350   2.667   1.507
 1697TIP3   OH2 5033   3.764   0.419   1.252
 1697TIP3    H1 5034   3.769   0.345   1.312
 1697TIP3    H2 5035   3.687   0.401   1.198
 1698TIP3   OH2 5036   1.393   4.652   3.816
 1698TIP3    H1 5037   1.382   4.737   3.858
 1698TIP3    H2 5038   1.435   4.598   3.883
 1699TIP3   OH2 5039   4.290   6.273   1.285
 1699TIP3    H1 5040   4.279   6.213   1.211
 1699TIP3    H2 5041   4.367   6.325   1.263
 1700TIP3   OH2 5042   2.548   4.046   0.513
 1700TIP3    H1 5043   2.595   4.010   0.438
 1700TIP3    H2 5044   2.518   4.132   0.483
 1701TIP3   OH2 5045   5.578   0.226   3.064
 1701TIP3    H1 5046   5.552   0.236   3.155
 1701TIP3    H2 5047   5.516   0.162   3.029
 1702TIP3   OH2 5048   0.188   4.932   5.973
 1702TIP3    H1 5049   0.189   5.013   5.920
 1702TIP3    H2 5050   0.102   4.933   6.015
 1703TIP3   OH2 5051   3.779   2.481   1.420
 1703TIP3    H1 5052   3.709   2.529   1.377
 1703TIP3    H2 5053   3.793   2.404   1.365
 1704TIP3   OH2 5054   2.101   4.979   5.415
 1704TIP3    H1 5055   2.137   4.929   5.488
 1704TIP3    H2 5056   2.095   4.916   5.343
 1705TIP3   OH2 5057   2.912   6.659   1.528
 1705TIP3    H1 5058   2.922   6.694   1.616
 1705TIP3    H2 5059   2.839   6.708   1.490
 1706TIP3   OH2 5060   8.187   3.542   3.690
 1706TIP3    H1 5061   8.215   3.492   3.613
 1706TIP3    H2 5062   8.126   3.484   3.736
 1707TIP3   OH2 5063   6.246   2.087   5.425
 1707TIP3    H1 5064   6.255   1.998   5.390
 1707TIP3    H2 5065   6.157   2.113   5.400
 1708TIP3   OH2 5066   8.188   0.479   1.914
 1708TIP3    H1 5067   8.145   0.397   1.938
 1708TIP3    H2 5068   8.203   0.523   1.998
 1709TIP3   OH2 5069   6.200   6.991   6.276
 1709TIP3    H1 5070   6.276   6.934   6.287
 1709TIP3    H2 5071   6.143   6.944   6.215
 1710TIP3   OH2 5072   1.677   6.197   5.307
 1710TIP3    H1 5073   1.607   6.167   5.249
 1710TIP3    H2 5074   1.681   6.130   5.376
 1711TIP3   OH2 5075   0.838   2.329   5.334
 1711TIP3    H1 5076   0.745   2.316   5.313
 1711TIP3    H2 5077   0.841   2.415   5.376
 1712TIP3   OH2 5078   3.633   0.492   2.922
 1712TIP3    H1 5079   3.662   0.576   2.957
 1712TIP3    H2 5080   3.611   0.440   3.000
 1713TIP3   OH2 5081   4.670   1.333   1.131
 1713TIP3    H1 5082   4.730   1.376   1.070
 1713TIP3    H2 5083   4.708   1.246   1.146
 1714TIP3   OH2 5084   7.011   1.549   3.639
 1714TIP3    H1 5085   7.084   1.519   3.694
 1714TIP3    H2 5086   7.014   1.644   3.646
 1715TIP3   OH2 5087   3.322   2.913   3.768
 1715TIP3    H1 5088   3.382   2.915   3.843
 1715TIP3    H2 5089   3.304   3.005   3.749
 1716TIP3   OH2 5090   0.244   4.184   0.170
 1716TIP3    H1 5091   0.174   4.121   0.157
 1716TIP3    H2 5092   0.324   4.135   0.152
 1717TIP3   OH2 5093   2.070   2.779   3.348
 1717TIP3    H1 5094   2.160   2.812   3.348
 1717TIP3    H2 5095   2.064   2.723   3.271
 1718TIP3   OH2 5096   2.046   1.904   2.561
 1718TIP3    H1 5097   2.020   1.834   2.501
 1718TIP3    H2 5098   2.062   1.979   2.504
 1719TIP3   OH2 5099   1.520   5.927   6.368
 1719TIP3    H1 5100   1.569   5.987   6.425
 1719TIP3    H2 5101   1.501   5.852   6.423
 1720TIP3   OH2 5102   1.306   5.773   3.800
 1720TIP3    H1 5103   1.400   5.789   3.787
 1720TIP3    H2 5104   1.286   5.701   3.741
 1721TIP3   OH2 5105   2.514   6.495   3.920
 1721TIP3    H1 5106   2.605   6.499   3.948
 1721TIP3    H2 5107   2.463   6.495   4.001
 1722TIP3   OH2 5108   7.639   1.511   0.622
 1722TIP3    H1 5109   7.606   1.463   0.547
 1722TIP3    H2 5110   7.653   1.600   0.590
 1723TIP3   OH2 5111   0.974   1.924   2.422
 1723TIP3    H1 5112   0.885   1.920   2.386
 1723TIP3    H2 5113   0.962   1.944   2.515
 1724TIP3   OH2 5114   7.615   0.859   2.835
 1724TIP3    H1 5115   7.659   0.833   2.916
 1724TIP3    H2 5116   7.685   0.869   2.771
 1725TIP3   OH2 5117   6.185   3.444   2.619
 1725TIP3    H1 5118   6.262   3.449   2.675
 1725TIP3    H2 5119   6.205   3.504   2.547
 1726TIP3   OH2 5120   4.958   7.522   6.677
 1726TIP3    H1 5121   4.948   7.557   6.766
 1726TIP3    H2 5122   4.883   7.557   6.629
 1727TIP3   OH2 5123   1.128   2.724   3.346
 1727TIP3    H1 5124   1.141   2.679   3.430
 1727TIP3    H2 5125   1.140   2.656   3.280
 1728TIP3   OH2 5126   7.363   2.341   4.916
 1728TIP3    H1 5127   7.442   2.350   4.861
 1728TIP3    H2 5128   7.375   2.258   4.961
 1729TIP3   OH2 5129   4.231   0.750   1.146
 1729TIP3    H1 5130   4.294   0.733   1.077
 1729TIP3    H2 5131   4.271   0.819   1.199
 1730TIP3   OH2 5132   4.424   0.673   2.926
 1730TIP3    H1 5133   4.478   0.599   2.955
 1730TIP3    H2 5134   4.390   0.647   2.841
 1731TIP3   OH2 5135   1.951   2.496   5.618
 1731TIP3    H1 5136   1.977   2.552   5.545
 1731TIP3    H2 5137   1.928   2.412   5.578
 1732TIP3   OH2 5138   0.882   4.294   5.532
 1732TIP3    H1 5139   0.967   4.252   5.518
 1732TIP3    H2 5140   0.896   4.351   5.608
 1733TIP3   OH2 5141   7.872   2.216   6.637
 1733TIP3    H1 5142   7.839   2.129   6.658
 1733TIP3    H2 5143   7.822   2.275   6.693
 1734TIP3   OH2 5144   6.916   4.810   0.493
 1734TIP3    H1 5145   6.830   4.802   0.535
 1734TIP3    H2 5146   6.949   4.895   0.522
 1735TIP3   OH2 5147   5.392   5.568   2.123
 1735TIP3    H1 5148   5.433   5.506   2.063
 1735TIP3    H2 5149   5.392   5.523   2.208
 1736TIP3   OH2 5150   3.979   4.801   2.838
 1736TIP3    H1 5151   4.013   4.794   2.927
 1736TIP3    H2 5152   3.884   4.793   2.849
 1737TIP3   OH2 5153   0.893   2.811   6.433
 1737TIP3    H1 5154   0.889   2.732   6.378
 1737TIP3    H2 5155   0.803   2.842   6.437
 1738TIP3   OH2 5156   3.576   7.090   1.909
 1738TIP3    H1 5157   3.529   7.039   1.975
 1738TIP3    H2 5158   3.518   7.090   1.832
 1739TIP3   OH2 5159   4.504  -0.040   2.843
 1739TIP3    H1 5160   4.552   0.013   2.907
 1739TIP3    H2 5161   4.431  -0.077   2.892
 1740TIP3   OH2 5162   2.776   7.542   3.432
 1740TIP3    H1 5163   2.831   7.479   3.479
 1740TIP3    H2 5164   2.687   7.523   3.462
 1741TIP3   OH2 5165   5.247   5.901   3.748
 1741TIP3    H1 5166   5.196   5.981   3.735
 1741TIP3    H2 5167   5.275   5.906   3.839
 1742TIP3   OH2 5168   2.794   6.570   5.897
 1742TIP3    H1 5169   2.709   6.544   5.860
 1742TIP3    H2 5170   2.800   6.522   5.979
 1743TIP3   OH2 5171   0.737   7.283   3.668
 1743TIP3    H1 5172   0.795   7.247   3.734
 1743TIP3    H2 5173   0.764   7.241   3.586
 1744TIP3   OH2 5174   1.748   4.089   0.055
 1744TIP3    H1 5175   1.698   4.052  -0.018
 1744TIP3    H2 5176   1.741   4.024   0.125
 1745TIP3   OH2 5177   5.132   1.575   2.862
 1745TIP3    H1 5178   5.081   1.620   2.794
 1745TIP3    H2 5179   5.092   1.489   2.870
 1746TIP3   OH2 5180   3.625   0.549   5.316
 1746TIP3    H1 5181   3.637   0.611   5.245
 1746TIP3    H2 5182   3.646   0.598   5.395
 1747TIP3   OH2 5183   1.395   6.012   5.734
 1747TIP3    H1 5184   1.301   6.009   5.752
 1747TIP3    H2 5185   1.419   6.104   5.746
 1748TIP3   OH2 5186   1.651   3.541   4.301
 1748TIP3    H1 5187   1.705   3.548   4.222
 1748TIP3    H2 5188   1.590   3.614   4.295
 1749TIP3   OH2 5189   2.116   5.624   4.828
 1749TIP3    H1 5190   2.199   5.646   4.870
 1749TIP3    H2 5191   2.095   5.700   4.773
 1750TIP3   OH2 5192   2.315   6.187   1.471
 1750TIP3    H1 5193   2.331   6.276   1.442
 1750TIP3    H2 5194   2.402   6.147   1.476
 1751TIP3   OH2 5195   2.025   7.136   5.315
 1751TIP3    H1 5196   2.090   7.198   5.282
 1751TIP3    H2 5197   2.027   7.147   5.410
 1752TIP3   OH2 5198   0.074   4.505   3.217
 1752TIP3    H1 5199   0.115   4.573   3.163
 1752TIP3    H2 5200   0.146   4.447   3.241
 1753TIP3   OH2 5201   6.326   5.031   2.400
 1753TIP3    H1 5202   6.321   5.111   2.452
 1753TIP3    H2 5203   6.420   5.018   2.384
 1754TIP3   OH2 5204   7.103   7.197   1.753
 1754TIP3    H1 5205   7.162   7.184   1.679
 1754TIP3    H2 5206   7.052   7.275   1.729
 1755TIP3   OH2 5207   4.634   2.875   3.023
 1755TIP3    H1 5208   4.602   2.816   3.090
 1755TIP3    H2 5209   4.640   2.821   2.944
 1756TIP3   OH2 5210   7.510  -0.010   4.225
 1756TIP3    H1 5211   7.542  -0.092   4.186
 1756TIP3    H2 5212   7.465   0.035   4.153
 1757TIP3   OH2 5213   7.475   2.724   6.577
 1757TIP3    H1 5214   7.503   2.633   6.569
 1757TIP3    H2 5215   7.406   2.723   6.643
 1758TIP3   OH2 5216   2.619   4.172   4.919
 1758TIP3    H1 5217   2.691   4.169   4.856
 1758TIP3    H2 5218   2.662   4.187   5.003
 1759TIP3   OH2 5219   6.791   4.864   6.447
 1759TIP3    H1 5220   6.706   4.851   6.490
 1759TIP3    H2 5221   6.843   4.788   6.475
 1760TIP3   OH2 5222   4.248   7.032   6.325
 1760TIP3    H1 5223   4.343   7.027   6.334
 1760TIP3    H2 5224   4.219   6.941   6.319
 1761TIP3   OH2 5225   1.307   0.482   6.562
 1761TIP3    H1 5226   1.251   0.490   6.640
 1761TIP3    H2 5227   1.293   0.393   6.531
 1762TIP3   OH2 5228   2.420   5.140   2.448
 1762TIP3    H1 5229   2.432   5.174   2.537
 1762TIP3    H2 5230   2.503   5.097   2.427
 1763TIP3   OH2 5231   6.078   6.217   2.427
 1763TIP3    H1 5232   6.153   6.250   2.477
 1763TIP3    H2 5233   6.109   6.217   2.336
 1764TIP3   OH2 5234   2.945   7.709   4.724
 1764TIP3    H1 5235   2.943   7.625   4.679
 1764TIP3    H2 5236   2.883   7.764   4.676
 1765TIP3   OH2 5237   4.809   3.874   3.696
 1765TIP3    H1 5238   4.872   3.803   3.705
 1765TIP3    H2 5239   4.735   3.835   3.650
 1766TIP3   OH2 5240   4.554   6.944   1.536
 1766TIP3    H1 5241   4.579   7.019   1.483
 1766TIP3    H2 5242   4.468   6.967   1.572
 1767TIP3   OH2 5243   4.978   2.762   3.854
 1767TIP3    H1 5244   5.068   2.770   3.822
 1767TIP3    H2 5245   4.924   2.795   3.782
 1768TIP3   OH2 5246   0.275   6.867   2.663
 1768TIP3    H1 5247   0.277   6.836   2.572
 1768TIP3    H2 5248   0.264   6.962   2.656
 1769TIP3   OH2 5249   3.941   1.284   1.639
 1769TIP3    H1 5250   4.015   1.337   1.610
 1769TIP3    H2 5251   3.896   1.338   1.704
 1770TIP3   OH2 5252   7.436   5.157   2.635
 1770TIP3    H1 5253   7.348   5.123   2.654
 1770TIP3    H2 5254   7.474   5.093   2.575
 1771TIP3   OH2 5255   0.944   7.808   5.055
 1771TIP3    H1 5256   1.038   7.794   5.058
 1771TIP3    H2 5257   0.910   7.758   5.129
 1772TIP3   OH2 5258   4.570   2.174   3.858
 1772TIP3    H1 5259   4.534   2.093   3.895
 1772TIP3    H2 5260   4.609   2.148   3.775
 1773TIP3   OH2 5261   2.898   4.778   3.458
 1773TIP3    H1 5262   2.976   4.748   3.412
 1773TIP3    H2 5263   2.926   4.787   3.549
 1774TIP3   OH2 5264   5.353   4.237   5.209
 1774TIP3    H1 5265   5.271   4.276   5.239
 1774TIP3    H2 5266   5.333   4.203   5.122
 1775TIP3   OH2 5267   6.525   3.406   5.885
 1775TIP3    H1 5268   6.433   3.422   5.909
 1775TIP3    H2 5269   6.564   3.493   5.881
 1776TIP3   OH2 5270   2.297   5.177   4.912
 1776TIP3    H1 5271   2.226   5.238   4.931
 1776TIP3    H2 5272   2.360   5.191   4.982
 1777TIP3   OH2 5273   0.058   0.363   6.196
 1777TIP3    H1 5274   0.070   0.268   6.189
 1777TIP3    H2 5275   0.115   0.399   6.128
 1778TIP3   OH2 5276   1.703   2.139   5.175
 1778TIP3    H1 5277   1.687   2.233   5.186
 1778TIP3    H2 5278   1.658   2.117   5.093
 1779TIP3   OH2 5279   0.836   2.516   1.103
 1779TIP3    H1 5280   0.765   2.464   1.142
 1779TIP3    H2 5281   0.903   2.521   1.171
 1780TIP3   OH2 5282   2.889   3.720   2.706
 1780TIP3    H1 5283   2.967   3.766   2.737
 1780TIP3    H2 5284   2.883   3.742   2.613
 1781TIP3   OH2 5285   0.613   4.492   5.684
 1781TIP3    H1 5286   0.707   4.498   5.664
 1781TIP3    H2 5287   0.605   4.526   5.773
 1782TIP3   OH2 5288   2.903   7.015   6.545
 1782TIP3    H1 5289   2.818   6.972   6.537
 1782TIP3    H2 5290   2.948   6.995   6.463
 1783TIP3   OH2 5291   1.853   6.319   6.096
 1783TIP3    H1 5292   1.939   6.362   6.092
 1783TIP3    H2 5293   1.872   6.231   6.128
 1784TIP3   OH2 5294   2.862   5.227   2.509
 1784TIP3    H1 5295   2.819   5.305   2.475
 1784TIP3    H2 5296   2.955   5.242   2.493
 1785TIP3   OH2 5297   0.508   7.345   0.226
 1785TIP3    H1 5298   0.530   7.294   0.304
 1785TIP3    H2 5299   0.460   7.284   0.170
 1786TIP3   OH2 5300   4.960   3.151   4.410
 1786TIP3    H1 5301   4.980   3.119   4.321
 1786TIP3    H2 5302   4.915   3.077   4.452
 1787TIP3   OH2 5303   1.110   4.244   0.522
 1787TIP3    H1 5304   1.102   4.179   0.591
 1787TIP3    H2 5305   1.020   4.264   0.497
 1788TIP3   OH2 5306   1.682   2.858   5.324
 1788TIP3    H1 5307   1.605   2.849   5.267
 1788TIP3    H2 5308   1.753   2.818   5.275
 1789TIP3   OH2 5309   2.771   4.750   4.939
 1789TIP3    H1 5310   2.822   4.675   4.909
 1789TIP3    H2 5311   2.836   4.810   4.976
 1790TIP3   OH2 5312   2.788   2.287   0.206
 1790TIP3    H1 5313   2.867   2.286   0.152
 1790TIP3    H2 5314   2.720   2.252   0.149
 1791TIP3   OH2 5315   1.902   3.949   3.339
 1791TIP3    H1 5316   1.953   3.898   3.403
 1791TIP3    H2 5317   1.963   4.017   3.309
 1792TIP3   OH2 5318   0.062   4.067   1.923
 1792TIP3    H1 5319   0.072   4.146   1.870
 1792TIP3    H2 5320   0.152   4.036   1.936
 1793TIP3   OH2 5321   0.928   3.369   1.370
 1793TIP3    H1 5322   1.008   3.421   1.367
 1793TIP3    H2 5323   0.935   3.318   1.450
 1794TIP3   OH2 5324   1.264   4.019   5.222
 1794TIP3    H1 5325   1.227   4.107   5.225
 1794TIP3    H2 5326   1.319   4.014   5.301
 1795TIP3   OH2 5327   0.837   4.678   4.708
 1795TIP3    H1 5328   0.797   4.649   4.790
 1795TIP3    H2 5329   0.815   4.771   4.703
 1796TIP3   OH2 5330   3.639   0.034   4.235
 1796TIP3    H1 5331   3.611   0.103   4.295
 1796TIP3    H2 5332   3.720   0.000   4.273
 1797TIP3   OH2 5333   1.710   1.634   4.489
 1797TIP3    H1 5334   1.682   1.633   4.581
 1797TIP3    H2 5335   1.628   1.640   4.440
 1798TIP3   OH2 5336   5.496   2.672   0.868
 1798TIP3    H1 5337   5.591   2.669   0.854
 1798TIP3    H2 5338   5.486   2.710   0.955
 1799TIP3   OH2 5339   3.433   2.461   3.575
 1799TIP3    H1 5340   3.423   2.372   3.609
 1799TIP3    H2 5341   3.397   2.456   3.486
 1800TIP3   OH2 5342   3.387   0.765   1.612
 1800TIP3    H1 5343   3.379   0.859   1.596
 1800TIP3    H2 5344   3.357   0.724   1.531
 1801TIP3   OH2 5345   6.639   3.015   0.935
 1801TIP3    H1 5346   6.715   2.959   0.921
 1801TIP3    H2 5347   6.657   3.060   1.018
 1802TIP3   OH2 5348   4.013   6.949   0.295
 1802TIP3    H1 5349   4.084   6.974   0.354
 1802TIP3    H2 5350   4.048   6.966   0.207
 1803TIP3   OH2 5351   6.859   3.450   0.150
 1803TIP3    H1 5352   6.797   3.505   0.103
 1803TIP3    H2 5353   6.831   3.360   0.130
 1804TIP3   OH2 5354   1.208   4.129   3.028
 1804TIP3    H1 5355   1.208   4.033   3.021
 1804TIP3    H2 5356   1.155   4.146   3.106
 1805TIP3   OH2 5357   5.021   1.776   2.704
 1805TIP3    H1 5358   4.946   1.834   2.714
 1805TIP3    H2 5359   5.096   1.828   2.733
 1806TIP3   OH2 5360   8.149   6.018   0.916
 1806TIP3    H1 5361   8.142   6.098   0.864
 1806TIP3    H2 5362   8.238   5.987   0.900
 1807TIP3   OH2 5363   3.169   0.236   5.812
 1807TIP3    H1 5364   3.127   0.184   5.880
 1807TIP3    H2 5365   3.253   0.192   5.797
 1808TIP3   OH2 5366   3.405   4.243   1.977
 1808TIP3    H1 5367   3.348   4.319   1.988
 1808TIP3    H2 5368   3.362   4.191   1.909
 1809TIP3   OH2 5369   7.420   6.186   3.981
 1809TIP3    H1 5370   7.388   6.268   3.944
 1809TIP3    H2 5371   7.515   6.196   3.982
 1810TIP3   OH2 5372   6.371   0.320   2.945
 1810TIP3    H1 5373   6.440   0.257   2.966
 1810TIP3    H2 5374   6.409   0.376   2.878
 1811TIP3   OH2 5375   7.731   7.401   2.164
 1811TIP3    H1 5376   7.666   7.337   2.193
 1811TIP3    H2 5377   7.732   7.467   2.233
 1812TIP3   OH2 5378   1.996   2.598   1.635
 1812TIP3    H1 5379   1.943   2.603   1.556
 1812TIP3    H2 5380   1.942   2.547   1.696
 1813TIP3   OH2 5381   1.031   5.007   1.480
 1813TIP3    H1 5382   1.016   5.101   1.492
 1813TIP3    H2 5383   1.125   4.996   1.496
 1814TIP3   OH2 5384   3.194   5.923   3.289
 1814TIP3    H1 5385   3.181   5.975   3.369
 1814TIP3    H2 5386   3.111   5.931   3.242
 1815TIP3   OH2 5387   0.531   0.534   2.910
 1815TIP3    H1 5388   0.507   0.490   2.992
 1815TIP3    H2 5389   0.494   0.478   2.842
 1816TIP3   OH2 5390   1.316   2.456   4.867
 1816TIP3    H1 5391   1.392   2.501   4.829
 1816TIP3    H2 5392   1.273   2.413   4.793
 1817TIP3   OH2 5393   2.339   2.152   3.556
 1817TIP3    H1 5394   2.296   2.102   3.626
 1817TIP3    H2 5395   2.332   2.095   3.479
 1818TIP3   OH2 5396   0.235   6.106   3.235
 1818TIP3    H1 5397   0.164   6.094   3.171
 1818TIP3    H2 5398   0.217   6.192   3.274
 1819TIP3   OH2 5399   2.092   6.394   5.330
 1819TIP3    H1 5400   2.162   6.421   5.271
 1819TIP3    H2 5401   2.137   6.357   5.406
 1820TIP3   OH2 5402   1.403   7.211   4.971
 1820TIP3    H1 5403   1.412   7.279   5.037
 1820TIP3    H2 5404   1.326   7.161   4.998
 1821TIP3   OH2 5405   0.851   2.193   4.364
 1821TIP3    H1 5406   0.760   2.168   4.379
 1821TIP3    H2 5407   0.846   2.270   4.307
 1822TIP3   OH2 5408   7.406   7.323   0.542
 1822TIP3    H1 5409   7.472   7.369   0.594
 1822TIP3    H2 5410   7.430   7.340   0.451
 1823TIP3   OH2 5411   0.973   0.063   2.933
 1823TIP3    H1 5412   1.016   0.085   3.015
 1823TIP3    H2 5413   0.879   0.071   2.952
 1824TIP3   OH2 5414   3.575   6.191   1.794
 1824TIP3    H1 5415   3.655   6.210   1.843
 1824TIP3    H2 5416   3.548   6.275   1.757
 1825TIP3   OH2 5417   1.083   7.736   5.907
 1825TIP3    H1 5418   1.104   7.796   5.978
 1825TIP3    H2 5419   1.034   7.665   5.949
 1826TIP3   OH2 5420   0.489   6.549   2.905
 1826TIP3    H1 5421   0.452   6.637   2.892
 1826TIP3    H2 5422   0.462   6.524   2.993
 1827TIP3   OH2 5423   4.174   6.608   5.334
 1827TIP3    H1 5424   4.080   6.615   5.321
 1827TIP3    H2 5425   4.212   6.630   5.248
 1828TIP3   OH2 5426   4.727   7.027   5.311
 1828TIP3    H1 5427   4.795   7.061   5.254
 1828TIP3    H2 5428   4.770   6.959   5.363
 1829TIP3   OH2 5429   6.544   7.777   5.217
 1829TIP3    H1 5430   6.466   7.829   5.236
 1829TIP3    H2 5431   6.511   7.698   5.176
 1830TIP3   OH2 5432   0.745   5.325   0.836
 1830TIP3    H1 5433   0.720   5.337   0.928
 1830TIP3    H2 5434   0.834   5.360   0.831
 1831TIP3   OH2 5435   6.534   0.119   3.644
 1831TIP3    H1 5436   6.485   0.115   3.726
 1831TIP3    H2 5437   6.487   0.061   3.584
 1832TIP3   OH2 5438   4.509   7.400   0.482
 1832TIP3    H1 5439   4.460   7.319   0.492
 1832TIP3    H2 5440   4.581   7.378   0.422
 1833TIP3   OH2 5441   7.122   3.758   0.065
 1833TIP3    H1 5442   7.096   3.766  -0.027
 1833TIP3    H2 5443   7.134   3.849   0.094
 1834TIP3   OH2 5444   2.136   4.907   1.312
 1834TIP3    H1 5445   2.190   4.833   1.284
 1834TIP3    H2 5446   2.089   4.876   1.389
 1835TIP3   OH2 5447   3.342   2.136   1.975
 1835TIP3    H1 5448   3.279   2.083   1.926
 1835TIP3    H2 5449   3.312   2.226   1.965
 1836TIP3   OH2 5450   2.812   6.395   3.107
 1836TIP3    H1 5451   2.759   6.457   3.157
 1836TIP3    H2 5452   2.901   6.427   3.117
 1837TIP3   OH2 5453   3.299   1.052   1.567
 1837TIP3    H1 5454   3.361   1.098   1.623
 1837TIP3    H2 5455   3.255   1.122   1.518
 1838TIP3   OH2 5456   6.698   0.039   2.820
 1838TIP3    H1 5457   6.760   0.111   2.831
 1838TIP3    H2 5458   6.751  -0.040   2.836
 1839TIP3   OH2 5459   5.934   4.882  -0.029
 1839TIP3    H1 5460   6.008   4.862   0.029
 1839TIP3    H2 5461   5.881   4.944   0.021
 1840TIP3   OH2 5462   3.406   7.522   4.410
 1840TIP3    H1 5463   3.400   7.614   4.437
 1840TIP3    H2 5464   3.369   7.520   4.322
 1841TIP3   OH2 5465   7.190   3.137   6.261
 1841TIP3    H1 5466   7.260   3.157   6.199
 1841TIP3    H2 5467   7.227   3.069   6.318
 1842TIP3   OH2 5468   4.715   1.915   0.289
 1842TIP3    H1 5469   4.808   1.934   0.280
 1842TIP3    H2 5470   4.673   2.001   0.291
 1843TIP3   OH2 5471   5.320   0.240   4.399
 1843TIP3    H1 5472   5.328   0.197   4.483
 1843TIP3    H2 5473   5.390   0.305   4.398
 1844TIP3   OH2 5474   0.180   5.494   1.450
 1844TIP3    H1 5475   0.242   5.441   1.401
 1844TIP3    H2 5476   0.229   5.527   1.525
 1845TIP3   OH2 5477   5.416   6.855   1.205
 1845TIP3    H1 5478   5.479   6.926   1.192
 1845TIP3    H2 5479   5.365   6.882   1.281
 1846TIP3   OH2 5480   6.701   2.993   5.240
 1846TIP3    H1 5481   6.731   2.917   5.289
 1846TIP3    H2 5482   6.721   3.068   5.296
 1847TIP3   OH2 5483   0.031   0.117   1.931
 1847TIP3    H1 5484  -0.048   0.170   1.944
 1847TIP3    H2 5485   0.100   0.168   1.974
 1848TIP3   OH2 5486   1.143   5.774   2.619
 1848TIP3    H1 5487   1.154   5.841   2.686
 1848TIP3    H2 5488   1.089   5.707   2.661
 1849TIP3   OH2 5489   3.622   4.787   2.601
 1849TIP3    H1 5490   3.613   4.775   2.507
 1849TIP3    H2 5491   3.626   4.698   2.637
 1850TIP3   OH2 5492   4.729   5.687   3.060
 1850TIP3    H1 5493   4.724   5.596   3.090
 1850TIP3    H2 5494   4.800   5.725   3.110
 1851TIP3   OH2 5495   3.114   0.480   3.006
 1851TIP3    H1 5496   3.044   0.538   2.975
 1851TIP3    H2 5497   3.189   0.501   2.950
 1852TIP3   OH2 5498   1.016   4.408   2.979
 1852TIP3    H1 5499   1.043   4.499   2.967
 1852TIP3    H2 5500   1.037   4.366   2.895
 1853TIP3   OH2 5501   7.331   0.994   3.360
 1853TIP3    H1 5502   7.352   0.903   3.336
 1853TIP3    H2 5503   7.416   1.035   3.376
 1854TIP3   OH2 5504   6.366   6.856   1.839
 1854TIP3    H1 5505   6.450   6.882   1.801
 1854TIP3    H2 5506   6.305   6.923   1.810
 1855TIP3   OH2 5507   0.567   7.438   0.923
 1855TIP3    H1 5508   0.609   7.428   0.837
 1855TIP3    H2 5509   0.563   7.533   0.937
 1856TIP3   OH2 5510   3.276   0.375   3.222
 1856TIP3    H1 5511   3.339   0.384   3.150
 1856TIP3    H2 5512   3.190   0.379   3.179
 1857TIP3   OH2 5513   0.737   1.908   6.006
 1857TIP3    H1 5514   0.808   1.878   5.950
 1857TIP3    H2 5515   0.717   1.996   5.974
 1858TIP3   OH2 5516   3.514   7.795   5.331
 1858TIP3    H1 5517   3.487   7.707   5.304
 1858TIP3    H2 5518   3.569   7.826   5.259
 1859TIP3   OH2 5519   8.017   3.079   2.877
 1859TIP3    H1 5520   8.018   3.165   2.919
 1859TIP3    H2 5521   8.088   3.030   2.919
 1860TIP3   OH2 5522   8.241   0.853   1.522
 1860TIP3    H1 5523   8.290   0.845   1.440
 1860TIP3    H2 5524   8.197   0.938   1.516
 1861TIP3   OH2 5525   6.427   3.303   4.310
 1861TIP3    H1 5526   6.453   3.344   4.228
 1861TIP3    H2 5527   6.391   3.218   4.285
 1862TIP3   OH2 5528   6.401   2.852   1.470
 1862TIP3    H1 5529   6.428   2.826   1.557
 1862TIP3    H2 5530   6.431   2.943   1.461
 1863TIP3   OH2 5531   0.276   4.837   5.017
 1863TIP3    H1 5532   0.346   4.857   5.080
 1863TIP3    H2 5533   0.243   4.752   5.045
 1864TIP3   OH2 5534   3.368   6.375   2.063
 1864TIP3    H1 5535   3.317   6.380   2.143
 1864TIP3    H2 5536   3.448   6.329   2.088
 1865TIP3   OH2 5537   4.582   5.548   2.181
 1865TIP3    H1 5538   4.617   5.622   2.229
 1865TIP3    H2 5539   4.501   5.581   2.141
 1866TIP3   OH2 5540   2.771   0.496   6.547
 1866TIP3    H1 5541   2.727   0.535   6.623
 1866TIP3    H2 5542   2.701   0.462   6.493
 1867TIP3   OH2 5543   1.383   2.158   1.387
 1867TIP3    H1 5544   1.444   2.131   1.455
 1867TIP3    H2 5545   1.311   2.200   1.435
 1868TIP3   OH2 5546   6.162   0.468   0.388
 1868TIP3    H1 5547   6.075   0.429   0.403
 1868TIP3    H2 5548   6.148   0.530   0.317
 1869TIP3   OH2 5549   0.480   3.982   0.727
 1869TIP3    H1 5550   0.444   4.044   0.791
 1869TIP3    H2 5551   0.431   3.901   0.741
 1870TIP3   OH2 5552   7.171   0.421   0.394
 1870TIP3    H1 5553   7.233   0.421   0.467
 1870TIP3    H2 5554   7.094   0.377   0.429
 1871TIP3   OH2 5555   0.154   3.623   3.179
 1871TIP3    H1 5556   0.235   3.573   3.170
 1871TIP3    H2 5557   0.134   3.621   3.272
 1872TIP3   OH2 5558   4.187   3.707   3.185
 1872TIP3    H1 5559   4.266   3.723   3.133
 1872TIP3    H2 5560   4.121   3.763   3.144
 1873TIP3   OH2 5561   1.733   3.263   5.238
 1873TIP3    H1 5562   1.651   3.226   5.269
 1873TIP3    H2 5563   1.743   3.345   5.287
 1874TIP3   OH2 5564   4.548   3.742   5.434
 1874TIP3    H1 5565   4.622   3.700   5.391
 1874TIP3    H2 5566   4.579   3.830   5.455
 1875TIP3   OH2 5567   6.002   4.213   5.155
 1875TIP3    H1 5568   5.910   4.240   5.145
 1875TIP3    H2 5569   5.996   4.126   5.197
 1876TIP3   OH2 5570   6.501   4.323   2.138
 1876TIP3    H1 5571   6.449   4.400   2.162
 1876TIP3    H2 5572   6.527   4.284   2.222
 1877TIP3   OH2 5573   4.793   5.750   1.474
 1877TIP3    H1 5574   4.867   5.769   1.532
 1877TIP3    H2 5575   4.824   5.678   1.419
 1878TIP3   OH2 5576   0.401   7.468   5.182
 1878TIP3    H1 5577   0.374   7.443   5.271
 1878TIP3    H2 5578   0.410   7.563   5.185
 1879TIP3   OH2 5579   2.638   6.707   0.879
 1879TIP3    H1 5580   2.655   6.660   0.961
 1879TIP3    H2 5581   2.569   6.657   0.836
 1880TIP3   OH2 5582   1.528   1.940   0.214
 1880TIP3    H1 5583   1.534   1.845   0.200
 1880TIP3    H2 5584   1.554   1.952   0.305
 1881TIP3   OH2 5585   8.203   1.851   0.319
 1881TIP3    H1 5586   8.120   1.837   0.364
 1881TIP3    H2 5587   8.261   1.782   0.351
 1882TIP3   OH2 5588  -0.020   4.796   3.293
 1882TIP3    H1 5589   0.016   4.880   3.322
 1882TIP3    H2 5590   0.025   4.731   3.345
 1883TIP3   OH2 5591   7.579   3.751   2.835
 1883TIP3    H1 5592   7.555   3.837   2.869
 1883TIP3    H2 5593   7.516   3.735   2.764
 1884TIP3   OH2 5594   6.639   6.095   2.010
 1884TIP3    H1 5595   6.631   6.155   1.936
 1884TIP3    H2 5596   6.724   6.052   1.996
 1885TIP3   OH2 5597   4.709   3.011   5.791
 1885TIP3    H1 5598   4.780   2.950   5.813
 1885TIP3    H2 5599   4.639   2.991   5.853
 1886TIP3   OH2 5600   2.734   1.421   2.641
 1886TIP3    H1 5601   2.813   1.377   2.674
 1886TIP3    H2 5602   2.761   1.457   2.556
 1887TIP3   OH2 5603   0.493   3.026   2.832
 1887TIP3    H1 5604   0.467   3.093   2.895
 1887TIP3    H2 5605   0.478   2.943   2.878
 1888TIP3   OH2 5606   6.494   4.008   5.835
 1888TIP3    H1 5607   6.458   3.981   5.751
 1888TIP3    H2 5608   6.577   3.960   5.841
 1889TIP3   OH2 5609   7.299   3.038   4.636
 1889TIP3    H1 5610   7.217   2.994   4.661
 1889TIP3    H2 5611   7.274   3.097   4.565
 1890TIP3   OH2 5612   4.156   4.074   5.511
 1890TIP3    H1 5613   4.200   4.024   5.443
 1890TIP3    H2 5614   4.222   4.085   5.580
 1891TIP3   OH2 5615   0.728   6.374   2.928
 1891TIP3    H1 5616   0.636   6.401   2.930
 1891TIP3    H2 5617   0.768   6.427   2.859
 1892TIP3   OH2 5618   7.265   0.706   1.359
 1892TIP3    H1 5619   7.214   0.632   1.393
 1892TIP3    H2 5620   7.201   0.777   1.350
 1893TIP3   OH2 5621   6.208   7.231   6.433
 1893TIP3    H1 5622   6.165   7.202   6.514
 1893TIP3    H2 5623   6.213   7.152   6.380
 1894TIP3   OH2 5624   2.998   1.443   0.771
 1894TIP3    H1 5625   3.004   1.493   0.689
 1894TIP3    H2 5626   3.088   1.438   0.803
 1895TIP3   OH2 5627   1.206   1.528   5.726
 1895TIP3    H1 5628   1.276   1.586   5.695
 1895TIP3    H2 5629   1.241   1.440   5.715
 1896TIP3   OH2 5630   6.590   7.217   4.073
 1896TIP3    H1 5631   6.549   7.158   4.135
 1896TIP3    H2 5632   6.629   7.159   4.007
 1897TIP3   OH2 5633   4.401   4.104   2.042
 1897TIP3    H1 5634   4.410   4.169   1.972
 1897TIP3    H2 5635   4.347   4.146   2.108
 1898TIP3   OH2 5636   6.858   0.861   0.583
 1898TIP3    H1 5637   6.780   0.876   0.637
 1898TIP3    H2 5638   6.902   0.946   0.582
 1899TIP3   OH2 5639   4.496   4.549   0.570
 1899TIP3    H1 5640   4.516   4.465   0.527
 1899TIP3    H2 5641   4.484   4.610   0.497
 1900TIP3   OH2 5642   4.519   6.289   5.540
 1900TIP3    H1 5643   4.450   6.348   5.569
 1900TIP3    H2 5644   4.545   6.322   5.454
 1901TIP3   OH2 5645   1.052   0.690   6.017
 1901TIP3    H1 5646   1.003   0.626   5.966
 1901TIP3    H2 5647   1.094   0.746   5.952
 1902TIP3   OH2 5648   3.484   5.867   2.279
 1902TIP3    H1 5649   3.459   5.906   2.363
 1902TIP3    H2 5650   3.479   5.939   2.217
 1903TIP3   OH2 5651   0.878   3.798   2.026
 1903TIP3    H1 5652   0.835   3.786   1.941
 1903TIP3    H2 5653   0.815   3.848   2.078
 1904TIP3   OH2 5654   6.510   5.146   5.421
 1904TIP3    H1 5655   6.448   5.204   5.464
 1904TIP3    H2 5656   6.475   5.058   5.435
 1905TIP3   OH2 5657   2.376   5.572   3.376
 1905TIP3    H1 5658   2.418   5.580   3.461
 1905TIP3    H2 5659   2.422   5.636   3.321
 1906TIP3   OH2 5660   6.953   6.771   0.899
 1906TIP3    H1 5661   6.936   6.795   0.990
 1906TIP3    H2 5662   6.919   6.845   0.848
 1907TIP3   OH2 5663   6.664   5.373   2.761
 1907TIP3    H1 5664   6.681   5.324   2.681
 1907TIP3    H2 5665   6.681   5.311   2.832
 1908TIP3   OH2 5666   7.297   7.643   2.184
 1908TIP3    H1 5667   7.321   7.705   2.253
 1908TIP3    H2 5668   7.261   7.568   2.231
 1909TIP3   OH2 5669   0.693   0.245   1.471
 1909TIP3    H1 5670   0.654   0.315   1.522
 1909TIP3    H2 5671   0.638   0.238   1.394
 1910TIP3   OH2 5672   7.823   5.777   0.151
 1910TIP3    H1 5673   7.762   5.808   0.084
 1910TIP3    H2 5674   7.887   5.847   0.160
 1911TIP3   OH2 5675   5.461   1.914   5.809
 1911TIP3    H1 5676   5.535   1.858   5.787
 1911TIP3    H2 5677   5.386   1.855   5.813
 1912TIP3   OH2 5678   1.550   3.905   2.135
 1912TIP3    H1 5679   1.607   3.852   2.081
 1912TIP3    H2 5680   1.547   3.859   2.219
 1913TIP3   OH2 5681   2.789   5.483   3.263
 1913TIP3    H1 5682   2.804   5.491   3.169
 1913TIP3    H2 5683   2.876   5.496   3.302
 1914TIP3   OH2 5684   4.185   2.946   6.045
 1914TIP3    H1 5685   4.221   2.892   5.974
 1914TIP3    H2 5686   4.090   2.944   6.032
 1915TIP3   OH2 5687   7.295   3.691   4.048
 1915TIP3    H1 5688   7.255   3.745   3.979
 1915TIP3    H2 5689   7.349   3.628   4.000
 1916TIP3   OH2 5690   0.470   4.507   5.968
 1916TIP3    H1 5691   0.380   4.520   5.939
 1916TIP3    H2 5692   0.464   4.444   6.039
 1917TIP3   OH2 5693   5.366   3.761   0.327
 1917TIP3    H1 5694   5.327   3.697   0.267
 1917TIP3    H2 5695   5.296   3.781   0.389
 1918TIP3   OH2 5696   3.456   1.704   5.448
 1918TIP3    H1 5697   3.457   1.673   5.358
 1918TIP3    H2 5698   3.526   1.768   5.453
 1919TIP3   OH2 5699   5.909   1.745   6.552
 1919TIP3    H1 5700   5.868   1.828   6.529
 1919TIP3    H2 5701   5.862   1.717   6.631
 1920TIP3   OH2 5702   3.098   1.237   4.879
 1920TIP3    H1 5703   3.030   1.215   4.943
 1920TIP3    H2 5704   3.078   1.327   4.852
 1921TIP3   OH2 5705   0.263   4.642   0.519
 1921TIP3    H1 5706   0.276   4.618   0.427
 1921TIP3    H2 5707   0.168   4.651   0.528
 1922TIP3   OH2 5708   1.293   0.308   0.697
 1922TIP3    H1 5709   1.358   0.375   0.719
 1922TIP3    H2 5710   1.279   0.319   0.603
 1923TIP3   OH2 5711   6.595   5.296   5.140
 1923TIP3    H1 5712   6.550   5.308   5.057
 1923TIP3    H2 5713   6.527   5.267   5.201
 1924TIP3   OH2 5714   7.790   5.248   0.730
 1924TIP3    H1 5715   7.886   5.243   0.735
 1924TIP3    H2 5716   7.761   5.157   0.734
 1925TIP3   OH2 5717   4.584   7.081   0.216
 1925TIP3    H1 5718   4.569   6.988   0.230
 1925TIP3    H2 5719   4.496   7.119   0.211
 1926TIP3   OH2 5720   5.324   5.751   0.336
 1926TIP3    H1 5721   5.268   5.828   0.332
 1926TIP3    H2 5722   5.378   5.756   0.258
 1927TIP3   OH2 5723   2.149   3.914   5.591
 1927TIP3    H1 5724   2.098   3.991   5.566
 1927TIP3    H2 5725   2.192   3.938   5.673
 1928TIP3   OH2 5726   5.824   1.044   5.900
 1928TIP3    H1 5727   5.768   1.025   5.825
 1928TIP3    H2 5728   5.858   1.132   5.883
 1929TIP3   OH2 5729   0.312   3.167   6.626
 1929TIP3    H1 5730   0.362   3.123   6.694
 1929TIP3    H2 5731   0.370   3.235   6.593
 1930TIP3   OH2 5732   7.255   1.025   0.334
 1930TIP3    H1 5733   7.164   1.020   0.303
 1930TIP3    H2 5734   7.304   0.968   0.274
 1931TIP3   OH2 5735   1.453   7.245   1.981
 1931TIP3    H1 5736   1.364   7.231   2.015
 1931TIP3    H2 5737   1.510   7.205   2.047
 1932TIP3   OH2 5738   2.804   3.867   2.388
 1932TIP3    H1 5739   2.801   3.914   2.305
 1932TIP3    H2 5740   2.741   3.796   2.378
 1933TIP3   OH2 5741   5.419   0.363   1.824
 1933TIP3    H1 5742   5.360   0.373   1.750
 1933TIP3    H2 5743   5.504   0.395   1.793
 1934TIP3   OH2 5744   7.836   7.117   1.613
 1934TIP3    H1 5745   7.761   7.177   1.607
 1934TIP3    H2 5746   7.890   7.139   1.537
 1935TIP3   OH2 5747   2.707   4.605   4.211
 1935TIP3    H1 5748   2.660   4.532   4.170
 1935TIP3    H2 5749   2.715   4.670   4.140
 1936TIP3   OH2 5750   2.789   2.399   0.491
 1936TIP3    H1 5751   2.850   2.389   0.418
 1936TIP3    H2 5752   2.705   2.419   0.450
 1937TIP3   OH2 5753   7.125   4.979   1.155
 1937TIP3    H1 5754   7.062   5.047   1.132
 1937TIP3    H2 5755   7.192   5.024   1.206
 1938TIP3   OH2 5756   7.234   4.494   1.348
 1938TIP3    H1 5757   7.311   4.495   1.405
 1938TIP3    H2 5758   7.259   4.437   1.276
 1939TIP3   OH2 5759   7.706   4.114   0.259
 1939TIP3    H1 5760   7.683   4.165   0.182
 1939TIP3    H2 5761   7.711   4.179   0.330
 1940TIP3   OH2 5762   0.200   3.346   3.320
 1940TIP3    H1 5763   0.250   3.264   3.326
 1940TIP3    H2 5764   0.144   3.334   3.243
 1941TIP3   OH2 5765   3.797   0.478   1.830
 1941TIP3    H1 5766   3.742   0.553   1.809
 1941TIP3    H2 5767   3.756   0.404   1.785
 1942TIP3   OH2 5768   3.787   5.989   2.029
 1942TIP3    H1 5769   3.793   6.015   2.120
 1942TIP3    H2 5770   3.695   5.968   2.016
 1943TIP3   OH2 5771   2.647   5.199   6.529
 1943TIP3    H1 5772   2.622   5.227   6.441
 1943TIP3    H2 5773   2.654   5.104   6.523
 1944TIP3   OH2 5774   1.169   0.984   4.602
 1944TIP3    H1 5775   1.143   1.065   4.559
 1944TIP3    H2 5776   1.102   0.921   4.575
 1945TIP3   OH2 5777   5.679   6.842   5.550
 1945TIP3    H1 5778   5.609   6.907   5.550
 1945TIP3    H2 5779   5.643   6.768   5.600
 1946TIP3   OH2 5780   2.586   7.384   5.798
 1946TIP3    H1 5781   2.615   7.313   5.741
 1946TIP3    H2 5782   2.626   7.364   5.883
 1947TIP3   OH2 5783   3.089   0.967   5.494
 1947TIP3    H1 5784   3.016   0.973   5.432
 1947TIP3    H2 5785   3.056   0.910   5.564
 1948TIP3   OH2 5786   0.222   0.316   3.700
 1948TIP3    H1 5787   0.128   0.303   3.715
 1948TIP3    H2 5788   0.240   0.269   3.619
 1949TIP3   OH2 5789   6.690   1.656   1.352
 1949TIP3    H1 5790   6.649   1.698   1.428
 1949TIP3    H2 5791   6.730   1.576   1.387
 1950TIP3   OH2 5792   1.041   5.268   1.606
 1950TIP3    H1 5793   1.092   5.346   1.585
 1950TIP3    H2 5794   0.950   5.294   1.593
 1951TIP3   OH2 5795   5.795   2.011   6.702
 1951TIP3    H1 5796   5.830   2.018   6.613
 1951TIP3    H2 5797   5.873   2.010   6.758
 1952TIP3   OH2 5798   5.431   6.181   4.423
 1952TIP3    H1 5799   5.422   6.123   4.498
 1952TIP3    H2 5800   5.398   6.130   4.349
 1953TIP3   OH2 5801   4.870   5.890   5.807
 1953TIP3    H1 5802   4.883   5.982   5.831
 1953TIP3    H2 5803   4.942   5.871   5.747
 1954TIP3   OH2 5804   1.202   3.783   1.897
 1954TIP3    H1 5805   1.123   3.743   1.863
 1954TIP3    H2 5806   1.185   3.877   1.894
 1955TIP3   OH2 5807   0.237   3.739   4.959
 1955TIP3    H1 5808   0.305   3.806   4.957
 1955TIP3    H2 5809   0.158   3.786   4.931
 1956TIP3   OH2 5810   6.464   2.421   3.875
 1956TIP3    H1 5811   6.530   2.415   3.943
 1956TIP3    H2 5812   6.474   2.509   3.839
 1957TIP3   OH2 5813   7.428   4.771   4.788
 1957TIP3    H1 5814   7.391   4.706   4.848
 1957TIP3    H2 5815   7.351   4.812   4.747
 1958TIP3   OH2 5816   0.435   7.073   4.170
 1958TIP3    H1 5817   0.408   7.001   4.114
 1958TIP3    H2 5818   0.529   7.059   4.185
 1959TIP3   OH2 5819   7.038   6.596   1.711
 1959TIP3    H1 5820   6.959   6.565   1.755
 1959TIP3    H2 5821   7.086   6.642   1.780
 1960TIP3   OH2 5822   5.718   6.839   3.857
 1960TIP3    H1 5823   5.688   6.924   3.889
 1960TIP3    H2 5824   5.703   6.842   3.763
 1961TIP3   OH2 5825   4.247   4.658   0.658
 1961TIP3    H1 5826   4.333   4.632   0.624
 1961TIP3    H2 5827   4.264   4.683   0.749
 1962TIP3   OH2 5828   6.764   1.144   1.847
 1962TIP3    H1 5829   6.772   1.114   1.937
 1962TIP3    H2 5830   6.696   1.211   1.849
 1963TIP3   OH2 5831   3.683   0.637   1.453
 1963TIP3    H1 5832   3.731   0.586   1.387
 1963TIP3    H2 5833   3.595   0.644   1.418
 1964TIP3   OH2 5834   2.671   1.447   4.019
 1964TIP3    H1 5835   2.745   1.495   3.980
 1964TIP3    H2 5836   2.646   1.384   3.952
 1965TIP3   OH2 5837   7.324   3.062   3.938
 1965TIP3    H1 5838   7.395   3.125   3.954
 1965TIP3    H2 5839   7.330   3.044   3.845
 1966TIP3   OH2 5840   2.951   3.110   0.047
 1966TIP3    H1 5841   2.856   3.106   0.057
 1966TIP3    H2 5842   2.964   3.156  -0.036
 1967TIP3   OH2 5843   3.487   1.167   1.729
 1967TIP3    H1 5844   3.464   1.206   1.813
 1967TIP3    H2 5845   3.547   1.096   1.751
 1968TIP3   OH2 5846   7.138   2.073   1.867
 1968TIP3    H1 5847   7.178   2.075   1.954
 1968TIP3    H2 5848   7.196   2.127   1.813
 1969TIP3   OH2 5849   3.266   7.367   6.029
 1969TIP3    H1 5850   3.322   7.435   6.068
 1969TIP3    H2 5851   3.185   7.373   6.079
 1970TIP3   OH2 5852   7.252   2.462   6.556
 1970TIP3    H1 5853   7.231   2.369   6.566
 1970TIP3    H2 5854   7.348   2.465   6.555
 1971TIP3   OH2 5855   1.040   1.985   3.343
 1971TIP3    H1 5856   0.975   2.053   3.324
 1971TIP3    H2 5857   1.068   1.954   3.257
 1972TIP3   OH2 5858   3.521   0.290   4.926
 1972TIP3    H1 5859   3.453   0.275   4.991
 1972TIP3    H2 5860   3.603   0.280   4.975
 1973TIP3   OH2 5861   0.718   6.575   3.842
 1973TIP3    H1 5862   0.653   6.519   3.884
 1973TIP3    H2 5863   0.791   6.578   3.905
 1974TIP3   OH2 5864   2.232   3.803   3.864
 1974TIP3    H1 5865   2.243   3.897   3.856
 1974TIP3    H2 5866   2.299   3.776   3.927
 1975TIP3   OH2 5867   5.044   6.126   1.511
 1975TIP3    H1 5868   5.063   6.218   1.532
 1975TIP3    H2 5869   5.011   6.089   1.593
 1976TIP3   OH2 5870   5.252   1.081   2.552
 1976TIP3    H1 5871   5.313   1.008   2.569
 1976TIP3    H2 5872   5.205   1.092   2.634
 1977TIP3   OH2 5873   7.953   6.120   5.238
 1977TIP3    H1 5874   7.908   6.038   5.220
 1977TIP3    H2 5875   8.031   6.118   5.182
 1978TIP3   OH2 5876   3.817   6.019   4.705
 1978TIP3    H1 5877   3.743   5.974   4.746
 1978TIP3    H2 5878   3.871   5.949   4.668
 1979TIP3   OH2 5879   3.024   1.254   2.009
 1979TIP3    H1 5880   3.100   1.255   1.951
 1979TIP3    H2 5881   3.036   1.176   2.063
 1980TIP3   OH2 5882   4.151   1.035   3.256
 1980TIP3    H1 5883   4.238   1.057   3.222
 1980TIP3    H2 5884   4.166   0.960   3.314
 1981TIP3   OH2 5885   7.997   2.041   6.320
 1981TIP3    H1 5886   8.080   2.008   6.353
 1981TIP3    H2 5887   7.961   1.969   6.268
 1982TIP3   OH2 5888   5.804   7.636   3.086
 1982TIP3    H1 5889   5.851   7.719   3.077
 1982TIP3    H2 5890   5.834   7.583   3.011
 1983TIP3   OH2 5891   1.281   5.964   5.063
 1983TIP3    H1 5892   1.276   5.965   4.968
 1983TIP3    H2 5893   1.253   5.876   5.088
 1984TIP3   OH2 5894   5.438   7.310   5.295
 1984TIP3    H1 5895   5.421   7.379   5.359
 1984TIP3    H2 5896   5.532   7.314   5.280
 1985TIP3   OH2 5897   8.041   0.554   5.457
 1985TIP3    H1 5898   7.956   0.573   5.495
 1985TIP3    H2 5899   8.035   0.462   5.431
 1986TIP3   OH2 5900   7.499   5.338   4.639
 1986TIP3    H1 5901   7.449   5.315   4.561
 1986TIP3    H2 5902   7.585   5.364   4.607
 1987TIP3   OH2 5903   1.775   0.633   3.027
 1987TIP3    H1 5904   1.837   0.704   3.044
 1987TIP3    H2 5905   1.796   0.567   3.093
 1988TIP3   OH2 5906   5.539   6.612   2.293
 1988TIP3    H1 5907   5.492   6.564   2.360
 1988TIP3    H2 5908   5.601   6.667   2.341
 1989TIP3   OH2 5909   3.872   7.506   6.618
 1989TIP3    H1 5910   3.967   7.503   6.619
 1989TIP3    H2 5911   3.851   7.600   6.624
 1990TIP3   OH2 5912   7.786   6.477   3.696
 1990TIP3    H1 5913   7.823   6.398   3.657
 1990TIP3    H2 5914   7.769   6.535   3.622
 1991TIP3   OH2 5915   5.659   3.109   5.076
 1991TIP3    H1 5916   5.588   3.170   5.095
 1991TIP3    H2 5917   5.658   3.100   4.981
 1992TIP3   OH2 5918   4.653   3.670   1.605
 1992TIP3    H1 5919   4.558   3.679   1.607
 1992TIP3    H2 5920   4.669   3.580   1.634
 1993TIP3   OH2 5921   6.171   2.666   5.111
 1993TIP3    H1 5922   6.105   2.658   5.042
 1993TIP3    H2 5923   6.136   2.614   5.184
 1994TIP3   OH2 5924   5.696   0.719   6.560
 1994TIP3    H1 5925   5.720   0.642   6.508
 1994TIP3    H2 5926   5.779   0.751   6.594
 1995TIP3   OH2 5927   7.149   3.116   2.203
 1995TIP3    H1 5928   7.116   3.152   2.120
 1995TIP3    H2 5929   7.073   3.112   2.260
 1996TIP3   OH2 5930   7.489   4.555   2.815
 1996TIP3    H1 5931   7.509   4.475   2.765
 1996TIP3    H2 5932   7.573   4.599   2.824
 1997TIP3   OH2 5933   1.617   2.705   2.029
 1997TIP3    H1 5934   1.604   2.612   2.048
 1997TIP3    H2 5935   1.537   2.732   1.984
 1998TIP3   OH2 5936   2.070   5.445   5.203
 1998TIP3    H1 5937   2.087   5.434   5.110
 1998TIP3    H2 5938   2.012   5.372   5.226
 1999TIP3   OH2 5939   3.574   7.064   4.254
 1999TIP3    H1 5940   3.564   7.029   4.342
 1999TIP3    H2 5941   3.668   7.080   4.245
 2000TIP3   OH2 5942   4.241   4.066   5.047
 2000TIP3    H1 5943   4.224   3.972   5.061
 2000TIP3    H2 5944   4.305   4.068   4.975
 2001TIP3   OH2 5945   5.017   1.055   1.911
 2001TIP3    H1 5946   5.032   1.132   1.966
 2001TIP3    H2 5947   4.953   1.004   1.960
 2002TIP3   OH2 5948   4.746   0.500   1.745
 2002TIP3    H1 5949   4.748   0.506   1.650
 2002TIP3    H2 5950   4.728   0.408   1.763
 2003TIP3   OH2 5951   4.069   6.703   2.617
 2003TIP3    H1 5952   3.974   6.711   2.611
 2003TIP3    H2 5953   4.092   6.747   2.700
 2004TIP3   OH2 5954   1.010   4.343   1.278
 2004TIP3    H1 5955   1.003   4.270   1.339
 2004TIP3    H2 5956   1.099   4.377   1.292
 2005TIP3   OH2 5957   4.531   1.951   3.981
 2005TIP3    H1 5958   4.497   1.962   4.070
 2005TIP3    H2 5959   4.563   1.861   3.979
 2006TIP3   OH2 5960   0.915   5.753   1.097
 2006TIP3    H1 5961   0.898   5.779   1.188
 2006TIP3    H2 5962   1.008   5.730   1.096
 2007TIP3   OH2 5963   5.109   0.225   1.063
 2007TIP3    H1 5964   5.096   0.300   1.122
 2007TIP3    H2 5965   5.042   0.162   1.089
 2008TIP3   OH2 5966   5.755   5.153   5.458
 2008TIP3    H1 5967   5.816   5.201   5.401
 2008TIP3    H2 5968   5.685   5.125   5.400
 2009TIP3   OH2 5969   6.179   0.713   1.379
 2009TIP3    H1 5970   6.274   0.716   1.383
 2009TIP3    H2 5971   6.157   0.620   1.391
 2010TIP3   OH2 5972   3.158   1.414   4.640
 2010TIP3    H1 5973   3.088   1.357   4.609
 2010TIP3    H2 5974   3.116   1.469   4.707
 2011TIP3   OH2 5975   4.556   0.800   0.492
 2011TIP3    H1 5976   4.505   0.804   0.572
 2011TIP3    H2 5977   4.581   0.891   0.474
 2012TIP3   OH2 5978   2.660   7.643   5.848
 2012TIP3    H1 5979   2.620   7.622   5.933
 2012TIP3    H2 5980   2.651   7.563   5.797
 2013TIP3   OH2 5981   7.873   4.930   6.109
 2013TIP3    H1 5982   7.888   4.837   6.094
 2013TIP3    H2 5983   7.784   4.935   6.144
 2014TIP3   OH2 5984   3.335   6.310   1.144
 2014TIP3    H1 5985   3.267   6.259   1.101
 2014TIP3    H2 5986   3.292   6.391   1.170
 2015TIP3   OH2 5987   5.567   1.786   0.878
 2015TIP3    H1 5988   5.646   1.823   0.839
 2015TIP3    H2 5989   5.587   1.693   0.888
 2016TIP3   OH2 5990   0.631   2.990   4.857
 2016TIP3    H1 5991   0.589   3.047   4.793
 2016TIP3    H2 5992   0.675   2.922   4.804
 2017TIP3   OH2 5993   0.928   5.064   6.174
 2017TIP3    H1 5994   0.937   5.059   6.269
 2017TIP3    H2 5995   0.840   5.101   6.161
 2018TIP3   OH2 5996   2.417   5.493   0.771
 2018TIP3    H1 5997   2.413   5.416   0.828
 2018TIP3    H2 5998   2.499   5.536   0.795
 2019TIP3   OH2 5999   3.763   7.190   4.003
 2019TIP3    H1 6000   3.810   7.166   4.082
 2019TIP3    H2 6001   3.768   7.285   3.999
 2020TIP3   OH2 6002   6.666   0.816   1.048
 2020TIP3    H1 6003   6.649   0.723   1.038
 2020TIP3    H2 6004   6.761   0.824   1.054
 2021TIP3   OH2 6005   1.429   0.673   3.285
 2021TIP3    H1 6006   1.404   0.665   3.377
 2021TIP3    H2 6007   1.478   0.756   3.281
 2022TIP3   OH2 6008   2.929   1.178   1.676
 2022TIP3    H1 6009   3.005   1.225   1.709
 2022TIP3    H2 6010   2.905   1.117   1.746
 2023TIP3   OH2 6011   1.382   7.488   0.803
 2023TIP3    H1 6012   1.395   7.410   0.750
 2023TIP3    H2 6013   1.470   7.518   0.825
 2024TIP3   OH2 6014   5.340   3.039   0.390
 2024TIP3    H1 6015   5.341   2.982   0.467
 2024TIP3    H2 6016   5.268   3.006   0.336
 2025TIP3   OH2 6017   0.126   1.081   3.255
 2025TIP3    H1 6018   0.205   1.103   3.305
 2025TIP3    H2 6019   0.063   1.149   3.279
 2026TIP3   OH2 6020   0.193   2.186   2.828
 2026TIP3    H1 6021   0.255   2.255   2.852
 2026TIP3    H2 6022   0.107   2.227   2.837
 2027TIP3   OH2 6023   6.490   7.056   2.324
 2027TIP3    H1 6024   6.516   6.964   2.337
 2027TIP3    H2 6025   6.525   7.102   2.401
 2028TIP3   OH2 6026   1.326   4.343   4.821
 2028TIP3    H1 6027   1.263   4.325   4.752
 2028TIP3    H2 6028   1.342   4.437   4.815
 2029TIP3   OH2 6029   3.169   0.123   4.929
 2029TIP3    H1 6030   3.106   0.191   4.949
 2029TIP3    H2 6031   3.235   0.130   4.999
 2030TIP3   OH2 6032   4.425   4.634   0.309
 2030TIP3    H1 6033   4.350   4.579   0.286
 2030TIP3    H2 6034   4.492   4.614   0.243
 2031TIP3   OH2 6035   1.424   1.670   3.211
 2031TIP3    H1 6036   1.445   1.672   3.304
 2031TIP3    H2 6037   1.345   1.616   3.205
 2032TIP3   OH2 6038   3.502   0.957   4.664
 2032TIP3    H1 6039   3.425   1.007   4.636
 2032TIP3    H2 6040   3.545   1.013   4.729
 2033TIP3   OH2 6041   3.882   5.093   3.315
 2033TIP3    H1 6042   3.861   5.114   3.406
 2033TIP3    H2 6043   3.807   5.127   3.265
 2034TIP3   OH2 6044   0.600   2.365   2.295
 2034TIP3    H1 6045   0.694   2.381   2.303
 2034TIP3    H2 6046   0.593   2.274   2.266
 2035TIP3   OH2 6047   1.490   6.182   4.868
 2035TIP3    H1 6048   1.505   6.123   4.943
 2035TIP3    H2 6049   1.425   6.245   4.900
 2036TIP3   OH2 6050   5.988   3.047   2.767
 2036TIP3    H1 6051   5.898   3.020   2.784
 2036TIP3    H2 6052   6.042   2.977   2.804
 2037TIP3   OH2 6053   5.864   4.418   4.965
 2037TIP3    H1 6054   5.799   4.356   4.998
 2037TIP3    H2 6055   5.853   4.414   4.870
 2038TIP3   OH2 6056   5.730   4.906   6.411
 2038TIP3    H1 6057   5.728   4.821   6.455
 2038TIP3    H2 6058   5.662   4.957   6.455
 2039TIP3   OH2 6059   3.302   1.897   6.460
 2039TIP3    H1 6060   3.360   1.968   6.488
 2039TIP3    H2 6061   3.214   1.931   6.473
 2040TIP3   OH2 6062   2.722   0.768   6.265
 2040TIP3    H1 6063   2.737   0.766   6.359
 2040TIP3    H2 6064   2.633   0.801   6.255
 2041TIP3   OH2 6065   1.201   3.157   4.900
 2041TIP3    H1 6066   1.108   3.179   4.896
 2041TIP3    H2 6067   1.233   3.174   4.812
 2042TIP3   OH2 6068   1.925   3.019   6.642
 2042TIP3    H1 6069   1.887   3.067   6.716
 2042TIP3    H2 6070   1.894   3.066   6.565
 2043TIP3   OH2 6071   4.049   7.459   0.003
 2043TIP3    H1 6072   3.975   7.401   0.021
 2043TIP3    H2 6073   4.122   7.399  -0.015
 2044TIP3   OH2 6074   1.816   2.025   6.621
 2044TIP3    H1 6075   1.836   2.085   6.693
 2044TIP3    H2 6076   1.737   1.980   6.648
 2045TIP3   OH2 6077   0.127   3.166   2.346
 2045TIP3    H1 6078   0.055   3.103   2.352
 2045TIP3    H2 6079   0.110   3.228   2.416
 2046TIP3   OH2 6080   1.898   6.283   5.731
 2046TIP3    H1 6081   1.877   6.365   5.776
 2046TIP3    H2 6082   1.904   6.307   5.639
 2047TIP3   OH2 6083   5.117   3.663   6.723
 2047TIP3    H1 6084   5.076   3.749   6.725
 2047TIP3    H2 6085   5.186   3.671   6.656
 2048TIP3   OH2 6086   4.557   4.876   4.770
 2048TIP3    H1 6087   4.553   4.783   4.790
 2048TIP3    H2 6088   4.472   4.911   4.796
 2049TIP3   OH2 6089   1.380   5.597   2.453
 2049TIP3    H1 6090   1.341   5.526   2.401
 2049TIP3    H2 6091   1.380   5.562   2.542
 2050TIP3   OH2 6092   5.375   0.453   1.297
 2050TIP3    H1 6093   5.303   0.475   1.237
 2050TIP3    H2 6094   5.381   0.358   1.292
 2051TIP3   OH2 6095   0.549   0.682   5.608
 2051TIP3    H1 6096   0.559   0.770   5.645
 2051TIP3    H2 6097   0.491   0.694   5.533
 2052TIP3   OH2 6098   0.783   5.904   5.900
 2052TIP3    H1 6099   0.857   5.963   5.887
 2052TIP3    H2 6100   0.763   5.910   5.993
 2053TIP3   OH2 6101   4.149   6.540   0.396
 2053TIP3    H1 6102   4.078   6.603   0.386
 2053TIP3    H2 6103   4.106   6.460   0.427
 2054TIP3   OH2 6104   4.190   5.087   1.156
 2054TIP3    H1 6105   4.262   5.084   1.093
 2054TIP3    H2 6106   4.142   5.166   1.133
 2055TIP3   OH2 6107   4.654   1.128   0.216
 2055TIP3    H1 6108   4.579   1.092   0.169
 2055TIP3    H2 6109   4.637   1.222   0.221
 2056TIP3   OH2 6110   0.819   5.026   5.384
 2056TIP3    H1 6111   0.771   5.108   5.371
 2056TIP3    H2 6112   0.753   4.962   5.410
 2057TIP3   OH2 6113   6.991   3.311   4.152
 2057TIP3    H1 6114   6.984   3.234   4.208
 2057TIP3    H2 6115   7.035   3.376   4.207
 2058TIP3   OH2 6116   3.006   4.837   0.503
 2058TIP3    H1 6117   2.944   4.849   0.575
 2058TIP3    H2 6118   3.092   4.847   0.544
 2059TIP3   OH2 6119   0.647   5.715   5.173
 2059TIP3    H1 6120   0.690   5.793   5.208
 2059TIP3    H2 6121   0.587   5.688   5.242
 2060TIP3   OH2 6122   4.926   2.899   1.128
 2060TIP3    H1 6123   4.854   2.936   1.078
 2060TIP3    H2 6124   4.954   2.969   1.186
 2061TIP3   OH2 6125   2.303   3.412   3.940
 2061TIP3    H1 6126   2.285   3.478   3.873
 2061TIP3    H2 6127   2.217   3.384   3.970
 2062TIP3   OH2 6128   5.814   3.402   1.383
 2062TIP3    H1 6129   5.877   3.372   1.449
 2062TIP3    H2 6130   5.770   3.323   1.353
 2063TIP3   OH2 6131   7.496   1.563   5.798
 2063TIP3    H1 6132   7.569   1.552   5.858
 2063TIP3    H2 6133   7.469   1.474   5.777
 2064TIP3   OH2 6134   6.551   1.319   3.358
 2064TIP3    H1 6135   6.557   1.398   3.412
 2064TIP3    H2 6136   6.640   1.306   3.324
 2065TIP3   OH2 6137   8.075   5.423   4.482
 2065TIP3    H1 6138   8.101   5.507   4.519
 2065TIP3    H2 6139   8.144   5.362   4.511
 2066TIP3   OH2 6140   0.365   1.082   2.570
 2066TIP3    H1 6141   0.460   1.093   2.574
 2066TIP3    H2 6142   0.339   1.065   2.661
 2067TIP3   OH2 6143   7.508   2.375   6.160
 2067TIP3    H1 6144   7.574   2.319   6.118
 2067TIP3    H2 6145   7.429   2.361   6.108
 2068TIP3   OH2 6146   3.914   3.854   0.542
 2068TIP3    H1 6147   3.874   3.930   0.586
 2068TIP3    H2 6148   3.991   3.889   0.499
 2069TIP3   OH2 6149   2.727   6.546   1.116
 2069TIP3    H1 6150   2.770   6.501   1.188
 2069TIP3    H2 6151   2.780   6.625   1.102
 2070TIP3   OH2 6152   3.021   5.516   1.477
 2070TIP3    H1 6153   3.072   5.470   1.543
 2070TIP3    H2 6154   3.009   5.452   1.406
 2071TIP3   OH2 6155   4.301   0.667   1.579
 2071TIP3    H1 6156   4.225   0.681   1.522
 2071TIP3    H2 6157   4.278   0.710   1.661
 2072TIP3   OH2 6158   7.046   5.856   5.149
 2072TIP3    H1 6159   7.032   5.949   5.136
 2072TIP3    H2 6160   7.015   5.815   5.068
 2073TIP3   OH2 6161   3.052   2.955   2.982
 2073TIP3    H1 6162   2.977   2.900   3.003
 2073TIP3    H2 6163   3.013   3.034   2.943
 2074TIP3   OH2 6164   0.159   1.672   0.237
 2074TIP3    H1 6165   0.080   1.617   0.241
 2074TIP3    H2 6166   0.214   1.630   0.170
 2075TIP3   OH2 6167   5.386   0.946   1.486
 2075TIP3    H1 6168   5.351   0.909   1.567
 2075TIP3    H2 6169   5.450   0.881   1.455
 2076TIP3   OH2 6170   3.811   6.825   6.630
 2076TIP3    H1 6171   3.809   6.729   6.638
 2076TIP3    H2 6172   3.719   6.850   6.630
 2077TIP3   OH2 6173   0.301   2.252   4.408
 2077TIP3    H1 6174   0.270   2.258   4.498
 2077TIP3    H2 6175   0.364   2.324   4.399
 2078TIP3   OH2 6176   1.410   1.830   0.640
 2078TIP3    H1 6177   1.339   1.894   0.633
 2078TIP3    H2 6178   1.483   1.870   0.595
 2079TIP3   OH2 6179   7.263   1.753   3.703
 2079TIP3    H1 6180   7.175   1.790   3.690
 2079TIP3    H2 6181   7.247   1.667   3.743
 2080TIP3   OH2 6182   6.580   2.281   5.714
 2080TIP3    H1 6183   6.539   2.301   5.799
 2080TIP3    H2 6184   6.595   2.187   5.716
 2081TIP3   OH2 6185   2.661   5.743   2.021
 2081TIP3    H1 6186   2.638   5.796   1.945
 2081TIP3    H2 6187   2.675   5.655   1.986
 2082TIP3   OH2 6188   0.037   3.535   0.959
 2082TIP3    H1 6189   0.120   3.487   0.963
 2082TIP3    H2 6190  -0.029   3.470   0.981
 2083TIP3   OH2 6191   7.574   1.196   2.452
 2083TIP3    H1 6192   7.530   1.278   2.475
 2083TIP3    H2 6193   7.502   1.134   2.441
 2084TIP3   OH2 6194   6.793   4.152   3.366
 2084TIP3    H1 6195   6.878   4.113   3.346
 2084TIP3    H2 6196   6.762   4.102   3.441
 2085TIP3   OH2 6197   7.147   4.623   5.557
 2085TIP3    H1 6198   7.138   4.716   5.535
 2085TIP3    H2 6199   7.085   4.578   5.500
 2086TIP3   OH2 6200   3.974   2.771   6.668
 2086TIP3    H1 6201   3.889   2.814   6.654
 2086TIP3    H2 6202   4.036   2.843   6.671
 2087TIP3   OH2 6203   3.585   6.899   6.292
 2087TIP3    H1 6204   3.666   6.942   6.266
 2087TIP3    H2 6205   3.575   6.920   6.385
 2088TIP3   OH2 6206   7.319   3.435   3.815
 2088TIP3    H1 6207   7.388   3.469   3.872
 2088TIP3    H2 6208   7.362   3.367   3.763
 2089TIP3   OH2 6209   5.185   4.416   5.365
 2089TIP3    H1 6210   5.121   4.483   5.342
 2089TIP3    H2 6211   5.267   4.464   5.376
 2090TIP3   OH2 6212   0.355   3.214   4.975
 2090TIP3    H1 6213   0.325   3.152   4.908
 2090TIP3    H2 6214   0.325   3.299   4.944
 2091TIP3   OH2 6215   3.085   6.511   0.253
 2091TIP3    H1 6216   3.178   6.486   0.255
 2091TIP3    H2 6217   3.044   6.455   0.319
 2092TIP3   OH2 6218   5.251   4.356   1.731
 2092TIP3    H1 6219   5.334   4.310   1.743
 2092TIP3    H2 6220   5.219   4.326   1.646
 2093TIP3   OH2 6221   5.788   4.845   3.255
 2093TIP3    H1 6222   5.875   4.865   3.220
 2093TIP3    H2 6223   5.739   4.812   3.181
 2094TIP3   OH2 6224   7.843   6.566   4.564
 2094TIP3    H1 6225   7.903   6.638   4.545
 2094TIP3    H2 6226   7.891   6.509   4.624
 2095TIP3   OH2 6227   0.687   6.474   2.030
 2095TIP3    H1 6228   0.699   6.414   2.104
 2095TIP3    H2 6229   0.698   6.419   1.952
 2096TIP3   OH2 6230   8.050   1.068   3.225
 2096TIP3    H1 6231   8.087   1.000   3.280
 2096TIP3    H2 6232   8.081   1.150   3.264
 2097TIP3   OH2 6233   3.904   0.910   1.055
 2097TIP3    H1 6234   3.905   1.001   1.086
 2097TIP3    H2 6235   3.903   0.858   1.135
 2098TIP3   OH2 6236   0.426   7.767   6.266
 2098TIP3    H1 6237   0.514   7.766   6.304
 2098TIP3    H2 6238   0.416   7.680   6.227
 2099TIP3   OH2 6239   4.199   0.138   0.698
 2099TIP3    H1 6240   4.239   0.061   0.658
 2099TIP3    H2 6241   4.195   0.117   0.792
 2100TIP3   OH2 6242   5.601   0.535   5.134
 2100TIP3    H1 6243   5.687   0.496   5.118
 2100TIP3    H2 6244   5.612   0.628   5.113
 2101TIP3   OH2 6245   0.841   3.543   5.080
 2101TIP3    H1 6246   0.898   3.575   5.150
 2101TIP3    H2 6247   0.778   3.486   5.125
 2102TIP3   OH2 6248   2.953   3.791   3.821
 2102TIP3    H1 6249   2.942   3.701   3.790
 2102TIP3    H2 6250   2.952   3.784   3.917
 2103TIP3   OH2 6251   3.851   1.699   4.532
 2103TIP3    H1 6252   3.800   1.734   4.459
 2103TIP3    H2 6253   3.785   1.667   4.593
 2104TIP3   OH2 6254   0.160   2.829   5.458
 2104TIP3    H1 6255   0.249   2.798   5.442
 2104TIP3    H2 6256   0.128   2.856   5.372
 2105TIP3   OH2 6257   7.483   3.517   1.288
 2105TIP3    H1 6258   7.465   3.587   1.225
 2105TIP3    H2 6259   7.499   3.440   1.234
 2106TIP3   OH2 6260   1.383   1.203   2.696
 2106TIP3    H1 6261   1.376   1.290   2.736
 2106TIP3    H2 6262   1.424   1.149   2.764
 2107TIP3   OH2 6263   0.368   4.011   4.063
 2107TIP3    H1 6264   0.428   3.939   4.042
 2107TIP3    H2 6265   0.289   3.968   4.096
 2108TIP3   OH2 6266   3.987   2.981   1.229
 2108TIP3    H1 6267   3.907   2.991   1.280
 2108TIP3    H2 6268   3.975   2.898   1.182
 2109TIP3   OH2 6269   6.963   4.406   6.729
 2109TIP3    H1 6270   6.871   4.419   6.705
 2109TIP3    H2 6271   6.960   4.368   6.817
 2110TIP3   OH2 6272   5.909   4.809   4.728
 2110TIP3    H1 6273   5.896   4.738   4.666
 2110TIP3    H2 6274   5.974   4.776   4.790
 2111TIP3   OH2 6275   0.096   2.250   0.218
 2111TIP3    H1 6276   0.104   2.321   0.154
 2111TIP3    H2 6277   0.042   2.184   0.174
 2112TIP3   OH2 6278   1.872   4.382   5.101
 2112TIP3    H1 6279   1.966   4.388   5.085
 2112TIP3    H2 6280   1.862   4.310   5.163
 2113TIP3   OH2 6281   6.872   5.979   1.951
 2113TIP3    H1 6282   6.850   5.986   1.859
 2113TIP3    H2 6283   6.924   6.058   1.970
 2114TIP3   OH2 6284   5.086   7.185   4.767
 2114TIP3    H1 6285   5.002   7.139   4.772
 2114TIP3    H2 6286   5.142   7.138   4.829
 2115TIP3   OH2 6287   7.085   2.998   4.040
 2115TIP3    H1 6288   7.174   3.002   4.004
 2115TIP3    H2 6289   7.035   3.062   3.990
 2116TIP3   OH2 6290   6.319   5.603   0.360
 2116TIP3    H1 6291   6.248   5.564   0.412
 2116TIP3    H2 6292   6.389   5.620   0.423
 2117TIP3   OH2 6293   3.503   2.293   0.752
 2117TIP3    H1 6294   3.460   2.222   0.799
 2117TIP3    H2 6295   3.432   2.347   0.719
 2118TIP3   OH2 6296   3.052   0.837   2.050
 2118TIP3    H1 6297   3.067   0.836   1.955
 2118TIP3    H2 6298   3.140   0.845   2.088
 2119TIP3   OH2 6299   3.192   0.485   4.804
 2119TIP3    H1 6300   3.267   0.437   4.770
 2119TIP3    H2 6301   3.204   0.575   4.773
 2120TIP3   OH2 6302   2.497   3.148   5.793
 2120TIP3    H1 6303   2.529   3.238   5.795
 2120TIP3    H2 6304   2.407   3.156   5.760
 2121TIP3   OH2 6305   0.246   6.448   5.808
 2121TIP3    H1 6306   0.203   6.524   5.846
 2121TIP3    H2 6307   0.333   6.480   5.783
 2122TIP3   OH2 6308   0.369   7.137   2.591
 2122TIP3    H1 6309   0.428   7.072   2.631
 2122TIP3    H2 6310   0.372   7.211   2.652
 2123TIP3   OH2 6311   4.006   1.504   1.101
 2123TIP3    H1 6312   4.099   1.529   1.101
 2123TIP3    H2 6313   3.987   1.487   1.009
 2124TIP3   OH2 6314   7.895   5.402   5.043
 2124TIP3    H1 6315   7.819   5.380   5.097
 2124TIP3    H2 6316   7.946   5.321   5.040
 2125TIP3   OH2 6317   6.330   3.100   0.694
 2125TIP3    H1 6318   6.360   3.043   0.765
 2125TIP3    H2 6319   6.397   3.169   0.689
 2126TIP3   OH2 6320   0.096   2.521   2.508
 2126TIP3    H1 6321   0.131   2.607   2.534
 2126TIP3    H2 6322   0.008   2.519   2.544
 2127TIP3   OH2 6323   6.384   5.332   0.743
 2127TIP3    H1 6324   6.466   5.288   0.765
 2127TIP3    H2 6325   6.319   5.263   0.742
 2128TIP3   OH2 6326   6.023   1.104   1.886
 2128TIP3    H1 6327   6.090   1.057   1.935
 2128TIP3    H2 6328   6.051   1.098   1.795
 2129TIP3   OH2 6329   7.085   4.302   4.244
 2129TIP3    H1 6330   7.078   4.210   4.218
 2129TIP3    H2 6331   6.994   4.333   4.248
 2130TIP3   OH2 6332   3.219   2.578   3.438
 2130TIP3    H1 6333   3.178   2.665   3.446
 2130TIP3    H2 6334   3.148   2.522   3.407
 2131TIP3   OH2 6335   6.995   6.163   2.235
 2131TIP3    H1 6336   6.998   6.080   2.283
 2131TIP3    H2 6337   6.918   6.208   2.270
 2132TIP3   OH2 6338   3.047   1.552   2.137
 2132TIP3    H1 6339   3.111   1.583   2.202
 2132TIP3    H2 6340   3.090   1.477   2.095
 2133TIP3   OH2 6341   6.537   0.377   6.548
 2133TIP3    H1 6342   6.564   0.460   6.508
 2133TIP3    H2 6343   6.526   0.317   6.475
 2134TIP3   OH2 6344   4.630   6.603   0.595
 2134TIP3    H1 6345   4.540   6.572   0.584
 2134TIP3    H2 6346   4.620   6.692   0.628
 2135TIP3   OH2 6347   1.889   0.251   6.703
 2135TIP3    H1 6348   1.899   0.156   6.709
 2135TIP3    H2 6349   1.850   0.266   6.617
 2136TIP3   OH2 6350   4.359   3.712   2.396
 2136TIP3    H1 6351   4.353   3.735   2.303
 2136TIP3    H2 6352   4.277   3.665   2.414
 2137TIP3   OH2 6353   1.402   2.447   0.609
 2137TIP3    H1 6354   1.467   2.480   0.672
 2137TIP3    H2 6355   1.380   2.360   0.641
 2138TIP3   OH2 6356   2.218   6.966   0.703
 2138TIP3    H1 6357   2.277   6.949   0.776
 2138TIP3    H2 6358   2.220   6.886   0.651
 2139TIP3   OH2 6359   6.156   1.181   5.440
 2139TIP3    H1 6360   6.184   1.263   5.481
 2139TIP3    H2 6361   6.212   1.172   5.362
 2140TIP3   OH2 6362   6.042   3.357   0.541
 2140TIP3    H1 6363   6.048   3.301   0.618
 2140TIP3    H2 6364   6.126   3.344   0.496
 2141TIP3   OH2 6365   1.472   7.131   2.571
 2141TIP3    H1 6366   1.407   7.064   2.595
 2141TIP3    H2 6367   1.435   7.173   2.494
 2142TIP3   OH2 6368   6.854   6.488   1.337
 2142TIP3    H1 6369   6.947   6.507   1.328
 2142TIP3    H2 6370   6.847   6.441   1.420
 2143TIP3   OH2 6371   2.775   4.950   5.404
 2143TIP3    H1 6372   2.681   4.965   5.400
 2143TIP3    H2 6373   2.806   5.008   5.473
 2144TIP3   OH2 6374   4.936   0.747   1.021
 2144TIP3    H1 6375   4.902   0.776   0.937
 2144TIP3    H2 6376   4.858   0.729   1.073
 2145TIP3   OH2 6377   5.587   1.159   6.315
 2145TIP3    H1 6378   5.650   1.089   6.295
 2145TIP3    H2 6379   5.567   1.146   6.408
 2146TIP3   OH2 6380   3.965   6.119   0.791
 2146TIP3    H1 6381   3.947   6.107   0.697
 2146TIP3    H2 6382   4.020   6.197   0.794
 2147TIP3   OH2 6383   4.923   1.083   5.918
 2147TIP3    H1 6384   4.847   1.030   5.892
 2147TIP3    H2 6385   4.954   1.122   5.836
 2148TIP3   OH2 6386   3.052   5.383   6.215
 2148TIP3    H1 6387   3.136   5.429   6.223
 2148TIP3    H2 6388   3.026   5.397   6.124
 2149TIP3   OH2 6389   3.174   1.273   1.765
 2149TIP3    H1 6390   3.179   1.298   1.673
 2149TIP3    H2 6391   3.256   1.227   1.782
 2150TIP3   OH2 6392   7.723   5.260   1.274
 2150TIP3    H1 6393   7.705   5.170   1.246
 2150TIP3    H2 6394   7.808   5.281   1.234
 2151TIP3   OH2 6395   4.946   0.753   4.825
 2151TIP3    H1 6396   4.962   0.698   4.748
 2151TIP3    H2 6397   4.871   0.712   4.869
 2152TIP3   OH2 6398   1.540   0.506   1.826
 2152TIP3    H1 6399   1.497   0.466   1.750
 2152TIP3    H2 6400   1.610   0.445   1.848
 2153TIP3   OH2 6401   4.175   4.021   3.047
 2153TIP3    H1 6402   4.251   3.966   3.065
 2153TIP3    H2 6403   4.167   4.077   3.125
 2154TIP3   OH2 6404   1.110   3.356   5.942
 2154TIP3    H1 6405   1.067   3.270   5.936
 2154TIP3    H2 6406   1.038   3.419   5.935
 2155TIP3   OH2 6407   7.449   2.419   4.135
 2155TIP3    H1 6408   7.445   2.514   4.126
 2155TIP3    H2 6409   7.416   2.385   4.052
 2156TIP3   OH2 6410   1.222   4.443   0.913
 2156TIP3    H1 6411   1.268   4.367   0.879
 2156TIP3    H2 6412   1.291   4.493   0.958
 2157TIP3   OH2 6413   1.231   1.992   1.245
 2157TIP3    H1 6414   1.147   2.037   1.236
 2157TIP3    H2 6415   1.281   2.047   1.306
 2158TIP3   OH2 6416   6.077   1.484   5.970
 2158TIP3    H1 6417   6.107   1.495   5.880
 2158TIP3    H2 6418   6.037   1.568   5.993
 2159TIP3   OH2 6419   6.297   4.539   2.147
 2159TIP3    H1 6420   6.247   4.581   2.077
 2159TIP3    H2 6421   6.297   4.602   2.219
 2160TIP3   OH2 6422   5.841   2.726   3.441
 2160TIP3    H1 6423   5.877   2.679   3.365
 2160TIP3    H2 6424   5.754   2.688   3.454
 2161TIP3   OH2 6425   4.050   2.316   0.531
 2161TIP3    H1 6426   4.003   2.237   0.504
 2161TIP3    H2 6427   4.046   2.373   0.454
 2162TIP3   OH2 6428   4.762   2.245   3.613
 2162TIP3    H1 6429   4.768   2.341   3.609
 2162TIP3    H2 6430   4.835   2.214   3.560
 2163TIP3   OH2 6431   2.145   0.237   4.309
 2163TIP3    H1 6432   2.132   0.276   4.223
 2163TIP3    H2 6433   2.211   0.169   4.295
 2164TIP3   OH2 6434   0.165   2.465   3.917
 2164TIP3    H1 6435   0.080   2.459   3.962
 2164TIP3    H2 6436   0.229   2.452   3.987
 2165TIP3   OH2 6437   3.692   3.884   4.748
 2165TIP3    H1 6438   3.690   3.979   4.761
 2165TIP3    H2 6439   3.637   3.869   4.672
 2166TIP3   OH2 6440   5.864   6.664   1.075
 2166TIP3    H1 6441   5.810   6.703   1.144
 2166TIP3    H2 6442   5.801   6.619   1.018
 2167TIP3   OH2 6443   7.420   3.365   5.046
 2167TIP3    H1 6444   7.487   3.358   4.978
 2167TIP3    H2 6445   7.469   3.366   5.128
 2168TIP3   OH2 6446   5.502   0.874   6.207
 2168TIP3    H1 6447   5.592   0.903   6.221
 2168TIP3    H2 6448   5.465   0.939   6.148
 2169TIP3   OH2 6449   1.435   7.455   2.346
 2169TIP3    H1 6450   1.404   7.365   2.333
 2169TIP3    H2 6451   1.502   7.467   2.279
 2170TIP3   OH2 6452   5.390   0.758   3.476
 2170TIP3    H1 6453   5.402   0.834   3.533
 2170TIP3    H2 6454   5.295   0.745   3.473
 2171TIP3   OH2 6455   2.561   7.131   1.746
 2171TIP3    H1 6456   2.530   7.187   1.817
 2171TIP3    H2 6457   2.655   7.125   1.759
 2172TIP3   OH2 6458   5.598   0.920   5.750
 2172TIP3    H1 6459   5.535   0.949   5.816
 2172TIP3    H2 6460   5.615   0.828   5.771
 2173TIP3   OH2 6461   3.979   5.459   2.656
 2173TIP3    H1 6462   3.973   5.364   2.666
 2173TIP3    H2 6463   3.971   5.493   2.744
 2174TIP3   OH2 6464   2.802   2.285   3.189
 2174TIP3    H1 6465   2.853   2.342   3.246
 2174TIP3    H2 6466   2.865   2.223   3.153
 2175TIP3   OH2 6467   3.944   5.396   4.729
 2175TIP3    H1 6468   3.856   5.424   4.753
 2175TIP3    H2 6469   3.954   5.310   4.771
 2176TIP3   OH2 6470   5.733   0.338   0.101
 2176TIP3    H1 6471   5.748   0.346   0.195
 2176TIP3    H2 6472   5.698   0.423   0.075
 2177TIP3   OH2 6473   2.388   2.394   5.737
 2177TIP3    H1 6474   2.432   2.317   5.701
 2177TIP3    H2 6475   2.398   2.386   5.832
 2178TIP3   OH2 6476   5.876   5.979   1.382
 2178TIP3    H1 6477   5.885   5.970   1.477
 2178TIP3    H2 6478   5.811   5.913   1.358
 2179TIP3   OH2 6479   6.402   7.381   1.409
 2179TIP3    H1 6480   6.358   7.430   1.340
 2179TIP3    H2 6481   6.347   7.396   1.487
 2180TIP3   OH2 6482   0.794   7.386   5.420
 2180TIP3    H1 6483   0.725   7.402   5.485
 2180TIP3    H2 6484   0.772   7.301   5.382
 2181TIP3   OH2 6485   2.254   7.517   2.564
 2181TIP3    H1 6486   2.175   7.571   2.575
 2181TIP3    H2 6487   2.222   7.427   2.564
 2182TIP3   OH2 6488   0.763   6.238   0.568
 2182TIP3    H1 6489   0.790   6.317   0.615
 2182TIP3    H2 6490   0.726   6.182   0.637
 2183TIP3   OH2 6491   2.480   4.366   2.789
 2183TIP3    H1 6492   2.569   4.386   2.819
 2183TIP3    H2 6493   2.444   4.451   2.763
 2184TIP3   OH2 6494   0.615   2.569   5.491
 2184TIP3    H1 6495   0.711   2.563   5.484
 2184TIP3    H2 6496   0.587   2.478   5.496
 2185TIP3   OH2 6497   2.001   6.186   3.877
 2185TIP3    H1 6498   1.969   6.261   3.826
 2185TIP3    H2 6499   2.089   6.212   3.904
 2186TIP3   OH2 6500   8.061   6.225   3.770
 2186TIP3    H1 6501   7.997   6.217   3.699
 2186TIP3    H2 6502   8.047   6.147   3.824
 2187TIP3   OH2 6503   0.536   6.075   3.903
 2187TIP3    H1 6504   0.540   5.983   3.877
 2187TIP3    H2 6505   0.444   6.090   3.924
 2188TIP3   OH2 6506   5.614   5.283   6.107
 2188TIP3    H1 6507   5.694   5.333   6.092
 2188TIP3    H2 6508   5.643   5.192   6.114
 2189TIP3   OH2 6509   1.641   6.695   3.419
 2189TIP3    H1 6510   1.623   6.631   3.488
 2189TIP3    H2 6511   1.557   6.707   3.374
 2190TIP3   OH2 6512   4.827   0.800   4.551
 2190TIP3    H1 6513   4.917   0.778   4.529
 2190TIP3    H2 6514   4.803   0.869   4.489
 2191TIP3   OH2 6515   4.231   6.602   0.793
 2191TIP3    H1 6516   4.212   6.694   0.775
 2191TIP3    H2 6517   4.255   6.599   0.885
 2192TIP3   OH2 6518   5.385   6.755   6.121
 2192TIP3    H1 6519   5.334   6.837   6.118
 2192TIP3    H2 6520   5.320   6.686   6.107
 2193TIP3   OH2 6521   6.220   7.466   1.168
 2193TIP3    H1 6522   6.228   7.509   1.083
 2193TIP3    H2 6523   6.144   7.408   1.159
 2194TIP3   OH2 6524   1.953   6.756   4.098
 2194TIP3    H1 6525   1.917   6.694   4.035
 2194TIP3    H2 6526   2.047   6.757   4.080
 2195TIP3   OH2 6527   5.330   0.118   3.233
 2195TIP3    H1 6528   5.324   0.179   3.307
 2195TIP3    H2 6529   5.277   0.159   3.164
 2196TIP3   OH2 6530   0.462   6.719   0.836
 2196TIP3    H1 6531   0.483   6.660   0.764
 2196TIP3    H2 6532   0.538   6.714   0.894
 2197TIP3   OH2 6533   2.977   1.235   5.451
 2197TIP3    H1 6534   3.057   1.185   5.466
 2197TIP3    H2 6535   2.907   1.170   5.457
 2198TIP3   OH2 6536   6.780   6.646   3.989
 2198TIP3    H1 6537   6.690   6.669   4.012
 2198TIP3    H2 6538   6.784   6.657   3.894
 2199TIP3   OH2 6539   3.796   1.566   5.818
 2199TIP3    H1 6540   3.797   1.567   5.914
 2199TIP3    H2 6541   3.825   1.653   5.793
 2200TIP3   OH2 6542   6.951   0.713   2.702
 2200TIP3    H1 6543   6.922   0.792   2.747
 2200TIP3    H2 6544   6.993   0.743   2.622
 2201TIP3   OH2 6545   7.322   6.705   2.926
 2201TIP3    H1 6546   7.367   6.786   2.950
 2201TIP3    H2 6547   7.233   6.733   2.904
 2202TIP3   OH2 6548   3.389   0.159   6.028
 2202TIP3    H1 6549   3.355   0.227   6.085
 2202TIP3    H2 6550   3.316   0.098   6.016
 2203TIP3   OH2 6551   3.835   2.614   4.710
 2203TIP3    H1 6552   3.828   2.558   4.633
 2203TIP3    H2 6553   3.755   2.667   4.709
 2204TIP3   OH2 6554   7.673   1.119   5.629
 2204TIP3    H1 6555   7.747   1.109   5.569
 2204TIP3    H2 6556   7.665   1.033   5.671
 2205TIP3   OH2 6557   2.493   1.350   5.593
 2205TIP3    H1 6558   2.507   1.276   5.533
 2205TIP3    H2 6559   2.500   1.428   5.538
 2206TIP3   OH2 6560   4.152   3.512   1.090
 2206TIP3    H1 6561   4.083   3.525   1.025
 2206TIP3    H2 6562   4.133   3.427   1.129
 2207TIP3   OH2 6563   2.364   5.584   4.999
 2207TIP3    H1 6564   2.305   5.558   5.069
 2207TIP3    H2 6565   2.441   5.528   5.009
 2208TIP3   OH2 6566   7.088   5.832   1.230
 2208TIP3    H1 6567   7.085   5.741   1.198
 2208TIP3    H2 6568   7.016   5.875   1.184
 2209TIP3   OH2 6569   4.012   5.818   3.113
 2209TIP3    H1 6570   4.005   5.860   3.027
 2209TIP3    H2 6571   3.981   5.729   3.099
 2210TIP3   OH2 6572   2.923   5.098   0.859
 2210TIP3    H1 6573   2.874   5.167   0.904
 2210TIP3    H2 6574   3.014   5.114   0.883
 2211TIP3   OH2 6575   2.883   3.137   5.846
 2211TIP3    H1 6576   2.817   3.178   5.903
 2211TIP3    H2 6577   2.834   3.113   5.767
 2212TIP3   OH2 6578   8.161   6.955   1.237
 2212TIP3    H1 6579   8.130   6.928   1.323
 2212TIP3    H2 6580   8.223   7.026   1.256
 2213TIP3   OH2 6581   4.797   3.929   6.702
 2213TIP3    H1 6582   4.823   3.940   6.793
 2213TIP3    H2 6583   4.756   3.843   6.699
 2214TIP3   OH2 6584   0.045   5.728   5.021
 2214TIP3    H1 6585  -0.037   5.766   5.054
 2214TIP3    H2 6586   0.067   5.781   4.945
 2215TIP3   OH2 6587   3.878   2.158   0.072
 2215TIP3    H1 6588   3.814   2.185   0.006
 2215TIP3    H2 6589   3.835   2.086   0.118
 2216TIP3   OH2 6590   0.609   4.324   5.432
 2216TIP3    H1 6591   0.661   4.293   5.507
 2216TIP3    H2 6592   0.666   4.310   5.356
 2217TIP3   OH2 6593   0.126   6.708   0.415
 2217TIP3    H1 6594   0.177   6.628   0.424
 2217TIP3    H2 6595   0.035   6.681   0.431
 2218TIP3   OH2 6596   4.514   1.243   5.057
 2218TIP3    H1 6597   4.522   1.274   4.967
 2218TIP3    H2 6598   4.568   1.164   5.061
 2219TIP3   OH2 6599   1.497   5.620   3.409
 2219TIP3    H1 6600   1.430   5.662   3.356
 2219TIP3    H2 6601   1.570   5.682   3.410
 2220TIP3   OH2 6602   8.179   5.249   6.203
 2220TIP3    H1 6603   8.171   5.344   6.209
 2220TIP3    H2 6604   8.169   5.218   6.293
 2221TIP3   OH2 6605   5.544   0.396   0.386
 2221TIP3    H1 6606   5.637   0.409   0.406
 2221TIP3    H2 6607   5.499   0.421   0.467
 2222TIP3   OH2 6608   0.204   2.896   0.664
 2222TIP3    H1 6609   0.299   2.905   0.656
 2222TIP3    H2 6610   0.177   2.856   0.582
 2223TIP3   OH2 6611   3.416   5.453   0.467
 2223TIP3    H1 6612   3.339   5.398   0.484
 2223TIP3    H2 6613   3.464   5.452   0.550
 2224TIP3   OH2 6614   4.107   3.045   6.340
 2224TIP3    H1 6615   4.077   3.136   6.339
 2224TIP3    H2 6616   4.028   2.994   6.354
 2225TIP3   OH2 6617   6.150   5.394   0.454
 2225TIP3    H1 6618   6.091   5.362   0.385
 2225TIP3    H2 6619   6.122   5.348   0.533
 2226TIP3   OH2 6620   5.432   2.429   6.650
 2226TIP3    H1 6621   5.435   2.473   6.565
 2226TIP3    H2 6622   5.519   2.443   6.687
 2227TIP3   OH2 6623   5.618   2.436   4.865
 2227TIP3    H1 6624   5.692   2.418   4.923
 2227TIP3    H2 6625   5.580   2.517   4.897
 2228TIP3   OH2 6626   5.984   4.075   2.630
 2228TIP3    H1 6627   5.912   4.012   2.632
 2228TIP3    H2 6628   6.029   4.057   2.548
 2229TIP3   OH2 6629   0.325   1.551   1.540
 2229TIP3    H1 6630   0.282   1.619   1.489
 2229TIP3    H2 6631   0.366   1.597   1.613
 2230TIP3   OH2 6632   5.199   1.905   2.038
 2230TIP3    H1 6633   5.213   1.874   1.948
 2230TIP3    H2 6634   5.104   1.913   2.046
 2231TIP3   OH2 6635   3.258   6.516   2.441
 2231TIP3    H1 6636   3.313   6.438   2.445
 2231TIP3    H2 6637   3.197   6.506   2.514
 2232TIP3   OH2 6638   4.272   2.698   6.215
 2232TIP3    H1 6639   4.239   2.764   6.154
 2232TIP3    H2 6640   4.231   2.721   6.298
 2233TIP3   OH2 6641   6.485   3.605   0.476
 2233TIP3    H1 6642   6.479   3.661   0.553
 2233TIP3    H2 6643   6.575   3.574   0.476
 2234TIP3   OH2 6644   4.246   2.203   2.661
 2234TIP3    H1 6645   4.313   2.174   2.723
 2234TIP3    H2 6646   4.167   2.156   2.688
 2235TIP3   OH2 6647   6.713   0.526   0.124
 2235TIP3    H1 6648   6.802   0.560   0.122
 2235TIP3    H2 6649   6.661   0.592   0.079
 2236TIP3   OH2 6650   6.652   5.739   1.506
 2236TIP3    H1 6651   6.610   5.704   1.584
 2236TIP3    H2 6652   6.590   5.805   1.473
 2237TIP3   OH2 6653   7.387   7.412   2.836
 2237TIP3    H1 6654   7.307   7.426   2.785
 2237TIP3    H2 6655   7.446   7.366   2.777
 2238TIP3   OH2 6656   6.792   6.327   5.145
 2238TIP3    H1 6657   6.745   6.295   5.068
 2238TIP3    H2 6658   6.732   6.389   5.186
 2239TIP3   OH2 6659   1.762   6.977   4.039
 2239TIP3    H1 6660   1.826   6.906   4.042
 2239TIP3    H2 6661   1.742   6.987   3.946
 2240TIP3   OH2 6662   4.941   6.612   6.570
 2240TIP3    H1 6663   4.912   6.526   6.600
 2240TIP3    H2 6664   4.868   6.670   6.591
 2241TIP3   OH2 6665   5.481   0.341   5.595
 2241TIP3    H1 6666   5.506   0.362   5.505
 2241TIP3    H2 6667   5.457   0.426   5.633
 2242TIP3   OH2 6668   3.188   6.006   2.472
 2242TIP3    H1 6669   3.274   5.974   2.499
 2242TIP3    H2 6670   3.165   6.073   2.537
 2243TIP3   OH2 6671   6.763   6.980   3.516
 2243TIP3    H1 6672   6.799   6.955   3.431
 2243TIP3    H2 6673   6.675   7.012   3.497
 2244TIP3   OH2 6674   2.409   3.820   0.782
 2244TIP3    H1 6675   2.363   3.807   0.865
 2244TIP3    H2 6676   2.473   3.888   0.802
 2245TIP3   OH2 6677   1.368   6.478   4.573
 2245TIP3    H1 6678   1.366   6.409   4.640
 2245TIP3    H2 6679   1.355   6.559   4.621
 2246TIP3   OH2 6680   3.578   6.968   1.498
 2246TIP3    H1 6681   3.564   6.924   1.414
 2246TIP3    H2 6682   3.603   6.898   1.558
 2247TIP3   OH2 6683   4.470   0.542   4.460
 2247TIP3    H1 6684   4.459   0.531   4.554
 2247TIP3    H2 6685   4.417   0.619   4.439
 2248TIP3   OH2 6686   8.163   6.041   3.524
 2248TIP3    H1 6687   8.121   5.960   3.494
 2248TIP3    H2 6688   8.231   6.011   3.585
 2249TIP3   OH2 6689   3.150   6.700   6.063
 2249TIP3    H1 6690   3.082   6.649   6.107
 2249TIP3    H2 6691   3.220   6.707   6.128
 2250TIP3   OH2 6692   7.547   3.936   4.750
 2250TIP3    H1 6693   7.566   3.935   4.844
 2250TIP3    H2 6694   7.631   3.911   4.710
 2251TIP3   OH2 6695   1.264   4.080   0.074
 2251TIP3    H1 6696   1.233   4.050   0.160
 2251TIP3    H2 6697   1.198   4.143   0.046
 2252TIP3   OH2 6698   4.659   0.895   4.955
 2252TIP3    H1 6699   4.674   0.801   4.966
 2252TIP3    H2 6700   4.612   0.902   4.872
 2253TIP3   OH2 6701   8.030   5.568   1.516
 2253TIP3    H1 6702   8.098   5.551   1.450
 2253TIP3    H2 6703   7.969   5.494   1.507
 2254TIP3   OH2 6704   2.578   4.415   6.049
 2254TIP3    H1 6705   2.669   4.411   6.082
 2254TIP3    H2 6706   2.541   4.330   6.072
 2255TIP3   OH2 6707   7.141   6.444   0.097
 2255TIP3    H1 6708   7.143   6.537   0.075
 2255TIP3    H2 6709   7.065   6.435   0.155
 2256TIP3   OH2 6710   1.281   5.785   4.077
 2256TIP3    H1 6711   1.294   5.768   3.984
 2256TIP3    H2 6712   1.356   5.839   4.103
 2257TIP3   OH2 6713   3.027   5.417   6.800
 2257TIP3    H1 6714   2.964   5.436   6.730
 2257TIP3    H2 6715   3.112   5.416   6.756
 2258TIP3   OH2 6716   1.392   5.816   6.649
 2258TIP3    H1 6717   1.452   5.754   6.607
 2258TIP3    H2 6718   1.316   5.762   6.673
 2259TIP3   OH2 6719   2.043   2.070   4.550
 2259TIP3    H1 6720   2.054   2.134   4.479
 2259TIP3    H2 6721   2.115   2.089   4.610
 2260TIP3   OH2 6722   1.015   5.843   3.800
 2260TIP3    H1 6723   1.100   5.871   3.835
 2260TIP3    H2 6724   0.952   5.905   3.837
 2261TIP3   OH2 6725   7.390   7.543   4.958
 2261TIP3    H1 6726   7.295   7.534   4.952
 2261TIP3    H2 6727   7.406   7.636   4.940
 2262TIP3   OH2 6728   3.754   3.209   2.495
 2262TIP3    H1 6729   3.806   3.141   2.452
 2262TIP3    H2 6730   3.664   3.189   2.471
 2263TIP3   OH2 6731   5.241   1.267   4.899
 2263TIP3    H1 6732   5.234   1.189   4.954
 2263TIP3    H2 6733   5.317   1.314   4.934
 2264TIP3   OH2 6734   3.352   7.080   1.742
 2264TIP3    H1 6735   3.269   7.033   1.752
 2264TIP3    H2 6736   3.332   7.153   1.684
 2265TIP3   OH2 6737   0.340   3.021   4.325
 2265TIP3    H1 6738   0.431   3.019   4.356
 2265TIP3    H2 6739   0.343   3.074   4.246
 2266TIP3   OH2 6740   0.404   7.015   5.966
 2266TIP3    H1 6741   0.458   6.956   5.914
 2266TIP3    H2 6742   0.314   6.997   5.937
 2267TIP3   OH2 6743   3.178   2.577   5.551
 2267TIP3    H1 6744   3.181   2.488   5.515
 2267TIP3    H2 6745   3.269   2.602   5.560
 2268TIP3   OH2 6746   0.869   6.503   4.559
 2268TIP3    H1 6747   0.920   6.483   4.638
 2268TIP3    H2 6748   0.927   6.481   4.486
 2269TIP3   OH2 6749   4.649   0.219   5.279
 2269TIP3    H1 6750   4.596   0.168   5.218
 2269TIP3    H2 6751   4.693   0.284   5.224
 2270TIP3   OH2 6752   6.407   1.394   3.663
 2270TIP3    H1 6753   6.481   1.343   3.697
 2270TIP3    H2 6754   6.445   1.479   3.639
 2271TIP3   OH2 6755   6.695   2.774   3.422
 2271TIP3    H1 6756   6.727   2.861   3.448
 2271TIP3    H2 6757   6.600   2.783   3.420
 2272TIP3   OH2 6758   1.739   7.358   6.195
 2272TIP3    H1 6759   1.645   7.340   6.191
 2272TIP3    H2 6760   1.756   7.378   6.287
 2273TIP3   OH2 6761   7.185   7.458   6.518
 2273TIP3    H1 6762   7.139   7.518   6.577
 2273TIP3    H2 6763   7.262   7.508   6.488
 2274TIP3   OH2 6764   4.552   0.058   5.983
 2274TIP3    H1 6765   4.471   0.050   6.034
 2274TIP3    H2 6766   4.539  -0.001   5.909
 2275TIP3   OH2 6767   8.226   0.072   0.822
 2275TIP3    H1 6768   8.290   0.022   0.772
 2275TIP3    H2 6769   8.160   0.008   0.848
 2276TIP3   OH2 6770   7.505   5.078   4.797
 2276TIP3    H1 6771   7.563   5.017   4.752
 2276TIP3    H2 6772   7.516   5.160   4.750
 2277TIP3   OH2 6773   8.280   1.076   5.363
 2277TIP3    H1 6774   8.203   1.027   5.391
 2277TIP3    H2 6775   8.269   1.085   5.268
 2278TIP3   OH2 6776   7.183   1.728   0.668
 2278TIP3    H1 6777   7.179   1.637   0.638
 2278TIP3    H2 6778   7.277   1.744   0.682
 2279TIP3   OH2 6779   5.301   2.904   4.485
 2279TIP3    H1 6780   5.391   2.909   4.519
 2279TIP3    H2 6781   5.254   2.852   4.550
 2280TIP3   OH2 6782   0.441   0.402   2.563
 2280TIP3    H1 6783   0.383   0.442   2.628
 2280TIP3    H2 6784   0.422   0.449   2.482
 2281TIP3   OH2 6785   4.478   7.327   6.747
 2281TIP3    H1 6786   4.503   7.236   6.736
 2281TIP3    H2 6787   4.398   7.336   6.696
 2282TIP3   OH2 6788   8.082   3.851   2.954
 2282TIP3    H1 6789   8.013   3.794   2.921
 2282TIP3    H2 6790   8.035   3.923   2.996
 2283TIP3   OH2 6791   0.305   3.897   2.803
 2283TIP3    H1 6792   0.238   3.916   2.868
 2283TIP3    H2 6793   0.388   3.918   2.846
 2284TIP3   OH2 6794   7.902   1.633   5.468
 2284TIP3    H1 6795   7.963   1.560   5.462
 2284TIP3    H2 6796   7.831   1.610   5.408
 2285TIP3   OH2 6797   1.616   2.156   4.307
 2285TIP3    H1 6798   1.711   2.167   4.309
 2285TIP3    H2 6799   1.602   2.061   4.312
 2286TIP3   OH2 6800   7.662   7.629   6.394
 2286TIP3    H1 6801   7.680   7.663   6.306
 2286TIP3    H2 6802   7.694   7.697   6.453
 2287TIP3   OH2 6803   5.363   1.495   6.549
 2287TIP3    H1 6804   5.410   1.465   6.472
 2287TIP3    H2 6805   5.310   1.420   6.577
 2288TIP3   OH2 6806   5.643   3.618   4.874
 2288TIP3    H1 6807   5.626   3.710   4.853
 2288TIP3    H2 6808   5.648   3.574   4.789
 2289TIP3   OH2 6809   8.179   5.615   1.083
 2289TIP3    H1 6810   8.126   5.696   1.084
 2289TIP3    H2 6811   8.167   5.578   1.170
 2290TIP3   OH2 6812   2.535   1.322   4.392
 2290TIP3    H1 6813   2.538   1.291   4.301
 2290TIP3    H2 6814   2.581   1.255   4.442
 2291TIP3   OH2 6815   4.447   2.730   3.159
 2291TIP3    H1 6816   4.383   2.713   3.228
 2291TIP3    H2 6817   4.395   2.743   3.080
 2292TIP3   OH2 6818   5.486   4.608   1.060
 2292TIP3    H1 6819   5.449   4.639   0.978
 2292TIP3    H2 6820   5.422   4.634   1.127
 2293TIP3   OH2 6821   6.098   3.119   2.236
 2293TIP3    H1 6822   6.109   3.061   2.161
 2293TIP3    H2 6823   6.146   3.075   2.307
 2294TIP3   OH2 6824   7.641   0.339   2.215
 2294TIP3    H1 6825   7.654   0.275   2.144
 2294TIP3    H2 6826   7.722   0.390   2.216
 2295TIP3   OH2 6827   4.844   3.804   1.038
 2295TIP3    H1 6828   4.904   3.765   0.975
 2295TIP3    H2 6829   4.773   3.741   1.047
 2296TIP3   OH2 6830   0.639   3.352   0.625
 2296TIP3    H1 6831   0.698   3.426   0.643
 2296TIP3    H2 6832   0.688   3.297   0.564
 2297TIP3   OH2 6833   6.186   4.417   1.567
 2297TIP3    H1 6834   6.274   4.379   1.572
 2297TIP3    H2 6835   6.134   4.367   1.629
 2298TIP3   OH2 6836   2.160   2.829   2.559
 2298TIP3    H1 6837   2.152   2.924   2.552
 2298TIP3    H2 6838   2.255   2.813   2.561
 2299TIP3   OH2 6839   2.489   1.319   3.501
 2299TIP3    H1 6840   2.409   1.270   3.480
 2299TIP3    H2 6841   2.552   1.291   3.434
 2300TIP3   OH2 6842   5.232   0.534   3.164
 2300TIP3    H1 6843   5.218   0.473   3.091
 2300TIP3    H2 6844   5.320   0.512   3.196
 2301TIP3   OH2 6845   2.249   6.537   6.264
 2301TIP3    H1 6846   2.275   6.611   6.319
 2301TIP3    H2 6847   2.319   6.473   6.275
 2302TIP3   OH2 6848   5.750   5.953   2.502
 2302TIP3    H1 6849   5.840   5.923   2.514
 2302TIP3    H2 6850   5.704   5.878   2.465
 2303TIP3   OH2 6851   4.786   4.283   6.270
 2303TIP3    H1 6852   4.776   4.237   6.353
 2303TIP3    H2 6853   4.730   4.236   6.208
 2304TIP3   OH2 6854   3.941   1.239   2.105
 2304TIP3    H1 6855   3.957   1.305   2.172
 2304TIP3    H2 6856   3.903   1.287   2.032
 2305TIP3   OH2 6857   3.571   2.817   3.963
 2305TIP3    H1 6858   3.554   2.725   3.943
 2305TIP3    H2 6859   3.574   2.820   4.058
 2306TIP3   OH2 6860   6.985   5.816   3.395
 2306TIP3    H1 6861   7.044   5.880   3.436
 2306TIP3    H2 6862   6.980   5.844   3.304
 2307TIP3   OH2 6863   6.271   7.184   4.337
 2307TIP3    H1 6864   6.194   7.142   4.298
 2307TIP3    H2 6865   6.345   7.150   4.288
 2308TIP3   OH2 6866   0.133   4.480   4.535
 2308TIP3    H1 6867   0.219   4.454   4.566
 2308TIP3    H2 6868   0.072   4.448   4.601
 2309TIP3   OH2 6869   3.285   3.590   5.326
 2309TIP3    H1 6870   3.306   3.582   5.232
 2309TIP3    H2 6871   3.243   3.675   5.334
 2310TIP3   OH2 6872   3.553   0.306   3.108
 2310TIP3    H1 6873   3.557   0.303   3.203
 2310TIP3    H2 6874   3.505   0.228   3.082
 2311TIP3   OH2 6875   6.663   4.825   5.158
 2311TIP3    H1 6876   6.621   4.740   5.170
 2311TIP3    H2 6877   6.590   4.885   5.140
 2312TIP3   OH2 6878   5.057   4.807   1.158
 2312TIP3    H1 6879   4.968   4.787   1.187
 2312TIP3    H2 6880   5.066   4.901   1.171
 2313TIP3   OH2 6881   1.713   5.343   0.197
 2313TIP3    H1 6882   1.768   5.284   0.145
 2313TIP3    H2 6883   1.713   5.425   0.149
 2314TIP3   OH2 6884   1.851   5.682   6.443
 2314TIP3    H1 6885   1.930   5.723   6.478
 2314TIP3    H2 6886   1.852   5.705   6.350
 2315TIP3   OH2 6887   3.717   7.398   2.259
 2315TIP3    H1 6888   3.797   7.357   2.225
 2315TIP3    H2 6889   3.716   7.375   2.351
 2316TIP3   OH2 6890   0.279   7.762   4.038
 2316TIP3    H1 6891   0.192   7.791   4.065
 2316TIP3    H2 6892   0.308   7.702   4.107
 2317TIP3   OH2 6893   4.857   6.760   4.551
 2317TIP3    H1 6894   4.821   6.790   4.467
 2317TIP3    H2 6895   4.784   6.767   4.612
 2318TIP3   OH2 6896   8.035   4.327   2.298
 2318TIP3    H1 6897   7.968   4.261   2.281
 2318TIP3    H2 6898   8.024   4.349   2.390
 2319TIP3   OH2 6899   0.335   3.146   5.291
 2319TIP3    H1 6900   0.336   3.234   5.327
 2319TIP3    H2 6901   0.343   3.158   5.196
 2320TIP3   OH2 6902   6.915   7.309   0.405
 2320TIP3    H1 6903   6.839   7.319   0.463
 2320TIP3    H2 6904   6.982   7.364   0.446
 2321TIP3   OH2 6905   2.167   0.694   0.191
 2321TIP3    H1 6906   2.074   0.704   0.172
 2321TIP3    H2 6907   2.192   0.775   0.236
 2322TIP3   OH2 6908   7.467   6.572   6.296
 2322TIP3    H1 6909   7.414   6.628   6.239
 2322TIP3    H2 6910   7.461   6.485   6.255
 2323TIP3   OH2 6911   3.980   0.355   4.672
 2323TIP3    H1 6912   3.999   0.375   4.580
 2323TIP3    H2 6913   4.049   0.295   4.698
 2324TIP3   OH2 6914   5.402   6.528   5.328
 2324TIP3    H1 6915   5.458   6.450   5.334
 2324TIP3    H2 6916   5.461   6.596   5.296
 2325TIP3   OH2 6917   2.007   1.778   6.425
 2325TIP3    H1 6918   1.979   1.695   6.386
 2325TIP3    H2 6919   2.009   1.761   6.519
 2326TIP3   OH2 6920   7.768   0.985   4.976
 2326TIP3    H1 6921   7.783   1.071   4.938
 2326TIP3    H2 6922   7.705   0.943   4.917
 2327TIP3   OH2 6923   7.474   5.775   5.639
 2327TIP3    H1 6924   7.428   5.697   5.607
 2327TIP3    H2 6925   7.549   5.740   5.686
 2328TIP3   OH2 6926   1.331   6.524   4.316
 2328TIP3    H1 6927   1.333   6.501   4.409
 2328TIP3    H2 6928   1.396   6.466   4.276
 2329TIP3   OH2 6929   1.568   3.290   4.279
 2329TIP3    H1 6930   1.579   3.383   4.259
 2329TIP3    H2 6931   1.477   3.272   4.259
 2330TIP3   OH2 6932   5.403   3.682   6.166
 2330TIP3    H1 6933   5.366   3.595   6.180
 2330TIP3    H2 6934   5.331   3.734   6.132
 2331TIP3   OH2 6935   6.601   7.190   5.410
 2331TIP3    H1 6936   6.576   7.273   5.369
 2331TIP3    H2 6937   6.549   7.184   5.490
 2332TIP3   OH2 6938   4.148   4.257   4.611
 2332TIP3    H1 6939   4.077   4.196   4.630
 2332TIP3    H2 6940   4.221   4.227   4.665
 2333TIP3   OH2 6941   4.722   3.082   0.551
 2333TIP3    H1 6942   4.654   3.015   0.564
 2333TIP3    H2 6943   4.675   3.165   0.558
 2334TIP3   OH2 6944   7.215   1.470   3.806
 2334TIP3    H1 6945   7.269   1.393   3.821
 2334TIP3    H2 6946   7.225   1.522   3.886
 2335TIP3   OH2 6947   2.338   6.330   2.026
 2335TIP3    H1 6948   2.257   6.309   1.979
 2335TIP3    H2 6949   2.379   6.398   1.973
 2336TIP3   OH2 6950   8.150   3.624   0.284
 2336TIP3    H1 6951   8.077   3.663   0.332
 2336TIP3    H2 6952   8.227   3.676   0.310
 2337TIP3   OH2 6953   5.212   7.364   5.650
 2337TIP3    H1 6954   5.139   7.340   5.593
 2337TIP3    H2 6955   5.280   7.397   5.590
 2338TIP3   OH2 6956   3.241   5.633   0.708
 2338TIP3    H1 6957   3.324   5.588   0.728
 2338TIP3    H2 6958   3.183   5.609   0.781
 2339TIP3   OH2 6959   5.953   4.351   2.667
 2339TIP3    H1 6960   5.944   4.348   2.572
 2339TIP3    H2 6961   5.961   4.260   2.694
 2340TIP3   OH2 6962   7.038   3.406   3.871
 2340TIP3    H1 6963   7.006   3.357   3.947
 2340TIP3    H2 6964   7.134   3.397   3.876
 2341TIP3   OH2 6965   7.697   7.653   4.987
 2341TIP3    H1 6966   7.713   7.615   5.073
 2341TIP3    H2 6967   7.614   7.700   4.995
 2342TIP3   OH2 6968   7.941   2.527   4.280
 2342TIP3    H1 6969   7.874   2.580   4.323
 2342TIP3    H2 6970   7.897   2.492   4.202
 2343TIP3   OH2 6971   1.951   3.719   3.622
 2343TIP3    H1 6972   2.008   3.795   3.607
 2343TIP3    H2 6973   1.951   3.708   3.717
 2344TIP3   OH2 6974   3.452   3.439   2.424
 2344TIP3    H1 6975   3.458   3.347   2.451
 2344TIP3    H2 6976   3.364   3.447   2.387
 2345TIP3   OH2 6977   2.928   0.217   3.309
 2345TIP3    H1 6978   2.957   0.157   3.240
 2345TIP3    H2 6979   2.849   0.177   3.345
 2346TIP3   OH2 6980   7.625   2.417   3.760
 2346TIP3    H1 6981   7.704   2.427   3.707
 2346TIP3    H2 6982   7.656   2.417   3.850
 2347TIP3   OH2 6983   3.096   6.207   0.650
 2347TIP3    H1 6984   3.183   6.191   0.686
 2347TIP3    H2 6985   3.094   6.157   0.568
 2348TIP3   OH2 6986   6.181   4.065   5.590
 2348TIP3    H1 6987   6.151   4.016   5.514
 2348TIP3    H2 6988   6.100   4.102   5.628
 2349TIP3   OH2 6989   2.713   3.023   5.647
 2349TIP3    H1 6990   2.637   3.058   5.694
 2349TIP3    H2 6991   2.676   2.984   5.568
 2350TIP3   OH2 6992   1.360   4.260   0.363
 2350TIP3    H1 6993   1.275   4.255   0.406
 2350TIP3    H2 6994   1.352   4.335   0.304
 2351TIP3   OH2 6995   4.351   4.066   6.110
 2351TIP3    H1 6996   4.438   4.053   6.150
 2351TIP3    H2 6997   4.313   4.138   6.160
 2352TIP3   OH2 6998   2.832   4.520   1.886
 2352TIP3    H1 6999   2.874   4.439   1.913
 2352TIP3    H2 7000   2.895   4.589   1.906
 2353TIP3   OH2 7001   6.175   2.071   2.218
 2353TIP3    H1 7002   6.111   2.044   2.284
 2353TIP3    H2 7003   6.250   2.014   2.234
 2354TIP3   OH2 7004   1.377   5.176   4.845
 2354TIP3    H1 7005   1.448   5.158   4.906
 2354TIP3    H2 7006   1.361   5.094   4.799
 2355TIP3   OH2 7007   3.012   6.791   2.965
 2355TIP3    H1 7008   3.073   6.756   3.030
 2355TIP3    H2 7009   2.990   6.878   2.997
 2356TIP3   OH2 7010   8.155   7.390   6.620
 2356TIP3    H1 7011   8.162   7.295   6.619
 2356TIP3    H2 7012   8.209   7.419   6.546
 2357TIP3   OH2 7013   4.440   6.936   0.889
 2357TIP3    H1 7014   4.358   6.932   0.938
 2357TIP3    H2 7015   4.470   6.845   0.885
 2358TIP3   OH2 7016   7.916   2.953   4.769
 2358TIP3    H1 7017   7.955   2.888   4.711
 2358TIP3    H2 7018   7.990   3.010   4.794
 2359TIP3   OH2 7019   7.823   2.965   3.161
 2359TIP3    H1 7020   7.892   2.934   3.102
 2359TIP3    H2 7021   7.869   3.022   3.223
 2360TIP3   OH2 7022   1.328   2.245   0.876
 2360TIP3    H1 7023   1.289   2.202   0.952
 2360TIP3    H2 7024   1.269   2.225   0.804
 2361TIP3   OH2 7025   1.855   5.818   1.058
 2361TIP3    H1 7026   1.905   5.828   0.977
 2361TIP3    H2 7027   1.766   5.843   1.034
 2362TIP3   OH2 7028   7.341   4.091   3.609
 2362TIP3    H1 7029   7.362   4.001   3.584
 2362TIP3    H2 7030   7.248   4.088   3.634
 2363TIP3   OH2 7031   4.301   4.406   2.963
 2363TIP3    H1 7032   4.242   4.393   3.038
 2363TIP3    H2 7033   4.377   4.451   3.000
 2364TIP3   OH2 7034   7.998   7.270   2.672
 2364TIP3    H1 7035   8.019   7.191   2.722
 2364TIP3    H2 7036   7.921   7.307   2.715
 2365TIP3   OH2 7037   4.408   3.210   3.391
 2365TIP3    H1 7038   4.335   3.147   3.389
 2365TIP3    H2 7039   4.451   3.199   3.306
 2366TIP3   OH2 7040   7.783   1.511   0.866
 2366TIP3    H1 7041   7.745   1.520   0.779
 2366TIP3    H2 7042   7.830   1.428   0.864
 2367TIP3   OH2 7043   4.877   7.646   5.874
 2367TIP3    H1 7044   4.813   7.657   5.944
 2367TIP3    H2 7045   4.870   7.554   5.848
 2368TIP3   OH2 7046  -0.011   1.265   0.607
 2368TIP3    H1 7047  -0.023   1.354   0.639
 2368TIP3    H2 7048   0.020   1.216   0.683
 2369TIP3   OH2 7049   4.294   3.943   3.428
 2369TIP3    H1 7050   4.229   3.941   3.498
 2369TIP3    H2 7051   4.304   3.851   3.402
 2370TIP3   OH2 7052   5.244   4.036   4.544
 2370TIP3    H1 7053   5.335   4.058   4.563
 2370TIP3    H2 7054   5.194   4.084   4.609
 2371TIP3   OH2 7055   4.147   4.747   4.604
 2371TIP3    H1 7056   4.091   4.801   4.549
 2371TIP3    H2 7057   4.121   4.657   4.584
 2372TIP3   OH2 7058   7.071   0.415   6.257
 2372TIP3    H1 7059   7.011   0.363   6.203
 2372TIP3    H2 7060   7.135   0.351   6.289
 2373TIP3   OH2 7061   4.764   0.942   1.993
 2373TIP3    H1 7062   4.687   0.995   2.015
 2373TIP3    H2 7063   4.735   0.889   1.919
 2374TIP3   OH2 7064   0.309   0.864   5.864
 2374TIP3    H1 7065   0.261   0.886   5.784
 2374TIP3    H2 7066   0.320   0.948   5.909
 2375TIP3   OH2 7067   7.698   7.171   6.722
 2375TIP3    H1 7068   7.643   7.135   6.791
 2375TIP3    H2 7069   7.643   7.238   6.681
 2376TIP3   OH2 7070   0.376   3.566   3.915
 2376TIP3    H1 7071   0.313   3.583   3.845
 2376TIP3    H2 7072   0.333   3.596   3.995
 2377TIP3   OH2 7073   4.577   7.460   4.999
 2377TIP3    H1 7074   4.540   7.517   5.066
 2377TIP3    H2 7075   4.621   7.519   4.939
 2378TIP3   OH2 7076   3.418   1.394   2.822
 2378TIP3    H1 7077   3.467   1.362   2.898
 2378TIP3    H2 7078   3.485   1.408   2.755
 2379TIP3   OH2 7079   2.852   1.546   2.378
 2379TIP3    H1 7080   2.903   1.605   2.434
 2379TIP3    H2 7081   2.904   1.466   2.375
 2380TIP3   OH2 7082   8.229   0.180   4.485
 2380TIP3    H1 7083   8.243   0.085   4.484
 2380TIP3    H2 7084   8.303   0.215   4.435
 2381TIP3   OH2 7085   3.930   3.214   6.065
 2381TIP3    H1 7086   3.956   3.124   6.084
 2381TIP3    H2 7087   3.837   3.208   6.044
 2382TIP3   OH2 7088   5.600   4.296   1.262
 2382TIP3    H1 7089   5.603   4.226   1.327
 2382TIP3    H2 7090   5.581   4.375   1.312
 2383TIP3   OH2 7091   2.306   6.265   4.548
 2383TIP3    H1 7092   2.381   6.254   4.606
 2383TIP3    H2 7093   2.307   6.358   4.526
 2384TIP3   OH2 7094   3.860   7.370   5.165
 2384TIP3    H1 7095   3.791   7.312   5.132
 2384TIP3    H2 7096   3.819   7.418   5.237
 2385TIP3   OH2 7097   0.519   7.557   4.175
 2385TIP3    H1 7098   0.589   7.563   4.110
 2385TIP3    H2 7099   0.563   7.563   4.260
 2386TIP3   OH2 7100   4.346   1.571   4.262
 2386TIP3    H1 7101   4.399   1.508   4.213
 2386TIP3    H2 7102   4.286   1.607   4.198
 2387TIP3   OH2 7103   0.394   4.379   6.532
 2387TIP3    H1 7104   0.314   4.352   6.577
 2387TIP3    H2 7105   0.419   4.461   6.575
 2388TIP3   OH2 7106   8.278   3.694   4.300
 2388TIP3    H1 7107   8.311   3.649   4.378
 2388TIP3    H2 7108   8.301   3.635   4.227
 2389TIP3   OH2 7109   0.597   5.131   4.532
 2389TIP3    H1 7110   0.518   5.182   4.551
 2389TIP3    H2 7111   0.609   5.138   4.438
 2390TIP3   OH2 7112   5.947   2.621   3.205
 2390TIP3    H1 7113   6.040   2.607   3.187
 2390TIP3    H2 7114   5.906   2.619   3.118
 2391TIP3   OH2 7115   2.899   4.497   2.713
 2391TIP3    H1 7116   2.934   4.413   2.741
 2391TIP3    H2 7117   2.973   4.557   2.718
 2392TIP3   OH2 7118   0.394   6.836   4.010
 2392TIP3    H1 7119   0.346   6.869   3.934
 2392TIP3    H2 7120   0.334   6.774   4.052
 2393TIP3   OH2 7121   2.172   6.676   0.895
 2393TIP3    H1 7122   2.107   6.747   0.895
 2393TIP3    H2 7123   2.127   6.603   0.853
 2394TIP3   OH2 7124   7.150   0.587   4.046
 2394TIP3    H1 7125   7.161   0.630   4.131
 2394TIP3    H2 7126   7.195   0.644   3.984
 2395TIP3   OH2 7127   7.802   0.326   6.398
 2395TIP3    H1 7128   7.813   0.369   6.313
 2395TIP3    H2 7129   7.739   0.256   6.381
 2396TIP3   OH2 7130   4.541   2.927   2.578
 2396TIP3    H1 7131   4.589   2.950   2.498
 2396TIP3    H2 7132   4.557   3.000   2.638
 2397TIP3   OH2 7133   2.950   7.025   5.024
 2397TIP3    H1 7134   2.914   7.105   4.986
 2397TIP3    H2 7135   3.033   7.012   4.980
 2398TIP3   OH2 7136   1.145   3.574   6.219
 2398TIP3    H1 7137   1.057   3.574   6.181
 2398TIP3    H2 7138   1.175   3.483   6.211
 2399TIP3   OH2 7139   0.146   3.871   3.724
 2399TIP3    H1 7140   0.065   3.920   3.738
 2399TIP3    H2 7141   0.215   3.938   3.726
 2400TIP3   OH2 7142   2.539   2.480   6.252
 2400TIP3    H1 7143   2.556   2.426   6.329
 2400TIP3    H2 7144   2.483   2.425   6.197
 2401TIP3   OH2 7145   0.441   7.070   2.074
 2401TIP3    H1 7146   0.412   7.057   2.165
 2401TIP3    H2 7147   0.535   7.052   2.076
 2402TIP3   OH2 7148   0.431   0.899   3.274
 2402TIP3    H1 7149   0.441   0.941   3.359
 2402TIP3    H2 7150   0.440   0.970   3.211
 2403TIP3   OH2 7151   3.051   3.188   5.108
 2403TIP3    H1 7152   2.981   3.123   5.105
 2403TIP3    H2 7153   3.056   3.214   5.200
 2404TIP3   OH2 7154   7.267   6.618   0.732
 2404TIP3    H1 7155   7.295   6.565   0.658
 2404TIP3    H2 7156   7.228   6.555   0.793
 2405TIP3   OH2 7157   4.864   2.794   5.825
 2405TIP3    H1 7158   4.860   2.714   5.878
 2405TIP3    H2 7159   4.851   2.763   5.735
 2406TIP3   OH2 7160   5.397   2.859   1.037
 2406TIP3    H1 7161   5.380   2.931   1.098
 2406TIP3    H2 7162   5.373   2.781   1.087
 2407TIP3   OH2 7163   2.337   7.295   0.528
 2407TIP3    H1 7164   2.336   7.353   0.451
 2407TIP3    H2 7165   2.280   7.222   0.504
 2408TIP3   OH2 7166   0.184   1.634   3.261
 2408TIP3    H1 7167   0.247   1.622   3.190
 2408TIP3    H2 7168   0.237   1.634   3.340
 2409TIP3   OH2 7169   6.952   0.822   4.698
 2409TIP3    H1 7170   6.915   0.836   4.785
 2409TIP3    H2 7171   6.877   0.797   4.644
 2410TIP3   OH2 7172   0.016   2.752   0.350
 2410TIP3    H1 7173   0.105   2.720   0.358
 2410TIP3    H2 7174  -0.028   2.725   0.430
 2411TIP3   OH2 7175   5.626   1.540   1.814
 2411TIP3    H1 7176   5.582   1.620   1.843
 2411TIP3    H2 7177   5.711   1.542   1.858
 2412TIP3   OH2 7178   0.221   4.626   6.188
 2412TIP3    H1 7179   0.293   4.566   6.206
 2412TIP3    H2 7180   0.210   4.622   6.093
 2413TIP3   OH2 7181   7.147   3.890   1.636
 2413TIP3    H1 7182   7.177   3.815   1.585
 2413TIP3    H2 7183   7.114   3.852   1.718
 2414TIP3   OH2 7184   7.402   2.629   4.770
 2414TIP3    H1 7185   7.356   2.567   4.826
 2414TIP3    H2 7186   7.332   2.681   4.730
 2415TIP3   OH2 7187   0.153   4.770   4.579
 2415TIP3    H1 7188   0.242   4.765   4.615
 2415TIP3    H2 7189   0.131   4.680   4.557
 2416TIP3   OH2 7190   7.183   2.216   6.611
 2416TIP3    H1 7191   7.196   2.142   6.553
 2416TIP3    H2 7192   7.133   2.180   6.685
 2417TIP3   OH2 7193   5.312   6.218   6.185
 2417TIP3    H1 7194   5.226   6.243   6.217
 2417TIP3    H2 7195   5.359   6.188   6.263
 2418TIP3   OH2 7196   5.321   5.902   0.979
 2418TIP3    H1 7197   5.226   5.891   0.984
 2418TIP3    H2 7198   5.348   5.837   0.914
 2419TIP3   OH2 7199   6.616   7.179   2.568
 2419TIP3    H1 7200   6.681   7.173   2.638
 2419TIP3    H2 7201   6.532   7.184   2.613
 2420TIP3   OH2 7202   3.478   7.411   1.703
 2420TIP3    H1 7203   3.426   7.362   1.639
 2420TIP3    H2 7204   3.559   7.361   1.713
 2421TIP3   OH2 7205   4.164   5.915   0.216
 2421TIP3    H1 7206   4.134   5.863   0.142
 2421TIP3    H2 7207   4.085   5.960   0.248
 2422TIP3   OH2 7208   1.406   3.693   5.770
 2422TIP3    H1 7209   1.366   3.758   5.828
 2422TIP3    H2 7210   1.364   3.708   5.685
 2423TIP3   OH2 7211   1.159   1.322   1.516
 2423TIP3    H1 7212   1.130   1.270   1.441
 2423TIP3    H2 7213   1.173   1.258   1.585
 2424TIP3   OH2 7214   5.217   2.520   2.769
 2424TIP3    H1 7215   5.214   2.428   2.742
 2424TIP3    H2 7216   5.131   2.555   2.744
 2425TIP3   OH2 7217   1.956   7.524   3.669
 2425TIP3    H1 7218   1.970   7.491   3.757
 2425TIP3    H2 7219   1.866   7.499   3.648
 2426TIP3   OH2 7220   1.355   5.975   0.983
 2426TIP3    H1 7221   1.400   6.054   0.954
 2426TIP3    H2 7222   1.262   5.997   0.978
 2427TIP3   OH2 7223   8.068   1.981   1.254
 2427TIP3    H1 7224   8.070   2.077   1.257
 2427TIP3    H2 7225   8.118   1.955   1.332
 2428TIP3   OH2 7226   1.708   1.280   3.393
 2428TIP3    H1 7227   1.773   1.338   3.352
 2428TIP3    H2 7228   1.655   1.248   3.320
 2429TIP3   OH2 7229   6.307   0.560   6.760
 2429TIP3    H1 7230   6.254   0.639   6.755
 2429TIP3    H2 7231   6.291   0.515   6.677
 2430TIP3   OH2 7232   8.207   5.223   1.956
 2430TIP3    H1 7233   8.181   5.293   1.895
 2430TIP3    H2 7234   8.222   5.269   2.039
 2431TIP3   OH2 7235   3.748   6.272   5.976
 2431TIP3    H1 7236   3.663   6.229   5.966
 2431TIP3    H2 7237   3.734   6.361   5.945
 2432TIP3   OH2 7238   2.110   1.455   4.527
 2432TIP3    H1 7239   2.121   1.548   4.505
 2432TIP3    H2 7240   2.136   1.449   4.619
 2433TIP3   OH2 7241   7.057   7.681   5.186
 2433TIP3    H1 7242   7.091   7.657   5.272
 2433TIP3    H2 7243   6.964   7.700   5.202
 2434TIP3   OH2 7244   7.120   3.332   1.053
 2434TIP3    H1 7245   7.040   3.328   1.001
 2434TIP3    H2 7246   7.137   3.425   1.064
 2435TIP3   OH2 7247   6.376   3.196   6.603
 2435TIP3    H1 7248   6.421   3.280   6.592
 2435TIP3    H2 7249   6.400   3.146   6.526
 2436TIP3   OH2 7250   7.948   6.729   0.215
 2436TIP3    H1 7251   7.943   6.801   0.277
 2436TIP3    H2 7252   7.903   6.656   0.259
 2437TIP3   OH2 7253   1.173   1.943   5.803
 2437TIP3    H1 7254   1.179   2.038   5.818
 2437TIP3    H2 7255   1.257   1.919   5.765
 2438TIP3   OH2 7256   4.842   1.619   1.906
 2438TIP3    H1 7257   4.857   1.575   1.990
 2438TIP3    H2 7258   4.865   1.554   1.840
 2439TIP3   OH2 7259   0.712   7.063   2.723
 2439TIP3    H1 7260   0.791   7.097   2.765
 2439TIP3    H2 7261   0.641   7.118   2.756
 2440TIP3   OH2 7262   1.537   6.140   0.531
 2440TIP3    H1 7263   1.547   6.068   0.469
 2440TIP3    H2 7264   1.513   6.215   0.477
 2441TIP3   OH2 7265   5.038   2.532   2.996
 2441TIP3    H1 7266   5.106   2.467   3.017
 2441TIP3    H2 7267   5.078   2.588   2.930
 2442TIP3   OH2 7268   1.749   6.649   3.852
 2442TIP3    H1 7269   1.739   6.721   3.788
 2442TIP3    H2 7270   1.671   6.654   3.906
 2443TIP3   OH2 7271   4.823   7.176   3.747
 2443TIP3    H1 7272   4.817   7.103   3.809
 2443TIP3    H2 7273   4.870   7.140   3.672
 2444TIP3   OH2 7274   7.706   1.801   4.900
 2444TIP3    H1 7275   7.663   1.881   4.930
 2444TIP3    H2 7276   7.778   1.788   4.962
 2445TIP3   OH2 7277   3.998   7.112   3.726
 2445TIP3    H1 7278   3.979   7.057   3.802
 2445TIP3    H2 7279   3.919   7.109   3.673
 2446TIP3   OH2 7280   2.751   4.619   0.714
 2446TIP3    H1 7281   2.841   4.610   0.747
 2446TIP3    H2 7282   2.748   4.708   0.677
 2447TIP3   OH2 7283   3.538   0.155   0.687
 2447TIP3    H1 7284   3.543   0.145   0.592
 2447TIP3    H2 7285   3.609   0.215   0.709
 2448TIP3   OH2 7286   6.061   6.709   2.410
 2448TIP3    H1 7287   6.143   6.689   2.365
 2448TIP3    H2 7288   6.015   6.768   2.351
 2449TIP3   OH2 7289   0.243   5.708   1.056
 2449TIP3    H1 7290   0.169   5.648   1.042
 2449TIP3    H2 7291   0.321   5.654   1.044
 2450TIP3   OH2 7292   7.796   6.599   1.450
 2450TIP3    H1 7293   7.860   6.557   1.507
 2450TIP3    H2 7294   7.832   6.589   1.362
 2451TIP3   OH2 7295   3.059   0.877   6.501
 2451TIP3    H1 7296   3.033   0.792   6.537
 2451TIP3    H2 7297   3.109   0.918   6.571
 2452TIP3   OH2 7298   4.043   4.148   2.485
 2452TIP3    H1 7299   4.113   4.155   2.550
 2452TIP3    H2 7300   4.026   4.239   2.458
 2453TIP3   OH2 7301   2.101   6.872   1.937
 2453TIP3    H1 7302   2.061   6.913   2.013
 2453TIP3    H2 7303   2.092   6.778   1.952
 2454TIP3   OH2 7304   2.563   0.203   1.339
 2454TIP3    H1 7305   2.572   0.294   1.312
 2454TIP3    H2 7306   2.468   0.190   1.347
 2455TIP3   OH2 7307   7.142   0.933   1.800
 2455TIP3    H1 7308   7.139   0.991   1.724
 2455TIP3    H2 7309   7.234   0.934   1.827
 2456TIP3   OH2 7310   4.675   1.722   0.797
 2456TIP3    H1 7311   4.697   1.810   0.824
 2456TIP3    H2 7312   4.694   1.720   0.703
 2457TIP3   OH2 7313   5.478   7.571   4.541
 2457TIP3    H1 7314   5.479   7.476   4.537
 2457TIP3    H2 7315   5.402   7.593   4.595
 2458TIP3   OH2 7316   4.746   7.446   2.904
 2458TIP3    H1 7317   4.754   7.355   2.874
 2458TIP3    H2 7318   4.722   7.495   2.825
 2459TIP3   OH2 7319   5.938   6.974   4.440
 2459TIP3    H1 7320   5.853   6.939   4.411
 2459TIP3    H2 7321   5.988   6.896   4.465
 2460TIP3   OH2 7322   4.753   0.047   2.429
 2460TIP3    H1 7323   4.687   0.057   2.360
 2460TIP3    H2 7324   4.732   0.116   2.492
 2461TIP3   OH2 7325   4.883   0.717   3.101
 2461TIP3    H1 7326   4.881   0.805   3.140
 2461TIP3    H2 7327   4.842   0.729   3.015
 2462TIP3   OH2 7328   7.629   3.229   6.571
 2462TIP3    H1 7329   7.680   3.218   6.490
 2462TIP3    H2 7330   7.583   3.312   6.559
 2463TIP3   OH2 7331   0.654   4.991   2.719
 2463TIP3    H1 7332   0.620   4.941   2.794
 2463TIP3    H2 7333   0.605   4.958   2.644
 2464TIP3   OH2 7334   5.808   5.838   1.087
 2464TIP3    H1 7335   5.773   5.927   1.092
 2464TIP3    H2 7336   5.737   5.782   1.120
 2465TIP3   OH2 7337   7.216   2.061   0.192
 2465TIP3    H1 7338   7.241   1.972   0.216
 2465TIP3    H2 7339   7.222   2.111   0.273
 2466TIP3   OH2 7340   2.406   2.145   5.569
 2466TIP3    H1 7341   2.463   2.149   5.492
 2466TIP3    H2 7342   2.415   2.055   5.601
 2467TIP3   OH2 7343   3.446   6.327   0.536
 2467TIP3    H1 7344   3.441   6.334   0.632
 2467TIP3    H2 7345   3.506   6.255   0.520
 2468TIP3   OH2 7346   7.498   2.105   5.819
 2468TIP3    H1 7347   7.507   2.035   5.884
 2468TIP3    H2 7348   7.433   2.072   5.757
 2469TIP3   OH2 7349   4.174   2.282   4.042
 2469TIP3    H1 7350   4.246   2.223   4.065
 2469TIP3    H2 7351   4.192   2.307   3.952
 2470TIP3   OH2 7352   7.316   3.687   1.948
 2470TIP3    H1 7353   7.345   3.668   2.037
 2470TIP3    H2 7354   7.396   3.705   1.899
 2471TIP3   OH2 7355   5.866   3.653   1.656
 2471TIP3    H1 7356   5.903   3.575   1.615
 2471TIP3    H2 7357   5.936   3.718   1.651
 2472TIP3   OH2 7358   7.559   5.230   2.187
 2472TIP3    H1 7359   7.504   5.307   2.170
 2472TIP3    H2 7360   7.634   5.264   2.236
 2473TIP3   OH2 7361   6.237   5.405   1.530
 2473TIP3    H1 7362   6.314   5.389   1.476
 2473TIP3    H2 7363   6.221   5.499   1.522
 2474TIP3   OH2 7364   8.256   7.261   1.835
 2474TIP3    H1 7365   8.217   7.205   1.768
 2474TIP3    H2 7366   8.324   7.206   1.874
 2475TIP3   OH2 7367   7.985   2.047   1.679
 2475TIP3    H1 7368   7.941   1.993   1.614
 2475TIP3    H2 7369   7.918   2.108   1.709
 2476TIP3   OH2 7370   8.054   4.907   0.659
 2476TIP3    H1 7371   8.143   4.891   0.628
 2476TIP3    H2 7372   8.006   4.828   0.634
 2477TIP3   OH2 7373   5.351   5.191   6.169
 2477TIP3    H1 7374   5.284   5.236   6.118
 2477TIP3    H2 7375   5.433   5.235   6.145
 2478TIP3   OH2 7376   6.082   2.872   2.933
 2478TIP3    H1 7377   6.147   2.804   2.949
 2478TIP3    H2 7378   6.040   2.886   3.018
 2479TIP3   OH2 7379   6.625   3.877   0.207
 2479TIP3    H1 7380   6.583   3.962   0.213
 2479TIP3    H2 7381   6.717   3.896   0.189
 2480TIP3   OH2 7382   4.370   3.314   0.761
 2480TIP3    H1 7383   4.324   3.232   0.741
 2480TIP3    H2 7384   4.317   3.354   0.829
 2481TIP3   OH2 7385   3.489   7.053   5.328
 2481TIP3    H1 7386   3.419   7.062   5.392
 2481TIP3    H2 7387   3.509   6.959   5.328
 2482TIP3   OH2 7388   6.585   3.130   5.580
 2482TIP3    H1 7389   6.540   3.185   5.516
 2482TIP3    H2 7390   6.673   3.118   5.544
 2483TIP3   OH2 7391   4.571   2.618   0.836
 2483TIP3    H1 7392   4.482   2.621   0.871
 2483TIP3    H2 7393   4.614   2.548   0.886
 2484TIP3   OH2 7394   4.421   2.103   6.025
 2484TIP3    H1 7395   4.454   2.162   6.092
 2484TIP3    H2 7396   4.406   2.021   6.070
 2485TIP3   OH2 7397   6.731   4.424   3.368
 2485TIP3    H1 7398   6.727   4.454   3.459
 2485TIP3    H2 7399   6.768   4.336   3.374
 2486TIP3   OH2 7400   1.198   2.639   3.994
 2486TIP3    H1 7401   1.290   2.663   4.003
 2486TIP3    H2 7402   1.189   2.558   4.044
 2487TIP3   OH2 7403   7.155   5.772   0.532
 2487TIP3    H1 7404   7.169   5.766   0.437
 2487TIP3    H2 7405   7.234   5.733   0.570
 2488TIP3   OH2 7406   0.451   1.899   1.044
 2488TIP3    H1 7407   0.415   1.978   1.085
 2488TIP3    H2 7408   0.533   1.928   1.004
 2489TIP3   OH2 7409   4.268   0.223   3.638
 2489TIP3    H1 7410   4.176   0.234   3.612
 2489TIP3    H2 7411   4.317   0.266   3.568
 2490TIP3   OH2 7412   4.719   5.513   6.586
 2490TIP3    H1 7413   4.663   5.574   6.632
 2490TIP3    H2 7414   4.712   5.538   6.494
 2491TIP3   OH2 7415   5.926   0.078   5.117
 2491TIP3    H1 7416   5.968   0.000   5.082
 2491TIP3    H2 7417   5.850   0.092   5.061
 2492TIP3   OH2 7418   5.651   4.807   2.574
 2492TIP3    H1 7419   5.635   4.800   2.480
 2492TIP3    H2 7420   5.565   4.822   2.613
 2493TIP3   OH2 7421   4.035   6.228   2.687
 2493TIP3    H1 7422   4.029   6.138   2.656
 2493TIP3    H2 7423   3.945   6.261   2.682
 2494TIP3   OH2 7424   3.494   5.863   5.841
 2494TIP3    H1 7425   3.420   5.909   5.802
 2494TIP3    H2 7426   3.570   5.897   5.793
 2495TIP3   OH2 7427   3.499   5.764   4.402
 2495TIP3    H1 7428   3.505   5.687   4.345
 2495TIP3    H2 7429   3.472   5.729   4.486
 2496TIP3   OH2 7430   0.814   6.862   6.124
 2496TIP3    H1 7431   0.894   6.810   6.132
 2496TIP3    H2 7432   0.778   6.839   6.038
 2497TIP3   OH2 7433   7.459   1.088   5.382
 2497TIP3    H1 7434   7.511   1.075   5.461
 2497TIP3    H2 7435   7.449   1.000   5.345
 2498TIP3   OH2 7436   7.454   5.906   0.422
 2498TIP3    H1 7437   7.380   5.898   0.362
 2498TIP3    H2 7438   7.511   5.833   0.399
 2499TIP3   OH2 7439   4.088   7.007   0.022
 2499TIP3    H1 7440   4.023   6.976  -0.041
 2499TIP3    H2 7441   4.125   7.085  -0.018
 2500TIP3   OH2 7442   0.076   2.532   5.926
 2500TIP3    H1 7443   0.092   2.480   6.005
 2500TIP3    H2 7444   0.132   2.609   5.936
 2501TIP3   OH2 7445   6.012   0.332   1.868
 2501TIP3    H1 7446   5.952   0.273   1.821
 2501TIP3    H2 7447   6.048   0.388   1.799
 2502TIP3   OH2 7448   3.323   2.201   0.482
 2502TIP3    H1 7449   3.279   2.244   0.409
 2502TIP3    H2 7450   3.392   2.262   0.507
 2503TIP3   OH2 7451   5.212   2.133   5.273
 2503TIP3    H1 7452   5.210   2.194   5.348
 2503TIP3    H2 7453   5.145   2.068   5.294
 2504TIP3   OH2 7454   7.222   5.387   1.060
 2504TIP3    H1 7455   7.299   5.376   1.005
 2504TIP3    H2 7456   7.149   5.358   1.005
 2505TIP3   OH2 7457   0.330   7.751   4.454
 2505TIP3    H1 7458   0.398   7.713   4.509
 2505TIP3    H2 7459   0.360   7.840   4.435
 2506TIP3   OH2 7460   5.700   1.337   4.934
 2506TIP3    H1 7461   5.734   1.424   4.915
 2506TIP3    H2 7462   5.775   1.289   4.970
 2507TIP3   OH2 7463   8.073   1.746   4.804
 2507TIP3    H1 7464   8.019   1.716   4.877
 2507TIP3    H2 7465   8.163   1.725   4.831
 2508TIP3   OH2 7466   6.525   0.198   6.350
 2508TIP3    H1 7467   6.555   0.137   6.283
 2508TIP3    H2 7468   6.483   0.269   6.301
 2509TIP3   OH2 7469   7.765   2.300   4.543
 2509TIP3    H1 7470   7.687   2.292   4.488
 2509TIP3    H2 7471   7.835   2.262   4.490
 2510TIP3   OH2 7472   6.446   6.594   0.483
 2510TIP3    H1 7473   6.365   6.604   0.534
 2510TIP3    H2 7474   6.516   6.611   0.546
 2511TIP3   OH2 7475   6.693   1.358   4.039
 2511TIP3    H1 7476   6.658   1.440   4.076
 2511TIP3    H2 7477   6.777   1.346   4.082
 2512TIP3   OH2 7478   4.710   5.500   4.082
 2512TIP3    H1 7479   4.697   5.407   4.102
 2512TIP3    H2 7480   4.795   5.521   4.120
 2513TIP3   OH2 7481   0.844   4.310   4.642
 2513TIP3    H1 7482   0.922   4.360   4.666
 2513TIP3    H2 7483   0.780   4.331   4.710
 2514TIP3   OH2 7484   5.436   4.601   3.583
 2514TIP3    H1 7485   5.453   4.629   3.673
 2514TIP3    H2 7486   5.498   4.652   3.530
 2515TIP3   OH2 7487   7.569   2.905   3.292
 2515TIP3    H1 7488   7.556   2.878   3.383
 2515TIP3    H2 7489   7.664   2.918   3.285
 2516TIP3   OH2 7490   0.309   3.502   0.643
 2516TIP3    H1 7491   0.385   3.447   0.626
 2516TIP3    H2 7492   0.235   3.453   0.607
 2517TIP3   OH2 7493   6.652   1.820   2.374
 2517TIP3    H1 7494   6.725   1.773   2.414
 2517TIP3    H2 7495   6.676   1.828   2.282
 2518TIP3   OH2 7496   6.464   4.283   0.182
 2518TIP3    H1 7497   6.455   4.284   0.277
 2518TIP3    H2 7498   6.393   4.339   0.150
 2519TIP3   OH2 7499   6.121   5.301   6.302
 2519TIP3    H1 7500   6.193   5.290   6.240
 2519TIP3    H2 7501   6.128   5.391   6.331
 2520TIP3   OH2 7502   7.404   0.952   1.827
 2520TIP3    H1 7503   7.466   0.982   1.893
 2520TIP3    H2 7504   7.456   0.898   1.767
 2521TIP3   OH2 7505   2.909   4.289   4.779
 2521TIP3    H1 7506   2.903   4.354   4.849
 2521TIP3    H2 7507   2.990   4.241   4.797
 2522TIP3   OH2 7508   3.667   5.455   3.943
 2522TIP3    H1 7509   3.749   5.481   3.902
 2522TIP3    H2 7510   3.681   5.472   4.037
 2523TIP3   OH2 7511   1.735   3.680   4.850
 2523TIP3    H1 7512   1.684   3.757   4.824
 2523TIP3    H2 7513   1.677   3.605   4.832
 2524TIP3   OH2 7514   1.534   2.804   5.573
 2524TIP3    H1 7515   1.591   2.854   5.515
 2524TIP3    H2 7516   1.482   2.749   5.514
 2525TIP3   OH2 7517   0.118   2.224   3.782
 2525TIP3    H1 7518   0.051   2.164   3.815
 2525TIP3    H2 7519   0.107   2.304   3.833
 2526TIP3   OH2 7520   4.400   5.451   0.102
 2526TIP3    H1 7521   4.367   5.534   0.068
 2526TIP3    H2 7522   4.369   5.385   0.040
 2527TIP3   OH2 7523   6.076   7.162   6.675
 2527TIP3    H1 7524   6.019   7.123   6.608
 2527TIP3    H2 7525   6.016   7.201   6.738
 2528TIP3   OH2 7526   7.043   5.085   5.293
 2528TIP3    H1 7527   6.973   5.050   5.238
 2528TIP3    H2 7528   7.010   5.171   5.321
 2529TIP3   OH2 7529   4.589   1.648   0.271
 2529TIP3    H1 7530   4.632   1.728   0.300
 2529TIP3    H2 7531   4.579   1.658   0.177
 2530TIP3   OH2 7532   1.092   7.309   6.197
 2530TIP3    H1 7533   1.101   7.236   6.135
 2530TIP3    H2 7534   1.050   7.271   6.274
 2531TIP3   OH2 7535   1.676   1.302   1.509
 2531TIP3    H1 7536   1.617   1.280   1.581
 2531TIP3    H2 7537   1.662   1.396   1.494
 2532TIP3   OH2 7538   2.373   1.035   0.962
 2532TIP3    H1 7539   2.279   1.055   0.969
 2532TIP3    H2 7540   2.416   1.107   1.009
 2533TIP3   OH2 7541   2.420   5.991   3.133
 2533TIP3    H1 7542   2.496   5.951   3.089
 2533TIP3    H2 7543   2.455   6.071   3.172
 2534TIP3   OH2 7544   7.359   3.301   2.184
 2534TIP3    H1 7545   7.418   3.291   2.259
 2534TIP3    H2 7546   7.309   3.220   2.182
 2535TIP3   OH2 7547   5.643   2.587   1.226
 2535TIP3    H1 7548   5.550   2.608   1.237
 2535TIP3    H2 7549   5.666   2.624   1.140
 2536TIP3   OH2 7550   4.043   0.375   2.601
 2536TIP3    H1 7551   3.968   0.433   2.609
 2536TIP3    H2 7552   4.119   0.430   2.621
 2537TIP3   OH2 7553   2.611   0.114   0.340
 2537TIP3    H1 7554   2.589   0.199   0.302
 2537TIP3    H2 7555   2.595   0.125   0.434
 2538TIP3   OH2 7556   2.540   3.429   5.202
 2538TIP3    H1 7557   2.539   3.525   5.199
 2538TIP3    H2 7558   2.457   3.404   5.160
 2539TIP3   OH2 7559   3.019   5.171   3.280
 2539TIP3    H1 7560   3.062   5.255   3.267
 2539TIP3    H2 7561   3.085   5.116   3.322
 2540TIP3   OH2 7562   1.239   1.670   6.372
 2540TIP3    H1 7563   1.307   1.613   6.405
 2540TIP3    H2 7564   1.234   1.651   6.278
 2541TIP3   OH2 7565   3.517   4.735   0.263
 2541TIP3    H1 7566   3.546   4.674   0.194
 2541TIP3    H2 7567   3.533   4.821   0.225
 2542TIP3   OH2 7568   7.826   6.984   6.388
 2542TIP3    H1 7569   7.778   6.976   6.306
 2542TIP3    H2 7570   7.763   6.958   6.455
 2543TIP3   OH2 7571   5.706   5.709   3.778
 2543TIP3    H1 7572   5.669   5.624   3.755
 2543TIP3    H2 7573   5.702   5.711   3.874
 2544TIP3   OH2 7574   4.045   1.542   0.799
 2544TIP3    H1 7575   4.136   1.514   0.788
 2544TIP3    H2 7576   4.033   1.612   0.735
 2545TIP3   OH2 7577   5.366   6.777   6.453
 2545TIP3    H1 7578   5.358   6.753   6.361
 2545TIP3    H2 7579   5.421   6.856   6.452
 2546TIP3   OH2 7580   7.108   6.898   4.174
 2546TIP3    H1 7581   7.170   6.962   4.210
 2546TIP3    H2 7582   7.164   6.830   4.136
 2547TIP3   OH2 7583   7.650   2.102   2.355
 2547TIP3    H1 7584   7.667   2.065   2.269
 2547TIP3    H2 7585   7.609   2.187   2.337
 2548TIP3   OH2 7586   6.555   4.615   3.250
 2548TIP3    H1 7587   6.622   4.557   3.286
 2548TIP3    H2 7588   6.584   4.703   3.275
 2549TIP3   OH2 7589   5.931   4.491   5.390
 2549TIP3    H1 7590   5.901   4.513   5.302
 2549TIP3    H2 7591   5.981   4.567   5.418
 2550TIP3   OH2 7592   2.017   2.364   0.448
 2550TIP3    H1 7593   2.019   2.455   0.420
 2550TIP3    H2 7594   2.041   2.366   0.540
 2551TIP3   OH2 7595   0.641   4.270   2.341
 2551TIP3    H1 7596   0.652   4.215   2.419
 2551TIP3    H2 7597   0.546   4.270   2.325
 2552TIP3   OH2 7598   7.777   5.285   3.085
 2552TIP3    H1 7599   7.838   5.214   3.062
 2552TIP3    H2 7600   7.720   5.293   3.008
 2553TIP3   OH2 7601   1.987   1.317   5.308
 2553TIP3    H1 7602   1.906   1.313   5.257
 2553TIP3    H2 7603   2.049   1.364   5.253
 2554TIP3   OH2 7604   4.851   6.209   1.958
 2554TIP3    H1 7605   4.924   6.222   1.898
 2554TIP3    H2 7606   4.774   6.205   1.900
 2555TIP3   OH2 7607   6.829   7.030   2.145
 2555TIP3    H1 7608   6.827   7.056   2.237
 2555TIP3    H2 7609   6.907   6.975   2.137
 2556TIP3   OH2 7610   0.071   6.357   4.728
 2556TIP3    H1 7611   0.076   6.451   4.708
 2556TIP3    H2 7612  -0.016   6.330   4.697
 2557TIP3   OH2 7613   1.008   0.978   4.332
 2557TIP3    H1 7614   0.951   1.014   4.400
 2557TIP3    H2 7615   0.949   0.925   4.278
 2558TIP3   OH2 7616   6.338   3.217   3.008
 2558TIP3    H1 7617   6.430   3.244   3.014
 2558TIP3    H2 7618   6.342   3.128   2.974
 2559TIP3   OH2 7619   7.364   6.668   4.821
 2559TIP3    H1 7620   7.381   6.759   4.846
 2559TIP3    H2 7621   7.440   6.644   4.767
 2560TIP3   OH2 7622   3.218   6.441   3.512
 2560TIP3    H1 7623   3.164   6.505   3.559
 2560TIP3    H2 7624   3.275   6.493   3.456
 2561TIP3   OH2 7625   2.021   6.513   6.103
 2561TIP3    H1 7626   2.041   6.582   6.041
 2561TIP3    H2 7627   2.093   6.515   6.166
 2562TIP3   OH2 7628   6.598   4.647   2.486
 2562TIP3    H1 7629   6.530   4.608   2.540
 2562TIP3    H2 7630   6.570   4.631   2.396
 2563TIP3   OH2 7631   1.047   3.406   5.497
 2563TIP3    H1 7632   1.106   3.381   5.569
 2563TIP3    H2 7633   1.048   3.330   5.439
 2564TIP3   OH2 7634   7.011   1.152   1.246
 2564TIP3    H1 7635   6.916   1.142   1.252
 2564TIP3    H2 7636   7.037   1.191   1.330
 2565TIP3   OH2 7637   4.514   3.137   2.834
 2565TIP3    H1 7638   4.481   3.202   2.771
 2565TIP3    H2 7639   4.439   3.118   2.890
 2566TIP3   OH2 7640   1.852   4.728   0.308
 2566TIP3    H1 7641   1.863   4.731   0.403
 2566TIP3    H2 7642   1.768   4.772   0.292
 2567TIP3   OH2 7643   4.286   2.890   4.232
 2567TIP3    H1 7644   4.348   2.825   4.266
 2567TIP3    H2 7645   4.214   2.837   4.197
 2568TIP3   OH2 7646   0.538   1.767   2.011
 2568TIP3    H1 7647   0.607   1.748   2.075
 2568TIP3    H2 7648   0.475   1.820   2.060
 2569TIP3   OH2 7649   0.499   1.655   6.015
 2569TIP3    H1 7650   0.457   1.700   6.089
 2569TIP3    H2 7651   0.444   1.578   6.000
 2570TIP3   OH2 7652   5.493   4.189   5.428
 2570TIP3    H1 7653   5.446   4.205   5.347
 2570TIP3    H2 7654   5.532   4.273   5.452
 2571TIP3   OH2 7655   2.669   7.089   0.364
 2571TIP3    H1 7656   2.612   7.059   0.293
 2571TIP3    H2 7657   2.633   7.174   0.389
 2572TIP3   OH2 7658   3.928   4.117   1.932
 2572TIP3    H1 7659   3.908   4.126   2.025
 2572TIP3    H2 7660   4.003   4.058   1.929
 2573TIP3   OH2 7661   5.760   7.603   0.114
 2573TIP3    H1 7662   5.831   7.577   0.172
 2573TIP3    H2 7663   5.683   7.555   0.146
 2574TIP3   OH2 7664   0.892   7.062   3.251
 2574TIP3    H1 7665   0.873   7.119   3.326
 2574TIP3    H2 7666   0.979   7.090   3.221
 2575TIP3   OH2 7667   3.533   0.216   2.340
 2575TIP3    H1 7668   3.536   0.142   2.279
 2575TIP3    H2 7669   3.547   0.293   2.284
 2576TIP3   OH2 7670   2.294   5.935   3.910
 2576TIP3    H1 7671   2.304   5.879   3.833
 2576TIP3    H2 7672   2.267   6.020   3.875
 2577TIP3   OH2 7673   6.875   1.149   5.766
 2577TIP3    H1 7674   6.936   1.076   5.773
 2577TIP3    H2 7675   6.836   1.140   5.679
 2578TIP3   OH2 7676   1.396   7.376   2.739
 2578TIP3    H1 7677   1.490   7.394   2.747
 2578TIP3    H2 7678   1.390   7.281   2.739
 2579TIP3   OH2 7679   6.238   4.509   1.294
 2579TIP3    H1 7680   6.251   4.496   1.388
 2579TIP3    H2 7681   6.322   4.541   1.262
 2580TIP3   OH2 7682   1.109   0.066   1.262
 2580TIP3    H1 7683   1.178   0.010   1.227
 2580TIP3    H2 7684   1.028   0.017   1.246
 2581TIP3   OH2 7685   6.207  -0.013   2.835
 2581TIP3    H1 7686   6.273  -0.007   2.903
 2581TIP3    H2 7687   6.243   0.037   2.761
 2582TIP3   OH2 7688   5.268   2.811   4.059
 2582TIP3    H1 7689   5.254   2.752   3.985
 2582TIP3    H2 7690   5.357   2.844   4.047
 2583TIP3   OH2 7691   5.746   0.791   5.206
 2583TIP3    H1 7692   5.675   0.854   5.219
 2583TIP3    H2 7693   5.815   0.819   5.267
 2584TIP3   OH2 7694   2.053   4.387   6.236
 2584TIP3    H1 7695   2.028   4.474   6.206
 2584TIP3    H2 7696   1.977   4.355   6.283
 2585TIP3   OH2 7697   3.614   5.946   4.872
 2585TIP3    H1 7698   3.598   6.028   4.918
 2585TIP3    H2 7699   3.613   5.879   4.940
 2586TIP3   OH2 7700   0.823   4.724   2.812
 2586TIP3    H1 7701   0.843   4.682   2.728
 2586TIP3    H2 7702   0.746   4.677   2.844
 2587TIP3   OH2 7703   3.567   5.972   1.282
 2587TIP3    H1 7704   3.658   5.943   1.285
 2587TIP3    H2 7705   3.562   6.044   1.345
 2588TIP3   OH2 7706   1.005   4.885   2.913
 2588TIP3    H1 7707   1.028   4.870   3.005
 2588TIP3    H2 7708   0.943   4.815   2.892
 2589TIP3   OH2 7709   3.606   2.684   2.693
 2589TIP3    H1 7710   3.558   2.613   2.650
 2589TIP3    H2 7711   3.675   2.640   2.742
 2590TIP3   OH2 7712   7.643   0.969   6.105
 2590TIP3    H1 7713   7.593   0.920   6.170
 2590TIP3    H2 7714   7.726   0.989   6.148
 2591TIP3   OH2 7715   6.392   3.651   4.780
 2591TIP3    H1 7716   6.398   3.585   4.711
 2591TIP3    H2 7717   6.417   3.604   4.860
 2592TIP3   OH2 7718   6.832   0.829   3.103
 2592TIP3    H1 7719   6.768   0.764   3.074
 2592TIP3    H2 7720   6.794   0.868   3.182
 2593TIP3   OH2 7721   0.944   0.736   2.287
 2593TIP3    H1 7722   0.987   0.809   2.242
 2593TIP3    H2 7723   0.941   0.667   2.221
 2594TIP3   OH2 7724   7.326   0.800   6.754
 2594TIP3    H1 7725   7.398   0.861   6.765
 2594TIP3    H2 7726   7.257   0.833   6.812
 2595TIP3   OH2 7727   5.162   0.199   1.927
 2595TIP3    H1 7728   5.080   0.201   1.977
 2595TIP3    H2 7729   5.144   0.252   1.850
 2596TIP3   OH2 7730   6.543   0.095   5.964
 2596TIP3    H1 7731   6.467   0.040   5.982
 2596TIP3    H2 7732   6.592   0.047   5.897
 2597TIP3   OH2 7733   3.272   3.651   3.228
 2597TIP3    H1 7734   3.223   3.569   3.225
 2597TIP3    H2 7735   3.215   3.714   3.183
 2598TIP3   OH2 7736   5.456   1.816   6.551
 2598TIP3    H1 7737   5.483   1.875   6.622
 2598TIP3    H2 7738   5.419   1.740   6.595
 2599TIP3   OH2 7739   7.963   0.130   6.566
 2599TIP3    H1 7740   7.952   0.181   6.646
 2599TIP3    H2 7741   7.967   0.195   6.496
 2600TIP3   OH2 7742   3.038   7.667   0.051
 2600TIP3    H1 7743   2.982   7.722   0.106
 2600TIP3    H2 7744   3.126   7.702   0.064
 2601TIP3   OH2 7745   2.621   0.743   3.422
 2601TIP3    H1 7746   2.668   0.684   3.481
 2601TIP3    H2 7747   2.689   0.784   3.369
 2602TIP3   OH2 7748   3.296   3.965   0.755
 2602TIP3    H1 7749   3.215   4.015   0.766
 2602TIP3    H2 7750   3.267   3.874   0.745
 2603TIP3   OH2 7751   6.121   5.865   2.208
 2603TIP3    H1 7752   6.065   5.790   2.231
 2603TIP3    H2 7753   6.060   5.936   2.189
 2604TIP3   OH2 7754   6.458   3.756   4.073
 2604TIP3    H1 7755   6.473   3.822   4.005
 2604TIP3    H2 7756   6.529   3.770   4.135
 2605TIP3   OH2 7757   0.135   6.663   0.080
 2605TIP3    H1 7758   0.195   6.737   0.074
 2605TIP3    H2 7759   0.166   6.601   0.015
 2606TIP3   OH2 7760   4.812   2.602   0.153
 2606TIP3    H1 7761   4.889   2.590   0.097
 2606TIP3    H2 7762   4.809   2.695   0.171
 2607TIP3   OH2 7763   1.430   1.368   1.300
 2607TIP3    H1 7764   1.520   1.337   1.296
 2607TIP3    H2 7765   1.384   1.302   1.353
 2608TIP3   OH2 7766   5.635   4.692   2.331
 2608TIP3    H1 7767   5.559   4.664   2.381
 2608TIP3    H2 7768   5.618   4.662   2.242
 2609TIP3   OH2 7769   1.822   5.716   2.382
 2609TIP3    H1 7770   1.760   5.754   2.320
 2609TIP3    H2 7771   1.768   5.679   2.452
 2610TIP3   OH2 7772   7.849   5.717   6.131
 2610TIP3    H1 7773   7.842   5.628   6.163
 2610TIP3    H2 7774   7.909   5.711   6.057
 2611TIP3   OH2 7775   3.915   4.485   5.460
 2611TIP3    H1 7776   3.821   4.503   5.451
 2611TIP3    H2 7777   3.926   4.397   5.426
 2612TIP3   OH2 7778   4.758   7.275   6.731
 2612TIP3    H1 7779   4.814   7.317   6.796
 2612TIP3    H2 7780   4.687   7.338   6.717
 2613TIP3   OH2 7781   2.735   2.963   4.544
 2613TIP3    H1 7782   2.801   3.012   4.594
 2613TIP3    H2 7783   2.685   3.030   4.498
 2614TIP3   OH2 7784   0.107   4.522   2.826
 2614TIP3    H1 7785   0.080   4.593   2.884
 2614TIP3    H2 7786   0.032   4.507   2.769
 2615TIP3   OH2 7787   2.394   0.036   2.106
 2615TIP3    H1 7788   2.312   0.061   2.148
 2615TIP3    H2 7789   2.370   0.015   2.016
 2616TIP3   OH2 7790   7.444   4.509   4.378
 2616TIP3    H1 7791   7.535   4.514   4.348
 2616TIP3    H2 7792   7.409   4.431   4.335
 2617TIP3   OH2 7793   3.945   7.549   6.014
 2617TIP3    H1 7794   4.001   7.490   5.963
 2617TIP3    H2 7795   3.951   7.516   6.104
 2618TIP3   OH2 7796   4.990   3.614   0.892
 2618TIP3    H1 7797   5.081   3.585   0.887
 2618TIP3    H2 7798   4.942   3.535   0.919
 2619TIP3   OH2 7799   0.402   1.150   1.430
 2619TIP3    H1 7800   0.438   1.239   1.433
 2619TIP3    H2 7801   0.360   1.144   1.344
 2620TIP3   OH2 7802   1.849   7.668   5.288
 2620TIP3    H1 7803   1.806   7.730   5.231
 2620TIP3    H2 7804   1.900   7.722   5.349
 2621TIP3   OH2 7805   4.039   7.344   1.683
 2621TIP3    H1 7806   4.100   7.408   1.719
 2621TIP3    H2 7807   4.047   7.354   1.588
 2622TIP3   OH2 7808   0.194   2.857   0.938
 2622TIP3    H1 7809   0.258   2.804   0.986
 2622TIP3    H2 7810   0.223   2.853   0.847
 2623TIP3   OH2 7811   5.625   2.697   4.298
 2623TIP3    H1 7812   5.675   2.666   4.223
 2623TIP3    H2 7813   5.538   2.657   4.287
 2624TIP3   OH2 7814   2.268   5.450   6.052
 2624TIP3    H1 7815   2.321   5.380   6.013
 2624TIP3    H2 7816   2.278   5.523   5.991
 2625TIP3   OH2 7817   2.899   1.343   6.014
 2625TIP3    H1 7818   2.869   1.332   5.924
 2625TIP3    H2 7819   2.994   1.333   6.010
 2626TIP3   OH2 7820   2.023   1.474   2.572
 2626TIP3    H1 7821   1.955   1.524   2.618
 2626TIP3    H2 7822   2.103   1.524   2.586
 2627TIP3   OH2 7823   1.927   3.088   0.262
 2627TIP3    H1 7824   2.015   3.061   0.290
 2627TIP3    H2 7825   1.926   3.183   0.276
 2628TIP3   OH2 7826   6.742   2.532   2.778
 2628TIP3    H1 7827   6.651   2.520   2.751
 2628TIP3    H2 7828   6.751   2.626   2.792
 2629TIP3   OH2 7829   0.394   2.725   2.922
 2629TIP3    H1 7830   0.349   2.645   2.897
 2629TIP3    H2 7831   0.369   2.741   3.013
 2630TIP3   OH2 7832   3.930   6.756   0.669
 2630TIP3    H1 7833   3.928   6.739   0.575
 2630TIP3    H2 7834   3.947   6.670   0.708
 2631TIP3   OH2 7835   4.222   4.289   2.673
 2631TIP3    H1 7836   4.242   4.332   2.590
 2631TIP3    H2 7837   4.231   4.358   2.739
 2632TIP3   OH2 7838   6.614   3.235   0.030
 2632TIP3    H1 7839   6.527   3.233  -0.011
 2632TIP3    H2 7840   6.675   3.236  -0.043
 2633TIP3   OH2 7841   1.501   5.889   1.908
 2633TIP3    H1 7842   1.412   5.876   1.876
 2633TIP3    H2 7843   1.503   5.980   1.937
 2634TIP3   OH2 7844   5.854   2.388   5.011
 2634TIP3    H1 7845   5.932   2.333   5.015
 2634TIP3    H2 7846   5.828   2.400   5.103
 2635TIP3   OH2 7847   1.953   4.469   0.212
 2635TIP3    H1 7848   1.979   4.426   0.293
 2635TIP3    H2 7849   1.917   4.553   0.239
 2636TIP3   OH2 7850   1.058   1.692   5.049
 2636TIP3    H1 7851   1.070   1.743   5.129
 2636TIP3    H2 7852   1.022   1.754   4.986
 2637TIP3   OH2 7853   3.459   6.872   3.795
 2637TIP3    H1 7854   3.425   6.792   3.835
 2637TIP3    H2 7855   3.540   6.890   3.842
 2638TIP3   OH2 7856   8.216   3.589   2.690
 2638TIP3    H1 7857   8.278   3.593   2.763
 2638TIP3    H2 7858   8.256   3.645   2.623
 2639TIP3   OH2 7859   3.429   0.013   6.434
 2639TIP3    H1 7860   3.456  -0.077   6.417
 2639TIP3    H2 7861   3.424   0.019   6.529
 2640TIP3   OH2 7862   5.708   1.127   1.310
 2640TIP3    H1 7863   5.653   1.168   1.243
 2640TIP3    H2 7864   5.729   1.198   1.370
 2641TIP3   OH2 7865   2.730   2.389   2.892
 2641TIP3    H1 7866   2.712   2.351   2.978
 2641TIP3    H2 7867   2.789   2.462   2.910
 2642TIP3   OH2 7868   1.971   6.976   2.190
 2642TIP3    H1 7869   1.925   7.050   2.229
 2642TIP3    H2 7870   1.913   6.901   2.205
 2643TIP3   OH2 7871   5.575   2.550   0.325
 2643TIP3    H1 7872   5.597   2.616   0.258
 2643TIP3    H2 7873   5.540   2.476   0.275
 2644TIP3   OH2 7874   0.740   2.961   0.695
 2644TIP3    H1 7875   0.822   2.914   0.680
 2644TIP3    H2 7876   0.762   3.029   0.758
 2645TIP3   OH2 7877   7.459   6.703   0.939
 2645TIP3    H1 7878   7.401   6.702   0.862
 2645TIP3    H2 7879   7.537   6.749   0.909
 2646TIP3   OH2 7880   1.385   4.911   3.578
 2646TIP3    H1 7881   1.472   4.875   3.597
 2646TIP3    H2 7882   1.370   4.976   3.646
 2647TIP3   OH2 7883   5.661   7.749   0.696
 2647TIP3    H1 7884   5.660   7.825   0.637
 2647TIP3    H2 7885   5.633   7.676   0.640
 2648TIP3   OH2 7886   1.638   7.105   2.169
 2648TIP3    H1 7887   1.627   7.041   2.240
 2648TIP3    H2 7888   1.719   7.151   2.192
 2649TIP3   OH2 7889   6.260   0.946   2.605
 2649TIP3    H1 7890   6.323   0.990   2.662
 2649TIP3    H2 7891   6.202   0.899   2.665
 2650TIP3   OH2 7892   7.497   2.967   4.803
 2650TIP3    H1 7893   7.421   2.987   4.748
 2650TIP3    H2 7894   7.565   3.028   4.774
 2651TIP3   OH2 7895   7.917   1.572   4.979
 2651TIP3    H1 7896   7.957   1.534   5.058
 2651TIP3    H2 7897   7.866   1.500   4.941
 2652TIP3   OH2 7898   6.564   6.795   0.312
 2652TIP3    H1 7899   6.493   6.771   0.371
 2652TIP3    H2 7900   6.606   6.712   0.289
 2653TIP3   OH2 7901   0.213   4.046   4.846
 2653TIP3    H1 7902   0.226   4.000   4.763
 2653TIP3    H2 7903   0.122   4.077   4.842
 2654TIP3   OH2 7904   4.283   1.259   2.401
 2654TIP3    H1 7905   4.277   1.285   2.310
 2654TIP3    H2 7906   4.271   1.340   2.451
 2655TIP3   OH2 7907   3.326   3.995   1.056
 2655TIP3    H1 7908   3.396   3.957   1.109
 2655TIP3    H2 7909   3.363   3.999   0.968
 2656TIP3   OH2 7910   7.870   7.703   3.335
 2656TIP3    H1 7911   7.817   7.781   3.316
 2656TIP3    H2 7912   7.823   7.658   3.405
 2657TIP3   OH2 7913   8.196   7.695   6.228
 2657TIP3    H1 7914   8.205   7.609   6.187
 2657TIP3    H2 7915   8.139   7.679   6.304
 2658TIP3   OH2 7916   2.134   0.952   1.428
 2658TIP3    H1 7917   2.137   0.986   1.339
 2658TIP3    H2 7918   2.196   1.006   1.477
 2659TIP3   OH2 7919   3.678   5.210   5.460
 2659TIP3    H1 7920   3.635   5.126   5.479
 2659TIP3    H2 7921   3.623   5.275   5.505
 2660TIP3   OH2 7922   0.512   1.047   0.213
 2660TIP3    H1 7923   0.551   0.964   0.240
 2660TIP3    H2 7924   0.524   1.105   0.288
 2661TIP3   OH2 7925   6.244   7.000   2.437
 2661TIP3    H1 7926   6.310   6.957   2.492
 2661TIP3    H2 7927   6.293   7.036   2.364
 2662TIP3   OH2 7928   3.062   6.331   5.415
 2662TIP3    H1 7929   2.972   6.316   5.385
 2662TIP3    H2 7930   3.062   6.300   5.505
 2663TIP3   OH2 7931   4.667   0.291   5.943
 2663TIP3    H1 7932   4.624   0.206   5.954
 2663TIP3    H2 7933   4.755   0.278   5.980
 2664TIP3   OH2 7934   7.338   2.030   3.709
 2664TIP3    H1 7935   7.262   2.085   3.725
 2664TIP3    H2 7936   7.302   1.942   3.699
 2665TIP3   OH2 7937   7.677   0.863   4.488
 2665TIP3    H1 7938   7.652   0.876   4.580
 2665TIP3    H2 7939   7.762   0.906   4.479
 2666TIP3   OH2 7940   1.800   6.631   0.035
 2666TIP3    H1 7941   1.709   6.641   0.007
 2666TIP3    H2 7942   1.838   6.718   0.023
 2667TIP3   OH2 7943   6.868   5.440   1.091
 2667TIP3    H1 7944   6.915   5.499   1.032
 2667TIP3    H2 7945   6.867   5.486   1.175
 2668TIP3   OH2 7946   3.442   0.652   3.137
 2668TIP3    H1 7947   3.506   0.722   3.127
 2668TIP3    H2 7948   3.453   0.621   3.226
 2669TIP3   OH2 7949   6.683   3.904   1.990
 2669TIP3    H1 7950   6.754   3.943   1.939
 2669TIP3    H2 7951   6.616   3.973   1.995
 2670TIP3   OH2 7952   1.143   6.742   6.528
 2670TIP3    H1 7953   1.181   6.767   6.612
 2670TIP3    H2 7954   1.210   6.685   6.487
 2671TIP3   OH2 7955   7.342   2.791   0.369
 2671TIP3    H1 7956   7.271   2.728   0.365
 2671TIP3    H2 7957   7.370   2.790   0.460
 2672TIP3   OH2 7958   6.406   6.673   3.419
 2672TIP3    H1 7959   6.416   6.688   3.513
 2672TIP3    H2 7960   6.334   6.610   3.412
 2673TIP3   OH2 7961   4.439   1.613   2.460
 2673TIP3    H1 7962   4.435   1.546   2.391
 2673TIP3    H2 7963   4.527   1.604   2.497
 2674TIP3   OH2 7964   4.805   1.504   5.184
 2674TIP3    H1 7965   4.886   1.457   5.205
 2674TIP3    H2 7966   4.795   1.493   5.089
 2675TIP3   OH2 7967   1.970   7.053   4.717
 2675TIP3    H1 7968   2.026   7.037   4.793
 2675TIP3    H2 7969   1.910   7.122   4.746
 2676TIP3   OH2 7970   3.238   5.129   6.762
 2676TIP3    H1 7971   3.156   5.090   6.732
 2676TIP3    H2 7972   3.236   5.119   6.857
 2677TIP3   OH2 7973   6.427   2.767   1.741
 2677TIP3    H1 7974   6.490   2.810   1.799
 2677TIP3    H2 7975   6.347   2.818   1.750
 2678TIP3   OH2 7976   1.575   6.719   1.676
 2678TIP3    H1 7977   1.624   6.644   1.641
 2678TIP3    H2 7978   1.632   6.794   1.660
 2679TIP3   OH2 7979   7.808   5.276   4.418
 2679TIP3    H1 7980   7.770   5.214   4.481
 2679TIP3    H2 7981   7.882   5.230   4.379
 2680TIP3   OH2 7982   3.375   0.916   1.117
 2680TIP3    H1 7983   3.419   0.997   1.090
 2680TIP3    H2 7984   3.288   0.922   1.079
 2681TIP3   OH2 7985   1.273   6.203   5.452
 2681TIP3    H1 7986   1.274   6.205   5.356
 2681TIP3    H2 7987   1.316   6.284   5.478
 2682TIP3   OH2 7988   3.603   0.701   5.590
 2682TIP3    H1 7989   3.528   0.682   5.647
 2682TIP3    H2 7990   3.663   0.752   5.645
 2683TIP3   OH2 7991   7.617   0.686   1.087
 2683TIP3    H1 7992   7.687   0.751   1.091
 2683TIP3    H2 7993   7.630   0.643   1.003
 2684TIP3   OH2 7994   1.972   0.578   4.658
 2684TIP3    H1 7995   1.927   0.657   4.628
 2684TIP3    H2 7996   1.911   0.536   4.719
 2685TIP3   OH2 7997   7.448   4.576   3.091
 2685TIP3    H1 7998   7.449   4.520   3.014
 2685TIP3    H2 7999   7.486   4.522   3.161
 2686TIP3   OH2 8000   1.889   5.493   4.765
 2686TIP3    H1 8001   1.814   5.527   4.718
 2686TIP3    H2 8002   1.943   5.570   4.784
 2687TIP3   OH2 8003   7.276   2.268   3.157
 2687TIP3    H1 8004   7.228   2.213   3.219
 2687TIP3    H2 8005   7.207   2.313   3.107
 2688TIP3   OH2 8006   7.687   5.669   2.711
 2688TIP3    H1 8007   7.609   5.670   2.655
 2688TIP3    H2 8008   7.747   5.610   2.667
 2689TIP3   OH2 8009   3.314   7.525   6.739
 2689TIP3    H1 8010   3.277   7.440   6.763
 2689TIP3    H2 8011   3.249   7.564   6.680
 2690TIP3   OH2 8012   5.240   4.134   2.289
 2690TIP3    H1 8013   5.197   4.113   2.372
 2690TIP3    H2 8014   5.326   4.168   2.314
 2691TIP3   OH2 8015   4.163   1.186   5.563
 2691TIP3    H1 8016   4.182   1.096   5.539
 2691TIP3    H2 8017   4.220   1.239   5.508
 2692TIP3   OH2 8018   1.296   4.313   1.321
 2692TIP3    H1 8019   1.332   4.399   1.299
 2692TIP3    H2 8020   1.360   4.275   1.380
 2693TIP3   OH2 8021   0.823   7.218   2.081
 2693TIP3    H1 8022   0.770   7.157   2.132
 2693TIP3    H2 8023   0.823   7.181   1.993
 2694TIP3   OH2 8024   2.901   1.690   3.937
 2694TIP3    H1 8025   2.959   1.615   3.927
 2694TIP3    H2 8026   2.914   1.720   4.027
 2695TIP3   OH2 8027   4.636   2.247   1.960
 2695TIP3    H1 8028   4.577   2.237   1.885
 2695TIP3    H2 8029   4.722   2.264   1.920
 2696TIP3   OH2 8030   1.826   5.635   3.150
 2696TIP3    H1 8031   1.772   5.666   3.077
 2696TIP3    H2 8032   1.792   5.681   3.227
 2697TIP3   OH2 8033   3.971   4.133   0.929
 2697TIP3    H1 8034   4.048   4.191   0.931
 2697TIP3    H2 8035   4.002   4.052   0.970
 2698TIP3   OH2 8036   7.356   5.949   2.072
 2698TIP3    H1 8037   7.451   5.952   2.085
 2698TIP3    H2 8038   7.331   6.041   2.062
 2699TIP3   OH2 8039   3.891   0.476   2.287
 2699TIP3    H1 8040   3.944   0.494   2.209
 2699TIP3    H2 8041   3.948   0.425   2.344
 2700TIP3   OH2 8042   0.472   4.521   1.888
 2700TIP3    H1 8043   0.434   4.437   1.911
 2700TIP3    H2 8044   0.475   4.570   1.970
 2701TIP3   OH2 8045   3.424   6.926   2.410
 2701TIP3    H1 8046   3.370   6.859   2.367
 2701TIP3    H2 8047   3.370   7.004   2.411
 2702TIP3   OH2 8048   0.282   7.051   3.833
 2702TIP3    H1 8049   0.243   7.098   3.907
 2702TIP3    H2 8050   0.373   7.080   3.833
 2703TIP3   OH2 8051   1.364   3.779   1.020
 2703TIP3    H1 8052   1.453   3.776   0.985
 2703TIP3    H2 8053   1.358   3.864   1.063
 2704TIP3   OH2 8054   8.016   3.806   5.374
 2704TIP3    H1 8055   8.039   3.897   5.391
 2704TIP3    H2 8056   7.952   3.811   5.303
 2705TIP3   OH2 8057   1.776   3.553   2.166
 2705TIP3    H1 8058   1.684   3.535   2.145
 2705TIP3    H2 8059   1.825   3.487   2.116
 2706TIP3   OH2 8060   4.382   6.410   6.287
 2706TIP3    H1 8061   4.410   6.432   6.198
 2706TIP3    H2 8062   4.303   6.462   6.300
 2707TIP3   OH2 8063   5.506   4.644   4.140
 2707TIP3    H1 8064   5.446   4.598   4.199
 2707TIP3    H2 8065   5.452   4.668   4.065
 2708TIP3   OH2 8066   3.425   4.777   5.657
 2708TIP3    H1 8067   3.494   4.780   5.723
 2708TIP3    H2 8068   3.344   4.787   5.706
 2709TIP3   OH2 8069   3.152   4.902   2.045
 2709TIP3    H1 8070   3.185   4.926   2.131
 2709TIP3    H2 8071   3.218   4.934   1.984
 2710TIP3   OH2 8072   0.854   2.278   2.656
 2710TIP3    H1 8073   0.923   2.292   2.591
 2710TIP3    H2 8074   0.837   2.365   2.692
 2711TIP3   OH2 8075   6.270   4.949   2.117
 2711TIP3    H1 8076   6.231   5.028   2.079
 2711TIP3    H2 8077   6.255   4.957   2.211
 2712TIP3   OH2 8078   1.685   1.093   4.877
 2712TIP3    H1 8079   1.776   1.065   4.879
 2712TIP3    H2 8080   1.635   1.013   4.897
 2713TIP3   OH2 8081   4.595   4.098   1.052
 2713TIP3    H1 8082   4.565   4.045   0.978
 2713TIP3    H2 8083   4.616   4.183   1.013
 2714TIP3   OH2 8084   2.680   6.578   4.569
 2714TIP3    H1 8085   2.602   6.603   4.519
 2714TIP3    H2 8086   2.751   6.630   4.529
 2715TIP3   OH2 8087   3.587   5.687   0.376
 2715TIP3    H1 8088   3.593   5.746   0.452
 2715TIP3    H2 8089   3.561   5.603   0.413
 2716TIP3   OH2 8090   7.393   2.369   5.308
 2716TIP3    H1 8091   7.487   2.355   5.306
 2716TIP3    H2 8092   7.381   2.443   5.368
 2717TIP3   OH2 8093   4.921   0.072   2.725
 2717TIP3    H1 8094   4.857   0.120   2.673
 2717TIP3    H2 8095   4.996   0.063   2.667
 2718TIP3   OH2 8096   5.265   7.449   0.499
 2718TIP3    H1 8097   5.300   7.537   0.511
 2718TIP3    H2 8098   5.302   7.398   0.571
 2719TIP3   OH2 8099   0.015   6.959   3.267
 2719TIP3    H1 8100   0.056   6.911   3.338
 2719TIP3    H2 8101   0.007   7.048   3.300
 2720TIP3   OH2 8102   2.894   5.020   1.459
 2720TIP3    H1 8103   2.812   5.059   1.488
 2720TIP3    H2 8104   2.869   4.934   1.426
 2721TIP3   OH2 8105   2.012   3.079   4.183
 2721TIP3    H1 8106   1.933   3.049   4.137
 2721TIP3    H2 8107   1.979   3.121   4.262
 2722TIP3   OH2 8108   5.199   0.128   0.199
 2722TIP3    H1 8109   5.245   0.046   0.182
 2722TIP3    H2 8110   5.263   0.196   0.177
 2723TIP3   OH2 8111   0.075   3.280   3.111
 2723TIP3    H1 8112   0.120   3.299   3.029
 2723TIP3    H2 8113   0.032   3.196   3.096
 2724TIP3   OH2 8114   5.049   2.970   5.894
 2724TIP3    H1 8115   5.054   2.996   5.986
 2724TIP3    H2 8116   4.976   2.908   5.890
 2725TIP3   OH2 8117   7.730   6.496   0.858
 2725TIP3    H1 8118   7.737   6.402   0.876
 2725TIP3    H2 8119   7.689   6.532   0.937
 2726TIP3   OH2 8120   0.178   0.652   2.054
 2726TIP3    H1 8121   0.106   0.674   2.113
 2726TIP3    H2 8122   0.256   0.690   2.095
 2727TIP3   OH2 8123   7.153   0.168   4.846
 2727TIP3    H1 8124   7.241   0.131   4.844
 2727TIP3    H2 8125   7.161   0.253   4.804
 2728TIP3   OH2 8126   1.800   4.373   5.610
 2728TIP3    H1 8127   1.833   4.439   5.672
 2728TIP3    H2 8128   1.804   4.291   5.658
 2729TIP3   OH2 8129   4.785   2.706   1.877
 2729TIP3    H1 8130   4.728   2.758   1.821
 2729TIP3    H2 8131   4.773   2.744   1.965
 2730TIP3   OH2 8132   7.957   2.179   4.710
 2730TIP3    H1 8133   7.900   2.248   4.677
 2730TIP3    H2 8134   7.943   2.106   4.649
 2731TIP3   OH2 8135   5.344   6.545   2.467
 2731TIP3    H1 8136   5.358   6.597   2.546
 2731TIP3    H2 8137   5.298   6.467   2.498
 2732TIP3   OH2 8138   8.154   3.344   0.240
 2732TIP3    H1 8139   8.129   3.435   0.255
 2732TIP3    H2 8140   8.108   3.295   0.309
 2733TIP3   OH2 8141   5.918   3.868   3.976
 2733TIP3    H1 8142   5.846   3.861   3.913
 2733TIP3    H2 8143   5.904   3.794   4.035
 2734TIP3   OH2 8144   6.095   3.248   0.792
 2734TIP3    H1 8145   6.169   3.191   0.770
 2734TIP3    H2 8146   6.135   3.325   0.831
 2735TIP3   OH2 8147   6.110   1.760   4.251
 2735TIP3    H1 8148   6.162   1.689   4.213
 2735TIP3    H2 8149   6.170   1.803   4.312
 2736TIP3   OH2 8150   7.521   2.749   0.152
 2736TIP3    H1 8151   7.593   2.702   0.193
 2736TIP3    H2 8152   7.473   2.788   0.225
 2737TIP3   OH2 8153   4.068   5.941   1.329
 2737TIP3    H1 8154   3.982   5.900   1.331
 2737TIP3    H2 8155   4.074   5.988   1.413
 2738TIP3   OH2 8156   6.105   1.573   5.391
 2738TIP3    H1 8157   6.168   1.510   5.426
 2738TIP3    H2 8158   6.069   1.531   5.313
 2739TIP3   OH2 8159   4.704   7.131   2.364
 2739TIP3    H1 8160   4.690   7.226   2.371
 2739TIP3    H2 8161   4.618   7.093   2.381
 2740TIP3   OH2 8162   5.255   2.441   4.024
 2740TIP3    H1 8163   5.230   2.492   4.102
 2740TIP3    H2 8164   5.184   2.458   3.962
 2741TIP3   OH2 8165   5.853   1.995   6.454
 2741TIP3    H1 8166   5.800   1.998   6.375
 2741TIP3    H2 8167   5.940   2.021   6.425
 2742TIP3   OH2 8168   5.391   1.747   6.134
 2742TIP3    H1 8169   5.369   1.654   6.132
 2742TIP3    H2 8170   5.388   1.775   6.043
 2743TIP3   OH2 8171   1.003   2.624   4.334
 2743TIP3    H1 8172   1.045   2.571   4.266
 2743TIP3    H2 8173   1.028   2.582   4.416
 2744TIP3   OH2 8174   6.434   2.228   2.741
 2744TIP3    H1 8175   6.402   2.147   2.701
 2744TIP3    H2 8176   6.516   2.246   2.696
 2745TIP3   OH2 8177   2.613   3.104   0.552
 2745TIP3    H1 8178   2.644   3.054   0.476
 2745TIP3    H2 8179   2.635   3.051   0.627
 2746TIP3   OH2 8180   6.610   4.673   2.214
 2746TIP3    H1 8181   6.703   4.654   2.200
 2746TIP3    H2 8182   6.577   4.693   2.126
 2747TIP3   OH2 8183   6.942   5.169   1.113
 2747TIP3    H1 8184   6.907   5.258   1.116
 2747TIP3    H2 8185   6.866   5.114   1.094
 2748TIP3   OH2 8186   6.355   1.359   0.539
 2748TIP3    H1 8187   6.301   1.316   0.605
 2748TIP3    H2 8188   6.421   1.293   0.515
 2749TIP3   OH2 8189   2.902   0.561   5.643
 2749TIP3    H1 8190   2.917   0.535   5.734
 2749TIP3    H2 8191   2.918   0.481   5.593
 2750TIP3   OH2 8192   7.648   0.828   3.848
 2750TIP3    H1 8193   7.740   0.830   3.820
 2750TIP3    H2 8194   7.647   0.766   3.921
 2751TIP3   OH2 8195   3.515   4.498   3.009
 2751TIP3    H1 8196   3.462   4.477   3.086
 2751TIP3    H2 8197   3.598   4.451   3.024
 2752TIP3   OH2 8198   1.190   6.044   6.028
 2752TIP3    H1 8199   1.280   6.052   6.058
 2752TIP3    H2 8200   1.148   5.988   6.093
 2753TIP3   OH2 8201   7.845   1.825   4.264
 2753TIP3    H1 8202   7.933   1.850   4.293
 2753TIP3    H2 8203   7.788   1.893   4.301
 2754TIP3   OH2 8204   3.791   5.656   2.518
 2754TIP3    H1 8205   3.839   5.601   2.580
 2754TIP3    H2 8206   3.766   5.733   2.570
 2755TIP3   OH2 8207   5.917   6.941   4.754
 2755TIP3    H1 8208   5.911   6.944   4.659
 2755TIP3    H2 8209   5.868   6.863   4.779
 2756TIP3   OH2 8210   3.437   4.793   0.708
 2756TIP3    H1 8211   3.509   4.833   0.658
 2756TIP3    H2 8212   3.478   4.719   0.753
 2757TIP3   OH2 8213   2.481   0.896   6.432
 2757TIP3    H1 8214   2.469   0.816   6.380
 2757TIP3    H2 8215   2.567   0.884   6.473
 2758TIP3   OH2 8216   1.048   3.239   0.997
 2758TIP3    H1 8217   0.972   3.239   1.055
 2758TIP3    H2 8218   1.062   3.332   0.976
 2759TIP3   OH2 8219   6.335   2.131   4.616
 2759TIP3    H1 8220   6.388   2.183   4.676
 2759TIP3    H2 8221   6.341   2.176   4.532
 2760TIP3   OH2 8222   3.153   6.821   1.742
 2760TIP3    H1 8223   3.097   6.758   1.789
 2760TIP3    H2 8224   3.212   6.766   1.690
 2761TIP3   OH2 8225   5.453   0.334   2.620
 2761TIP3    H1 8226   5.539   0.306   2.590
 2761TIP3    H2 8227   5.394   0.265   2.589
 2762TIP3   OH2 8228   7.651   3.347   4.144
 2762TIP3    H1 8229   7.558   3.356   4.125
 2762TIP3    H2 8230   7.681   3.437   4.161
 2763TIP3   OH2 8231   6.014   0.421   6.401
 2763TIP3    H1 8232   5.974   0.441   6.485
 2763TIP3    H2 8233   5.941   0.419   6.339
 2764TIP3   OH2 8234   0.908   0.909   1.617
 2764TIP3    H1 8235   0.930   0.934   1.707
 2764TIP3    H2 8236   0.891   0.993   1.573
 2765TIP3   OH2 8237   7.922   4.480   0.446
 2765TIP3    H1 8238   7.999   4.432   0.415
 2765TIP3    H2 8239   7.848   4.423   0.424
 2766TIP3   OH2 8240   1.351   1.360   6.221
 2766TIP3    H1 8241   1.332   1.293   6.155
 2766TIP3    H2 8242   1.271   1.367   6.273
 2767TIP3   OH2 8243   2.171   7.411   1.432
 2767TIP3    H1 8244   2.191   7.382   1.521
 2767TIP3    H2 8245   2.132   7.497   1.444
 2768TIP3   OH2 8246   3.426   3.068   5.797
 2768TIP3    H1 8247   3.388   3.150   5.765
 2768TIP3    H2 8248   3.359   3.002   5.781
 2769TIP3   OH2 8249   3.057   1.584   0.537
 2769TIP3    H1 8250   3.141   1.597   0.493
 2769TIP3    H2 8251   2.992   1.590   0.467
 2770TIP3   OH2 8252   7.046   6.680   6.008
 2770TIP3    H1 8253   6.962   6.635   6.016
 2770TIP3    H2 8254   7.103   6.616   5.965
 2771TIP3   OH2 8255   5.938   5.094   3.537
 2771TIP3    H1 8256   6.030   5.069   3.524
 2771TIP3    H2 8257   5.903   5.025   3.593
 2772TIP3   OH2 8258   7.934   6.729   2.242
 2772TIP3    H1 8259   7.941   6.825   2.245
 2772TIP3    H2 8260   7.869   6.712   2.174
 2773TIP3   OH2 8261   8.074   3.571   6.442
 2773TIP3    H1 8262   8.059   3.516   6.518
 2773TIP3    H2 8263   8.167   3.594   6.445
 2774TIP3   OH2 8264   7.013   3.097   2.843
 2774TIP3    H1 8265   6.927   3.122   2.809
 2774TIP3    H2 8266   7.075   3.145   2.788
 2775TIP3   OH2 8267   2.021   1.723   2.755
 2775TIP3    H1 8268   1.931   1.698   2.732
 2775TIP3    H2 8269   2.045   1.787   2.688
 2776TIP3   OH2 8270   1.067  -0.008   2.381
 2776TIP3    H1 8271   1.157   0.023   2.366
 2776TIP3    H2 8272   1.048   0.014   2.472
 2777TIP3   OH2 8273   5.033   3.406   0.628
 2777TIP3    H1 8274   4.978   3.335   0.662
 2777TIP3    H2 8275   5.111   3.405   0.682
 2778TIP3   OH2 8276   0.365   0.979   5.544
 2778TIP3    H1 8277   0.343   1.006   5.455
 2778TIP3    H2 8278   0.287   0.932   5.574
 2779TIP3   OH2 8279   5.337   7.807   2.533
 2779TIP3    H1 8280   5.432   7.808   2.526
 2779TIP3    H2 8281   5.311   7.723   2.495
 2780TIP3   OH2 8282   8.004   0.792   2.256
 2780TIP3    H1 8283   8.036   0.878   2.232
 2780TIP3    H2 8284   7.918   0.785   2.216
 2781TIP3   OH2 8285   3.312   4.987   4.856
 2781TIP3    H1 8286   3.396   4.958   4.820
 2781TIP3    H2 8287   3.323   4.981   4.951
 2782TIP3   OH2 8288   7.113   3.730   5.030
 2782TIP3    H1 8289   7.193   3.780   5.011
 2782TIP3    H2 8290   7.119   3.712   5.124
 2783TIP3   OH2 8291   7.530   2.802   5.650
 2783TIP3    H1 8292   7.552   2.889   5.683
 2783TIP3    H2 8293   7.551   2.743   5.722
 2784TIP3   OH2 8294   3.236   7.634   2.743
 2784TIP3    H1 8295   3.294   7.708   2.761
 2784TIP3    H2 8296   3.225   7.635   2.647
 2785TIP3   OH2 8297   2.848   0.680   0.644
 2785TIP3    H1 8298   2.901   0.757   0.622
 2785TIP3    H2 8299   2.912   0.612   0.665
 2786TIP3   OH2 8300   8.240   0.690   0.594
 2786TIP3    H1 8301   8.192   0.664   0.673
 2786TIP3    H2 8302   8.173   0.692   0.526
 2787TIP3   OH2 8303   3.900   4.265   4.891
 2787TIP3    H1 8304   3.915   4.272   4.797
 2787TIP3    H2 8305   3.909   4.171   4.910
 2788TIP3   OH2 8306   1.223   1.901   6.502
 2788TIP3    H1 8307   1.241   1.826   6.445
 2788TIP3    H2 8308   1.308   1.942   6.515
 2789TIP3   OH2 8309   4.360   4.419   3.391
 2789TIP3    H1 8310   4.434   4.365   3.420
 2789TIP3    H2 8311   4.394   4.509   3.391
 2790TIP3   OH2 8312   3.845   0.816   2.566
 2790TIP3    H1 8313   3.850   0.724   2.593
 2790TIP3    H2 8314   3.817   0.862   2.644
 2791TIP3   OH2 8315   6.631   7.502   3.909
 2791TIP3    H1 8316   6.596   7.430   3.960
 2791TIP3    H2 8317   6.681   7.554   3.971
 2792TIP3   OH2 8318   2.849   7.316   0.913
 2792TIP3    H1 8319   2.836   7.262   0.835
 2792TIP3    H2 8320   2.791   7.391   0.900
 2793TIP3   OH2 8321   3.439   3.444   1.490
 2793TIP3    H1 8322   3.418   3.526   1.444
 2793TIP3    H2 8323   3.368   3.385   1.466
 2794TIP3   OH2 8324   4.157   6.975   2.587
 2794TIP3    H1 8325   4.234   7.008   2.633
 2794TIP3    H2 8326   4.140   6.890   2.628
 2795TIP3   OH2 8327   0.816   0.494   0.113
 2795TIP3    H1 8328   0.742   0.555   0.124
 2795TIP3    H2 8329   0.791   0.440   0.037
 2796TIP3   OH2 8330   3.255   1.045   0.300
 2796TIP3    H1 8331   3.315   1.045   0.375
 2796TIP3    H2 8332   3.179   0.996   0.330
 2797TIP3   OH2 8333   7.504   7.415   6.373
 2797TIP3    H1 8334   7.433   7.478   6.381
 2797TIP3    H2 8335   7.584   7.467   6.386
 2798TIP3   OH2 8336   1.892   5.005   2.117
 2798TIP3    H1 8337   1.983   5.009   2.088
 2798TIP3    H2 8338   1.857   4.927   2.074
 2799TIP3   OH2 8339   1.434   5.479   6.615
 2799TIP3    H1 8340   1.504   5.418   6.638
 2799TIP3    H2 8341   1.468   5.527   6.539
 2800TIP3   OH2 8342   6.412   4.019   2.466
 2800TIP3    H1 8343   6.352   3.991   2.535
 2800TIP3    H2 8344   6.355   4.053   2.397
 2801TIP3   OH2 8345   6.878   5.517   3.073
 2801TIP3    H1 8346   6.967   5.482   3.067
 2801TIP3    H2 8347   6.889   5.611   3.085
 2802TIP3   OH2 8348   3.575   6.079   0.461
 2802TIP3    H1 8349   3.508   6.051   0.398
 2802TIP3    H2 8350   3.575   6.009   0.527
 2803TIP3   OH2 8351   0.826   0.954   2.419
 2803TIP3    H1 8352   0.738   0.962   2.381
 2803TIP3    H2 8353   0.875   0.901   2.357
 2804TIP3   OH2 8354   1.217   5.073   4.448
 2804TIP3    H1 8355   1.160   5.131   4.397
 2804TIP3    H2 8356   1.220   5.113   4.535
 2805TIP3   OH2 8357   0.718   4.424   3.585
 2805TIP3    H1 8358   0.716   4.519   3.570
 2805TIP3    H2 8359   0.797   4.409   3.636
 2806TIP3   OH2 8360   6.484   0.814   5.270
 2806TIP3    H1 8361   6.501   0.729   5.310
 2806TIP3    H2 8362   6.542   0.874   5.316
 2807TIP3   OH2 8363   1.142   3.002   4.104
 2807TIP3    H1 8364   1.229   2.964   4.097
 2807TIP3    H2 8365   1.106   2.964   4.184
 2808TIP3   OH2 8366   5.672   1.337   5.304
 2808TIP3    H1 8367   5.579   1.357   5.316
 2808TIP3    H2 8368   5.673   1.249   5.267
 2809TIP3   OH2 8369   4.284   6.729   5.076
 2809TIP3    H1 8370   4.298   6.817   5.042
 2809TIP3    H2 8371   4.226   6.688   5.012
 2810TIP3   OH2 8372   6.438   4.872   3.075
 2810TIP3    H1 8373   6.381   4.830   3.011
 2810TIP3    H2 8374   6.464   4.954   3.034
 2811TIP3   OH2 8375   6.564   2.942   3.856
 2811TIP3    H1 8376   6.514   2.988   3.923
 2811TIP3    H2 8377   6.654   2.939   3.890
 2812TIP3   OH2 8378   4.160   7.580   0.876
 2812TIP3    H1 8379   4.228   7.526   0.917
 2812TIP3    H2 8380   4.208   7.640   0.820
 2813TIP3   OH2 8381   0.961   3.108   6.000
 2813TIP3    H1 8382   0.980   3.088   6.091
 2813TIP3    H2 8383   0.932   3.026   5.961
 2814TIP3   OH2 8384   3.634   0.023   2.761
 2814TIP3    H1 8385   3.599   0.112   2.750
 2814TIP3    H2 8386   3.600  -0.025   2.684
 2815TIP3   OH2 8387   6.343   3.278   0.281
 2815TIP3    H1 8388   6.356   3.322   0.365
 2815TIP3    H2 8389   6.417   3.218   0.273
 2816TIP3   OH2 8390   3.837   1.369   4.336
 2816TIP3    H1 8391   3.932   1.374   4.322
 2816TIP3    H2 8392   3.801   1.443   4.288
 2817TIP3   OH2 8393   5.958   1.599   1.174
 2817TIP3    H1 8394   5.994   1.572   1.089
 2817TIP3    H2 8395   5.917   1.684   1.157
 2818TIP3   OH2 8396   1.418   0.933   0.280
 2818TIP3    H1 8397   1.387   0.850   0.317
 2818TIP3    H2 8398   1.445   0.911   0.191
 2819TIP3   OH2 8399   3.216   4.417   0.925
 2819TIP3    H1 8400   3.161   4.355   0.974
 2819TIP3    H2 8401   3.304   4.382   0.933
 2820TIP3   OH2 8402   7.374   1.216   6.385
 2820TIP3    H1 8403   7.379   1.189   6.293
 2820TIP3    H2 8404   7.286   1.252   6.395
 2821TIP3   OH2 8405   3.683   0.674   1.037
 2821TIP3    H1 8406   3.695   0.696   0.945
 2821TIP3    H2 8407   3.772   0.674   1.073
 2822TIP3   OH2 8408   5.394   4.163   0.522
 2822TIP3    H1 8409   5.456   4.230   0.495
 2822TIP3    H2 8410   5.428   4.082   0.483
 2823TIP3   OH2 8411   4.700   2.166   4.263
 2823TIP3    H1 8412   4.679   2.081   4.303
 2823TIP3    H2 8413   4.616   2.213   4.260
 2824TIP3   OH2 8414   7.630   3.879   3.420
 2824TIP3    H1 8415   7.686   3.938   3.472
 2824TIP3    H2 8416   7.595   3.935   3.351
 2825TIP3   OH2 8417   8.170   4.359   5.397
 2825TIP3    H1 8418   8.137   4.428   5.455
 2825TIP3    H2 8419   8.154   4.278   5.444
 2826TIP3   OH2 8420   2.048   1.388   3.491
 2826TIP3    H1 8421   2.035   1.469   3.540
 2826TIP3    H2 8422   1.997   1.400   3.411
 2827TIP3   OH2 8423   6.894   4.793   3.024
 2827TIP3    H1 8424   6.873   4.718   3.079
 2827TIP3    H2 8425   6.957   4.843   3.076
 2828TIP3   OH2 8426   1.464   0.047   1.179
 2828TIP3    H1 8427   1.419  -0.036   1.194
 2828TIP3    H2 8428   1.469   0.088   1.265
 2829TIP3   OH2 8429   2.237   1.197   4.896
 2829TIP3    H1 8430   2.322   1.158   4.876
 2829TIP3    H2 8431   2.201   1.142   4.967
 2830TIP3   OH2 8432   3.154   7.015   3.409
 2830TIP3    H1 8433   3.064   7.021   3.440
 2830TIP3    H2 8434   3.200   7.085   3.455
 2831TIP3   OH2 8435   5.945   3.712   2.810
 2831TIP3    H1 8436   5.917   3.798   2.839
 2831TIP3    H2 8437   6.041   3.714   2.815
 2832TIP3   OH2 8438   5.189   3.927   2.110
 2832TIP3    H1 8439   5.207   3.952   2.019
 2832TIP3    H2 8440   5.207   4.006   2.161
 2833TIP3   OH2 8441   1.525   4.698   2.319
 2833TIP3    H1 8442   1.579   4.777   2.310
 2833TIP3    H2 8443   1.450   4.725   2.372
 2834TIP3   OH2 8444   6.635   2.035   6.363
 2834TIP3    H1 8445   6.697   2.088   6.313
 2834TIP3    H2 8446   6.576   1.999   6.297
 2835TIP3   OH2 8447   1.173   2.020   0.587
 2835TIP3    H1 8448   1.180   2.099   0.534
 2835TIP3    H2 8449   1.108   1.966   0.541
 2836TIP3   OH2 8450   1.080   6.680   1.683
 2836TIP3    H1 8451   1.042   6.631   1.609
 2836TIP3    H2 8452   1.158   6.630   1.707
 2837TIP3   OH2 8453   0.767   1.534   5.227
 2837TIP3    H1 8454   0.702   1.603   5.219
 2837TIP3    H2 8455   0.779   1.524   5.322
 2838TIP3   OH2 8456   6.577   6.380   5.770
 2838TIP3    H1 8457   6.509   6.445   5.752
 2838TIP3    H2 8458   6.658   6.420   5.737
 2839TIP3   OH2 8459   0.710   5.950   2.235
 2839TIP3    H1 8460   0.617   5.947   2.258
 2839TIP3    H2 8461   0.756   5.941   2.319
 2840TIP3   OH2 8462   7.311   4.804   1.908
 2840TIP3    H1 8463   7.287   4.838   1.822
 2840TIP3    H2 8464   7.236   4.825   1.964
 2841TIP3   OH2 8465   4.547   4.818   1.103
 2841TIP3    H1 8466   4.462   4.805   1.144
 2841TIP3    H2 8467   4.534   4.793   1.012
 2842TIP3   OH2 8468   7.597   5.839   6.397
 2842TIP3    H1 8469   7.521   5.897   6.399
 2842TIP3    H2 8470   7.670   5.897   6.375
 2843TIP3   OH2 8471   0.617   4.734   3.519
 2843TIP3    H1 8472   0.549   4.727   3.587
 2843TIP3    H2 8473   0.570   4.720   3.437
 2844TIP3   OH2 8474   4.487   7.443   4.572
 2844TIP3    H1 8475   4.457   7.362   4.613
 2844TIP3    H2 8476   4.425   7.510   4.601
 2845TIP3   OH2 8477   6.153   1.860   1.153
 2845TIP3    H1 8478   6.214   1.930   1.130
 2845TIP3    H2 8479   6.076   1.907   1.188
 2846TIP3   OH2 8480   5.090   7.562   5.349
 2846TIP3    H1 8481   5.027   7.602   5.408
 2846TIP3    H2 8482   5.043   7.555   5.265
 2847TIP3   OH2 8483   0.727   5.193   5.063
 2847TIP3    H1 8484   0.771   5.201   5.147
 2847TIP3    H2 8485   0.785   5.237   5.001
 2848TIP3   OH2 8486   2.637   7.482   6.744
 2848TIP3    H1 8487   2.627   7.477   6.839
 2848TIP3    H2 8488   2.640   7.575   6.724
 2849TIP3   OH2 8489   8.055   1.443   0.143
 2849TIP3    H1 8490   8.076   1.376   0.078
 2849TIP3    H2 8491   8.117   1.428   0.215
 2850TIP3   OH2 8492   0.161   7.170   1.596
 2850TIP3    H1 8493   0.071   7.141   1.611
 2850TIP3    H2 8494   0.157   7.266   1.601
 2851TIP3   OH2 8495   7.860   6.534   4.278
 2851TIP3    H1 8496   7.848   6.542   4.372
 2851TIP3    H2 8497   7.917   6.458   4.268
 2852TIP3   OH2 8498   4.870   7.443   3.680
 2852TIP3    H1 8499   4.827   7.435   3.595
 2852TIP3    H2 8500   4.865   7.355   3.717
 2853TIP3   OH2 8501   2.868   5.579   6.305
 2853TIP3    H1 8502   2.867   5.619   6.392
 2853TIP3    H2 8503   2.931   5.507   6.312
 2854TIP3   OH2 8504   1.031   2.831   4.643
 2854TIP3    H1 8505   0.970   2.759   4.656
 2854TIP3    H2 8506   1.065   2.851   4.730
 2855TIP3   OH2 8507   5.886   4.795   4.112
 2855TIP3    H1 8508   5.975   4.761   4.116
 2855TIP3    H2 8509   5.879   4.854   4.187
 2856TIP3   OH2 8510   0.843   6.745   2.374
 2856TIP3    H1 8511   0.844   6.736   2.278
 2856TIP3    H2 8512   0.916   6.690   2.403
 2857TIP3   OH2 8513   5.363   1.843   4.772
 2857TIP3    H1 8514   5.313   1.910   4.819
 2857TIP3    H2 8515   5.419   1.892   4.712
 2858TIP3   OH2 8516   2.161   0.918   0.331
 2858TIP3    H1 8517   2.118   0.867   0.399
 2858TIP3    H2 8518   2.128   1.007   0.343
 2859TIP3   OH2 8519   4.868   4.815   3.379
 2859TIP3    H1 8520   4.928   4.741   3.378
 2859TIP3    H2 8521   4.798   4.788   3.438
 2860TIP3   OH2 8522   5.829   1.284   1.510
 2860TIP3    H1 8523   5.893   1.225   1.550
 2860TIP3    H2 8524   5.878   1.364   1.492
 2861TIP3   OH2 8525   3.193   4.046   2.213
 2861TIP3    H1 8526   3.285   4.035   2.189
 2861TIP3    H2 8527   3.191   4.035   2.307
 2862TIP3   OH2 8528   2.327   6.722   2.148
 2862TIP3    H1 8529   2.326   6.676   2.232
 2862TIP3    H2 8530   2.245   6.696   2.105
 2863TIP3   OH2 8531   0.777   0.521   1.833
 2863TIP3    H1 8532   0.733   0.602   1.854
 2863TIP3    H2 8533   0.855   0.520   1.889
 2864TIP3   OH2 8534   6.085   7.577   5.693
 2864TIP3    H1 8535   6.023   7.596   5.622
 2864TIP3    H2 8536   6.138   7.656   5.700
 2865TIP3   OH2 8537   7.550   7.689   3.140
 2865TIP3    H1 8538   7.552   7.623   3.209
 2865TIP3    H2 8539   7.577   7.770   3.183
 2866TIP3   OH2 8540   0.999   1.024   0.304
 2866TIP3    H1 8541   0.926   1.072   0.265
 2866TIP3    H2 8542   1.073   1.043   0.246
 2867TIP3   OH2 8543   5.786   1.822   1.153
 2867TIP3    H1 8544   5.732   1.751   1.188
 2867TIP3    H2 8545   5.836   1.853   1.229
 2868TIP3   OH2 8546   0.407   7.406   2.379
 2868TIP3    H1 8547   0.484   7.371   2.425
 2868TIP3    H2 8548   0.439   7.484   2.335
 2869TIP3   OH2 8549   5.211   3.727   2.873
 2869TIP3    H1 8550   5.289   3.677   2.847
 2869TIP3    H2 8551   5.244   3.815   2.891
 2870TIP3   OH2 8552   2.172   0.227   5.280
 2870TIP3    H1 8553   2.101   0.179   5.239
 2870TIP3    H2 8554   2.129   0.288   5.340
 2871TIP3   OH2 8555   3.546   4.109   5.688
 2871TIP3    H1 8556   3.551   4.079   5.598
 2871TIP3    H2 8557   3.493   4.189   5.684
 2872TIP3   OH2 8558   2.821   2.743   0.679
 2872TIP3    H1 8559   2.801   2.652   0.703
 2872TIP3    H2 8560   2.875   2.775   0.752
 2873TIP3   OH2 8561   2.895   6.806   6.368
 2873TIP3    H1 8562   2.890   6.752   6.289
 2873TIP3    H2 8563   2.809   6.848   6.374
 2874TIP3   OH2 8564   3.922   6.481   3.284
 2874TIP3    H1 8565   3.879   6.395   3.281
 2874TIP3    H2 8566   3.906   6.519   3.198
 2875TIP3   OH2 8567   0.712   3.998   3.538
 2875TIP3    H1 8568   0.730   4.089   3.512
 2875TIP3    H2 8569   0.788   3.948   3.506
 2876TIP3   OH2 8570   0.382   7.402   5.888
 2876TIP3    H1 8571   0.448   7.395   5.957
 2876TIP3    H2 8572   0.325   7.473   5.917
 2877TIP3   OH2 8573   3.478   7.456   2.694
 2877TIP3    H1 8574   3.455   7.387   2.632
 2877TIP3    H2 8575   3.415   7.526   2.675
 2878TIP3   OH2 8576   6.154   2.962   4.294
 2878TIP3    H1 8577   6.163   2.983   4.201
 2878TIP3    H2 8578   6.061   2.977   4.313
 2879TIP3   OH2 8579   2.971   4.389   6.458
 2879TIP3    H1 8580   3.037   4.343   6.406
 2879TIP3    H2 8581   2.975   4.346   6.544
 2880TIP3   OH2 8582   1.997   3.343   0.480
 2880TIP3    H1 8583   1.902   3.355   0.487
 2880TIP3    H2 8584   2.015   3.265   0.532
 2881TIP3   OH2 8585   2.087   1.874   1.759
 2881TIP3    H1 8586   2.174   1.846   1.788
 2881TIP3    H2 8587   2.053   1.798   1.711
 2882TIP3   OH2 8588   6.202   2.107   2.924
 2882TIP3    H1 8589   6.298   2.108   2.932
 2882TIP3    H2 8590   6.171   2.113   3.014
 2883TIP3   OH2 8591   2.243   4.254   0.226
 2883TIP3    H1 8592   2.246   4.210   0.141
 2883TIP3    H2 8593   2.203   4.339   0.208
 2884TIP3   OH2 8594   3.934   1.177   6.191
 2884TIP3    H1 8595   3.915   1.152   6.281
 2884TIP3    H2 8596   3.912   1.270   6.187
 2885TIP3   OH2 8597   6.859   0.703   5.174
 2885TIP3    H1 8598   6.923   0.652   5.124
 2885TIP3    H2 8599   6.784   0.645   5.183
 2886TIP3   OH2 8600   4.701   1.711   2.327
 2886TIP3    H1 8601   4.689   1.775   2.397
 2886TIP3    H2 8602   4.704   1.763   2.247
 2887TIP3   OH2 8603   2.810   0.429   5.288
 2887TIP3    H1 8604   2.815   0.337   5.264
 2887TIP3    H2 8605   2.900   0.455   5.306
 2888TIP3   OH2 8606   5.998   3.612   1.377
 2888TIP3    H1 8607   6.061   3.571   1.436
 2888TIP3    H2 8608   5.927   3.548   1.370
 2889TIP3   OH2 8609   7.834   1.288   1.674
 2889TIP3    H1 8610   7.854   1.240   1.594
 2889TIP3    H2 8611   7.785   1.225   1.728
 2890TIP3   OH2 8612   6.771   7.214   1.944
 2890TIP3    H1 8613   6.848   7.265   1.969
 2890TIP3    H2 8614   6.785   7.129   1.986
 2891TIP3   OH2 8615   6.776   1.798   4.454
 2891TIP3    H1 8616   6.855   1.770   4.407
 2891TIP3    H2 8617   6.743   1.871   4.402
 2892TIP3   OH2 8618   6.376   2.677   5.935
 2892TIP3    H1 8619   6.416   2.636   5.859
 2892TIP3    H2 8620   6.300   2.723   5.900
 2893TIP3   OH2 8621   1.211   4.413   2.557
 2893TIP3    H1 8622   1.198   4.496   2.603
 2893TIP3    H2 8623   1.169   4.348   2.614
 2894TIP3   OH2 8624   1.665   0.715   1.695
 2894TIP3    H1 8625   1.611   0.794   1.698
 2894TIP3    H2 8626   1.603   0.643   1.700
 2895TIP3   OH2 8627   4.453   0.160   4.808
 2895TIP3    H1 8628   4.358   0.161   4.793
 2895TIP3    H2 8629   4.478   0.068   4.795
 2896TIP3   OH2 8630   2.357   1.070   2.545
 2896TIP3    H1 8631   2.409   1.088   2.623
 2896TIP3    H2 8632   2.369   1.147   2.490
 2897TIP3   OH2 8633   7.261   7.312   5.543
 2897TIP3    H1 8634   7.352   7.281   5.536
 2897TIP3    H2 8635   7.208   7.235   5.520
 2898TIP3   OH2 8636   1.498   1.073   4.398
 2898TIP3    H1 8637   1.496   1.031   4.484
 2898TIP3    H2 8638   1.521   1.003   4.337
 2899TIP3   OH2 8639   0.694   1.991   0.981
 2899TIP3    H1 8640   0.704   2.072   1.030
 2899TIP3    H2 8641   0.777   1.944   0.993
 2900TIP3   OH2 8642   5.526   5.649   6.670
 2900TIP3    H1 8643   5.596   5.587   6.689
 2900TIP3    H2 8644   5.459   5.596   6.625
 2901TIP3   OH2 8645   4.326   1.934   6.593
 2901TIP3    H1 8646   4.416   1.967   6.599
 2901TIP3    H2 8647   4.335   1.842   6.571
 2902TIP3   OH2 8648   0.613   7.006   6.515
 2902TIP3    H1 8649   0.584   6.935   6.572
 2902TIP3    H2 8650   0.581   7.086   6.556
 2903TIP3   OH2 8651   1.549   7.082   3.120
 2903TIP3    H1 8652   1.630   7.051   3.160
 2903TIP3    H2 8653   1.546   7.176   3.140
 2904TIP3   OH2 8654   0.488   0.635   2.157
 2904TIP3    H1 8655   0.551   0.642   2.085
 2904TIP3    H2 8656   0.527   0.688   2.227
 2905TIP3   OH2 8657   5.562   4.739   6.201
 2905TIP3    H1 8658   5.522   4.707   6.120
 2905TIP3    H2 8659   5.622   4.669   6.227
 2906TIP3   OH2 8660   4.868   3.866   0.365
 2906TIP3    H1 8661   4.908   3.842   0.449
 2906TIP3    H2 8662   4.907   3.805   0.302
 2907TIP3   OH2 8663   7.087   3.674   1.211
 2907TIP3    H1 8664   7.061   3.763   1.186
 2907TIP3    H2 8665   7.108   3.632   1.128
 2908TIP3   OH2 8666   7.043   1.147   4.746
 2908TIP3    H1 8667   7.096   1.068   4.735
 2908TIP3    H2 8668   7.106   1.217   4.759
 2909TIP3   OH2 8669   7.621   5.430   0.592
 2909TIP3    H1 8670   7.663   5.512   0.617
 2909TIP3    H2 8671   7.662   5.364   0.647
 2910TIP3   OH2 8672   6.304   7.767   4.319
 2910TIP3    H1 8673   6.243   7.806   4.381
 2910TIP3    H2 8674   6.287   7.673   4.324
 2911TIP3   OH2 8675   2.009   6.943   1.686
 2911TIP3    H1 8676   2.053   6.946   1.772
 2911TIP3    H2 8677   1.995   6.850   1.670
 2912TIP3   OH2 8678   2.092   7.044   4.313
 2912TIP3    H1 8679   2.009   7.004   4.339
 2912TIP3    H2 8680   2.078   7.138   4.324
 2913TIP3   OH2 8681   3.964   7.596   1.114
 2913TIP3    H1 8682   3.993   7.688   1.113
 2913TIP3    H2 8683   3.984   7.563   1.027
 2914TIP3   OH2 8684   0.805   3.747   3.121
 2914TIP3    H1 8685   0.729   3.693   3.099
 2914TIP3    H2 8686   0.823   3.796   3.040
 2915TIP3   OH2 8687   4.636   5.811   6.459
 2915TIP3    H1 8688   4.661   5.904   6.459
 2915TIP3    H2 8689   4.578   5.802   6.383
 2916TIP3   OH2 8690   2.542   2.647   1.133
 2916TIP3    H1 8691   2.521   2.568   1.182
 2916TIP3    H2 8692   2.458   2.684   1.109
 2917TIP3   OH2 8693   2.936   7.608   1.191
 2917TIP3    H1 8694   2.972   7.624   1.278
 2917TIP3    H2 8695   2.850   7.569   1.207
 2918TIP3   OH2 8696   8.258   7.604   5.408
 2918TIP3    H1 8697   8.312   7.547   5.353
 2918TIP3    H2 8698   8.189   7.547   5.441
 2919TIP3   OH2 8699   2.471   6.365   6.664
 2919TIP3    H1 8700   2.407   6.412   6.611
 2919TIP3    H2 8701   2.524   6.434   6.705
 2920TIP3   OH2 8702   7.921   3.702   3.566
 2920TIP3    H1 8703   7.999   3.664   3.524
 2920TIP3    H2 8704   7.922   3.793   3.539
 2921TIP3   OH2 8705   2.008   6.467   2.253
 2921TIP3    H1 8706   2.076   6.405   2.280
 2921TIP3    H2 8707   1.938   6.412   2.219
 2922TIP3   OH2 8708   2.197   4.077   2.744
 2922TIP3    H1 8709   2.122   4.136   2.753
 2922TIP3    H2 8710   2.193   4.048   2.653
 2923TIP3   OH2 8711   5.139   5.751   6.173
 2923TIP3    H1 8712   5.200   5.788   6.109
 2923TIP3    H2 8713   5.089   5.826   6.205
 2924TIP3   OH2 8714   3.244   2.900   4.593
 2924TIP3    H1 8715   3.177   2.883   4.527
 2924TIP3    H2 8716   3.195   2.918   4.673
 2925TIP3   OH2 8717   4.461   0.766   5.146
 2925TIP3    H1 8718   4.435   0.783   5.055
 2925TIP3    H2 8719   4.464   0.853   5.186
 2926TIP3   OH2 8720   2.176   1.659   1.514
 2926TIP3    H1 8721   2.139   1.747   1.509
 2926TIP3    H2 8722   2.270   1.672   1.503
 2927TIP3   OH2 8723   3.352   3.924   6.188
 2927TIP3    H1 8724   3.350   3.835   6.151
 2927TIP3    H2 8725   3.371   3.980   6.113
 2928TIP3   OH2 8726   5.050   2.006   4.220
 2928TIP3    H1 8727   5.063   2.090   4.176
 2928TIP3    H2 8728   5.072   2.024   4.311
 2929TIP3   OH2 8729   5.521   3.357   6.091
 2929TIP3    H1 8730   5.451   3.349   6.156
 2929TIP3    H2 8731   5.492   3.425   6.032
 2930TIP3   OH2 8732   5.887   6.900   0.725
 2930TIP3    H1 8733   5.925   6.933   0.644
 2930TIP3    H2 8734   5.852   6.814   0.701
 2931TIP3   OH2 8735   1.402   2.944   3.268
 2931TIP3    H1 8736   1.480   2.890   3.278
 2931TIP3    H2 8737   1.330   2.880   3.266
 2932TIP3   OH2 8738   8.041   6.733   4.494
 2932TIP3    H1 8739   8.054   6.823   4.522
 2932TIP3    H2 8740   8.129   6.695   4.493
 2933TIP3   OH2 8741   6.905   6.343   5.397
 2933TIP3    H1 8742   6.915   6.335   5.302
 2933TIP3    H2 8743   6.975   6.402   5.424
 2934TIP3   OH2 8744   7.307   0.778   3.940
 2934TIP3    H1 8745   7.398   0.804   3.957
 2934TIP3    H2 8746   7.291   0.803   3.850
 2935TIP3   OH2 8747   4.234   3.605   3.641
 2935TIP3    H1 8748   4.155   3.552   3.630
 2935TIP3    H2 8749   4.291   3.578   3.569
 2936TIP3   OH2 8750   7.985   7.586   3.689
 2936TIP3    H1 8751   8.021   7.562   3.774
 2936TIP3    H2 8752   8.039   7.539   3.626
 2937TIP3   OH2 8753   2.062   7.682   4.955
 2937TIP3    H1 8754   2.121   7.608   4.939
 2937TIP3    H2 8755   1.974   7.646   4.944
 2938TIP3   OH2 8756   8.199   4.558   1.574
 2938TIP3    H1 8757   8.246   4.509   1.507
 2938TIP3    H2 8758   8.142   4.618   1.526
 2939TIP3   OH2 8759   3.362   4.266   1.184
 2939TIP3    H1 8760   3.307   4.196   1.148
 2939TIP3    H2 8761   3.451   4.231   1.182
 2940TIP3   OH2 8762   2.683   0.765   4.908
 2940TIP3    H1 8763   2.596   0.799   4.886
 2940TIP3    H2 8764   2.666   0.687   4.960
 2941TIP3   OH2 8765   6.478   2.356   6.383
 2941TIP3    H1 8766   6.452   2.264   6.374
 2941TIP3    H2 8767   6.542   2.356   6.453
 2942TIP3   OH2 8768   0.197   2.786   4.182
 2942TIP3    H1 8769   0.153   2.708   4.215
 2942TIP3    H2 8770   0.239   2.824   4.259
 2943TIP3   OH2 8771   3.856   4.562   1.162
 2943TIP3    H1 8772   3.882   4.478   1.200
 2943TIP3    H2 8773   3.843   4.620   1.238
 2944TIP3   OH2 8774   2.525   0.507   4.112
 2944TIP3    H1 8775   2.552   0.462   4.192
 2944TIP3    H2 8776   2.568   0.458   4.042
 2945TIP3   OH2 8777   5.463   5.755   4.183
 2945TIP3    H1 8778   5.453   5.782   4.275
 2945TIP3    H2 8779   5.412   5.819   4.134
 2946TIP3   OH2 8780   3.231   5.792   4.234
 2946TIP3    H1 8781   3.309   5.842   4.258
 2946TIP3    H2 8782   3.242   5.708   4.278
 2947TIP3   OH2 8783   4.617   6.048   2.120
 2947TIP3    H1 8784   4.700   6.047   2.073
 2947TIP3    H2 8785   4.637   6.092   2.203
 2948TIP3   OH2 8786   6.245   4.128   1.847
 2948TIP3    H1 8787   6.170   4.172   1.808
 2948TIP3    H2 8788   6.313   4.133   1.779
 2949TIP3   OH2 8789   2.897   2.093   0.796
 2949TIP3    H1 8790   2.803   2.074   0.793
 2949TIP3    H2 8791   2.903   2.185   0.772
 2950TIP3   OH2 8792   8.049   6.793   6.035
 2950TIP3    H1 8793   8.070   6.832   6.120
 2950TIP3    H2 8794   8.065   6.699   6.047
 2951TIP3   OH2 8795   6.733   2.131   0.603
 2951TIP3    H1 8796   6.651   2.119   0.556
 2951TIP3    H2 8797   6.800   2.093   0.546
 2952TIP3   OH2 8798   2.056   0.933   2.743
 2952TIP3    H1 8799   1.963   0.912   2.739
 2952TIP3    H2 8800   2.061   1.028   2.733
 2953TIP3   OH2 8801   1.740   5.741   3.408
 2953TIP3    H1 8802   1.784   5.697   3.480
 2953TIP3    H2 8803   1.748   5.834   3.429
 2954TIP3   OH2 8804   4.463   0.469   4.090
 2954TIP3    H1 8805   4.414   0.443   4.012
 2954TIP3    H2 8806   4.554   0.447   4.069
 2955TIP3   OH2 8807   5.280   5.920   4.022
 2955TIP3    H1 8808   5.312   6.010   4.026
 2955TIP3    H2 8809   5.219   5.913   4.095
 2956TIP3   OH2 8810   0.790   4.223   3.332
 2956TIP3    H1 8811   0.852   4.293   3.314
 2956TIP3    H2 8812   0.706   4.268   3.342
 2957TIP3   OH2 8813   7.509   6.892   1.722
 2957TIP3    H1 8814   7.431   6.840   1.699
 2957TIP3    H2 8815   7.507   6.966   1.661
 2958TIP3   OH2 8816   6.015   5.763   1.906
 2958TIP3    H1 8817   6.009   5.682   1.956
 2958TIP3    H2 8818   6.008   5.832   1.972
 2959TIP3   OH2 8819   6.848   7.126   4.263
 2959TIP3    H1 8820   6.862   7.050   4.319
 2959TIP3    H2 8821   6.861   7.093   4.174
 2960TIP3   OH2 8822   4.270   0.646   4.143
 2960TIP3    H1 8823   4.350   0.593   4.144
 2960TIP3    H2 8824   4.283   0.708   4.215
 2961TIP3   OH2 8825   3.711   1.698   0.990
 2961TIP3    H1 8826   3.681   1.771   0.936
 2961TIP3    H2 8827   3.761   1.642   0.929
 2962TIP3   OH2 8828   2.563   5.291   5.476
 2962TIP3    H1 8829   2.558   5.377   5.435
 2962TIP3    H2 8830   2.629   5.301   5.545
 2963TIP3   OH2 8831   7.014   3.694   6.136
 2963TIP3    H1 8832   7.010   3.642   6.056
 2963TIP3    H2 8833   6.948   3.762   6.124
 2964TIP3   OH2 8834   7.177   5.969   4.589
 2964TIP3    H1 8835   7.257   5.928   4.622
 2964TIP3    H2 8836   7.179   6.058   4.623
 2965TIP3   OH2 8837   5.382   6.421   5.982
 2965TIP3    H1 8838   5.326   6.487   5.942
 2965TIP3    H2 8839   5.321   6.363   6.028
 2966TIP3   OH2 8840   1.157   1.315   0.393
 2966TIP3    H1 8841   1.199   1.244   0.345
 2966TIP3    H2 8842   1.111   1.271   0.465
 2967TIP3   OH2 8843   1.004   1.859   4.815
 2967TIP3    H1 8844   0.998   1.948   4.779
 2967TIP3    H2 8845   1.013   1.803   4.737
 2968TIP3   OH2 8846   5.654   4.409   5.452
 2968TIP3    H1 8847   5.632   4.501   5.439
 2968TIP3    H2 8848   5.748   4.410   5.471
 2969TIP3   OH2 8849   2.651   3.330   4.211
 2969TIP3    H1 8850   2.593   3.278   4.156
 2969TIP3    H2 8851   2.676   3.271   4.282
 2970TIP3   OH2 8852   6.039   1.671   2.457
 2970TIP3    H1 8853   6.055   1.686   2.364
 2970TIP3    H2 8854   6.044   1.576   2.468
 2971TIP3   OH2 8855   6.847   1.110   3.535
 2971TIP3    H1 8856   6.834   1.181   3.473
 2971TIP3    H2 8857   6.939   1.085   3.525
 2972TIP3   OH2 8858   7.263   4.297   1.149
 2972TIP3    H1 8859   7.293   4.225   1.094
 2972TIP3    H2 8860   7.243   4.368   1.088
 2973TIP3   OH2 8861   7.868   2.476   2.761
 2973TIP3    H1 8862   7.867   2.416   2.836
 2973TIP3    H2 8863   7.787   2.456   2.714
 2974TIP3   OH2 8864   7.975   5.184   1.133
 2974TIP3    H1 8865   7.958   5.116   1.067
 2974TIP3    H2 8866   8.070   5.195   1.132
 2975TIP3   OH2 8867   5.712   1.305   4.015
 2975TIP3    H1 8868   5.626   1.287   4.054
 2975TIP3    H2 8869   5.770   1.318   4.090
 2976TIP3   OH2 8870   3.109   3.849   5.087
 2976TIP3    H1 8871   3.052   3.777   5.058
 2976TIP3    H2 8872   3.197   3.822   5.063
 2977TIP3   OH2 8873   0.473   7.729   5.668
 2977TIP3    H1 8874   0.400   7.685   5.624
 2977TIP3    H2 8875   0.473   7.817   5.633
 2978TIP3   OH2 8876   6.350   7.507   2.399
 2978TIP3    H1 8877   6.269   7.518   2.349
 2978TIP3    H2 8878   6.322   7.465   2.480
 2979TIP3   OH2 8879   3.432   6.913   2.084
 2979TIP3    H1 8880   3.520   6.883   2.105
 2979TIP3    H2 8881   3.375   6.840   2.109
 2980TIP3   OH2 8882   3.517   6.659   1.072
 2980TIP3    H1 8883   3.430   6.670   1.034
 2980TIP3    H2 8884   3.576   6.701   1.009
 2981TIP3   OH2 8885   3.489   5.108   5.617
 2981TIP3    H1 8886   3.396   5.128   5.624
 2981TIP3    H2 8887   3.507   5.052   5.693
 2982TIP3   OH2 8888   5.504   3.696   0.698
 2982TIP3    H1 8889   5.511   3.656   0.612
 2982TIP3    H2 8890   5.591   3.730   0.716
 2983TIP3   OH2 8891   2.048   2.780   3.686
 2983TIP3    H1 8892   2.019   2.726   3.612
 2983TIP3    H2 8893   2.136   2.748   3.706
 2984TIP3   OH2 8894   4.337   5.035   3.993
 2984TIP3    H1 8895   4.343   5.126   3.964
 2984TIP3    H2 8896   4.346   4.983   3.913
 2985TIP3   OH2 8897   4.098   5.065   5.587
 2985TIP3    H1 8898   4.148   5.049   5.667
 2985TIP3    H2 8899   4.158   5.115   5.532
 2986TIP3   OH2 8900   6.416   0.009   4.834
 2986TIP3    H1 8901   6.399   0.080   4.772
 2986TIP3    H2 8902   6.403  -0.071   4.782
 2987TIP3   OH2 8903   4.138   3.726   1.685
 2987TIP3    H1 8904   4.136   3.797   1.749
 2987TIP3    H2 8905   4.066   3.668   1.711
 2988TIP3   OH2 8906   4.791   4.802   1.229
 2988TIP3    H1 8907   4.707   4.814   1.184
 2988TIP3    H2 8908   4.766   4.783   1.319
 2989TIP3   OH2 8909   5.381   1.092   2.279
 2989TIP3    H1 8910   5.344   1.053   2.358
 2989TIP3    H2 8911   5.419   1.017   2.232
 2990TIP3   OH2 8912   2.708   1.781   3.752
 2990TIP3    H1 8913   2.724   1.875   3.757
 2990TIP3    H2 8914   2.772   1.743   3.812
 2991TIP3   OH2 8915   1.441   2.089   6.203
 2991TIP3    H1 8916   1.436   2.007   6.153
 2991TIP3    H2 8917   1.480   2.063   6.286
 2992TIP3   OH2 8918   7.235   4.009   4.420
 2992TIP3    H1 8919   7.265   3.954   4.492
 2992TIP3    H2 8920   7.145   4.032   4.444
 2993TIP3   OH2 8921   4.483   4.092   1.554
 2993TIP3    H1 8922   4.531   4.035   1.615
 2993TIP3    H2 8923   4.513   4.065   1.467
 2994TIP3   OH2 8924   6.414   1.391   5.891
 2994TIP3    H1 8925   6.441   1.482   5.900
 2994TIP3    H2 8926   6.360   1.374   5.968
 2995TIP3   OH2 8927   0.715   4.070   5.986
 2995TIP3    H1 8928   0.660   4.021   6.047
 2995TIP3    H2 8929   0.710   4.020   5.904
 2996TIP3   OH2 8930   6.126   1.576   5.695
 2996TIP3    H1 8931   6.086   1.639   5.635
 2996TIP3    H2 8932   6.189   1.528   5.642
 2997TIP3   OH2 8933   7.760   0.752   0.123
 2997TIP3    H1 8934   7.733   0.711   0.041
 2997TIP3    H2 8935   7.810   0.829   0.096
 2998TIP3   OH2 8936   2.613   4.942   6.442
 2998TIP3    H1 8937   2.522   4.936   6.414
 2998TIP3    H2 8938   2.663   4.940   6.360
 2999TIP3   OH2 8939   5.824   6.464   1.498
 2999TIP3    H1 8940   5.864   6.417   1.425
 2999TIP3    H2 8941   5.894   6.523   1.530
 3000TIP3   OH2 8942   5.076   3.152   0.180
 3000TIP3    H1 8943   5.013   3.112   0.239
 3000TIP3    H2 8944   5.039   3.137   0.092
 3001TIP3   OH2 8945   8.249   5.988   3.185
 3001TIP3    H1 8946   8.192   6.037   3.245
 3001TIP3    H2 8947   8.190   5.955   3.118
 3002TIP3   OH2 8948   4.258   2.495   2.263
 3002TIP3    H1 8949   4.310   2.417   2.285
 3002TIP3    H2 8950   4.243   2.538   2.347
 3003TIP3   OH2 8951   0.806   5.855   1.321
 3003TIP3    H1 8952   0.729   5.799   1.329
 3003TIP3    H2 8953   0.799   5.915   1.395
 3004TIP3   OH2 8954   5.860   4.271   1.001
 3004TIP3    H1 8955   5.935   4.323   1.028
 3004TIP3    H2 8956   5.839   4.303   0.913
 3005TIP3   OH2 8957   1.553   2.557   4.680
 3005TIP3    H1 8958   1.518   2.475   4.646
 3005TIP3    H2 8959   1.547   2.618   4.607
 3006TIP3   OH2 8960   2.791   0.600   2.336
 3006TIP3    H1 8961   2.879   0.636   2.349
 3006TIP3    H2 8962   2.747   0.663   2.281
 3007TIP3   OH2 8963   8.160   1.257   1.738
 3007TIP3    H1 8964   8.198   1.169   1.741
 3007TIP3    H2 8965   8.232   1.315   1.763
 3008TIP3   OH2 8966   3.042   0.746   4.416
 3008TIP3    H1 8967   3.089   0.746   4.332
 3008TIP3    H2 8968   3.110   0.736   4.482
 3009TIP3   OH2 8969   0.133   3.038   2.728
 3009TIP3    H1 8970   0.067   3.091   2.684
 3009TIP3    H2 8971   0.216   3.069   2.693
 3010TIP3   OH2 8972   3.408   6.588   0.518
 3010TIP3    H1 8973   3.464   6.510   0.520
 3010TIP3    H2 8974   3.361   6.581   0.435
 3011TIP3   OH2 8975   4.374   4.187   4.736
 3011TIP3    H1 8976   4.397   4.114   4.793
 3011TIP3    H2 8977   4.452   4.242   4.733
 3012TIP3   OH2 8978   6.513   3.972   6.725
 3012TIP3    H1 8979   6.425   3.936   6.732
 3012TIP3    H2 8980   6.540   3.952   6.635
 3013TIP3   OH2 8981   5.031   6.822   5.546
 3013TIP3    H1 8982   5.104   6.760   5.545
 3013TIP3    H2 8983   5.064   6.897   5.496
 3014TIP3   OH2 8984   5.606   4.848   1.315
 3014TIP3    H1 8985   5.580   4.902   1.390
 3014TIP3    H2 8986   5.562   4.889   1.241
 3015TIP3   OH2 8987   4.873   0.450   1.482
 3015TIP3    H1 8988   4.941   0.417   1.542
 3015TIP3    H2 8989   4.917   0.454   1.397
 3016TIP3   OH2 8990   2.116   3.117   3.432
 3016TIP3    H1 8991   2.058   3.193   3.437
 3016TIP3    H2 8992   2.057   3.041   3.432
 3017TIP3   OH2 8993   4.755   1.007   4.375
 3017TIP3    H1 8994   4.662   1.019   4.358
 3017TIP3    H2 8995   4.787   1.094   4.400
 3018TIP3   OH2 8996   0.834   0.995   5.375
 3018TIP3    H1 8997   0.738   0.986   5.375
 3018TIP3    H2 8998   0.852   1.049   5.299
 3019TIP3   OH2 8999   6.756   2.437   2.318
 3019TIP3    H1 9000   6.824   2.395   2.266
 3019TIP3    H2 9001   6.702   2.483   2.254
 3020TIP3   OH2 9002   2.012   6.087   2.542
 3020TIP3    H1 9003   1.968   6.105   2.459
 3020TIP3    H2 9004   2.099   6.057   2.517
 3021TIP3   OH2 9005   3.432   2.071   0.092
 3021TIP3    H1 9006   3.470   2.149   0.132
 3021TIP3    H2 9007   3.475   1.997   0.135
 3022TIP3   OH2 9008   2.898   3.900   5.603
 3022TIP3    H1 9009   2.830   3.945   5.654
 3022TIP3    H2 9010   2.852   3.865   5.527
 3023TIP3   OH2 9011   2.605   1.297   6.037
 3023TIP3    H1 9012   2.601   1.211   6.079
 3023TIP3    H2 9013   2.698   1.308   6.015
 3024TIP3   OH2 9014   2.038   3.438   3.550
 3024TIP3    H1 9015   2.037   3.484   3.466
 3024TIP3    H2 9016   1.947   3.412   3.564
 3025TIP3   OH2 9017   4.426   6.248   1.538
 3025TIP3    H1 9018   4.424   6.155   1.562
 3025TIP3    H2 9019   4.358   6.257   1.471
 3026TIP3   OH2 9020   4.729   5.798   3.966
 3026TIP3    H1 9021   4.705   5.748   4.044
 3026TIP3    H2 9022   4.824   5.793   3.963
 3027TIP3   OH2 9023   0.374   3.672   6.009
 3027TIP3    H1 9024   0.464   3.644   5.988
 3027TIP3    H2 9025   0.319   3.607   5.965
 3028TIP3   OH2 9026   0.244   4.086   6.649
 3028TIP3    H1 9027   0.198   4.149   6.594
 3028TIP3    H2 9028   0.256   4.132   6.733
 3029TIP3   OH2 9029   0.735   7.236   5.789
 3029TIP3    H1 9030   0.694   7.239   5.876
 3029TIP3    H2 9031   0.663   7.220   5.729
 3030TIP3   OH2 9032   4.861   7.082   0.131
 3030TIP3    H1 9033   4.766   7.083   0.140
 3030TIP3    H2 9034   4.888   7.172   0.151
 3031TIP3   OH2 9035   3.635   1.046   3.666
 3031TIP3    H1 9036   3.612   1.131   3.704
 3031TIP3    H2 9037   3.679   0.999   3.738
 3032TIP3   OH2 9038   5.037   2.683   1.747
 3032TIP3    H1 9039   5.072   2.773   1.749
 3032TIP3    H2 9040   4.958   2.687   1.802
 3033TIP3   OH2 9041   0.290   2.734   3.576
 3033TIP3    H1 9042   0.354   2.665   3.594
 3033TIP3    H2 9043   0.332   2.815   3.607
 3034TIP3   OH2 9044   0.660   1.326   5.095
 3034TIP3    H1 9045   0.596   1.330   5.024
 3034TIP3    H2 9046   0.713   1.406   5.084
 3035TIP3   OH2 9047   8.061   5.872   1.126
 3035TIP3    H1 9048   8.118   5.924   1.070
 3035TIP3    H2 9049   7.980   5.922   1.132
 3036TIP3   OH2 9050   3.872   5.166   2.781
 3036TIP3    H1 9051   3.787   5.122   2.782
 3036TIP3    H2 9052   3.883   5.200   2.870
 3037TIP3   OH2 9053   2.548   7.496   2.615
 3037TIP3    H1 9054   2.520   7.558   2.683
 3037TIP3    H2 9055   2.500   7.523   2.537
 3038TIP3   OH2 9056   3.452   3.141   5.330
 3038TIP3    H1 9057   3.507   3.212   5.362
 3038TIP3    H2 9058   3.363   3.172   5.342
 3039TIP3   OH2 9059   2.090   2.622   5.380
 3039TIP3    H1 9060   2.147   2.551   5.408
 3039TIP3    H2 9061   2.142   2.670   5.315
 3040TIP3   OH2 9062   1.505   7.609   6.352
 3040TIP3    H1 9063   1.446   7.534   6.363
 3040TIP3    H2 9064   1.447   7.685   6.356
 3041TIP3   OH2 9065   1.814   0.449   3.223
 3041TIP3    H1 9066   1.894   0.420   3.265
 3041TIP3    H2 9067   1.744   0.404   3.271
 3042TIP3   OH2 9068   2.568   1.694   6.053
 3042TIP3    H1 9069   2.636   1.677   6.118
 3042TIP3    H2 9070   2.578   1.623   5.989
 3043TIP3   OH2 9071   3.667   4.891   6.505
 3043TIP3    H1 9072   3.622   4.970   6.478
 3043TIP3    H2 9073   3.754   4.897   6.465
 3044TIP3   OH2 9074   0.664   4.345   4.833
 3044TIP3    H1 9075   0.589   4.385   4.877
 3044TIP3    H2 9076   0.639   4.254   4.820
 3045TIP3   OH2 9077   5.437   3.236   5.154
 3045TIP3    H1 9078   5.387   3.305   5.111
 3045TIP3    H2 9079   5.376   3.197   5.216
 3046TIP3   OH2 9080   0.356   3.723   0.806
 3046TIP3    H1 9081   0.275   3.771   0.790
 3046TIP3    H2 9082   0.344   3.639   0.762
 3047TIP3   OH2 9083   3.287   4.467   4.491
 3047TIP3    H1 9084   3.235   4.510   4.559
 3047TIP3    H2 9085   3.224   4.451   4.420
 3048TIP3   OH2 9086   6.292   5.248   5.108
 3048TIP3    H1 9087   6.230   5.306   5.153
 3048TIP3    H2 9088   6.327   5.300   5.037
 3049TIP3   OH2 9089   2.068   6.422   4.314
 3049TIP3    H1 9090   2.020   6.484   4.259
 3049TIP3    H2 9091   2.125   6.477   4.368
 3050TIP3   OH2 9092   7.340   4.250   0.783
 3050TIP3    H1 9093   7.352   4.269   0.690
 3050TIP3    H2 9094   7.293   4.326   0.818
 3051TIP3   OH2 9095   0.413   3.232   3.002
 3051TIP3    H1 9096   0.395   3.195   3.089
 3051TIP3    H2 9097   0.343   3.295   2.988
 3052TIP3   OH2 9098   6.641   1.035   3.733
 3052TIP3    H1 9099   6.707   1.033   3.665
 3052TIP3    H2 9100   6.557   1.035   3.686
 3053TIP3   OH2 9101   6.398   7.412   4.109
 3053TIP3    H1 9102   6.460   7.343   4.088
 3053TIP3    H2 9103   6.327   7.400   4.046
 3054TIP3   OH2 9104   4.493   4.327   1.850
 3054TIP3    H1 9105   4.481   4.364   1.763
 3054TIP3    H2 9106   4.588   4.323   1.861
 3055TIP3   OH2 9107   8.186   7.042   1.692
 3055TIP3    H1 9108   8.101   7.023   1.732
 3055TIP3    H2 9109   8.236   6.961   1.705
 3056TIP3   OH2 9110   2.801   7.539   5.508
 3056TIP3    H1 9111   2.856   7.605   5.468
 3056TIP3    H2 9112   2.711   7.565   5.486
 3057TIP3   OH2 9113   3.492   5.795   1.828
 3057TIP3    H1 9114   3.421   5.824   1.770
 3057TIP3    H2 9115   3.572   5.822   1.784
 3058TIP3   OH2 9116   8.142   7.679   5.163
 3058TIP3    H1 9117   8.119   7.709   5.251
 3058TIP3    H2 9118   8.223   7.630   5.175
 3059TIP3   OH2 9119   6.952   1.697   6.648
 3059TIP3    H1 9120   6.881   1.675   6.709
 3059TIP3    H2 9121   6.907   1.738   6.574
 3060TIP3   OH2 9122   5.758   6.686   0.612
 3060TIP3    H1 9123   5.677   6.729   0.639
 3060TIP3    H2 9124   5.750   6.597   0.647
 3061TIP3   OH2 9125   6.788   5.287   6.593
 3061TIP3    H1 9126   6.831   5.326   6.669
 3061TIP3    H2 9127   6.801   5.193   6.603
 3062TIP3   OH2 9128   4.503   4.271   0.482
 3062TIP3    H1 9129   4.533   4.242   0.396
 3062TIP3    H2 9130   4.409   4.255   0.481
 3063TIP3   OH2 9131   7.972   5.801   2.001
 3063TIP3    H1 9132   7.946   5.883   2.045
 3063TIP3    H2 9133   7.928   5.804   1.916
 3064TIP3   OH2 9134   5.510   5.612   0.551
 3064TIP3    H1 9135   5.469   5.601   0.465
 3064TIP3    H2 9136   5.566   5.535   0.561
 3065TIP3   OH2 9137   7.236   7.433   1.587
 3065TIP3    H1 9138   7.252   7.508   1.644
 3065TIP3    H2 9139   7.206   7.472   1.505
 3066TIP3   OH2 9140   7.519   1.368   2.890
 3066TIP3    H1 9141   7.458   1.422   2.940
 3066TIP3    H2 9142   7.480   1.280   2.892
 3067TIP3   OH2 9143   4.469   6.598   5.797
 3067TIP3    H1 9144   4.403   6.575   5.732
 3067TIP3    H2 9145   4.473   6.694   5.795
 3068TIP3   OH2 9146   7.859   4.026   4.460
 3068TIP3    H1 9147   7.835   4.099   4.403
 3068TIP3    H2 9148   7.894   3.960   4.400
 3069TIP3   OH2 9149   7.515   3.354   1.072
 3069TIP3    H1 9150   7.494   3.406   0.995
 3069TIP3    H2 9151   7.463   3.274   1.062
 3070TIP3   OH2 9152   7.746   5.963   1.826
 3070TIP3    H1 9153   7.694   6.041   1.807
 3070TIP3    H2 9154   7.766   5.926   1.740
 3071TIP3   OH2 9155   4.905   2.357   4.239
 3071TIP3    H1 9156   4.847   2.283   4.257
 3071TIP3    H2 9157   4.884   2.382   4.149
 3072TIP3   OH2 9158   2.677   5.093   2.378
 3072TIP3    H1 9159   2.741   5.127   2.441
 3072TIP3    H2 9160   2.729   5.055   2.308
 3073TIP3   OH2 9161   6.851   2.036   1.849
 3073TIP3    H1 9162   6.843   2.067   1.758
 3073TIP3    H2 9163   6.940   2.061   1.875
 3074TIP3   OH2 9164   3.227   7.639   5.508
 3074TIP3    H1 9165   3.261   7.653   5.420
 3074TIP3    H2 9166   3.213   7.545   5.514
 3075TIP3   OH2 9167   4.587   6.366   0.460
 3075TIP3    H1 9168   4.621   6.451   0.488
 3075TIP3    H2 9169   4.567   6.376   0.367
 3076TIP3   OH2 9170   2.375   1.003   2.885
 3076TIP3    H1 9171   2.294   1.054   2.887
 3076TIP3    H2 9172   2.347   0.914   2.862
 3077TIP3   OH2 9173   4.236   0.803   3.724
 3077TIP3    H1 9174   4.219   0.709   3.732
 3077TIP3    H2 9175   4.331   0.812   3.735
 3078TIP3   OH2 9176   7.412   2.520   5.546
 3078TIP3    H1 9177   7.385   2.609   5.568
 3078TIP3    H2 9178   7.365   2.465   5.610
 3079TIP3   OH2 9179   2.918   6.023   0.842
 3079TIP3    H1 9180   3.008   6.035   0.873
 3079TIP3    H2 9181   2.864   6.036   0.920
 3080TIP3   OH2 9182   7.332   5.476   4.142
 3080TIP3    H1 9183   7.301   5.386   4.136
 3080TIP3    H2 9184   7.355   5.500   4.053
 3081TIP3   OH2 9185   5.528   7.332   3.993
 3081TIP3    H1 9186   5.546   7.416   3.951
 3081TIP3    H2 9187   5.511   7.354   4.084
 3082TIP3   OH2 9188   0.949   0.307   6.151
 3082TIP3    H1 9189   1.040   0.336   6.162
 3082TIP3    H2 9190   0.933   0.310   6.057
 3083TIP3   OH2 9191   6.193   5.431   2.155
 3083TIP3    H1 9192   6.242   5.493   2.101
 3083TIP3    H2 9193   6.101   5.451   2.137
 3084TIP3   OH2 9194   5.073   6.228   0.856
 3084TIP3    H1 9195   5.082   6.206   0.949
 3084TIP3    H2 9196   4.983   6.257   0.847
 3085TIP3   OH2 9197   7.039   2.913   0.578
 3085TIP3    H1 9198   7.051   2.839   0.519
 3085TIP3    H2 9199   7.053   2.990   0.523
 3086TIP3   OH2 9200   4.016   7.352   3.842
 3086TIP3    H1 9201   4.031   7.262   3.814
 3086TIP3    H2 9202   4.103   7.393   3.838
 3087TIP3   OH2 9203   3.812   0.226   1.724
 3087TIP3    H1 9204   3.801   0.158   1.657
 3087TIP3    H2 9205   3.907   0.240   1.728
 3088TIP3   OH2 9206   3.436   5.382   2.436
 3088TIP3    H1 9207   3.458   5.437   2.511
 3088TIP3    H2 9208   3.376   5.434   2.383
 3089TIP3   OH2 9209   1.235   0.219   1.658
 3089TIP3    H1 9210   1.233   0.140   1.713
 3089TIP3    H2 9211   1.162   0.272   1.690
 3090TIP3   OH2 9212   1.068   3.019   1.408
 3090TIP3    H1 9213   1.055   3.101   1.456
 3090TIP3    H2 9214   1.128   3.042   1.338
 3091TIP3   OH2 9215   1.282   2.513   1.590
 3091TIP3    H1 9216   1.275   2.459   1.669
 3091TIP3    H2 9217   1.195   2.552   1.580
 3092TIP3   OH2 9218   2.070   6.686   5.900
 3092TIP3    H1 9219   2.026   6.639   5.829
 3092TIP3    H2 9220   2.082   6.774   5.866
 3093TIP3   OH2 9221   1.066   3.105   5.451
 3093TIP3    H1 9222   1.113   3.113   5.367
 3093TIP3    H2 9223   1.073   3.012   5.473
 3094TIP3   OH2 9224   2.073   0.413   4.063
 3094TIP3    H1 9225   2.026   0.480   4.114
 3094TIP3    H2 9226   2.162   0.447   4.057
 3095TIP3   OH2 9227   1.735   3.565   3.565
 3095TIP3    H1 9228   1.651   3.610   3.564
 3095TIP3    H2 9229   1.798   3.631   3.593
 3096TIP3   OH2 9230   7.448   6.893   6.007
 3096TIP3    H1 9231   7.385   6.822   6.020
 3096TIP3    H2 9232   7.419   6.962   6.066
 3097TIP3   OH2 9233   4.918   1.557   1.155
 3097TIP3    H1 9234   4.990   1.564   1.218
 3097TIP3    H2 9235   4.961   1.543   1.071
 3098TIP3   OH2 9236   4.520   5.692   0.856
 3098TIP3    H1 9237   4.506   5.759   0.924
 3098TIP3    H2 9238   4.613   5.669   0.864
 3099TIP3   OH2 9239   4.929   2.893   4.522
 3099TIP3    H1 9240   5.016   2.882   4.483
 3099TIP3    H2 9241   4.936   2.851   4.608
 3100TIP3   OH2 9242   4.839   6.001   5.497
 3100TIP3    H1 9243   4.809   6.060   5.566
 3100TIP3    H2 9244   4.783   5.924   5.506
 3101TIP3   OH2 9245   4.117   1.780   4.499
 3101TIP3    H1 9246   4.022   1.779   4.501
 3101TIP3    H2 9247   4.143   1.780   4.591
 3102TIP3   OH2 9248   3.525   1.843   0.267
 3102TIP3    H1 9249   3.603   1.789   0.280
 3102TIP3    H2 9250   3.457   1.781   0.241
 3103TIP3   OH2 9251   2.162   4.466   2.348
 3103TIP3    H1 9252   2.248   4.439   2.381
 3103TIP3    H2 9253   2.103   4.455   2.423
 3104TIP3   OH2 9254   6.157   3.801   3.847
 3104TIP3    H1 9255   6.140   3.849   3.767
 3104TIP3    H2 9256   6.091   3.831   3.909
 3105TIP3   OH2 9257   3.218   5.915   6.646
 3105TIP3    H1 9258   3.214   5.828   6.606
 3105TIP3    H2 9259   3.261   5.970   6.579
 3106TIP3   OH2 9260   0.973   1.259   6.133
 3106TIP3    H1 9261   1.011   1.334   6.086
 3106TIP3    H2 9262   0.878   1.274   6.130
 3107TIP3   OH2 9263   0.195   2.236   2.210
 3107TIP3    H1 9264   0.242   2.273   2.285
 3107TIP3    H2 9265   0.139   2.169   2.247
 3108TIP3   OH2 9266   3.976   6.420   2.461
 3108TIP3    H1 9267   3.989   6.461   2.376
 3108TIP3    H2 9268   3.943   6.490   2.517
 3109TIP3   OH2 9269   4.950   1.136   5.413
 3109TIP3    H1 9270   4.976   1.194   5.484
 3109TIP3    H2 9271   4.867   1.099   5.442
 3110TIP3   OH2 9272   0.918   4.039   0.917
 3110TIP3    H1 9273   0.985   4.092   0.960
 3110TIP3    H2 9274   0.914   4.072   0.828
 3111TIP3   OH2 9275   1.391   3.801   2.698
 3111TIP3    H1 9276   1.327   3.860   2.657
 3111TIP3    H2 9277   1.356   3.713   2.683
 3112TIP3   OH2 9278   4.116   4.807   6.749
 3112TIP3    H1 9279   4.091   4.779   6.661
 3112TIP3    H2 9280   4.137   4.900   6.740
 3113TIP3   OH2 9281   4.247   6.658   2.127
 3113TIP3    H1 9282   4.296   6.725   2.079
 3113TIP3    H2 9283   4.310   6.586   2.137
 3114TIP3   OH2 9284   3.464   1.688   0.762
 3114TIP3    H1 9285   3.390   1.734   0.722
 3114TIP3    H2 9286   3.500   1.751   0.824
 3115TIP3   OH2 9287   2.989   5.911   4.297
 3115TIP3    H1 9288   3.071   5.867   4.275
 3115TIP3    H2 9289   3.015   6.001   4.316
 3116TIP3   OH2 9290   2.756   0.046   1.862
 3116TIP3    H1 9291   2.738  -0.039   1.901
 3116TIP3    H2 9292   2.774   0.104   1.936
 3117TIP3   OH2 9293   4.488   0.286   5.580
 3117TIP3    H1 9294   4.418   0.337   5.622
 3117TIP3    H2 9295   4.452   0.198   5.572
 3118TIP3   OH2 9296   0.836   0.621   5.075
 3118TIP3    H1 9297   0.873   0.628   4.987
 3118TIP3    H2 9298   0.762   0.682   5.075
 3119TIP3   OH2 9299   7.519   1.030   6.704
 3119TIP3    H1 9300   7.588   1.058   6.764
 3119TIP3    H2 9301   7.499   1.108   6.652
 3120TIP3   OH2 9302   4.220   4.947   3.370
 3120TIP3    H1 9303   4.196   5.023   3.316
 3120TIP3    H2 9304   4.315   4.940   3.360
 3121TIP3   OH2 9305   4.958   7.511   2.173
 3121TIP3    H1 9306   4.867   7.531   2.151
 3121TIP3    H2 9307   5.000   7.493   2.090
 3122TIP3   OH2 9308   0.084   6.003   4.439
 3122TIP3    H1 9309   0.145   5.936   4.409
 3122TIP3    H2 9310   0.048   5.968   4.520
 3123TIP3   OH2 9311   0.623   5.651   1.397
 3123TIP3    H1 9312   0.618   5.693   1.483
 3123TIP3    H2 9313   0.661   5.565   1.415
 3124TIP3   OH2 9314   7.454   5.336   5.344
 3124TIP3    H1 9315   7.392   5.266   5.363
 3124TIP3    H2 9316   7.503   5.348   5.426
 3125TIP3   OH2 9317   4.659   3.169   1.796
 3125TIP3    H1 9318   4.720   3.194   1.866
 3125TIP3    H2 9319   4.582   3.136   1.841
 3126TIP3   OH2 9320   3.479   1.148   2.630
 3126TIP3    H1 9321   3.462   1.075   2.571
 3126TIP3    H2 9322   3.550   1.117   2.687
 3127TIP3   OH2 9323   7.570   4.415   3.325
 3127TIP3    H1 9324   7.543   4.360   3.399
 3127TIP3    H2 9325   7.628   4.481   3.364
 3128TIP3   OH2 9326   8.192   0.324   3.144
 3128TIP3    H1 9327   8.144   0.345   3.064
 3128TIP3    H2 9328   8.185   0.403   3.198
 3129TIP3   OH2 9329   1.137   4.906   1.241
 3129TIP3    H1 9330   1.171   4.940   1.324
 3129TIP3    H2 9331   1.044   4.930   1.243
 3130TIP3   OH2 9332   0.851   0.853   6.136
 3130TIP3    H1 9333   0.862   0.861   6.230
 3130TIP3    H2 9334   0.906   0.778   6.112
 3131TIP3   OH2 9335   4.990   6.722   1.697
 3131TIP3    H1 9336   4.967   6.794   1.755
 3131TIP3    H2 9337   5.082   6.704   1.716
 3132TIP3   OH2 9338   8.240   3.112   3.510
 3132TIP3    H1 9339   8.197   3.070   3.585
 3132TIP3    H2 9340   8.182   3.094   3.436
 3133TIP3   OH2 9341   1.309   2.940   5.798
 3133TIP3    H1 9342   1.240   2.877   5.821
 3133TIP3    H2 9343   1.391   2.896   5.820
 3134TIP3   OH2 9344   2.760   7.485   2.332
 3134TIP3    H1 9345   2.676   7.510   2.370
 3134TIP3    H2 9346   2.744   7.478   2.238
 3135TIP3   OH2 9347   6.132   6.710   5.589
 3135TIP3    H1 9348   6.115   6.792   5.636
 3135TIP3    H2 9349   6.108   6.730   5.498
 3136TIP3   OH2 9350   4.933   4.787   2.147
 3136TIP3    H1 9351   4.878   4.788   2.069
 3136TIP3    H2 9352   4.959   4.695   2.157
 3137TIP3   OH2 9353   8.113   2.467   3.389
 3137TIP3    H1 9354   8.036   2.515   3.360
 3137TIP3    H2 9355   8.080   2.381   3.415
 3138TIP3   OH2 9356   6.016   0.870   6.276
 3138TIP3    H1 9357   6.051   0.912   6.354
 3138TIP3    H2 9358   6.089   0.818   6.242
 3139TIP3   OH2 9359   3.924   4.307   1.219
 3139TIP3    H1 9360   3.964   4.324   1.305
 3139TIP3    H2 9361   3.964   4.225   1.190
 3140TIP3   OH2 9362   1.363   3.587   1.759
 3140TIP3    H1 9363   1.279   3.554   1.729
 3140TIP3    H2 9364   1.342   3.649   1.829
 3141TIP3   OH2 9365   5.992   1.696   3.972
 3141TIP3    H1 9366   5.926   1.748   4.017
 3141TIP3    H2 9367   5.954   1.608   3.967
 3142TIP3   OH2 9368   5.484   4.904   1.822
 3142TIP3    H1 9369   5.433   4.967   1.872
 3142TIP3    H2 9370   5.428   4.826   1.817
 3143TIP3   OH2 9371   6.534   2.405   1.943
 3143TIP3    H1 9372   6.447   2.442   1.926
 3143TIP3    H2 9373   6.518   2.314   1.966
 3144TIP3   OH2 9374   2.883   3.609   2.072
 3144TIP3    H1 9375   2.949   3.678   2.075
 3144TIP3    H2 9376   2.840   3.621   1.988
 3145TIP3   OH2 9377   7.688   2.292   5.332
 3145TIP3    H1 9378   7.668   2.203   5.361
 3145TIP3    H2 9379   7.768   2.283   5.280
 3146TIP3   OH2 9380   2.654   6.634   5.470
 3146TIP3    H1 9381   2.616   6.566   5.415
 3146TIP3    H2 9382   2.616   6.715   5.437
 3147TIP3   OH2 9383   0.055   5.351   4.239
 3147TIP3    H1 9384  -0.016   5.403   4.203
 3147TIP3    H2 9385   0.046   5.361   4.334
 3148TIP3   OH2 9386   2.150   7.825   1.946
 3148TIP3    H1 9387   2.087   7.880   1.899
 3148TIP3    H2 9388   2.182   7.764   1.879
 3149TIP3   OH2 9389   6.240   3.773   4.344
 3149TIP3    H1 9390   6.211   3.840   4.282
 3149TIP3    H2 9391   6.327   3.802   4.372
 3150TIP3   OH2 9392   1.936   4.771   5.637
 3150TIP3    H1 9393   2.008   4.797   5.578
 3150TIP3    H2 9394   1.865   4.747   5.578
 3151TIP3   OH2 9395   0.698   0.810   0.913
 3151TIP3    H1 9396   0.717   0.877   0.978
 3151TIP3    H2 9397   0.668   0.859   0.836
 3152TIP3   OH2 9398   0.852   1.764   1.870
 3152TIP3    H1 9399   0.915   1.693   1.869
 3152TIP3    H2 9400   0.838   1.783   1.963
 3153TIP3   OH2 9401   7.226   6.172   1.830
 3153TIP3    H1 9402   7.180   6.100   1.787
 3153TIP3    H2 9403   7.246   6.234   1.760
 3154TIP3   OH2 9404   2.707   0.563   4.516
 3154TIP3    H1 9405   2.661   0.542   4.597
 3154TIP3    H2 9406   2.784   0.505   4.517
 3155TIP3   OH2 9407   2.301   1.596   0.540
 3155TIP3    H1 9408   2.329   1.506   0.522
 3155TIP3    H2 9409   2.238   1.587   0.612
 3156TIP3   OH2 9410   3.110   3.571   1.199
 3156TIP3    H1 9411   3.144   3.512   1.132
 3156TIP3    H2 9412   3.074   3.512   1.266
 3157TIP3   OH2 9413   6.944   6.944   5.988
 3157TIP3    H1 9414   6.965   6.852   6.005
 3157TIP3    H2 9415   6.882   6.968   6.056
 3158TIP3   OH2 9416   5.442   3.620   2.785
 3158TIP3    H1 9417   5.487   3.540   2.809
 3158TIP3    H2 9418   5.466   3.635   2.694
 3159TIP3   OH2 9419   0.841   0.779   4.618
 3159TIP3    H1 9420   0.847   0.736   4.533
 3159TIP3    H2 9421   0.797   0.862   4.600
 3160TIP3   OH2 9422   1.617   4.122   4.275
 3160TIP3    H1 9423   1.522   4.135   4.278
 3160TIP3    H2 9424   1.647   4.144   4.363
 3161TIP3   OH2 9425   7.537   3.599   0.609
 3161TIP3    H1 9426   7.497   3.640   0.532
 3161TIP3    H2 9427   7.504   3.650   0.683
 3162TIP3   OH2 9428   5.829   5.294   1.625
 3162TIP3    H1 9429   5.815   5.365   1.688
 3162TIP3    H2 9430   5.922   5.274   1.632
 3163TIP3   OH2 9431   3.721   0.902   4.345
 3163TIP3    H1 9432   3.664   0.831   4.375
 3163TIP3    H2 9433   3.661   0.967   4.308
 3164TIP3   OH2 9434   1.284   3.387   2.695
 3164TIP3    H1 9435   1.283   3.293   2.711
 3164TIP3    H2 9436   1.351   3.421   2.753
 3165TIP3   OH2 9437   2.721   7.157   2.165
 3165TIP3    H1 9438   2.760   7.082   2.119
 3165TIP3    H2 9439   2.790   7.187   2.224
 3166TIP3   OH2 9440   5.362   2.548   5.449
 3166TIP3    H1 9441   5.385   2.568   5.540
 3166TIP3    H2 9442   5.439   2.573   5.398
 3167TIP3   OH2 9443   6.395   3.452   4.582
 3167TIP3    H1 9444   6.419   3.381   4.642
 3167TIP3    H2 9445   6.452   3.441   4.507
 3168TIP3   OH2 9446   3.470   3.667   6.062
 3168TIP3    H1 9447   3.424   3.662   5.978
 3168TIP3    H2 9448   3.528   3.591   6.061
 3169TIP3   OH2 9449   4.153   4.581   5.361
 3169TIP3    H1 9450   4.065   4.551   5.383
 3169TIP3    H2 9451   4.173   4.648   5.426
 3170TIP3   OH2 9452   6.788   5.932   6.531
 3170TIP3    H1 9453   6.709   5.923   6.478
 3170TIP3    H2 9454   6.836   5.850   6.518
 3171TIP3   OH2 9455   1.340   5.426   6.270
 3171TIP3    H1 9456   1.400   5.438   6.196
 3171TIP3    H2 9457   1.259   5.395   6.230
 3172TIP3   OH2 9458   6.523   1.800   5.481
 3172TIP3    H1 9459   6.437   1.815   5.443
 3172TIP3    H2 9460   6.551   1.715   5.444
 3173TIP3   OH2 9461   1.496   4.004   0.429
 3173TIP3    H1 9462   1.470   3.922   0.388
 3173TIP3    H2 9463   1.440   4.070   0.387
 3174TIP3   OH2 9464   6.801   5.803   0.542
 3174TIP3    H1 9465   6.827   5.846   0.461
 3174TIP3    H2 9466   6.804   5.709   0.522
 3175TIP3   OH2 9467   1.819   3.429   1.329
 3175TIP3    H1 9468   1.888   3.418   1.263
 3175TIP3    H2 9469   1.758   3.358   1.311
 3176TIP3   OH2 9470   5.121   4.449   3.019
 3176TIP3    H1 9471   5.195   4.467   3.077
 3176TIP3    H2 9472   5.138   4.363   2.983
 3177TIP3   OH2 9473   3.883   0.877   4.143
 3177TIP3    H1 9474   3.804   0.876   4.198
 3177TIP3    H2 9475   3.928   0.958   4.167
 3178TIP3   OH2 9476   0.781   5.470   5.160
 3178TIP3    H1 9477   0.775   5.444   5.068
 3178TIP3    H2 9478   0.731   5.551   5.166
 3179TIP3   OH2 9479   0.634   6.870   3.629
 3179TIP3    H1 9480   0.621   6.893   3.721
 3179TIP3    H2 9481   0.702   6.930   3.598
 3180TIP3   OH2 9482   0.301   6.812   2.931
 3180TIP3    H1 9483   0.338   6.900   2.938
 3180TIP3    H2 9484   0.281   6.803   2.838
 3181TIP3   OH2 9485   4.529   4.547   3.066
 3181TIP3    H1 9486   4.592   4.485   3.104
 3181TIP3    H2 9487   4.554   4.632   3.102
 3182TIP3   OH2 9488   6.165   3.236   1.386
 3182TIP3    H1 9489   6.210   3.218   1.469
 3182TIP3    H2 9490   6.128   3.152   1.360
 3183TIP3   OH2 9491   0.993   5.427   3.067
 3183TIP3    H1 9492   0.908   5.389   3.090
 3183TIP3    H2 9493   1.036   5.443   3.151
 3184TIP3   OH2 9494   1.522   5.863   1.463
 3184TIP3    H1 9495   1.523   5.883   1.369
 3184TIP3    H2 9496   1.604   5.815   1.477
 3185TIP3   OH2 9497   1.172   4.212   2.750
 3185TIP3    H1 9498   1.182   4.214   2.845
 3185TIP3    H2 9499   1.145   4.122   2.731
 3186TIP3   OH2 9500   5.236   2.871   1.406
 3186TIP3    H1 9501   5.269   2.896   1.493
 3186TIP3    H2 9502   5.289   2.922   1.345
 3187TIP3   OH2 9503   5.560   4.348   1.659
 3187TIP3    H1 9504   5.509   4.417   1.701
 3187TIP3    H2 9505   5.647   4.386   1.648
 3188TIP3   OH2 9506   5.702   1.470   2.624
 3188TIP3    H1 9507   5.717   1.450   2.532
 3188TIP3    H2 9508   5.789   1.480   2.662
 3189TIP3   OH2 9509   0.241   5.091   4.977
 3189TIP3    H1 9510   0.160   5.110   4.930
 3189TIP3    H2 9511   0.233   4.999   5.003
 3190TIP3   OH2 9512   0.770   0.313   4.583
 3190TIP3    H1 9513   0.862   0.325   4.558
 3190TIP3    H2 9514   0.773   0.252   4.657
 3191TIP3   OH2 9515   6.753   6.861   5.491
 3191TIP3    H1 9516   6.827   6.898   5.443
 3191TIP3    H2 9517   6.792   6.822   5.570
 3192TIP3   OH2 9518   7.178   2.614   4.100
 3192TIP3    H1 9519   7.181   2.648   4.011
 3192TIP3    H2 9520   7.259   2.645   4.141
 3193TIP3   OH2 9521   4.079   5.072   6.695
 3193TIP3    H1 9522   4.128   5.135   6.641
 3193TIP3    H2 9523   3.997   5.059   6.647
 3194TIP3   OH2 9524   3.842   3.309   1.652
 3194TIP3    H1 9525   3.756   3.324   1.691
 3194TIP3    H2 9526   3.832   3.340   1.561
 3195TIP3   OH2 9527   4.001   2.456   6.136
 3195TIP3    H1 9528   3.997   2.442   6.042
 3195TIP3    H2 9529   4.090   2.431   6.161
 3196TIP3   OH2 9530   1.879   2.736   0.970
 3196TIP3    H1 9531   1.835   2.791   0.905
 3196TIP3    H2 9532   1.827   2.655   0.970
 3197TIP3   OH2 9533   0.530   3.204   5.650
 3197TIP3    H1 9534   0.472   3.270   5.610
 3197TIP3    H2 9535   0.601   3.254   5.688
 3198TIP3   OH2 9536   0.775   5.185   3.503
 3198TIP3    H1 9537   0.861   5.149   3.526
 3198TIP3    H2 9538   0.747   5.132   3.428
 3199TIP3   OH2 9539   0.732   2.314   4.121
 3199TIP3    H1 9540   0.676   2.355   4.055
 3199TIP3    H2 9541   0.820   2.345   4.100
 3200TIP3   OH2 9542   0.582   2.806   0.983
 3200TIP3    H1 9543   0.607   2.774   1.070
 3200TIP3    H2 9544   0.529   2.884   1.001
 3201TIP3   OH2 9545   0.091   4.890   0.559
 3201TIP3    H1 9546   0.033   4.906   0.484
 3201TIP3    H2 9547   0.170   4.940   0.539
 3202TIP3   OH2 9548   6.781   7.490   6.085
 3202TIP3    H1 9549   6.833   7.566   6.060
 3202TIP3    H2 9550   6.702   7.527   6.126
 3203TIP3   OH2 9551   2.343   3.879   2.326
 3203TIP3    H1 9552   2.347   3.871   2.230
 3203TIP3    H2 9553   2.256   3.847   2.349
 3204TIP3   OH2 9554   5.325   3.390   5.465
 3204TIP3    H1 9555   5.286   3.310   5.431
 3204TIP3    H2 9556   5.254   3.455   5.460
 3205TIP3   OH2 9557   5.902   2.837   5.665
 3205TIP3    H1 9558   5.831   2.875   5.717
 3205TIP3    H2 9559   5.925   2.906   5.602
 3206TIP3   OH2 9560   8.200   2.958   1.404
 3206TIP3    H1 9561   8.158   2.879   1.436
 3206TIP3    H2 9562   8.130   3.022   1.397
 3207TIP3   OH2 9563   7.920   4.138   1.979
 3207TIP3    H1 9564   7.991   4.090   2.023
 3207TIP3    H2 9565   7.952   4.228   1.975
 3208TIP3   OH2 9566   3.532   0.381   6.525
 3208TIP3    H1 9567   3.627   0.381   6.512
 3208TIP3    H2 9568   3.496   0.395   6.438
 3209TIP3   OH2 9569   4.974   7.315   0.777
 3209TIP3    H1 9570   4.916   7.385   0.810
 3209TIP3    H2 9571   5.054   7.324   0.829
 3210TIP3   OH2 9572   4.659   3.574   2.919
 3210TIP3    H1 9573   4.730   3.580   2.984
 3210TIP3    H2 9574   4.582   3.549   2.970
 3211TIP3   OH2 9575   0.706   2.164   0.315
 3211TIP3    H1 9576   0.744   2.146   0.401
 3211TIP3    H2 9577   0.617   2.128   0.320
 3212TIP3   OH2 9578   1.469   0.553   2.493
 3212TIP3    H1 9579   1.433   0.625   2.442
 3212TIP3    H2 9580   1.411   0.479   2.476
 3213TIP3   OH2 9581   1.833   2.133   4.712
 3213TIP3    H1 9582   1.908   2.123   4.653
 3213TIP3    H2 9583   1.815   2.044   4.742
 3214TIP3   OH2 9584   0.572   6.685   0.438
 3214TIP3    H1 9585   0.502   6.740   0.403
 3214TIP3    H2 9586   0.593   6.625   0.366
 3215TIP3   OH2 9587   6.944   6.589   6.300
 3215TIP3    H1 9588   6.856   6.551   6.292
 3215TIP3    H2 9589   6.997   6.539   6.239
 3216TIP3   OH2 9590   8.206   7.525   4.469
 3216TIP3    H1 9591   8.169   7.441   4.495
 3216TIP3    H2 9592   8.265   7.549   4.540
 3217TIP3   OH2 9593   1.191   4.274   6.539
 3217TIP3    H1 9594   1.205   4.236   6.452
 3217TIP3    H2 9595   1.260   4.235   6.593
 3218TIP3   OH2 9596   0.763   7.638   2.596
 3218TIP3    H1 9597   0.677   7.599   2.613
 3218TIP3    H2 9598   0.775   7.630   2.502
 3219TIP3   OH2 9599   1.190   0.301   2.678
 3219TIP3    H1 9600   1.213   0.376   2.733
 3219TIP3    H2 9601   1.274   0.260   2.657
 3220TIP3   OH2 9602   3.373   0.909   1.916
 3220TIP3    H1 9603   3.376   0.839   1.980
 3220TIP3    H2 9604   3.464   0.929   1.897
 3221TIP3   OH2 9605   1.152   2.267   0.482
 3221TIP3    H1 9606   1.101   2.241   0.405
 3221TIP3    H2 9607   1.240   2.283   0.448
 3222TIP3   OH2 9608   3.474   0.697   1.234
 3222TIP3    H1 9609   3.548   0.675   1.177
 3222TIP3    H2 9610   3.444   0.782   1.202
 3223TIP3   OH2 9611   0.039   2.379   0.453
 3223TIP3    H1 9612   0.060   2.341   0.368
 3223TIP3    H2 9613  -0.050   2.413   0.442
 3224TIP3   OH2 9614   3.922   0.015   2.684
 3224TIP3    H1 9615   3.839   0.054   2.712
 3224TIP3    H2 9616   3.911  -0.079   2.700
 3225TIP3   OH2 9617   7.810   3.996   1.777
 3225TIP3    H1 9618   7.730   3.954   1.811
 3225TIP3    H2 9619   7.852   4.033   1.855
 3226TIP3   OH2 9620   5.337   1.673   0.765
 3226TIP3    H1 9621   5.366   1.593   0.721
 3226TIP3    H2 9622   5.407   1.693   0.827
 3227TIP3   OH2 9623   0.444   1.428   2.265
 3227TIP3    H1 9624   0.368   1.470   2.305
 3227TIP3    H2 9625   0.418   1.336   2.254
 3228TIP3   OH2 9626   0.320   2.069   2.584
 3228TIP3    H1 9627   0.409   2.104   2.580
 3228TIP3    H2 9628   0.280   2.114   2.659
 3229TIP3   OH2 9629   5.088   7.127   1.809
 3229TIP3    H1 9630   5.091   7.223   1.817
 3229TIP3    H2 9631   5.157   7.096   1.868
 3230TIP3   OH2 9632   1.186   5.500   1.690
 3230TIP3    H1 9633   1.211   5.591   1.675
 3230TIP3    H2 9634   1.268   5.457   1.717
 3231TIP3   OH2 9635   1.970   7.022   3.128
 3231TIP3    H1 9636   1.939   6.958   3.064
 3231TIP3    H2 9637   1.893   7.075   3.149
 3232TIP3   OH2 9638   2.696   5.249   2.735
 3232TIP3    H1 9639   2.757   5.298   2.680
 3232TIP3    H2 9640   2.725   5.158   2.728
 3233TIP3   OH2 9641   3.704   6.632   4.893
 3233TIP3    H1 9642   3.673   6.554   4.939
 3233TIP3    H2 9643   3.745   6.597   4.813
 3234TIP3   OH2 9644   3.185   4.239   4.825
 3234TIP3    H1 9645   3.267   4.190   4.829
 3234TIP3    H2 9646   3.212   4.330   4.816
 3235TIP3   OH2 9647   5.685   4.454   3.507
 3235TIP3    H1 9648   5.715   4.542   3.531
 3235TIP3    H2 9649   5.648   4.419   3.588
 3236TIP3   OH2 9650   4.013   1.229   3.136
 3236TIP3    H1 9651   4.031   1.146   3.180
 3236TIP3    H2 9652   4.088   1.284   3.157
 3237TIP3   OH2 9653   1.751   2.491   1.785
 3237TIP3    H1 9654   1.700   2.419   1.747
 3237TIP3    H2 9655   1.706   2.570   1.754
 3238TIP3   OH2 9656   3.272   6.245   2.721
 3238TIP3    H1 9657   3.177   6.245   2.706
 3238TIP3    H2 9658   3.283   6.205   2.807
 3239TIP3   OH2 9659   6.847   4.735   4.576
 3239TIP3    H1 9660   6.827   4.703   4.488
 3239TIP3    H2 9661   6.885   4.659   4.621
 3240TIP3   OH2 9662   1.926   2.746   0.152
 3240TIP3    H1 9663   1.996   2.783   0.099
 3240TIP3    H2 9664   1.854   2.810   0.144
 3241TIP3   OH2 9665   2.855   6.802   1.092
 3241TIP3    H1 9666   2.840   6.884   1.137
 3241TIP3    H2 9667   2.950   6.799   1.079
 3242TIP3   OH2 9668   7.698   3.607   6.356
 3242TIP3    H1 9669   7.777   3.566   6.319
 3242TIP3    H2 9670   7.654   3.536   6.402
 3243TIP3   OH2 9671   1.691   1.807   6.480
 3243TIP3    H1 9672   1.759   1.875   6.489
 3243TIP3    H2 9673   1.714   1.762   6.399
 3244TIP3   OH2 9674   5.222   1.304   5.806
 3244TIP3    H1 9675   5.298   1.260   5.768
 3244TIP3    H2 9676   5.180   1.237   5.860
 3245TIP3   OH2 9677   7.982   0.126   5.199
 3245TIP3    H1 9678   7.933   0.045   5.211
 3245TIP3    H2 9679   7.916   0.193   5.187
 3246TIP3   OH2 9680   4.935   1.290   1.277
 3246TIP3    H1 9681   5.010   1.274   1.219
 3246TIP3    H2 9682   4.906   1.379   1.256
 3247TIP3   OH2 9683   4.857   7.376   5.798
 3247TIP3    H1 9684   4.861   7.321   5.719
 3247TIP3    H2 9685   4.763   7.384   5.816
 3248TIP3   OH2 9686   0.641   0.974   0.699
 3248TIP3    H1 9687   0.726   0.997   0.661
 3248TIP3    H2 9688   0.595   1.058   0.707
 3249TIP3   OH2 9689   8.055   0.644   1.513
 3249TIP3    H1 9690   8.091   0.571   1.464
 3249TIP3    H2 9691   8.118   0.715   1.501
 3250TIP3   OH2 9692   1.529   6.215   4.586
 3250TIP3    H1 9693   1.587   6.143   4.563
 3250TIP3    H2 9694   1.530   6.218   4.681
 3251TIP3   OH2 9695   1.316   4.310   5.721
 3251TIP3    H1 9696   1.405   4.274   5.727
 3251TIP3    H2 9697   1.292   4.329   5.811
 3252TIP3   OH2 9698   6.923   0.862   5.421
 3252TIP3    H1 9699   6.893   0.844   5.331
 3252TIP3    H2 9700   6.909   0.779   5.467
 3253TIP3   OH2 9701   1.643   2.657   6.036
 3253TIP3    H1 9702   1.583   2.586   6.057
 3253TIP3    H2 9703   1.595   2.710   5.972
 3254TIP3   OH2 9704   7.106   1.279   6.494
 3254TIP3    H1 9705   7.064   1.196   6.471
 3254TIP3    H2 9706   7.053   1.346   6.451
 3255TIP3   OH2 9707   6.197   5.131   4.627
 3255TIP3    H1 9708   6.173   5.124   4.719
 3255TIP3    H2 9709   6.268   5.196   4.626
 3256TIP3   OH2 9710   0.139   3.194   5.748
 3256TIP3    H1 9711   0.225   3.153   5.756
 3256TIP3    H2 9712   0.088   3.132   5.696
 3257TIP3   OH2 9713   5.257   0.857   0.000
 3257TIP3    H1 9714   5.352   0.854  -0.005
 3257TIP3    H2 9715   5.234   0.948  -0.017
 3258TIP3   OH2 9716   5.949   2.494   0.167
 3258TIP3    H1 9717   5.999   2.427   0.121
 3258TIP3    H2 9718   5.913   2.448   0.243
 3259TIP3   OH2 9719   7.155   2.254   3.769
 3259TIP3    H1 9720   7.121   2.343   3.762
 3259TIP3    H2 9721   7.236   2.263   3.820
 3260TIP3   OH2 9722   3.091   7.710   1.925
 3260TIP3    H1 9723   3.026   7.761   1.877
 3260TIP3    H2 9724   3.050   7.693   2.010
 3261TIP3   OH2 9725   4.047   1.704   6.030
 3261TIP3    H1 9726   4.129   1.668   5.995
 3261TIP3    H2 9727   4.031   1.781   5.976
 3262TIP3   OH2 9728   5.130   7.509   3.592
 3262TIP3    H1 9729   5.047   7.494   3.637
 3262TIP3    H2 9730   5.132   7.603   3.575
 3263TIP3   OH2 9731   2.245   7.002   1.052
 3263TIP3    H1 9732   2.170   6.944   1.057
 3263TIP3    H2 9733   2.302   6.964   0.985
 3264TIP3   OH2 9734   1.108   0.475   4.789
 3264TIP3    H1 9735   1.020   0.513   4.791
 3264TIP3    H2 9736   1.138   0.489   4.699
 3265TIP3   OH2 9737   0.219   2.107   1.650
 3265TIP3    H1 9738   0.128   2.132   1.632
 3265TIP3    H2 9739   0.263   2.189   1.674
 3266TIP3   OH2 9740   7.083   6.830   0.627
 3266TIP3    H1 9741   7.097   6.744   0.667
 3266TIP3    H2 9742   7.035   6.811   0.547
 3267TIP3   OH2 9743   2.015   7.454   2.343
 3267TIP3    H1 9744   2.000   7.541   2.306
 3267TIP3    H2 9745   2.107   7.435   2.322
 3268TIP3   OH2 9746   5.589   5.234   1.526
 3268TIP3    H1 9747   5.673   5.254   1.567
 3268TIP3    H2 9748   5.584   5.139   1.525
 3269TIP3   OH2 9749   3.534   3.921   3.631
 3269TIP3    H1 9750   3.494   4.006   3.615
 3269TIP3    H2 9751   3.463   3.866   3.663
 3270TIP3   OH2 9752   2.185   4.720   0.258
 3270TIP3    H1 9753   2.171   4.656   0.327
 3270TIP3    H2 9754   2.103   4.770   0.255
 3271TIP3   OH2 9755   6.602   5.076   2.227
 3271TIP3    H1 9756   6.675   5.057   2.168
 3271TIP3    H2 9757   6.594   4.997   2.281
 3272TIP3   OH2 9758   7.367   6.216   2.703
 3272TIP3    H1 9759   7.454   6.186   2.677
 3272TIP3    H2 9760   7.307   6.158   2.656
 3273TIP3   OH2 9761   3.234   5.717   3.538
 3273TIP3    H1 9762   3.328   5.706   3.552
 3273TIP3    H2 9763   3.222   5.812   3.529
 3274TIP3   OH2 9764   4.156   2.070   0.008
 3274TIP3    H1 9765   4.139   2.064  -0.086
 3274TIP3    H2 9766   4.090   2.131   0.041
 3275TIP3   OH2 9767   5.557   7.153   3.098
 3275TIP3    H1 9768   5.648   7.150   3.125
 3275TIP3    H2 9769   5.514   7.210   3.162
 3276TIP3   OH2 9770   7.040   6.989   2.517
 3276TIP3    H1 9771   7.075   6.984   2.606
 3276TIP3    H2 9772   7.099   7.050   2.472
 3277TIP3   OH2 9773   7.627   2.555   3.121
 3277TIP3    H1 9774   7.545   2.599   3.098
 3277TIP3    H2 9775   7.604   2.463   3.128
 3278TIP3   OH2 9776   5.196   3.702   5.936
 3278TIP3    H1 9777   5.120   3.729   5.988
 3278TIP3    H2 9778   5.165   3.627   5.886
 3279TIP3   OH2 9779   5.376   1.707   5.229
 3279TIP3    H1 9780   5.334   1.741   5.150
 3279TIP3    H2 9781   5.466   1.738   5.224
 3280TIP3   OH2 9782   2.668   3.182   4.767
 3280TIP3    H1 9783   2.705   3.254   4.817
 3280TIP3    H2 9784   2.741   3.123   4.750
 3281TIP3   OH2 9785   3.813   4.672   5.641
 3281TIP3    H1 9786   3.830   4.703   5.553
 3281TIP3    H2 9787   3.801   4.577   5.631
 3282TIP3   OH2 9788   4.882   1.738   4.460
 3282TIP3    H1 9789   4.974   1.720   4.475
 3282TIP3    H2 9790   4.848   1.765   4.545
 3283TIP3   OH2 9791   0.219   7.508   2.553
 3283TIP3    H1 9792   0.283   7.454   2.506
 3283TIP3    H2 9793   0.156   7.445   2.588
 3284TIP3   OH2 9794   1.341   2.466   5.937
 3284TIP3    H1 9795   1.393   2.398   5.979
 3284TIP3    H2 9796   1.333   2.535   6.003
 3285TIP3   OH2 9797   1.137   5.670   5.702
 3285TIP3    H1 9798   1.156   5.580   5.675
 3285TIP3    H2 9799   1.174   5.724   5.633
 3286TIP3   OH2 9800   7.471   0.750   5.882
 3286TIP3    H1 9801   7.433   0.697   5.812
 3286TIP3    H2 9802   7.565   0.734   5.876
 3287TIP3   OH2 9803   1.490   1.604   3.882
 3287TIP3    H1 9804   1.512   1.600   3.975
 3287TIP3    H2 9805   1.535   1.529   3.843
 3288TIP3   OH2 9806   1.701   0.758   4.036
 3288TIP3    H1 9807   1.649   0.691   3.992
 3288TIP3    H2 9808   1.776   0.772   3.977
 3289TIP3   OH2 9809   1.442   2.526   6.538
 3289TIP3    H1 9810   1.416   2.617   6.554
 3289TIP3    H2 9811   1.395   2.476   6.605
 3290TIP3   OH2 9812   0.745   6.977   2.451
 3290TIP3    H1 9813   0.774   6.885   2.448
 3290TIP3    H2 9814   0.777   7.009   2.536
 3291TIP3   OH2 9815   0.391   4.194   5.984
 3291TIP3    H1 9816   0.445   4.164   5.910
 3291TIP3    H2 9817   0.301   4.189   5.951
 3292TIP3   OH2 9818   7.570   3.488   2.993
 3292TIP3    H1 9819   7.658   3.458   3.014
 3292TIP3    H2 9820   7.581   3.574   2.954
 3293TIP3   OH2 9821   1.858   1.125   5.795
 3293TIP3    H1 9822   1.897   1.193   5.850
 3293TIP3    H2 9823   1.807   1.071   5.856
 3294TIP3   OH2 9824   7.121   7.270   4.018
 3294TIP3    H1 9825   7.215   7.251   4.018
 3294TIP3    H2 9826   7.083   7.198   3.967
 3295TIP3   OH2 9827   5.614   2.067   1.416
 3295TIP3    H1 9828   5.526   2.085   1.448
 3295TIP3    H2 9829   5.601   2.001   1.348
 3296TIP3   OH2 9830   3.598   7.585   2.111
 3296TIP3    H1 9831   3.529   7.541   2.062
 3296TIP3    H2 9832   3.647   7.514   2.153
 3297TIP3   OH2 9833   7.257   2.509   3.305
 3297TIP3    H1 9834   7.162   2.516   3.307
 3297TIP3    H2 9835   7.274   2.417   3.282
 3298TIP3   OH2 9836   7.326   0.749   2.930
 3298TIP3    H1 9837   7.242   0.737   2.974
 3298TIP3    H2 9838   7.391   0.739   3.000
 3299TIP3   OH2 9839   5.488   1.251   4.138
 3299TIP3    H1 9840   5.510   1.186   4.205
 3299TIP3    H2 9841   5.445   1.321   4.187
 3300TIP3   OH2 9842   3.092   1.977   4.440
 3300TIP3    H1 9843   3.063   2.003   4.352
 3300TIP3    H2 9844   3.120   1.886   4.429
 3301TIP3   OH2 9845   0.823   7.661   3.632
 3301TIP3    H1 9846   0.855   7.723   3.566
 3301TIP3    H2 9847   0.741   7.627   3.596
 3302TIP3   OH2 9848   7.031   5.300   5.093
 3302TIP3    H1 9849   7.113   5.259   5.119
 3302TIP3    H2 9850   7.041   5.393   5.116
 3303TIP3   OH2 9851   5.731   2.660   5.531
 3303TIP3    H1 9852   5.812   2.708   5.548
 3303TIP3    H2 9853   5.673   2.725   5.491
 3304TIP3   OH2 9854   2.982   3.498   6.045
 3304TIP3    H1 9855   2.975   3.525   6.136
 3304TIP3    H2 9856   3.075   3.479   6.032
 3305TIP3   OH2 9857   7.041   7.026   3.098
 3305TIP3    H1 9858   6.963   7.078   3.077
 3305TIP3    H2 9859   7.056   6.973   3.020
 3306TIP3   OH2 9860   2.223   1.185   5.311
 3306TIP3    H1 9861   2.134   1.200   5.341
 3306TIP3    H2 9862   2.213   1.134   5.230
 3307TIP3   OH2 9863   5.772   1.321   6.632
 3307TIP3    H1 9864   5.679   1.306   6.612
 3307TIP3    H2 9865   5.818   1.256   6.581
 3308TIP3   OH2 9866   5.505   6.597   0.332
 3308TIP3    H1 9867   5.428   6.575   0.386
 3308TIP3    H2 9868   5.570   6.532   0.356
 3309TIP3   OH2 9869   7.857   0.140   2.321
 3309TIP3    H1 9870   7.781   0.097   2.360
 3309TIP3    H2 9871   7.841   0.233   2.334
 3310TIP3   OH2 9872   8.268   0.719   5.459
 3310TIP3    H1 9873   8.184   0.676   5.472
 3310TIP3    H2 9874   8.328   0.648   5.437
 3311TIP3   OH2 9875   2.591   0.447   3.608
 3311TIP3    H1 9876   2.497   0.445   3.587
 3311TIP3    H2 9877   2.620   0.357   3.595
 3312TIP3   OH2 9878   0.286   2.276   1.928
 3312TIP3    H1 9879   0.200   2.234   1.927
 3312TIP3    H2 9880   0.348   2.205   1.911
 3313TIP3   OH2 9881   0.652   2.520   1.955
 3313TIP3    H1 9882   0.624   2.608   1.983
 3313TIP3    H2 9883   0.736   2.507   1.998
 3314TIP3   OH2 9884   0.353   4.059   3.775
 3314TIP3    H1 9885   0.443   4.092   3.770
 3314TIP3    H2 9886   0.315   4.102   3.851
 3315TIP3   OH2 9887   8.194   3.833   3.375
 3315TIP3    H1 9888   8.276   3.784   3.377
 3315TIP3    H2 9889   8.221   3.925   3.381
 3316TIP3   OH2 9890   6.460   6.493   4.684
 3316TIP3    H1 9891   6.408   6.436   4.741
 3316TIP3    H2 9892   6.410   6.498   4.603
 3317TIP3   OH2 9893   2.957   7.356   1.612
 3317TIP3    H1 9894   2.900   7.427   1.585
 3317TIP3    H2 9895   2.957   7.295   1.538
 3318TIP3   OH2 9896   2.140   1.043   3.201
 3318TIP3    H1 9897   2.065   1.038   3.142
 3318TIP3    H2 9898   2.200   1.105   3.158
 3319TIP3   OH2 9899   3.630   4.433   1.001
 3319TIP3    H1 9900   3.626   4.351   1.049
 3319TIP3    H2 9901   3.676   4.493   1.059
 3320TIP3   OH2 9902   2.308   0.488   4.395
 3320TIP3    H1 9903   2.238   0.426   4.373
 3320TIP3    H2 9904   2.389   0.437   4.384
 3321TIP3   OH2 9905   6.415   4.418   6.646
 3321TIP3    H1 9906   6.423   4.362   6.569
 3321TIP3    H2 9907   6.504   4.451   6.661
 3322TIP3   OH2 9908   2.577   1.331   0.030
 3322TIP3    H1 9909   2.627   1.250   0.015
 3322TIP3    H2 9910   2.497   1.301   0.074
 3323TIP3   OH2 9911   1.711   7.161   0.172
 3323TIP3    H1 9912   1.793   7.211   0.170
 3323TIP3    H2 9913   1.667   7.183   0.090
 3324TIP3   OH2 9914   5.721   1.449   0.179
 3324TIP3    H1 9915   5.736   1.443   0.273
 3324TIP3    H2 9916   5.626   1.446   0.169
 3325TIP3   OH2 9917   7.994   5.108   0.358
 3325TIP3    H1 9918   7.933   5.146   0.295
 3325TIP3    H2 9919   8.012   5.179   0.420
 3326TIP3   OH2 9920   3.051   5.790   4.022
 3326TIP3    H1 9921   3.121   5.814   4.083
 3326TIP3    H2 9922   3.034   5.697   4.042
 3327TIP3   OH2 9923   2.031   2.273   6.766
 3327TIP3    H1 9924   2.041   2.360   6.726
 3327TIP3    H2 9925   2.118   2.250   6.796
 3328TIP3   OH2 9926   1.854   0.198   4.320
 3328TIP3    H1 9927   1.948   0.201   4.337
 3328TIP3    H2 9928   1.817   0.147   4.392
 3329TIP3   OH2 9929   5.553   2.598   5.247
 3329TIP3    H1 9930   5.563   2.660   5.175
 3329TIP3    H2 9931   5.641   2.562   5.259
 3330TIP3   OH2 9932   3.415   7.306   3.635
 3330TIP3    H1 9933   3.347   7.273   3.575
 3330TIP3    H2 9934   3.416   7.242   3.707
 3331TIP3   OH2 9935   0.217   0.594   0.537
 3331TIP3    H1 9936   0.129   0.613   0.568
 3331TIP3    H2 9937   0.232   0.657   0.466
 3332TIP3   OH2 9938   4.294   6.131   4.204
 3332TIP3    H1 9939   4.330   6.187   4.136
 3332TIP3    H2 9940   4.371   6.096   4.249
 3333TIP3   OH2 9941   7.671   2.741   5.182
 3333TIP3    H1 9942   7.580   2.732   5.210
 3333TIP3    H2 9943   7.684   2.668   5.121
 3334TIP3   OH2 9944   6.914   2.008   1.584
 3334TIP3    H1 9945   6.952   1.942   1.642
 3334TIP3    H2 9946   6.880   1.959   1.510
 3335TIP3   OH2 9947   2.454   2.012   2.966
 3335TIP3    H1 9948   2.375   1.959   2.967
 3335TIP3    H2 9949   2.423   2.101   2.949
 3336TIP3   OH2 9950   3.403   6.396   4.279
 3336TIP3    H1 9951   3.344   6.465   4.249
 3336TIP3    H2 9952   3.361   6.361   4.358
 3337TIP3   OH2 9953   4.008   1.069   5.950
 3337TIP3    H1 9954   3.970   1.105   6.030
 3337TIP3    H2 9955   3.960   1.111   5.879
 3338TIP3   OH2 9956   6.398   0.099   0.817
 3338TIP3    H1 9957   6.434   0.017   0.851
 3338TIP3    H2 9958   6.475   0.153   0.797
 3339TIP3   OH2 9959   3.840   0.318   4.250
 3339TIP3    H1 9960   3.894   0.251   4.292
 3339TIP3    H2 9961   3.877   0.328   4.163
 3340TIP3   OH2 9962   0.187   7.604   5.974
 3340TIP3    H1 9963   0.120   7.544   6.005
 3340TIP3    H2 9964   0.139   7.677   5.935
 3341TIP3   OH2 9965   1.947   3.838   4.717
 3341TIP3    H1 9966   1.917   3.824   4.628
 3341TIP3    H2 9967   1.879   3.799   4.772
 3342TIP3   OH2 9968   3.797   0.511   4.793
 3342TIP3    H1 9969   3.872   0.472   4.748
 3342TIP3    H2 9970   3.733   0.527   4.724
 3343TIP3   OH2 9971   5.860   4.763   1.482
 3343TIP3    H1 9972   5.849   4.694   1.547
 3343TIP3    H2 9973   5.954   4.765   1.464
 3344TIP3   OH2 9974   2.511   3.934   6.431
 3344TIP3    H1 9975   2.598   3.972   6.442
 3344TIP3    H2 9976   2.474   3.933   6.519
 3345TIP3   OH2 9977   1.068   5.672   1.440
 3345TIP3    H1 9978   1.011   5.743   1.410
 3345TIP3    H2 9979   1.129   5.714   1.500
 3346TIP3   OH2 9980   7.232   6.230   4.184
 3346TIP3    H1 9981   7.289   6.191   4.118
 3346TIP3    H2 9982   7.146   6.191   4.169
 3347TIP3   OH2 9983   2.419   0.848   5.045
 3347TIP3    H1 9984   2.456   0.926   5.086
 3347TIP3    H2 9985   2.399   0.875   4.956
 3348TIP3   OH2 9986   5.296   3.487   5.067
 3348TIP3    H1 9987   5.321   3.500   4.976
 3348TIP3    H2 9988   5.201   3.494   5.068
 3349TIP3   OH2 9989   2.154   7.724   1.488
 3349TIP3    H1 9990   2.092   7.796   1.483
 3349TIP3    H2 9991   2.209   7.733   1.409
 3350TIP3   OH2 9992   8.047   3.066   3.917
 3350TIP3    H1 9993   8.084   3.009   3.850
 3350TIP3    H2 9994   8.017   3.007   3.986
 3351TIP3   OH2 9995   6.552   0.565   5.389
 3351TIP3    H1 9996   6.594   0.550   5.304
 3351TIP3    H2 9997   6.613   0.526   5.453
 3352TIP3   OH2 9998   2.618   4.158   4.489
 3352TIP3    H1 9999   2.549   4.125   4.432
 3352TIP3    H210000   2.660   4.079   4.524
 3353TIP3   OH210001   5.779   6.715   4.927
 3353TIP3    H110002   5.809   6.688   5.014
 3353TIP3    H210003   5.688   6.740   4.939
 3354TIP3   OH210004   0.565   5.132   0.780
 3354TIP3    H110005   0.573   5.109   0.688
 3354TIP3    H210006   0.620   5.211   0.790
 3355TIP3   OH210007   6.554   1.964   1.356
 3355TIP3    H110008   6.605   1.928   1.284
 3355TIP3    H210009   6.505   2.037   1.317
 3356TIP3   OH210010   3.313   0.183   1.698
 3356TIP3    H110011   3.398   0.197   1.740
 3356TIP3    H210012   3.295   0.090   1.709
 3357TIP3   OH210013   1.804   7.643   4.848
 3357TIP3    H110014   1.859   7.633   4.770
 3357TIP3    H210015   1.733   7.580   4.835
 3358TIP3   OH210016   1.037   6.466   0.897
 3358TIP3    H110017   1.054   6.555   0.928
 3358TIP3    H210018   0.950   6.471   0.858
 3359TIP3   OH210019   6.535   4.942   1.224
 3359TIP3    H110020   6.471   4.992   1.275
 3359TIP3    H210021   6.586   4.894   1.290
 3360TIP3   OH210022   6.120   0.336   4.324
 3360TIP3    H110023   6.073   0.260   4.361
 3360TIP3    H210024   6.074   0.354   4.242
 3361TIP3   OH210025   0.060   5.507   2.923
 3361TIP3    H110026   0.111   5.430   2.947
 3361TIP3    H210027  -0.032   5.479   2.928
 3362TIP3   OH210028   0.534   1.780   0.515
 3362TIP3    H110029   0.525   1.829   0.596
 3362TIP3    H210030   0.521   1.845   0.446
 3363TIP3   OH210031   4.410   4.568   5.506
 3363TIP3    H110032   4.358   4.489   5.523
 3363TIP3    H210033   4.396   4.586   5.413
 3364TIP3   OH210034   0.759   6.489   3.184
 3364TIP3    H110035   0.717   6.407   3.157
 3364TIP3    H210036   0.787   6.473   3.274
 3365TIP3   OH210037   3.695   1.918   4.193
 3365TIP3    H110038   3.718   2.006   4.224
 3365TIP3    H210039   3.678   1.867   4.273
 3366TIP3   OH210040   5.089   5.514   6.495
 3366TIP3    H110041   5.049   5.582   6.441
 3366TIP3    H210042   5.117   5.559   6.575
 3367TIP3   OH210043   6.850   6.223   5.767
 3367TIP3    H110044   6.865   6.318   5.759
 3367TIP3    H210045   6.811   6.198   5.684
 3368TIP3   OH210046   3.812   5.559   5.269
 3368TIP3    H110047   3.890   5.606   5.242
 3368TIP3    H210048   3.764   5.543   5.187
 3369TIP3   OH210049   2.735   4.999   3.443
 3369TIP3    H110050   2.783   4.920   3.419
 3369TIP3    H210051   2.774   5.068   3.389
 3370TIP3   OH210052   1.549   5.151   3.251
 3370TIP3    H110053   1.598   5.175   3.172
 3370TIP3    H210054   1.592   5.199   3.322
 3371TIP3   OH210055   8.027   5.161   3.131
 3371TIP3    H110056   8.018   5.069   3.154
 3371TIP3    H210057   8.114   5.185   3.163
 3372TIP3   OH210058   3.449   4.994   2.499
 3372TIP3    H110059   3.494   4.928   2.552
 3372TIP3    H210060   3.520   5.041   2.455
 3373TIP3   OH210061   1.578   4.340   1.645
 3373TIP3    H110062   1.573   4.395   1.567
 3373TIP3    H210063   1.494   4.353   1.689
 3374TIP3   OH210064   2.434   2.802   2.551
 3374TIP3    H110065   2.480   2.719   2.540
 3374TIP3    H210066   2.500   2.861   2.587
 3375TIP3   OH210067   5.903   1.887   0.440
 3375TIP3    H110068   5.831   1.949   0.451
 3375TIP3    H210069   5.873   1.829   0.370
 3376TIP3   OH210070   0.286   5.375   2.582
 3376TIP3    H110071   0.289   5.284   2.552
 3376TIP3    H210072   0.377   5.403   2.582
 3377TIP3   OH210073   7.882   0.805   0.742
 3377TIP3    H110074   7.899   0.826   0.650
 3377TIP3    H210075   7.910   0.715   0.753
 3378TIP3   OH210076   1.328   0.613   4.979
 3378TIP3    H110077   1.410   0.624   5.026
 3378TIP3    H210078   1.305   0.701   4.948
 3379TIP3   OH210079   3.123   0.689   2.601
 3379TIP3    H110080   3.123   0.672   2.506
 3379TIP3    H210081   3.139   0.603   2.640
 3380TIP3   OH210082   7.326   5.231   0.588
 3380TIP3    H110083   7.300   5.200   0.675
 3380TIP3    H210084   7.248   5.219   0.534
 3381TIP3   OH210085   6.989   4.146   5.114
 3381TIP3    H110086   6.925   4.130   5.184
 3381TIP3    H210087   7.070   4.105   5.145
 3382TIP3   OH210088   4.101   4.439   3.525
 3382TIP3    H110089   4.181   4.420   3.475
 3382TIP3    H210090   4.039   4.372   3.497
 3383TIP3   OH210091   5.222   6.788   6.698
 3383TIP3    H110092   5.222   6.702   6.741
 3383TIP3    H210093   5.283   6.778   6.625
 3384TIP3   OH210094   2.384   5.478   6.711
 3384TIP3    H110095   2.459   5.478   6.651
 3384TIP3    H210096   2.411   5.419   6.781
 3385TIP3   OH210097   4.237   2.704   5.136
 3385TIP3    H110098   4.273   2.749   5.059
 3385TIP3    H210099   4.252   2.611   5.119
 3386TIP3   OH210100   4.119   0.810   4.791
 3386TIP3    H110101   4.084   0.775   4.710
 3386TIP3    H210102   4.119   0.736   4.851
 3387TIP3   OH210103   6.391   0.774   2.162
 3387TIP3    H110104   6.385   0.803   2.253
 3387TIP3    H210105   6.476   0.731   2.156
 3388TIP3   OH210106   2.655   3.254   2.733
 3388TIP3    H110107   2.567   3.251   2.696
 3388TIP3    H210108   2.646   3.305   2.813
 3389TIP3   OH210109   5.346   3.285   2.315
 3389TIP3    H110110   5.260   3.258   2.346
 3389TIP3    H210111   5.367   3.223   2.245
 3390TIP3   OH210112   0.765   1.458   3.490
 3390TIP3    H110113   0.761   1.423   3.579
 3390TIP3    H210114   0.856   1.446   3.463
 3391TIP3   OH210115   4.768   7.660   6.548
 3391TIP3    H110116   4.753   7.735   6.492
 3391TIP3    H210117   4.689   7.652   6.601
 3392TIP3   OH210118   7.387   6.061   0.653
 3392TIP3    H110119   7.417   6.016   0.732
 3392TIP3    H210120   7.403   5.999   0.582
 3393TIP3   OH210121   5.324   1.194   1.450
 3393TIP3    H110122   5.365   1.108   1.451
 3393TIP3    H210123   5.386   1.250   1.497
 3394TIP3   OH210124   4.866   7.506   6.308
 3394TIP3    H110125   4.854   7.554   6.391
 3394TIP3    H210126   4.960   7.485   6.307
 3395TIP3   OH210127   5.413   3.608   2.474
 3395TIP3    H110128   5.471   3.542   2.435
 3395TIP3    H210129   5.329   3.595   2.431
 3396TIP3   OH210130   0.576   4.549   4.567
 3396TIP3    H110131   0.601   4.620   4.508
 3396TIP3    H210132   0.590   4.585   4.655
 3397TIP3   OH210133   0.592   5.753   0.199
 3397TIP3    H110134   0.628   5.796   0.121
 3397TIP3    H210135   0.629   5.665   0.198
 3398TIP3   OH210136   5.204   7.453   2.734
 3398TIP3    H110137   5.194   7.547   2.748
 3398TIP3    H210138   5.280   7.429   2.788
 3399TIP3   OH210139   1.903   6.314   5.138
 3399TIP3    H110140   1.970   6.362   5.187
 3399TIP3    H210141   1.839   6.288   5.204
 3400TIP3   OH210142   0.355   4.247   5.341
 3400TIP3    H110143   0.430   4.221   5.288
 3400TIP3    H210144   0.388   4.317   5.397
 3401TIP3   OH210145   7.035   2.409   5.337
 3401TIP3    H110146   7.076   2.415   5.251
 3401TIP3    H210147   7.079   2.476   5.389
 3402TIP3   OH210148   4.472   0.325   2.315
 3402TIP3    H110149   4.448   0.270   2.391
 3402TIP3    H210150   4.567   0.329   2.318
 3403TIP3   OH210151   0.756   1.651   4.960
 3403TIP3    H110152   0.803   1.629   5.040
 3403TIP3    H210153   0.808   1.610   4.890
 3404TIP3   OH210154   8.237   6.226   2.371
 3404TIP3    H110155   8.308   6.190   2.318
 3404TIP3    H210156   8.267   6.313   2.397
 3405TIP3   OH210157   6.856   5.447   5.432
 3405TIP3    H110158   6.866   5.534   5.392
 3405TIP3    H210159   6.943   5.428   5.468
 3406TIP3   OH210160   1.079   6.897   5.671
 3406TIP3    H110161   1.115   6.966   5.726
 3406TIP3    H210162   1.148   6.830   5.668
 3407TIP3   OH210163   4.468   3.041   4.765
 3407TIP3    H110164   4.542   3.041   4.824
 3407TIP3    H210165   4.505   3.063   4.679
 3408TIP3   OH210166   1.761   6.582   0.322
 3408TIP3    H110167   1.763   6.641   0.246
 3408TIP3    H210168   1.844   6.534   0.317
 3409TIP3   OH210169   6.258   6.083   1.846
 3409TIP3    H110170   6.216   6.145   1.786
 3409TIP3    H210171   6.335   6.052   1.799
 3410TIP3   OH210172   7.566   1.505   1.399
 3410TIP3    H110173   7.635   1.478   1.338
 3410TIP3    H210174   7.500   1.436   1.393
 3411TIP3   OH210175   4.894   4.386   2.776
 3411TIP3    H110176   4.856   4.442   2.707
 3411TIP3    H210177   4.942   4.447   2.832
 3412TIP3   OH210178   0.173   6.996   0.257
 3412TIP3    H110179   0.118   7.073   0.242
 3412TIP3    H210180   0.147   6.965   0.344
 3413TIP3   OH210181   3.154   6.745   3.316
 3413TIP3    H110182   3.156   6.833   3.352
 3413TIP3    H210183   3.238   6.735   3.271
 3414TIP3   OH210184   3.526   0.763   2.690
 3414TIP3    H110185   3.570   0.717   2.618
 3414TIP3    H210186   3.581   0.840   2.707
 3415TIP3   OH210187   5.650   4.563   1.358
 3415TIP3    H110188   5.677   4.627   1.424
 3415TIP3    H210189   5.667   4.606   1.274
 3416TIP3   OH210190  -0.031   6.723   1.688
 3416TIP3    H110191  -0.023   6.679   1.772
 3416TIP3    H210192   0.058   6.747   1.664
 3417TIP3   OH210193   2.431   1.011   4.550
 3417TIP3    H110194   2.466   1.009   4.461
 3417TIP3    H210195   2.356   1.070   4.545
 3418TIP3   OH210196   4.169   5.117   5.009
 3418TIP3    H110197   4.102   5.158   5.064
 3418TIP3    H210198   4.163   5.023   5.030
 3419TIP3   OH210199   7.507   4.242   5.458
 3419TIP3    H110200   7.512   4.303   5.532
 3419TIP3    H210201   7.579   4.181   5.472
 3420TIP3   OH210202   2.947   6.713   0.129
 3420TIP3    H110203   3.019   6.660   0.163
 3420TIP3    H210204   2.953   6.704   0.034
 3421TIP3   OH210205   0.555   6.274   5.174
 3421TIP3    H110206   0.576   6.183   5.155
 3421TIP3    H210207   0.531   6.275   5.266
 3422TIP3   OH210208   0.388   4.505   0.144
 3422TIP3    H110209   0.339   4.458   0.211
 3422TIP3    H210210   0.437   4.572   0.193
 3423TIP3   OH210211   3.359   1.652   0.142
 3423TIP3    H110212   3.380   1.561   0.119
 3423TIP3    H210213   3.311   1.685   0.066
 3424TIP3   OH210214   0.279   4.447   3.523
 3424TIP3    H110215   0.271   4.426   3.430
 3424TIP3    H210216   0.277   4.543   3.526
 3425TIP3   OH210217   7.021   7.656   3.851
 3425TIP3    H110218   7.113   7.660   3.823
 3425TIP3    H210219   7.023   7.606   3.932
 3426TIP3   OH210220   6.721   6.586   0.193
 3426TIP3    H110221   6.762   6.594   0.107
 3426TIP3    H210222   6.663   6.511   0.186
 3427TIP3   OH210223   3.115   1.036   3.571
 3427TIP3    H110224   3.179   0.991   3.517
 3427TIP3    H210225   3.086   1.110   3.519
 3428TIP3   OH210226   0.125   0.160   0.547
 3428TIP3    H110227   0.039   0.186   0.515
 3428TIP3    H210228   0.147   0.225   0.615
 3429TIP3   OH210229   1.526   2.647   3.064
 3429TIP3    H110230   1.482   2.724   3.026
 3429TIP3    H210231   1.457   2.581   3.068
 3430TIP3   OH210232   5.155   4.215   4.721
 3430TIP3    H110233   5.169   4.308   4.705
 3430TIP3    H210234   5.069   4.197   4.683
 3431TIP3   OH210235   3.461   2.182   6.519
 3431TIP3    H110236   3.525   2.203   6.451
 3431TIP3    H210237   3.405   2.259   6.524
 3432TIP3   OH210238   1.415   3.449   5.380
 3432TIP3    H110239   1.419   3.355   5.362
 3432TIP3    H210240   1.461   3.489   5.307
 3433TIP3   OH210241   6.853   2.602   5.143
 3433TIP3    H110242   6.935   2.557   5.165
 3433TIP3    H210243   6.787   2.532   5.140
 3434TIP3   OH210244   4.970   3.260   5.905
 3434TIP3    H110245   4.997   3.169   5.914
 3434TIP3    H210246   4.876   3.260   5.924
 3435TIP3   OH210247   1.004   6.039   5.057
 3435TIP3    H110248   1.099   6.031   5.067
 3435TIP3    H210249   0.973   5.948   5.051
 3436TIP3   OH210250   4.976   5.626   4.024
 3436TIP3    H110251   5.065   5.641   3.993
 3436TIP3    H210252   4.959   5.533   4.005
 3437TIP3   OH210253   2.191   3.403   6.678
 3437TIP3    H110254   2.122   3.372   6.737
 3437TIP3    H210255   2.261   3.432   6.735
 3438TIP3   OH210256   2.369   1.856   0.504
 3438TIP3    H110257   2.384   1.823   0.416
 3438TIP3    H210258   2.327   1.783   0.550
 3439TIP3   OH210259   1.494   7.801   3.397
 3439TIP3    H110260   1.577   7.847   3.409
 3439TIP3    H210261   1.473   7.767   3.483
 3440TIP3   OH210262   1.718   0.495   1.208
 3440TIP3    H110263   1.635   0.448   1.220
 3440TIP3    H210264   1.706   0.578   1.255
 3441TIP3   OH210265   4.101   6.546   4.943
 3441TIP3    H110266   4.053   6.592   5.012
 3441TIP3    H210267   4.038   6.542   4.870
 3442TIP3   OH210268   0.988   7.585   6.173
 3442TIP3    H110269   1.015   7.529   6.246
 3442TIP3    H210270   0.897   7.560   6.157
 3443TIP3   OH210271   7.971   4.604   0.012
 3443TIP3    H110272   8.029   4.619   0.087
 3443TIP3    H210273   7.982   4.511  -0.009
 3444TIP3   OH210274   1.786   1.322   2.233
 3444TIP3    H110275   1.858   1.265   2.260
 3444TIP3    H210276   1.795   1.330   2.138
 3445TIP3   OH210277   0.514   0.617   3.335
 3445TIP3    H110278   0.497   0.710   3.318
 3445TIP3    H210279   0.435   0.586   3.380
 3446TIP3   OH210280   3.375   7.479   5.034
 3446TIP3    H110281   3.375   7.384   5.047
 3446TIP3    H210282   3.284   7.504   5.048
 3447TIP3   OH210283   4.422   7.599   2.355
 3447TIP3    H110284   4.393   7.641   2.274
 3447TIP3    H210285   4.372   7.518   2.360
 3448TIP3   OH210286   1.696   7.690   6.548
 3448TIP3    H110287   1.628   7.650   6.494
 3448TIP3    H210288   1.766   7.712   6.486
 3449TIP3   OH210289   3.137   7.137   3.162
 3449TIP3    H110290   3.141   7.227   3.195
 3449TIP3    H210291   3.153   7.082   3.240
 3450TIP3   OH210292   0.379   2.616   1.500
 3450TIP3    H110293   0.390   2.644   1.591
 3450TIP3    H210294   0.465   2.632   1.460
 3451TIP3   OH210295   5.153   0.642   1.531
 3451TIP3    H110296   5.152   0.690   1.448
 3451TIP3    H210297   5.106   0.699   1.592
 3452TIP3   OH210298   3.989   1.264   4.971
 3452TIP3    H110299   4.010   1.350   4.935
 3452TIP3    H210300   4.006   1.203   4.899
 3453TIP3   OH210301   3.899   4.970   1.099
 3453TIP3    H110302   3.886   5.000   1.190
 3453TIP3    H210303   3.974   4.912   1.103
 3454TIP3   OH210304   2.220   7.716   5.733
 3454TIP3    H110305   2.282   7.669   5.677
 3454TIP3    H210306   2.262   7.799   5.752
 3455TIP3   OH210307   2.776   0.807   3.018
 3455TIP3    H110308   2.868   0.819   2.997
 3455TIP3    H210309   2.734   0.795   2.932
 3456TIP3   OH210310   1.939   3.042   4.851
 3456TIP3    H110311   2.002   2.984   4.809
 3456TIP3    H210312   1.865   2.986   4.875
 3457TIP3   OH210313   6.096   2.578   5.567
 3457TIP3    H110314   6.076   2.671   5.581
 3457TIP3    H210315   6.037   2.532   5.628
 3458TIP3   OH210316   4.014   1.011   1.353
 3458TIP3    H110317   4.007   1.053   1.267
 3458TIP3    H210318   3.949   1.057   1.407
 3459TIP3   OH210319   6.419   1.258   4.059
 3459TIP3    H110320   6.476   1.309   4.001
 3459TIP3    H210321   6.478   1.199   4.105
 3460TIP3   OH210322   5.934   5.654   1.611
 3460TIP3    H110323   5.841   5.634   1.618
 3460TIP3    H210324   5.946   5.734   1.663
 3461TIP3   OH210325   4.097   4.756   3.828
 3461TIP3    H110326   4.146   4.768   3.746
 3461TIP3    H210327   4.006   4.748   3.800
 3462TIP3   OH210328   6.158   2.861   5.320
 3462TIP3    H110329   6.170   2.783   5.267
 3462TIP3    H210330   6.231   2.859   5.382
 3463TIP3   OH210331   1.078   3.009   2.480
 3463TIP3    H110332   0.995   3.051   2.505
 3463TIP3    H210333   1.143   3.046   2.540
 3464TIP3   OH210334   5.125   1.463   0.568
 3464TIP3    H110335   5.092   1.378   0.596
 3464TIP3    H210336   5.195   1.444   0.506
 3465TIP3   OH210337   5.659   1.206   2.186
 3465TIP3    H110338   5.577   1.256   2.191
 3465TIP3    H210339   5.714   1.257   2.127
 3466TIP3   OH210340   0.215   5.637   3.823
 3466TIP3    H110341   0.247   5.576   3.888
 3466TIP3    H210342   0.149   5.689   3.869
 3467TIP3   OH210343   1.062   3.085   1.838
 3467TIP3    H110344   1.094   3.157   1.892
 3467TIP3    H210345   1.033   3.019   1.901
 3468TIP3   OH210346   6.280   4.756   2.890
 3468TIP3    H110347   6.292   4.662   2.900
 3468TIP3    H210348   6.200   4.765   2.838
 3469TIP3   OH210349   7.729   1.468   2.728
 3469TIP3    H110350   7.672   1.446   2.802
 3469TIP3    H210351   7.806   1.506   2.768
 3470TIP3   OH210352   1.017   0.880   0.757
 3470TIP3    H110353   1.038   0.830   0.835
 3470TIP3    H210354   0.993   0.815   0.691
 3471TIP3   OH210355   1.199   0.876   3.382
 3471TIP3    H110356   1.233   0.965   3.380
 3471TIP3    H210357   1.256   0.830   3.444
 3472TIP3   OH210358   7.725   1.707   4.642
 3472TIP3    H110359   7.719   1.764   4.718
 3472TIP3    H210360   7.634   1.688   4.619
 3473TIP3   OH210361   3.036   1.120   3.276
 3473TIP3    H110362   3.090   1.095   3.202
 3473TIP3    H210363   2.979   1.045   3.291
 3474TIP3   OH210364   0.308   7.555   0.714
 3474TIP3    H110365   0.297   7.610   0.791
 3474TIP3    H210366   0.232   7.575   0.659
 3475TIP3   OH210367   8.125   3.196   0.643
 3475TIP3    H110368   8.061   3.155   0.702
 3475TIP3    H210369   8.092   3.176   0.556
 3476TIP3   OH210370   1.305   2.712   6.626
 3476TIP3    H110371   1.227   2.699   6.679
 3476TIP3    H210372   1.278   2.776   6.560
 3477TIP3   OH210373   0.966   2.936   0.425
 3477TIP3    H110374   0.980   2.873   0.496
 3477TIP3    H210375   1.051   2.941   0.381
 3478TIP3   OH210376   1.018   5.156   0.029
 3478TIP3    H110377   1.009   5.066   0.057
 3478TIP3    H210378   1.080   5.195   0.091
 3479TIP3   OH210379   3.591   4.621   6.504
 3479TIP3    H110380   3.666   4.566   6.481
 3479TIP3    H210381   3.628   4.708   6.517
 3480TIP3   OH210382   2.824   0.932   3.307
 3480TIP3    H110383   2.803   0.988   3.382
 3480TIP3    H210384   2.769   0.965   3.236
 3481TIP3   OH210385   7.140   7.256   4.300
 3481TIP3    H110386   7.052   7.287   4.321
 3481TIP3    H210387   7.138   7.238   4.206
 3482TIP3   OH210388   2.212   7.303   5.223
 3482TIP3    H110389   2.242   7.382   5.267
 3482TIP3    H210390   2.226   7.320   5.130
 3483TIP3   OH210391   4.218   3.004   3.385
 3483TIP3    H110392   4.131   2.975   3.412
 3483TIP3    H210393   4.267   2.923   3.374
 3484TIP3   OH210394   0.009   1.826   6.710
 3484TIP3    H110395  -0.040   1.907   6.723
 3484TIP3    H210396   0.100   1.854   6.702
 3485TIP3   OH210397   6.760   1.733   3.847
 3485TIP3    H110398   6.739   1.663   3.785
 3485TIP3    H210399   6.689   1.796   3.838
 3486TIP3   OH210400   1.289  -0.046   5.224
 3486TIP3    H110401   1.331   0.040   5.226
 3486TIP3    H210402   1.196  -0.026   5.213
 3487TIP3   OH210403   6.065   0.601   5.286
 3487TIP3    H110404   6.103   0.688   5.280
 3487TIP3    H210405   6.067   0.580   5.379
 3488TIP3   OH210406   8.093   4.868   5.845
 3488TIP3    H110407   8.019   4.814   5.871
 3488TIP3    H210408   8.133   4.896   5.927
 3489TIP3   OH210409   0.502   6.703   3.287
 3489TIP3    H110410   0.586   6.746   3.273
 3489TIP3    H210411   0.504   6.626   3.229
 3490TIP3   OH210412   1.627   1.674   5.878
 3490TIP3    H110413   1.664   1.673   5.966
 3490TIP3    H210414   1.532   1.665   5.892
 3491TIP3   OH210415   2.678   2.350   5.785
 3491TIP3    H110416   2.757   2.347   5.840
 3491TIP3    H210417   2.710   2.330   5.697
 3492TIP3   OH210418   6.154   1.226   6.710
 3492TIP3    H110419   6.164   1.255   6.619
 3492TIP3    H210420   6.099   1.293   6.751
 3493TIP3   OH210421   2.920   5.785   1.517
 3493TIP3    H110422   2.964   5.702   1.536
 3493TIP3    H210423   2.923   5.833   1.600
 3494TIP3   OH210424   4.570   2.448   0.416
 3494TIP3    H110425   4.615   2.482   0.494
 3494TIP3    H210426   4.499   2.395   0.451
 3495TIP3   OH210427   7.536   7.593   4.281
 3495TIP3    H110428   7.598   7.648   4.329
 3495TIP3    H210429   7.450   7.631   4.298
 3496TIP3   OH210430   1.188   4.443   5.526
 3496TIP3    H110431   1.237   4.398   5.595
 3496TIP3    H210432   1.188   4.381   5.453
 3497TIP3   OH210433   8.070   5.809   3.057
 3497TIP3    H110434   8.022   5.763   2.989
 3497TIP3    H210435   8.048   5.901   3.044
 3498TIP3   OH210436   7.516   1.105   3.975
 3498TIP3    H110437   7.576   1.038   3.942
 3498TIP3    H210438   7.564   1.187   3.964
 3499TIP3   OH210439   2.732   3.974   3.150
 3499TIP3    H110440   2.672   4.046   3.171
 3499TIP3    H210441   2.813   4.018   3.123
 3500TIP3   OH210442   5.945   6.001   0.301
 3500TIP3    H110443   5.864   5.967   0.341
 3500TIP3    H210444   6.010   5.994   0.371
 3501TIP3   OH210445   4.242   5.880   4.481
 3501TIP3    H110446   4.200   5.808   4.436
 3501TIP3    H210447   4.173   5.945   4.493
 3502TIP3   OH210448   1.837   6.714   2.226
 3502TIP3    H110449   1.838   6.685   2.135
 3502TIP3    H210450   1.877   6.642   2.275
 3503TIP3   OH210451   1.118   0.615   3.004
 3503TIP3    H110452   1.118   0.695   2.950
 3503TIP3    H210453   1.184   0.559   2.963
 3504TIP3   OH210454   0.777   0.701   2.987
 3504TIP3    H110455   0.687   0.667   2.987
 3504TIP3    H210456   0.810   0.681   3.074
 3505TIP3   OH210457   6.928   5.848   4.081
 3505TIP3    H110458   6.968   5.840   4.167
 3505TIP3    H210459   6.907   5.758   4.056
 3506TIP3   OH210460   6.594   5.909   2.373
 3506TIP3    H110461   6.525   5.844   2.386
 3506TIP3    H210462   6.583   5.970   2.446
 3507TIP3   OH210463   0.622   6.169   1.242
 3507TIP3    H110464   0.534   6.144   1.271
 3507TIP3    H210465   0.671   6.182   1.324
 3508TIP3   OH210466   2.917   2.018   5.370
 3508TIP3    H110467   2.859   1.941   5.363
 3508TIP3    H210468   2.859   2.092   5.354
 3509TIP3   OH210469   1.730   6.309   3.433
 3509TIP3    H110470   1.824   6.322   3.424
 3509TIP3    H210471   1.694   6.336   3.349
 3510TIP3   OH210472   5.877   2.139   3.628
 3510TIP3    H110473   5.921   2.155   3.711
 3510TIP3    H210474   5.948   2.131   3.564
 3511TIP3   OH210475   1.546   3.090   2.796
 3511TIP3    H110476   1.575   3.135   2.717
 3511TIP3    H210477   1.624   3.043   2.826
 3512TIP3   OH210478   4.360   6.726   6.592
 3512TIP3    H110479   4.294   6.794   6.576
 3512TIP3    H210480   4.310   6.651   6.622
 3513TIP3   OH210481   4.996   5.599   5.989
 3513TIP3    H110482   5.028   5.676   5.942
 3513TIP3    H210483   5.006   5.622   6.082
 3514TIP3   OH210484   5.627   7.388   0.901
 3514TIP3    H110485   5.584   7.429   0.976
 3514TIP3    H210486   5.716   7.424   0.902
 3515TIP3   OH210487   4.141   2.125   6.660
 3515TIP3    H110488   4.197   2.187   6.613
 3515TIP3    H210489   4.191   2.044   6.663
 3516TIP3   OH210490   3.295   6.510   6.597
 3516TIP3    H110491   3.331   6.489   6.682
 3516TIP3    H210492   3.368   6.547   6.547
 3517TIP3   OH210493   0.345   3.938   4.413
 3517TIP3    H110494   0.380   3.939   4.323
 3517TIP3    H210495   0.400   4.000   4.460
 3518TIP3   OH210496   5.770   5.521   5.907
 3518TIP3    H110497   5.778   5.428   5.890
 3518TIP3    H210498   5.859   5.555   5.905
 3519TIP3   OH210499   3.999   3.556   5.711
 3519TIP3    H110500   4.000   3.619   5.783
 3519TIP3    H210501   3.952   3.480   5.746
 3520TIP3   OH210502   2.922   0.325   6.757
 3520TIP3    H110503   2.883   0.362   6.677
 3520TIP3    H210504   3.003   0.284   6.727
 3521TIP3   OH210505   2.330   2.294   0.748
 3521TIP3    H110506   2.254   2.249   0.711
 3521TIP3    H210507   2.404   2.262   0.697
 3522TIP3   OH210508  -0.016   7.145   6.216
 3522TIP3    H110509  -0.072   7.165   6.141
 3522TIP3    H210510   0.048   7.082   6.182
 3523TIP3   OH210511   6.964   2.345   2.527
 3523TIP3    H110512   6.975   2.385   2.614
 3523TIP3    H210513   6.871   2.322   2.522
 3524TIP3   OH210514   2.641   7.875   2.483
 3524TIP3    H110515   2.691   7.815   2.538
 3524TIP3    H210516   2.600   7.819   2.417
 3525TIP3   OH210517   0.892   6.934   0.070
 3525TIP3    H110518   0.913   6.870   0.002
 3525TIP3    H210519   0.874   7.015   0.021
 3526TIP3   OH210520   0.220   1.041   3.016
 3526TIP3    H110521   0.225   1.137   3.009
 3526TIP3    H210522   0.191   1.025   3.105
 3527TIP3   OH210523   4.963   0.310   2.077
 3527TIP3    H110524   4.926   0.392   2.109
 3527TIP3    H210525   4.892   0.269   2.028
 3528TIP3   OH210526   0.628   3.278   2.574
 3528TIP3    H110527   0.533   3.271   2.572
 3528TIP3    H210528   0.647   3.359   2.525
 3529TIP3   OH210529   2.628   0.814   4.045
 3529TIP3    H110530   2.633   0.777   3.957
 3529TIP3    H210531   2.627   0.738   4.103
 3530TIP3   OH210532   0.957   0.245   1.466
 3530TIP3    H110533   0.870   0.207   1.454
 3530TIP3    H210534   1.010   0.205   1.398
 3531TIP3   OH210535   1.760   6.689   0.994
 3531TIP3    H110536   1.681   6.742   0.987
 3531TIP3    H210537   1.752   6.625   0.924
 3532TIP3   OH210538  -0.018   0.898   2.774
 3532TIP3    H110539   0.019   0.973   2.728
 3532TIP3    H210540   0.055   0.860   2.821
 3533TIP3   OH210541   5.267   5.943   0.569
 3533TIP3    H110542   5.262   5.943   0.473
 3533TIP3    H210543   5.321   5.867   0.590
 3534TIP3   OH210544   6.520   0.839   6.671
 3534TIP3    H110545   6.517   0.854   6.577
 3534TIP3    H210546   6.468   0.760   6.685
 3535TIP3   OH210547   6.134   7.586   2.964
 3535TIP3    H110548   6.151   7.541   3.047
 3535TIP3    H210549   6.216   7.633   2.946
 3536TIP3   OH210550   1.422   0.071   0.830
 3536TIP3    H110551   1.459   0.063   0.742
 3536TIP3    H210552   1.488   0.120   0.880
 3537TIP3   OH210553   7.034   7.432   3.535
 3537TIP3    H110554   7.061   7.431   3.627
 3537TIP3    H210555   6.976   7.507   3.528
 3538TIP3   OH210556   2.936   5.390   5.959
 3538TIP3    H110557   2.842   5.407   5.952
 3538TIP3    H210558   2.977   5.452   5.899
 3539TIP3   OH210559   5.415   5.828   2.181
 3539TIP3    H110560   5.400   5.736   2.157
 3539TIP3    H210561   5.331   5.858   2.216
 3540TIP3   OH210562   4.407   0.398   0.447
 3540TIP3    H110563   4.450   0.315   0.466
 3540TIP3    H210564   4.348   0.413   0.521
 3541TIP3   OH210565   6.534   4.158   0.868
 3541TIP3    H110566   6.613   4.136   0.917
 3541TIP3    H210567   6.562   4.226   0.807
 3542TIP3   OH210568   0.865   4.837   6.032
 3542TIP3    H110569   0.931   4.892   6.074
 3542TIP3    H210570   0.898   4.822   5.944
 3543TIP3   OH210571   6.088   0.047   1.988
 3543TIP3    H110572   6.029  -0.016   1.946
 3543TIP3    H210573   6.074   0.129   1.940
 3544TIP3   OH210574   4.939   0.073   6.163
 3544TIP3    H110575   4.942   0.147   6.103
 3544TIP3    H210576   4.969  -0.002   6.110
 3545TIP3   OH210577   0.964   2.505   3.448
 3545TIP3    H110578   1.058   2.488   3.443
 3545TIP3    H210579   0.946   2.511   3.542
 3546TIP3   OH210580   4.064   3.895   1.046
 3546TIP3    H110581   4.142   3.853   1.082
 3546TIP3    H210582   4.007   3.821   1.021
 3547TIP3   OH210583   6.946   0.389   5.332
 3547TIP3    H110584   6.917   0.310   5.378
 3547TIP3    H210585   6.917   0.461   5.388
 3548TIP3   OH210586   3.489   7.639   1.554
 3548TIP3    H110587   3.482   7.576   1.627
 3548TIP3    H210588   3.513   7.585   1.479
 3549TIP3   OH210589   5.258   0.127   6.328
 3549TIP3    H110590   5.344   0.169   6.326
 3549TIP3    H210591   5.246   0.093   6.239
 3550TIP3   OH210592   0.561   0.493   5.863
 3550TIP3    H110593   0.497   0.541   5.811
 3550TIP3    H210594   0.537   0.401   5.853
 3551TIP3   OH210595   8.245   5.122   5.189
 3551TIP3    H110596   8.305   5.123   5.264
 3551TIP3    H210597   8.161   5.147   5.225
 3552TIP3   OH210598   5.823   2.646   3.695
 3552TIP3    H110599   5.852   2.708   3.762
 3552TIP3    H210600   5.858   2.681   3.613
 3553TIP3   OH210601   2.083   1.763   3.379
 3553TIP3    H110602   2.103   1.708   3.303
 3553TIP3    H210603   2.104   1.852   3.351
 3554TIP3   OH210604   6.529   2.060   0.843
 3554TIP3    H110605   6.483   2.131   0.800
 3554TIP3    H210606   6.581   2.020   0.773
 3555TIP3   OH210607   0.070   5.086   2.677
 3555TIP3    H110608   0.088   5.082   2.583
 3555TIP3    H210609   0.142   5.137   2.713
 3556TIP3   OH210610   5.423   6.765   0.138
 3556TIP3    H110611   5.445   6.702   0.206
 3556TIP3    H210612   5.328   6.758   0.128
 3557TIP3   OH210613   3.732   4.038   0.641
 3557TIP3    H110614   3.774   4.120   0.614
 3557TIP3    H210615   3.656   4.029   0.584
 3558TIP3   OH210616   5.040   1.919   5.356
 3558TIP3    H110617   4.949   1.908   5.382
 3558TIP3    H210618   5.086   1.846   5.396
 3559TIP3   OH210619   1.659   3.732   1.937
 3559TIP3    H110620   1.713   3.653   1.940
 3559TIP3    H210621   1.693   3.781   1.862
 3560TIP3   OH210622   4.924   6.931   1.910
 3560TIP3    H110623   4.959   6.901   1.994
 3560TIP3    H210624   4.980   7.005   1.885
 3561TIP3   OH210625   7.526   2.041   0.270
 3561TIP3    H110626   7.539   2.127   0.228
 3561TIP3    H210627   7.491   1.986   0.200
 3562TIP3   OH210628   7.758   3.468   2.529
 3562TIP3    H110629   7.708   3.546   2.504
 3562TIP3    H210630   7.850   3.495   2.521
 3563TIP3   OH210631   0.915   4.774   5.097
 3563TIP3    H110632   0.956   4.689   5.110
 3563TIP3    H210633   0.828   4.764   5.136
 3564TIP3   OH210634   5.709   4.699   5.400
 3564TIP3    H110635   5.749   4.684   5.313
 3564TIP3    H210636   5.757   4.773   5.435
 3565TIP3   OH210637   0.691   6.908   5.178
 3565TIP3    H110638   0.687   6.813   5.178
 3565TIP3    H210639   0.605   6.936   5.210
 3566TIP3   OH210640   2.695   1.322   5.111
 3566TIP3    H110641   2.653   1.341   5.028
 3566TIP3    H210642   2.671   1.396   5.168
 3567TIP3   OH210643   4.473   2.982   2.224
 3567TIP3    H110644   4.538   3.026   2.278
 3567TIP3    H210645   4.446   2.906   2.275
 3568TIP3   OH210646   6.361   5.085   1.364
 3568TIP3    H110647   6.409   5.141   1.426
 3568TIP3    H210648   6.297   5.039   1.419
 3569TIP3   OH210649   4.431   7.314   5.245
 3569TIP3    H110650   4.417   7.402   5.209
 3569TIP3    H210651   4.352   7.266   5.220
 3570TIP3   OH210652   1.821   7.022   5.162
 3570TIP3    H110653   1.875   7.056   5.234
 3570TIP3    H210654   1.841   7.079   5.088
 3571TIP3   OH210655   1.198   6.304   4.709
 3571TIP3    H110656   1.150   6.370   4.761
 3571TIP3    H210657   1.144   6.292   4.631
 3572TIP3   OH210658   6.825   2.555   4.705
 3572TIP3    H110659   6.831   2.612   4.628
 3572TIP3    H210660   6.899   2.581   4.760
 3573TIP3   OH210661   4.530   0.920   2.913
 3573TIP3    H110662   4.468   0.969   2.968
 3573TIP3    H210663   4.509   0.828   2.931
 3574TIP3   OH210664   1.725   4.709   6.086
 3574TIP3    H110665   1.641   4.715   6.133
 3574TIP3    H210666   1.718   4.775   6.017
 3575TIP3   OH210667   4.388   0.238   1.910
 3575TIP3    H110668   4.483   0.250   1.898
 3575TIP3    H210669   4.350   0.316   1.869
 3576TIP3   OH210670   5.531   5.918   6.587
 3576TIP3    H110671   5.552   5.913   6.494
 3576TIP3    H210672   5.532   5.828   6.618
 3577TIP3   OH210673   0.287   5.980   1.676
 3577TIP3    H110674   0.364   5.987   1.732
 3577TIP3    H210675   0.214   5.968   1.737
 3578TIP3   OH210676   0.326   4.459   4.231
 3578TIP3    H110677   0.380   4.523   4.277
 3578TIP3    H210678   0.264   4.428   4.297
 3579TIP3   OH210679   2.329   3.045   5.396
 3579TIP3    H110680   2.405   3.053   5.339
 3579TIP3    H210681   2.354   2.980   5.462
 3580TIP3   OH210682   4.168   1.114   1.954
 3580TIP3    H110683   4.106   1.166   2.007
 3580TIP3    H210684   4.123   1.100   1.871
 3581TIP3   OH210685   2.943   0.877   4.002
 3581TIP3    H110686   2.855   0.847   3.980
 3581TIP3    H210687   2.982   0.902   3.917
 3582TIP3   OH210688   5.751   0.964   1.618
 3582TIP3    H110689   5.784   1.053   1.611
 3582TIP3    H210690   5.819   0.910   1.578
 3583TIP3   OH210691   1.846   7.214   2.300
 3583TIP3    H110692   1.778   7.240   2.362
 3583TIP3    H210693   1.904   7.291   2.295
 3584TIP3   OH210694   1.667   6.542   4.123
 3584TIP3    H110695   1.632   6.627   4.149
 3584TIP3    H210696   1.696   6.502   4.204
 3585TIP3   OH210697   0.768   2.375   4.568
 3585TIP3    H110698   0.730   2.324   4.639
 3585TIP3    H210699   0.814   2.310   4.514
 3586TIP3   OH210700   3.178   2.854   0.600
 3586TIP3    H110701   3.147   2.897   0.680
 3586TIP3    H210702   3.161   2.918   0.531
 3587TIP3   OH210703   2.037   2.143   1.661
 3587TIP3    H110704   2.028   2.060   1.707
 3587TIP3    H210705   2.051   2.119   1.570
 3588TIP3   OH210706   6.527   6.151   4.715
 3588TIP3    H110707   6.542   6.131   4.623
 3588TIP3    H210708   6.433   6.165   4.721
 3589TIP3   OH210709   2.954   1.221   5.144
 3589TIP3    H110710   2.953   1.249   5.236
 3589TIP3    H210711   2.864   1.235   5.114
 3590TIP3   OH210712   3.799   6.530   1.739
 3590TIP3    H110713   3.893   6.519   1.757
 3590TIP3    H210714   3.758   6.453   1.777
 3591TIP3   OH210715   0.122   6.241   1.319
 3591TIP3    H110716   0.038   6.198   1.306
 3591TIP3    H210717   0.100   6.331   1.343
 3592TIP3   OH210718   0.894   0.562   2.082
 3592TIP3    H110719   0.986   0.540   2.092
 3592TIP3    H210720   0.851   0.524   2.158
 3593TIP3   OH210721   5.139   2.786   4.299
 3593TIP3    H110722   5.196   2.803   4.224
 3593TIP3    H210723   5.197   2.796   4.375
 3594TIP3   OH210724   6.824   4.631   6.247
 3594TIP3    H110725   6.805   4.714   6.203
 3594TIP3    H210726   6.750   4.575   6.225
 3595TIP3   OH210727   4.876   0.443   1.179
 3595TIP3    H110728   4.817   0.515   1.200
 3595TIP3    H210729   4.865   0.430   1.084
 3596TIP3   OH210730   2.638   4.013   5.536
 3596TIP3    H110731   2.627   4.056   5.621
 3596TIP3    H210732   2.549   3.986   5.512
 3597TIP3   OH210733   0.902   2.190   3.884
 3597TIP3    H110734   0.826   2.142   3.917
 3597TIP3    H210735   0.967   2.122   3.865
 3598TIP3   OH210736   7.732   3.858   6.618
 3598TIP3    H110737   7.638   3.847   6.602
 3598TIP3    H210738   7.773   3.841   6.533
 3599TIP3   OH210739   6.546   1.588   3.444
 3599TIP3    H110740   6.612   1.597   3.513
 3599TIP3    H210741   6.552   1.669   3.394
 3600TIP3   OH210742   4.336   5.578   3.255
 3600TIP3    H110743   4.371   5.530   3.179
 3600TIP3    H210744   4.406   5.576   3.319
 3601TIP3   OH210745   7.741   0.486   0.935
 3601TIP3    H110746   7.703   0.399   0.948
 3601TIP3    H210747   7.833   0.470   0.917
 3602TIP3   OH210748   6.459   4.366   4.574
 3602TIP3    H110749   6.387   4.429   4.580
 3602TIP3    H210750   6.417   4.284   4.547
 3603TIP3   OH210751   0.851   4.345   0.557
 3603TIP3    H110752   0.883   4.343   0.648
 3603TIP3    H210753   0.768   4.299   0.560
 3604TIP3   OH210754   3.689   5.368   0.367
 3604TIP3    H110755   3.623   5.358   0.436
 3604TIP3    H210756   3.642   5.412   0.295
 3605TIP3   OH210757   4.467   1.147   6.013
 3605TIP3    H110758   4.478   1.149   6.108
 3605TIP3    H210759   4.556   1.135   5.979
 3606TIP3   OH210760   1.504   1.231   1.721
 3606TIP3    H110761   1.470   1.149   1.686
 3606TIP3    H210762   1.481   1.229   1.814
 3607TIP3   OH210763   1.592   5.806   0.943
 3607TIP3    H110764   1.506   5.840   0.969
 3607TIP3    H210765   1.618   5.859   0.868
 3608TIP3   OH210766   6.550   5.712   3.996
 3608TIP3    H110767   6.507   5.634   3.962
 3608TIP3    H210768   6.573   5.763   3.919
 3609TIP3   OH210769   8.087   2.924   3.683
 3609TIP3    H110770   8.092   2.836   3.720
 3609TIP3    H210771   8.067   2.910   3.591
 3610TIP3   OH210772   2.192   2.846   5.241
 3610TIP3    H110773   2.265   2.859   5.181
 3610TIP3    H210774   2.209   2.906   5.314
 3611TIP3   OH210775   6.112   2.158   6.323
 3611TIP3    H110776   6.072   2.082   6.281
 3611TIP3    H210777   6.187   2.123   6.370
 3612TIP3   OH210778   6.295   3.461   0.075
 3612TIP3    H110779   6.371   3.519   0.086
 3612TIP3    H210780   6.300   3.401   0.149
 3613TIP3   OH210781  -0.027   2.989   4.892
 3613TIP3    H110782  -0.027   2.912   4.836
 3613TIP3    H210783   0.064   3.019   4.892
 3614TIP3   OH210784   5.561   6.625   3.285
 3614TIP3    H110785   5.568   6.620   3.190
 3614TIP3    H210786   5.537   6.717   3.303
 3615TIP3   OH210787   3.971   4.740   5.242
 3615TIP3    H110788   3.985   4.663   5.187
 3615TIP3    H210789   3.995   4.711   5.330
 3616TIP3   OH210790   1.667   6.888   4.735
 3616TIP3    H110791   1.693   6.973   4.769
 3616TIP3    H210792   1.737   6.828   4.762
 3617TIP3   OH210793   3.560   2.539   3.996
 3617TIP3    H110794   3.592   2.490   4.072
 3617TIP3    H210795   3.465   2.527   3.999
 3618TIP3   OH210796   7.726   1.514   3.457
 3618TIP3    H110797   7.766   1.484   3.376
 3618TIP3    H210798   7.666   1.584   3.430
 3619TIP3   OH210799   7.997  -0.024   1.061
 3619TIP3    H110800   7.998   0.064   1.024
 3619TIP3    H210801   8.008  -0.011   1.156
 3620TIP3   OH210802   5.869   3.809   1.877
 3620TIP3    H110803   5.792   3.862   1.855
 3620TIP3    H210804   5.868   3.738   1.813
 3621TIP3   OH210805   6.331   3.104   5.203
 3621TIP3    H110806   6.344   3.102   5.109
 3621TIP3    H210807   6.279   3.026   5.222
 3622TIP3   OH210808   8.223   7.519   2.980
 3622TIP3    H110809   8.173   7.531   2.899
 3622TIP3    H210810   8.305   7.566   2.965
 3623TIP3   OH210811   2.253   3.561   3.692
 3623TIP3    H110812   2.241   3.654   3.711
 3623TIP3    H210813   2.171   3.534   3.650
 3624TIP3   OH210814   4.012   6.579   2.249
 3624TIP3    H110815   3.974   6.658   2.211
 3624TIP3    H210816   4.093   6.565   2.200
 3625TIP3   OH210817   7.426   7.678   4.603
 3625TIP3    H110818   7.350   7.735   4.611
 3625TIP3    H210819   7.498   7.729   4.640
 3626TIP3   OH210820   4.722   1.755   1.188
 3626TIP3    H110821   4.756   1.843   1.173
 3626TIP3    H210822   4.799   1.699   1.193
 3627TIP3   OH210823   5.466   3.194   2.544
 3627TIP3    H110824   5.440   3.239   2.464
 3627TIP3    H210825   5.559   3.176   2.532
 3628TIP3   OH210826   1.378   1.974   1.010
 3628TIP3    H110827   1.352   1.968   1.102
 3628TIP3    H210828   1.441   2.046   1.007
 3629TIP3   OH210829   3.542   3.617   1.110
 3629TIP3    H110830   3.494   3.606   1.191
 3629TIP3    H210831   3.480   3.659   1.050
 3630TIP3   OH210832   1.482   4.833   4.295
 3630TIP3    H110833   1.402   4.806   4.338
 3630TIP3    H210834   1.510   4.911   4.342
 3631TIP3   OH210835   3.281   7.683   0.461
 3631TIP3    H110836   3.337   7.753   0.495
 3631TIP3    H210837   3.334   7.604   0.467
 3632TIP3   OH210838   0.261   0.144   3.487
 3632TIP3    H110839   0.283   0.203   3.414
 3632TIP3    H210840   0.182   0.099   3.459
 3633TIP3   OH210841   3.439   0.069   3.047
 3633TIP3    H110842   3.376   0.042   3.114
 3633TIP3    H210843   3.431   0.002   2.979
 3634TIP3   OH210844   7.116   5.287   3.622
 3634TIP3    H110845   7.212   5.288   3.623
 3634TIP3    H210846   7.092   5.372   3.583
 3635TIP3   OH210847   1.531   2.307   6.063
 3635TIP3    H110848   1.551   2.357   6.142
 3635TIP3    H210849   1.505   2.220   6.096
 3636TIP3   OH210850   0.694   3.202   1.943
 3636TIP3    H110851   0.734   3.281   1.980
 3636TIP3    H210852   0.620   3.233   1.893
 3637TIP3   OH210853   6.794   2.805   0.920
 3637TIP3    H110854   6.775   2.777   1.009
 3637TIP3    H210855   6.864   2.747   0.890
 3638TIP3   OH210856   4.393   1.602   5.554
 3638TIP3    H110857   4.369   1.674   5.494
 3638TIP3    H210858   4.356   1.524   5.513
 3639TIP3   OH210859   6.075   3.139   1.864
 3639TIP3    H110860   5.980   3.128   1.855
 3639TIP3    H210861   6.095   3.103   1.950
 3640TIP3   OH210862   7.642   1.814   0.801
 3640TIP3    H110863   7.737   1.828   0.802
 3640TIP3    H210864   7.617   1.816   0.893
 3641TIP3   OH210865   2.342   4.394   1.675
 3641TIP3    H110866   2.291   4.463   1.633
 3641TIP3    H210867   2.427   4.433   1.692
 3642TIP3   OH210868   6.960   1.380   5.183
 3642TIP3    H110869   6.895   1.439   5.144
 3642TIP3    H210870   7.023   1.438   5.225
 3643TIP3   OH210871   2.065   6.258   1.265
 3643TIP3    H110872   2.112   6.185   1.307
 3643TIP3    H210873   2.047   6.319   1.337
 3644TIP3   OH210874   4.826   1.386   1.732
 3644TIP3    H110875   4.889   1.344   1.672
 3644TIP3    H210876   4.741   1.365   1.694
 3645TIP3   OH210877   6.905   6.416   4.586
 3645TIP3    H110878   6.979   6.404   4.645
 3645TIP3    H210879   6.830   6.428   4.644
 3646TIP3   OH210880   7.562   5.112   6.363
 3646TIP3    H110881   7.598   5.048   6.424
 3646TIP3    H210882   7.470   5.118   6.385
 3647TIP3   OH210883   7.972   7.485   6.136
 3647TIP3    H110884   8.019   7.440   6.205
 3647TIP3    H210885   7.895   7.430   6.120
 3648TIP3   OH210886   0.596   2.096   4.133
 3648TIP3    H110887   0.652   2.032   4.091
 3648TIP3    H210888   0.652   2.172   4.149
 3649TIP3   OH210889   7.744   2.592   2.089
 3649TIP3    H110890   7.801   2.659   2.125
 3649TIP3    H210891   7.784   2.569   2.005
 3650TIP3   OH210892   5.643   6.838   2.593
 3650TIP3    H110893   5.657   6.858   2.501
 3650TIP3    H210894   5.649   6.742   2.597
 3651TIP3   OH210895   6.446   1.757   6.028
 3651TIP3    H110896   6.459   1.671   6.069
 3651TIP3    H210897   6.450   1.739   5.934
 3652TIP3   OH210898   2.248   4.105   0.001
 3652TIP3    H110899   2.157   4.117  -0.026
 3652TIP3    H210900   2.273   4.021  -0.036
 3653TIP3   OH210901   7.796   4.275   1.238
 3653TIP3    H110902   7.734   4.330   1.286
 3653TIP3    H210903   7.815   4.325   1.159
 3654TIP3   OH210904   7.005   7.177   4.743
 3654TIP3    H110905   6.956   7.096   4.731
 3654TIP3    H210906   6.969   7.215   4.823
 3655TIP3   OH210907   3.728   7.206   5.362
 3655TIP3    H110908   3.646   7.156   5.353
 3655TIP3    H210909   3.786   7.147   5.411
 3656TIP3   OH210910   2.925   0.272   0.678
 3656TIP3    H110911   2.933   0.215   0.602
 3656TIP3    H210912   2.952   0.358   0.647
 3657TIP3   OH210913   4.522   6.792   5.455
 3657TIP3    H110914   4.610   6.755   5.453
 3657TIP3    H210915   4.496   6.787   5.547
 3658TIP3   OH210916   1.248   4.528   4.389
 3658TIP3    H110917   1.206   4.615   4.392
 3658TIP3    H210918   1.288   4.523   4.302
 3659TIP3   OH210919   6.053   5.377   5.900
 3659TIP3    H110920   6.038   5.337   5.985
 3659TIP3    H210921   6.118   5.320   5.858
 3660TIP3   OH210922   5.694   2.132   3.219
 3660TIP3    H110923   5.724   2.108   3.306
 3660TIP3    H210924   5.606   2.095   3.213
 3661TIP3   OH210925   7.704   6.226   0.975
 3661TIP3    H110926   7.749   6.145   0.952
 3661TIP3    H210927   7.620   6.221   0.930
 3662TIP3   OH210928   7.355   2.982   6.388
 3662TIP3    H110929   7.432   3.020   6.346
 3662TIP3    H210930   7.377   2.889   6.399
 3663TIP3   OH210931   5.985   6.876   2.211
 3663TIP3    H110932   6.007   6.789   2.178
 3663TIP3    H210933   6.059   6.931   2.185
 3664TIP3   OH210934   7.645   4.531   2.093
 3664TIP3    H110935   7.716   4.519   2.157
 3664TIP3    H210936   7.674   4.482   2.016
 3665TIP3   OH210937   4.600   5.419   0.572
 3665TIP3    H110938   4.605   5.446   0.481
 3665TIP3    H210939   4.596   5.323   0.569
 3666TIP3   OH210940   1.098   3.737   4.777
 3666TIP3    H110941   1.116   3.739   4.683
 3666TIP3    H210942   1.144   3.813   4.812
 3667TIP3   OH210943   0.167   4.635   3.830
 3667TIP3    H110944   0.090   4.678   3.793
 3667TIP3    H210945   0.133   4.585   3.905
 3668TIP3   OH210946   0.680   3.066   3.198
 3668TIP3    H110947   0.628   2.997   3.158
 3668TIP3    H210948   0.728   3.023   3.269
 3669TIP3   OH210949   1.215   3.550   2.074
 3669TIP3    H110950   1.199   3.552   1.979
 3669TIP3    H210951   1.241   3.639   2.096
 3670TIP3   OH210952   6.856   4.219   0.565
 3670TIP3    H110953   6.829   4.287   0.504
 3670TIP3    H210954   6.774   4.178   0.593
 3671TIP3   OH210955   7.408   3.476   5.903
 3671TIP3    H110956   7.380   3.523   5.981
 3671TIP3    H210957   7.414   3.543   5.835
 3672TIP3   OH210958   2.986   7.573   5.875
 3672TIP3    H110959   2.998   7.506   5.807
 3672TIP3    H210960   2.894   7.596   5.869
 3673TIP3   OH210961   5.916   5.266   4.267
 3673TIP3    H110962   5.956   5.232   4.187
 3673TIP3    H210963   5.989   5.298   4.319
 3674TIP3   OH210964   1.712   7.307   1.816
 3674TIP3    H110965   1.776   7.335   1.881
 3674TIP3    H210966   1.750   7.334   1.732
 3675TIP3   OH210967   6.162   4.632   6.218
 3675TIP3    H110968   6.234   4.591   6.267
 3675TIP3    H210969   6.200   4.655   6.134
 3676TIP3   OH210970   5.575   0.803   4.394
 3676TIP3    H110971   5.562   0.894   4.421
 3676TIP3    H210972   5.639   0.768   4.456
 3677TIP3   OH210973   6.719   2.590   1.841
 3677TIP3    H110974   6.674   2.505   1.837
 3677TIP3    H210975   6.660   2.646   1.891
 3678TIP3   OH210976   2.657   6.958   2.447
 3678TIP3    H110977   2.686   7.046   2.425
 3678TIP3    H210978   2.582   6.972   2.505
 3679TIP3   OH210979   2.716   6.994   5.148
 3679TIP3    H110980   2.731   7.012   5.241
 3679TIP3    H210981   2.804   6.984   5.111
 3680TIP3   OH210982   6.589   2.100   0.373
 3680TIP3    H110983   6.510   2.116   0.321
 3680TIP3    H210984   6.652   2.062   0.311
 3681TIP3   OH210985   5.713   2.731   4.547
 3681TIP3    H110986   5.688   2.724   4.455
 3681TIP3    H210987   5.808   2.718   4.547
 3682TIP3   OH210988   2.357   1.728   1.240
 3682TIP3    H110989   2.369   1.810   1.287
 3682TIP3    H210990   2.339   1.754   1.150
 3683TIP3   OH210991   7.424   0.447   4.113
 3683TIP3    H110992   7.333   0.476   4.123
 3683TIP3    H210993   7.460   0.451   4.201
 3684TIP3   OH210994   1.679   6.521   2.987
 3684TIP3    H110995   1.652   6.521   2.895
 3684TIP3    H210996   1.725   6.438   2.998
 3685TIP3   OH210997   7.760   2.346   2.221
 3685TIP3    H110998   7.668   2.331   2.245
 3685TIP3    H210999   7.757   2.423   2.164
 3686TIP3   OH211000   4.988   4.040   2.771
 3686TIP3    H111001   4.966   3.948   2.787
 3686TIP3    H211002   4.903   4.084   2.766
 3687TIP3   OH211003   6.125   3.029   2.538
 3687TIP3    H111004   6.216   3.045   2.564
 3687TIP3    H211005   6.074   3.052   2.616
 3688TIP3   OH211006   8.281   4.330   5.834
 3688TIP3    H111007   8.235   4.414   5.834
 3688TIP3    H211008   8.281   4.302   5.925
 3689TIP3   OH211009   8.213   7.228   2.871
 3689TIP3    H111010   8.255   7.232   2.956
 3689TIP3    H211011   8.140   7.290   2.877
 3690TIP3   OH211012   2.470   5.706   1.684
 3690TIP3    H111013   2.405   5.650   1.726
 3690TIP3    H211014   2.460   5.791   1.727
 3691TIP3   OH211015   5.277   2.123   0.277
 3691TIP3    H111016   5.290   2.218   0.271
 3691TIP3    H211017   5.189   2.114   0.315
 3692TIP3   OH211018   8.317   2.449   2.006
 3692TIP3    H111019   8.242   2.443   2.065
 3692TIP3    H211020   8.280   2.435   1.919
 3693TIP3   OH211021   2.154   4.237   5.569
 3693TIP3    H111022   2.128   4.221   5.479
 3693TIP3    H211023   2.075   4.217   5.621
 3694TIP3   OH211024   7.532   1.294   6.577
 3694TIP3    H111025   7.572   1.371   6.538
 3694TIP3    H211026   7.497   1.245   6.503
 3695TIP3   OH211027   0.460   6.017   2.337
 3695TIP3    H111028   0.437   6.072   2.413
 3695TIP3    H211029   0.395   5.947   2.339
 3696TIP3   OH211030   3.201   6.240   2.262
 3696TIP3    H111031   3.158   6.157   2.283
 3696TIP3    H211032   3.245   6.265   2.343
 3697TIP3   OH211033   3.767   4.870   5.409
 3697TIP3    H111034   3.710   4.918   5.350
 3697TIP3    H211035   3.824   4.819   5.352
 3698TIP3   OH211036   4.061   4.442   3.119
 3698TIP3    H111037   4.024   4.382   3.183
 3698TIP3    H211038   3.996   4.445   3.049
 3699TIP3   OH211039   2.809   2.438   1.125
 3699TIP3    H111040   2.850   2.484   1.199
 3699TIP3    H211041   2.882   2.406   1.073
 3700TIP3   OH211042   4.447   6.581   1.831
 3700TIP3    H111043   4.513   6.618   1.773
 3700TIP3    H211044   4.430   6.649   1.896
 3701TIP3   OH211045   8.189   5.121   0.077
 3701TIP3    H111046   8.151   5.170   0.150
 3701TIP3    H211047   8.136   5.041   0.072
 3702TIP3   OH211048   1.754   6.003   5.494
 3702TIP3    H111049   1.816   5.974   5.561
 3702TIP3    H211050   1.790   5.967   5.412
 3703TIP3   OH211051   7.537   2.812   3.583
 3703TIP3    H111052   7.617   2.781   3.625
 3703TIP3    H211053   7.498   2.734   3.545
 3704TIP3   OH211054   5.688   4.787   0.182
 3704TIP3    H111055   5.762   4.751   0.232
 3704TIP3    H211056   5.716   4.877   0.161
 3705TIP3   OH211057   2.514   0.183   5.843
 3705TIP3    H111058   2.486   0.274   5.836
 3705TIP3    H211059   2.584   0.174   5.779
 3706TIP3   OH211060   0.299   2.324   6.060
 3706TIP3    H111061   0.232   2.293   6.122
 3706TIP3    H211062   0.381   2.288   6.093
 3707TIP3   OH211063   3.161   4.269   0.642
 3707TIP3    H111064   3.070   4.253   0.668
 3707TIP3    H211065   3.200   4.316   0.715
 3708TIP3   OH211066   0.497   7.266   5.656
 3708TIP3    H111067   0.422   7.207   5.651
 3708TIP3    H211068   0.470   7.335   5.716
 3709TIP3   OH211069   3.231   3.182   3.874
 3709TIP3    H111070   3.253   3.256   3.818
 3709TIP3    H211071   3.296   3.186   3.945
 3710TIP3   OH211072   1.061   6.256   0.128
 3710TIP3    H111073   1.034   6.165   0.116
 3710TIP3    H211074   1.140   6.251   0.182
 3711TIP3   OH211075   5.184   7.037   0.209
 3711TIP3    H111076   5.184   6.952   0.252
 3711TIP3    H211077   5.092   7.056   0.194
 3712TIP3   OH211078   2.927   7.759   0.975
 3712TIP3    H111079   2.921   7.720   1.062
 3712TIP3    H211080   3.020   7.776   0.962
 3713TIP3   OH211081   0.950   1.620   4.062
 3713TIP3    H111082   1.018   1.629   3.995
 3713TIP3    H211083   0.988   1.659   4.140
 3714TIP3   OH211084   0.153   1.207   4.794
 3714TIP3    H111085   0.087   1.142   4.768
 3714TIP3    H211086   0.226   1.192   4.734
 3715TIP3   OH211087   5.852   1.829   2.617
 3715TIP3    H111088   5.862   1.833   2.712
 3715TIP3    H211089   5.932   1.786   2.585
 3716TIP3   OH211090   6.779   1.349   1.237
 3716TIP3    H111091   6.727   1.418   1.195
 3716TIP3    H211092   6.722   1.313   1.305
 3717TIP3   OH211093   1.806   4.437   4.642
 3717TIP3    H111094   1.847   4.518   4.610
 3717TIP3    H211095   1.727   4.466   4.688
 3718TIP3   OH211096   0.328   0.115   4.430
 3718TIP3    H111097   0.271   0.167   4.374
 3718TIP3    H211098   0.271   0.048   4.467
 3719TIP3   OH211099   3.494   7.018   4.860
 3719TIP3    H111100   3.477   7.065   4.779
 3719TIP3    H211101   3.442   6.939   4.853
 3720TIP3   OH211102   2.083   2.342   6.296
 3720TIP3    H111103   2.131   2.331   6.379
 3720TIP3    H211104   2.035   2.261   6.285
 3721TIP3   OH211105   0.736   7.040   4.070
 3721TIP3    H111106   0.698   6.957   4.041
 3721TIP3    H211107   0.825   7.017   4.099
 3722TIP3   OH211108   5.278   6.942   1.941
 3722TIP3    H111109   5.267   6.884   1.866
 3722TIP3    H211110   5.296   6.884   2.015
 3723TIP3   OH211111   3.741   3.391   0.471
 3723TIP3    H111112   3.812   3.362   0.528
 3723TIP3    H211113   3.665   3.397   0.529
 3724TIP3   OH211114   6.900   4.292   5.663
 3724TIP3    H111115   6.893   4.383   5.635
 3724TIP3    H211116   6.824   4.248   5.624
 3725TIP3   OH211117   0.210   2.333   5.491
 3725TIP3    H111118   0.181   2.350   5.581
 3725TIP3    H211119   0.305   2.332   5.496
 3726TIP3   OH211120   2.583   2.611   6.635
 3726TIP3    H111121   2.664   2.582   6.676
 3726TIP3    H211122   2.554   2.537   6.582
 3727TIP3   OH211123   2.706   6.225   6.287
 3727TIP3    H111124   2.775   6.160   6.275
 3727TIP3    H211125   2.706   6.243   6.381
 3728TIP3   OH211126   1.609   4.439   2.330
 3728TIP3    H111127   1.574   4.528   2.326
 3728TIP3    H211128   1.582   4.406   2.415
 3729TIP3   OH211129   6.411   2.299   5.383
 3729TIP3    H111130   6.360   2.369   5.424
 3729TIP3    H211131   6.362   2.219   5.402
 3730TIP3   OH211132   6.292   3.877   4.916
 3730TIP3    H111133   6.214   3.886   4.860
 3730TIP3    H211134   6.333   3.796   4.886
 3731TIP3   OH211135   0.140   5.478   0.708
 3731TIP3    H111136   0.204   5.527   0.760
 3731TIP3    H211137   0.193   5.431   0.643
 3732TIP3   OH211138   5.029   3.137   1.364
 3732TIP3    H111139   4.974   3.059   1.357
 3732TIP3    H211140   5.117   3.107   1.342
 3733TIP3   OH211141   1.672   3.178   4.977
 3733TIP3    H111142   1.707   3.203   5.063
 3733TIP3    H211143   1.623   3.255   4.948
 3734TIP3   OH211144   0.422   0.974   2.835
 3734TIP3    H111145   0.350   0.976   2.899
 3734TIP3    H211146   0.449   0.882   2.834
 3735TIP3   OH211147   7.751   4.523   0.161
 3735TIP3    H111148   7.794   4.573   0.092
 3735TIP3    H211149   7.815   4.457   0.188
 3736TIP3   OH211150   1.257   7.617   3.423
 3736TIP3    H111151   1.306   7.675   3.364
 3736TIP3    H211152   1.239   7.671   3.500
 3737TIP3   OH211153   8.021   0.343   2.932
 3737TIP3    H111154   7.950   0.305   2.984
 3737TIP3    H211155   7.989   0.429   2.907
 3738TIP3   OH211156   1.856   0.454   5.045
 3738TIP3    H111157   1.942   0.448   5.086
 3738TIP3    H211158   1.852   0.542   5.009
 3739TIP3   OH211159   2.322   3.627   6.494
 3739TIP3    H111160   2.350   3.589   6.577
 3739TIP3    H211161   2.227   3.634   6.501
 3740TIP3   OH211162   3.686   1.124   4.813
 3740TIP3    H111163   3.679   1.218   4.827
 3740TIP3    H211164   3.775   1.102   4.840
 3741TIP3   OH211165   3.081   0.888   6.240
 3741TIP3    H111166   3.041   0.886   6.328
 3741TIP3    H211167   3.134   0.968   6.240
 3742TIP3   OH211168   6.121   5.843   3.528
 3742TIP3    H111169   6.056   5.863   3.595
 3742TIP3    H211170   6.074   5.857   3.445
 3743TIP3   OH211171   2.674   6.374   3.495
 3743TIP3    H111172   2.746   6.374   3.559
 3743TIP3    H211173   2.653   6.282   3.483
 3744TIP3   OH211174   8.157   6.070   1.980
 3744TIP3    H111175   8.101   6.093   2.055
 3744TIP3    H211176   8.096   6.039   1.913
 3745TIP3   OH211177   8.099   4.527   6.473
 3745TIP3    H111178   8.187   4.560   6.451
 3745TIP3    H211179   8.039   4.586   6.427
 3746TIP3   OH211180   6.867   4.027   4.326
 3746TIP3    H111181   6.847   4.117   4.300
 3746TIP3    H211182   6.871   4.030   4.422
 3747TIP3   OH211183   3.243   6.308   3.766
 3747TIP3    H111184   3.243   6.348   3.679
 3747TIP3    H211185   3.151   6.286   3.783
 3748TIP3   OH211186   0.523   1.439   0.244
 3748TIP3    H111187   0.583   1.391   0.301
 3748TIP3    H211188   0.569   1.446   0.161
 3749TIP3   OH211189   7.856   3.979   1.514
 3749TIP3    H111190   7.766   4.003   1.493
 3749TIP3    H211191   7.861   3.980   1.609
 3750TIP3   OH211192   4.088   4.511   0.463
 3750TIP3    H111193   4.106   4.590   0.412
 3750TIP3    H211194   4.122   4.530   0.550
 3751TIP3   OH211195   7.753   7.151   5.405
 3751TIP3    H111196   7.801   7.092   5.463
 3751TIP3    H211197   7.741   7.101   5.324
 3752TIP3   OH211198   2.808   5.940   4.069
 3752TIP3    H111199   2.884   5.922   4.125
 3752TIP3    H211200   2.844   5.945   3.981
 3753TIP3   OH211201   5.988   7.158   4.229
 3753TIP3    H111202   5.924   7.229   4.242
 3753TIP3    H211203   5.978   7.102   4.305
 3754TIP3   OH211204   3.428   4.937   3.169
 3754TIP3    H111205   3.498   4.890   3.216
 3754TIP3    H211206   3.373   4.868   3.133
 3755TIP3   OH211207   7.025   0.229   0.579
 3755TIP3    H111208   7.048   0.162   0.514
 3755TIP3    H211209   6.929   0.225   0.583
 3756TIP3   OH211210   2.726   4.512   2.506
 3756TIP3    H111211   2.783   4.498   2.582
 3756TIP3    H211212   2.743   4.437   2.449
 3757TIP3   OH211213   1.476   3.675   3.284
 3757TIP3    H111214   1.450   3.639   3.368
 3757TIP3    H211215   1.557   3.722   3.302
 3758TIP3   OH211216   5.624   0.680   1.706
 3758TIP3    H111217   5.669   0.596   1.712
 3758TIP3    H211218   5.559   0.667   1.637
 3759TIP3   OH211219   6.031   6.272   1.782
 3759TIP3    H111220   6.081   6.254   1.703
 3759TIP3    H211221   5.942   6.244   1.762
 3760TIP3   OH211222   7.545   3.270   4.483
 3760TIP3    H111223   7.576   3.359   4.500
 3760TIP3    H211224   7.623   3.215   4.490
 3761TIP3   OH211225   7.143   5.649   6.579
 3761TIP3    H111226   7.209   5.679   6.516
 3761TIP3    H211227   7.059   5.671   6.538
 3762TIP3   OH211228   1.618   6.139   6.530
 3762TIP3    H111229   1.542   6.196   6.518
 3762TIP3    H211230   1.634   6.140   6.624
 3763TIP3   OH211231   7.695   0.197   0.964
 3763TIP3    H111232   7.734   0.149   1.037
 3763TIP3    H211233   7.762   0.195   0.896
 3764TIP3   OH211234   0.550   6.648   2.351
 3764TIP3    H111235   0.573   6.563   2.387
 3764TIP3    H211236   0.630   6.700   2.360
 3765TIP3   OH211237   5.124   2.174   2.340
 3765TIP3    H111238   5.155   2.264   2.349
 3765TIP3    H211239   5.060   2.177   2.268
 3766TIP3   OH211240   2.987   2.915   6.359
 3766TIP3    H111241   2.940   2.995   6.381
 3766TIP3    H211242   2.965   2.898   6.268
 3767TIP3   OH211243   3.327   2.425   4.422
 3767TIP3    H111244   3.266   2.495   4.403
 3767TIP3    H211245   3.285   2.375   4.493
 3768TIP3   OH211246   3.993   1.635   3.779
 3768TIP3    H111247   3.961   1.716   3.739
 3768TIP3    H211248   4.086   1.634   3.758
 3769TIP3   OH211249   1.919   5.590   0.256
 3769TIP3    H111250   1.985   5.523   0.274
 3769TIP3    H211251   1.858   5.585   0.330
 3770TIP3   OH211252   0.069   7.450   5.115
 3770TIP3    H111253   0.038   7.375   5.166
 3770TIP3    H211254   0.161   7.432   5.098
 3771TIP3   OH211255   7.127   0.102   5.931
 3771TIP3    H111256   7.209   0.127   5.973
 3771TIP3    H211257   7.060   0.125   5.995
 3772TIP3   OH211258   3.706   2.185   5.404
 3772TIP3    H111259   3.654   2.257   5.370
 3772TIP3    H211260   3.796   2.216   5.401
 3773TIP3   OH211261   8.051   4.550   2.964
 3773TIP3    H111262   7.973   4.516   3.008
 3773TIP3    H211263   8.082   4.478   2.911
 3774TIP3   OH211264   5.682   0.778   3.110
 3774TIP3    H111265   5.662   0.853   3.053
 3774TIP3    H211266   5.776   0.766   3.100
 3775TIP3   OH211267   7.428   6.054   6.453
 3775TIP3    H111268   7.418   6.146   6.478
 3775TIP3    H211269   7.394   6.004   6.527
 3776TIP3   OH211270   1.046   4.260   3.936
 3776TIP3    H111271   1.056   4.266   4.031
 3776TIP3    H211272   0.988   4.185   3.923
 3777TIP3   OH211273   0.076   1.918   6.040
 3777TIP3    H111274  -0.007   1.873   6.056
 3777TIP3    H211275   0.133   1.891   6.112
 3778TIP3   OH211276   7.194   3.304   5.240
 3778TIP3    H111277   7.238   3.378   5.196
 3778TIP3    H211278   7.251   3.282   5.313
 3779TIP3   OH211279   0.935   4.815   2.295
 3779TIP3    H111280   0.858   4.829   2.351
 3779TIP3    H211281   0.999   4.773   2.353
 3780TIP3   OH211282   1.969   0.957   0.656
 3780TIP3    H111283   1.890   1.004   0.628
 3780TIP3    H211284   1.953   0.866   0.631
 3781TIP3   OH211285   4.995   3.909   1.605
 3781TIP3    H111286   4.968   3.948   1.688
 3781TIP3    H211287   4.913   3.880   1.564
 3782TIP3   OH211288   2.325   6.817   6.023
 3782TIP3    H111289   2.239   6.823   6.065
 3782TIP3    H211290   2.358   6.906   6.024
 3783TIP3   OH211291   0.824   0.280   5.623
 3783TIP3    H111292   0.828   0.316   5.712
 3783TIP3    H211293   0.812   0.356   5.567
 3784TIP3   OH211294   1.977   6.837   5.054
 3784TIP3    H111295   1.970   6.746   5.025
 3784TIP3    H211296   1.899   6.851   5.109
 3785TIP3   OH211297   5.549   0.753   2.414
 3785TIP3    H111298   5.588   0.803   2.343
 3785TIP3    H211299   5.454   0.758   2.398
 3786TIP3   OH211300   6.614   1.874   4.924
 3786TIP3    H111301   6.649   1.891   5.011
 3786TIP3    H211302   6.671   1.806   4.888
 3787TIP3   OH211303   1.100   0.041   4.541
 3787TIP3    H111304   1.164   0.068   4.606
 3787TIP3    H211305   1.057   0.122   4.515
 3788TIP3   OH211306   0.366   2.877   6.521
 3788TIP3    H111307   0.296   2.812   6.528
 3788TIP3    H211308   0.378   2.909   6.610
 3789TIP3   OH211309   3.555   5.928   0.211
 3789TIP3    H111310   3.470   5.952   0.173
 3789TIP3    H211311   3.538   5.846   0.257
 3790TIP3   OH211312   6.684   2.742   1.160
 3790TIP3    H111313   6.594   2.774   1.167
 3790TIP3    H211314   6.693   2.680   1.232
 3791TIP3   OH211315   6.305   2.865   3.189
 3791TIP3    H111316   6.358   2.929   3.237
 3791TIP3    H211317   6.231   2.846   3.247
 3792TIP3   OH211318   2.343   2.401   4.839
 3792TIP3    H111319   2.429   2.441   4.855
 3792TIP3    H211320   2.281   2.474   4.850
 3793TIP3   OH211321   6.903   1.414   2.653
 3793TIP3    H111322   6.983   1.391   2.700
 3793TIP3    H211323   6.888   1.506   2.676
 3794TIP3   OH211324   7.344   2.804   5.434
 3794TIP3    H111325   7.403   2.821   5.508
 3794TIP3    H211326   7.396   2.825   5.356
 3795TIP3   OH211327   0.571   0.547   3.955
 3795TIP3    H111328   0.594   0.592   3.874
 3795TIP3    H211329   0.504   0.484   3.930
 3796TIP3   OH211330   4.804   3.844   0.692
 3796TIP3    H111331   4.834   3.859   0.782
 3796TIP3    H211332   4.743   3.916   0.676
 3797TIP3   OH211333   0.923   1.081   4.822
 3797TIP3    H111334   1.013   1.103   4.846
 3797TIP3    H211335   0.900   1.008   4.880
 3798TIP3   OH211336   0.308   4.374   3.242
 3798TIP3    H111337   0.398   4.374   3.274
 3798TIP3    H211338   0.307   4.305   3.175
 3799TIP3   OH211339   2.290   4.417   3.838
 3799TIP3    H111340   2.211   4.472   3.836
 3799TIP3    H211341   2.347   4.454   3.770
 3800TIP3   OH211342   7.396   5.091   3.290
 3800TIP3    H111343   7.468   5.081   3.352
 3800TIP3    H211344   7.402   5.182   3.261
 3801TIP3   OH211345   6.230   5.887   3.110
 3801TIP3    H111346   6.147   5.923   3.143
 3801TIP3    H211347   6.266   5.839   3.185
 3802TIP3   OH211348   6.661   0.930   0.736
 3802TIP3    H111349   6.582   0.966   0.695
 3802TIP3    H211350   6.679   0.990   0.809
 3803TIP3   OH211351   3.425   5.382   1.817
 3803TIP3    H111352   3.500   5.435   1.846
 3803TIP3    H211353   3.367   5.378   1.893
 3804TIP3   OH211354   2.021   2.468   4.616
 3804TIP3    H111355   2.094   2.517   4.652
 3804TIP3    H211356   1.992   2.410   4.687
 3805TIP3   OH211357   4.927   0.399   2.497
 3805TIP3    H111358   4.933   0.494   2.513
 3805TIP3    H211359   4.881   0.365   2.574
 3806TIP3   OH211360   6.663   3.685   0.886
 3806TIP3    H111361   6.580   3.710   0.844
 3806TIP3    H211362   6.670   3.591   0.869
 3807TIP3   OH211363   7.259   0.399   2.930
 3807TIP3    H111364   7.249   0.482   2.884
 3807TIP3    H211365   7.199   0.340   2.885
 3808TIP3   OH211366   0.983   0.342   5.888
 3808TIP3    H111367   1.044   0.364   5.818
 3808TIP3    H211368   0.920   0.414   5.889
 3809TIP3   OH211369   2.889   0.320   2.907
 3809TIP3    H111370   2.938   0.354   2.982
 3809TIP3    H211371   2.845   0.397   2.871
 3810TIP3   OH211372   1.038   2.373   5.176
 3810TIP3    H111373   0.954   2.362   5.221
 3810TIP3    H211374   1.038   2.465   5.148
 3811TIP3   OH211375   5.427   0.287   0.137
 3811TIP3    H111376   5.453   0.321   0.223
 3811TIP3    H211377   5.420   0.365   0.082
 3812TIP3   OH211378   5.686   6.691   1.399
 3812TIP3    H111379   5.600   6.702   1.440
 3812TIP3    H211380   5.721   6.611   1.437
 3813TIP3   OH211381   5.752   0.700   0.808
 3813TIP3    H111382   5.825   0.671   0.862
 3813TIP3    H211383   5.769   0.794   0.793
 3814TIP3   OH211384   2.525   6.762   0.303
 3814TIP3    H111385   2.564   6.729   0.222
 3814TIP3    H211386   2.447   6.810   0.275
 3815TIP3   OH211387   3.262   1.459   0.857
 3815TIP3    H111388   3.337   1.441   0.800
 3815TIP3    H211389   3.278   1.547   0.891
 3816TIP3   OH211390   1.203   3.301   1.885
 3816TIP3    H111391   1.290   3.339   1.876
 3816TIP3    H211392   1.143   3.373   1.866
 3817TIP3   OH211393   1.527   4.518   4.028
 3817TIP3    H111394   1.588   4.590   4.014
 3817TIP3    H211395   1.583   4.441   4.036
 3818TIP3   OH211396   3.058   1.361   0.080
 3818TIP3    H111397   3.061   1.265   0.078
 3818TIP3    H211398   3.149   1.388   0.088
 3819TIP3   OH211399   6.906   4.921   5.112
 3819TIP3    H111400   6.895   4.990   5.047
 3819TIP3    H211401   6.818   4.885   5.124
 3820TIP3   OH211402   6.540   4.279   6.422
 3820TIP3    H111403   6.595   4.206   6.449
 3820TIP3    H211404   6.459   4.239   6.391
 3821TIP3   OH211405   7.149   2.352   2.332
 3821TIP3    H111406   7.193   2.267   2.338
 3821TIP3    H211407   7.093   2.355   2.409
 3822TIP3   OH211408   6.175   0.985   5.946
 3822TIP3    H111409   6.188   1.052   5.879
 3822TIP3    H211410   6.263   0.962   5.975
 3823TIP3   OH211411   4.829   7.157   4.124
 3823TIP3    H111412   4.825   7.085   4.187
 3823TIP3    H211413   4.833   7.114   4.039
 3824TIP3   OH211414   2.881   4.134   1.670
 3824TIP3    H111415   2.893   4.051   1.624
 3824TIP3    H211416   2.817   4.115   1.739
 3825TIP3   OH211417   4.508   1.722   1.035
 3825TIP3    H111418   4.545   1.697   0.951
 3825TIP3    H211419   4.581   1.716   1.096
 3826TIP3   OH211420   5.639   3.071   0.680
 3826TIP3    H111421   5.596   3.122   0.749
 3826TIP3    H211422   5.657   3.134   0.611
 3827TIP3   OH211423   1.909   3.799   2.188
 3827TIP3    H111424   1.921   3.835   2.100
 3827TIP3    H211425   1.872   3.712   2.174
 3828TIP3   OH211426   3.023   7.201   5.844
 3828TIP3    H111427   3.073   7.133   5.799
 3828TIP3    H211428   2.994   7.260   5.775
 3829TIP3   OH211429   2.103   6.495   2.930
 3829TIP3    H111430   2.181   6.466   2.883
 3829TIP3    H211431   2.097   6.437   3.006
 3830TIP3   OH211432   1.863   1.326   5.586
 3830TIP3    H111433   1.859   1.370   5.501
 3830TIP3    H211434   1.870   1.397   5.650
 3831TIP3   OH211435   0.423   6.037   4.901
 3831TIP3    H111436   0.349   6.033   4.962
 3831TIP3    H211437   0.500   6.029   4.956
 3832TIP3   OH211438   3.859   2.463   2.060
 3832TIP3    H111439   3.928   2.417   2.013
 3832TIP3    H211440   3.867   2.554   2.033
 3833TIP3   OH211441   5.261   1.390   3.868
 3833TIP3    H111442   5.320   1.447   3.916
 3833TIP3    H211443   5.174   1.428   3.882
 3834TIP3   OH211444   7.092   5.776   2.291
 3834TIP3    H111445   7.055   5.857   2.327
 3834TIP3    H211446   7.118   5.725   2.368
 3835TIP3   OH211447   1.802   7.270   3.068
 3835TIP3    H111448   1.724   7.324   3.078
 3835TIP3    H211449   1.860   7.322   3.012
 3836TIP3   OH211450   1.541   3.859   4.741
 3836TIP3    H111451   1.540   3.955   4.739
 3836TIP3    H211452   1.472   3.833   4.680
 3837TIP3   OH211453   4.252   7.297   1.466
 3837TIP3    H111454   4.305   7.277   1.389
 3837TIP3    H211455   4.264   7.391   1.480
 3838TIP3   OH211456   5.483   4.278   4.635
 3838TIP3    H111457   5.540   4.224   4.581
 3838TIP3    H211458   5.507   4.255   4.725
 3839TIP3   OH211459   7.081   5.355   0.824
 3839TIP3    H111460   6.992   5.342   0.789
 3839TIP3    H211461   7.127   5.401   0.754
 3840TIP3   OH211462   0.099   6.500   1.815
 3840TIP3    H111463   0.097   6.532   1.905
 3840TIP3    H211464   0.119   6.406   1.823
 3841TIP3   OH211465   0.242   2.518   5.073
 3841TIP3    H111466   0.323   2.523   5.023
 3841TIP3    H211467   0.211   2.608   5.077
 3842TIP3   OH211468   6.484   7.293   3.596
 3842TIP3    H111469   6.458   7.219   3.651
 3842TIP3    H211470   6.568   7.267   3.559
 3843TIP3   OH211471   0.992   5.495   3.671
 3843TIP3    H111472   1.016   5.583   3.643
 3843TIP3    H211473   1.076   5.449   3.678
 3844TIP3   OH211474   6.168   6.990   3.424
 3844TIP3    H111475   6.144   6.908   3.467
 3844TIP3    H211476   6.240   7.025   3.477
 3845TIP3   OH211477   4.751   5.420   1.105
 3845TIP3    H111478   4.656   5.428   1.110
 3845TIP3    H211479   4.772   5.438   1.013
 3846TIP3   OH211480   2.087   6.860   6.147
 3846TIP3    H111481   2.057   6.771   6.167
 3846TIP3    H211482   2.007   6.908   6.125
 3847TIP3   OH211483   1.366   6.732   6.687
 3847TIP3    H111484   1.322   6.800   6.738
 3847TIP3    H211485   1.404   6.778   6.612
 3848TIP3   OH211486   1.821   1.713   3.291
 3848TIP3    H111487   1.908   1.751   3.305
 3848TIP3    H211488   1.782   1.709   3.378
 3849TIP3   OH211489   6.970   3.556   5.884
 3849TIP3    H111490   6.959   3.476   5.935
 3849TIP3    H211491   6.896   3.556   5.823
 3850TIP3   OH211492   7.987   3.142   4.988
 3850TIP3    H111493   8.058   3.177   5.042
 3850TIP3    H211494   7.970   3.055   5.024
 3851TIP3   OH211495   7.602   3.845   3.752
 3851TIP3    H111496   7.618   3.757   3.718
 3851TIP3    H211497   7.583   3.831   3.845
 3852TIP3   OH211498   5.902   5.479   3.986
 3852TIP3    H111499   5.815   5.517   3.986
 3852TIP3    H211500   5.890   5.390   3.954
 3853TIP3   OH211501   1.281   0.630   3.518
 3853TIP3    H111502   1.271   0.613   3.611
 3853TIP3    H211503   1.207   0.584   3.477
 3854TIP3   OH211504   2.793   6.479   6.500
 3854TIP3    H111505   2.791   6.557   6.555
 3854TIP3    H211506   2.720   6.491   6.439
 3855TIP3   OH211507   7.690   6.942   3.594
 3855TIP3    H111508   7.622   6.927   3.528
 3855TIP3    H211509   7.652   7.005   3.655
 3856TIP3   OH211510   3.251   0.689   4.638
 3856TIP3    H111511   3.209   0.763   4.682
 3856TIP3    H211512   3.344   0.698   4.661
 3857TIP3   OH211513   4.466   1.370   3.618
 3857TIP3    H111514   4.436   1.326   3.697
 3857TIP3    H211515   4.438   1.312   3.547
 3858TIP3   OH211516   4.690   4.710   2.364
 3858TIP3    H111517   4.755   4.760   2.315
 3858TIP3    H211518   4.625   4.776   2.391
 3859TIP3   OH211519   3.226   5.480   2.297
 3859TIP3    H111520   3.174   5.559   2.313
 3859TIP3    H211521   3.161   5.414   2.274
 3860TIP3   OH211522   2.520   1.503   5.868
 3860TIP3    H111523   2.500   1.431   5.929
 3860TIP3    H211524   2.484   1.474   5.784
 3861TIP3   OH211525   7.080   3.236   3.541
 3861TIP3    H111526   7.136   3.314   3.539
 3861TIP3    H211527   7.137   3.166   3.508
 3862TIP3   OH211528   1.901   5.916   0.668
 3862TIP3    H111529   1.908   6.006   0.700
 3862TIP3    H211530   1.984   5.876   0.691
 3863TIP3   OH211531   1.266   6.311   0.780
 3863TIP3    H111532   1.309   6.369   0.718
 3863TIP3    H211533   1.188   6.359   0.808
 3864TIP3   OH211534   0.634   1.157   4.468
 3864TIP3    H111535   0.725   1.157   4.497
 3864TIP3    H211536   0.636   1.201   4.383
 3865TIP3   OH211537   1.550   5.361   5.758
 3865TIP3    H111538   1.566   5.418   5.683
 3865TIP3    H211539   1.470   5.397   5.798
 3866TIP3   OH211540   5.167   3.239   6.473
 3866TIP3    H111541   5.085   3.191   6.484
 3866TIP3    H211542   5.147   3.328   6.503
 3867TIP3   OH211543   0.856   0.097   0.629
 3867TIP3    H111544   0.860   0.120   0.536
 3867TIP3    H211545   0.775   0.047   0.638
 3868TIP3   OH211546   4.847   0.777   5.986
 3868TIP3    H111547   4.882   0.815   6.066
 3868TIP3    H211548   4.754   0.764   6.005
 3869TIP3   OH211549   8.079   3.304   6.292
 3869TIP3    H111550   8.077   3.379   6.351
 3869TIP3    H211551   8.076   3.228   6.350
 3870TIP3   OH211552   6.660   5.160   1.864
 3870TIP3    H111553   6.684   5.224   1.797
 3870TIP3    H211554   6.564   5.159   1.864
 3871TIP3   OH211555   4.694   0.606   4.349
 3871TIP3    H111556   4.625   0.556   4.392
 3871TIP3    H211557   4.722   0.670   4.414
 3872TIP3   OH211558   2.052   5.746   1.433
 3872TIP3    H111559   2.092   5.752   1.346
 3872TIP3    H211560   2.077   5.659   1.465
 3873TIP3   OH211561   4.340   4.416   2.108
 3873TIP3    H111562   4.393   4.383   2.035
 3873TIP3    H211563   4.249   4.401   2.080
 3874TIP3   OH211564   6.074   4.717   4.445
 3874TIP3    H111565   6.134   4.771   4.496
 3874TIP3    H211566   6.110   4.719   4.356
 3875TIP3   OH211567   3.129   2.936   4.844
 3875TIP3    H111568   3.095   2.875   4.910
 3875TIP3    H211569   3.182   2.998   4.895
 3876TIP3   OH211570   3.796   3.224   3.291
 3876TIP3    H111571   3.768   3.295   3.350
 3876TIP3    H211572   3.835   3.268   3.216
 3877TIP3   OH211573   2.489   1.851   2.690
 3877TIP3    H111574   2.417   1.914   2.689
 3877TIP3    H211575   2.454   1.777   2.739
 3878TIP3   OH211576   4.007   5.033   0.611
 3878TIP3    H111577   3.983   4.969   0.677
 3878TIP3    H211578   3.946   5.019   0.539
 3879TIP3   OH211579   3.595   5.000   4.974
 3879TIP3    H111580   3.619   5.064   5.042
 3879TIP3    H211581   3.566   4.923   5.023
 3880TIP3   OH211582   1.261   5.128   3.069
 3880TIP3    H111583   1.214   5.188   3.012
 3880TIP3    H211584   1.268   5.047   3.017
 3881TIP3   OH211585   8.182   5.485   4.883
 3881TIP3    H111586   8.116   5.418   4.901
 3881TIP3    H211587   8.187   5.536   4.964
 3882TIP3   OH211588   4.147   6.652   3.266
 3882TIP3    H111589   4.167   6.562   3.289
 3882TIP3    H211590   4.067   6.646   3.213
 3883TIP3   OH211591   4.456   1.047   4.522
 3883TIP3    H111592   4.455   1.048   4.426
 3883TIP3    H211593   4.372   1.008   4.547
 3884TIP3   OH211594   8.016   5.225   5.317
 3884TIP3    H111595   7.926   5.192   5.314
 3884TIP3    H211596   8.019   5.278   5.396
 3885TIP3   OH211597   7.444   1.263   5.672
 3885TIP3    H111598   7.424   1.199   5.741
 3885TIP3    H211599   7.526   1.231   5.633
 3886TIP3   OH211600   6.619   3.320   5.123
 3886TIP3    H111601   6.704   3.364   5.113
 3886TIP3    H211602   6.629   3.237   5.076
 3887TIP3   OH211603   2.131   1.517   5.752
 3887TIP3    H111604   2.133   1.518   5.656
 3887TIP3    H211605   2.052   1.566   5.774
 3888TIP3   OH211606   1.953   5.152   5.004
 3888TIP3    H111607   1.906   5.089   5.058
 3888TIP3    H211608   2.003   5.099   4.943
 3889TIP3   OH211609   3.685   3.934   2.602
 3889TIP3    H111610   3.660   3.846   2.574
 3889TIP3    H211611   3.773   3.924   2.638
 3890TIP3   OH211612   1.938   4.983   5.816
 3890TIP3    H111613   2.028   4.997   5.846
 3890TIP3    H211614   1.946   4.917   5.747
 3891TIP3   OH211615   1.991   5.489   6.074
 3891TIP3    H111616   2.080   5.456   6.087
 3891TIP3    H211617   1.945   5.466   6.155
 3892TIP3   OH211618   2.852   4.883   2.304
 3892TIP3    H111619   2.916   4.895   2.374
 3892TIP3    H211620   2.839   4.788   2.299
 3893TIP3   OH211621   7.805   4.371   5.779
 3893TIP3    H111622   7.835   4.369   5.870
 3893TIP3    H211623   7.754   4.451   5.772
 3894TIP3   OH211624   1.138   0.204   0.955
 3894TIP3    H111625   1.093   0.283   0.925
 3894TIP3    H211626   1.073   0.157   1.007
 3895TIP3   OH211627   6.172   2.474   4.667
 3895TIP3    H111628   6.173   2.525   4.748
 3895TIP3    H211629   6.147   2.386   4.695
 3896TIP3   OH211630   2.604   7.362   4.939
 3896TIP3    H111631   2.527   7.312   4.913
 3896TIP3    H211632   2.569   7.445   4.973
 3897TIP3   OH211633   3.557   2.108   3.405
 3897TIP3    H111634   3.521   2.020   3.411
 3897TIP3    H211635   3.524   2.142   3.322
 3898TIP3   OH211636   6.855   0.486   0.826
 3898TIP3    H111637   6.892   0.548   0.762
 3898TIP3    H211638   6.930   0.455   0.875
 3899TIP3   OH211639   6.748   6.039   3.324
 3899TIP3    H111640   6.789   6.013   3.242
 3899TIP3    H211641   6.817   6.085   3.372
 3900TIP3   OH211642   8.201   4.123   3.405
 3900TIP3    H111643   8.214   4.189   3.473
 3900TIP3    H211644   8.156   4.169   3.335
 3901TIP3   OH211645   2.557   2.546   4.862
 3901TIP3    H111646   2.576   2.639   4.848
 3901TIP3    H211647   2.637   2.511   4.902
 3902TIP3   OH211648   5.136   5.297   2.489
 3902TIP3    H111649   5.060   5.276   2.543
 3902TIP3    H211650   5.126   5.389   2.466
 3903TIP3   OH211651   1.039   0.909   3.883
 3903TIP3    H111652   1.035   1.004   3.891
 3903TIP3    H211653   1.131   0.891   3.860
 3904TIP3   OH211654   2.919   5.711   6.548
 3904TIP3    H111655   2.906   5.806   6.544
 3904TIP3    H211656   2.853   5.680   6.610
 3905TIP3   OH211657   4.920   3.880   5.856
 3905TIP3    H111658   4.854   3.908   5.792
 3905TIP3    H211659   4.994   3.939   5.842
 3906TIP3   OH211660   7.249   4.684   0.129
 3906TIP3    H111661   7.283   4.687   0.040
 3906TIP3    H211662   7.168   4.735   0.126
 3907TIP3   OH211663   0.709   5.186   5.800
 3907TIP3    H111664   0.689   5.093   5.814
 3907TIP3    H211665   0.641   5.233   5.848
 3908TIP3   OH211666   2.523   1.873   5.280
 3908TIP3    H111667   2.590   1.815   5.317
 3908TIP3    H211668   2.540   1.958   5.323
 3909TIP3   OH211669   3.915   2.929   2.637
 3909TIP3    H111670   3.929   2.878   2.558
 3909TIP3    H211671   3.821   2.947   2.638
 3910TIP3   OH211672   7.297   7.706   2.649
 3910TIP3    H111673   7.290   7.747   2.563
 3910TIP3    H211674   7.265   7.616   2.635
 3911TIP3   OH211675   0.988   1.292   3.392
 3911TIP3    H111676   0.900   1.254   3.396
 3911TIP3    H211677   1.008   1.296   3.299
 3912TIP3   OH211678   2.494   4.716   4.634
 3912TIP3    H111679   2.532   4.804   4.637
 3912TIP3    H211680   2.557   4.665   4.584
 3913TIP3   OH211681   6.079   5.004   5.708
 3913TIP3    H111682   6.140   4.960   5.768
 3913TIP3    H211683   6.084   5.096   5.731
 3914TIP3   OH211684   5.079   1.553   4.742
 3914TIP3    H111685   5.083   1.514   4.829
 3914TIP3    H211686   4.989   1.583   4.733
 3915TIP3   OH211687   3.563   1.801   6.765
 3915TIP3    H111688   3.572   1.752   6.683
 3915TIP3    H211689   3.586   1.891   6.743
 3916TIP3   OH211690   2.170   2.995   0.337
 3916TIP3    H111691   2.197   2.959   0.253
 3916TIP3    H211692   2.237   3.061   0.357
 3917TIP3   OH211693   3.187   3.414   2.329
 3917TIP3    H111694   3.099   3.434   2.363
 3917TIP3    H211695   3.195   3.319   2.337
 3918TIP3   OH211696   3.608   1.490   4.502
 3918TIP3    H111697   3.662   1.431   4.449
 3918TIP3    H211698   3.633   1.472   4.592
 3919TIP3   OH211699   3.542   7.140   2.961
 3919TIP3    H111700   3.455   7.167   2.931
 3919TIP3    H211701   3.527   7.059   3.009
 3920TIP3   OH211702   5.067   7.281   4.268
 3920TIP3    H111703   5.006   7.283   4.194
 3920TIP3    H211704   5.025   7.222   4.331
 3921TIP3   OH211705   1.002   7.471   3.470
 3921TIP3    H111706   0.948   7.524   3.528
 3921TIP3    H211707   1.020   7.527   3.395
 3922TIP3   OH211708   3.978   1.321   5.423
 3922TIP3    H111709   3.994   1.405   5.466
 3922TIP3    H211710   4.029   1.258   5.473
 3923TIP3   OH211711   0.413   6.494   3.162
 3923TIP3    H111712   0.320   6.485   3.184
 3923TIP3    H211713   0.452   6.411   3.187
 3924TIP3   OH211714   4.168   3.347   2.866
 3924TIP3    H111715   4.180   3.267   2.815
 3924TIP3    H211716   4.082   3.380   2.839
 3925TIP3   OH211717   3.264   7.666   2.471
 3925TIP3    H111718   3.340   7.695   2.421
 3925TIP3    H211719   3.219   7.605   2.412
 3926TIP3   OH211720   2.763   5.077   3.912
 3926TIP3    H111721   2.827   5.134   3.870
 3926TIP3    H211722   2.709   5.136   3.965
 3927TIP3   OH211723   5.654   6.371   3.371
 3927TIP3    H111724   5.612   6.437   3.316
 3927TIP3    H211725   5.746   6.372   3.344
 3928TIP3   OH211726   1.973   6.868   1.349
 3928TIP3    H111727   1.971   6.831   1.437
 3928TIP3    H211728   2.057   6.915   1.345
 3929TIP3   OH211729   5.831   3.835   0.833
 3929TIP3    H111730   5.798   3.923   0.815
 3929TIP3    H211731   5.797   3.814   0.920
 3930TIP3   OH211732   1.771   3.291   3.580
 3930TIP3    H111733   1.800   3.253   3.497
 3930TIP3    H211734   1.754   3.383   3.559
 3931TIP3   OH211735   2.088   3.462   0.235
 3931TIP3    H111736   2.163   3.521   0.243
 3931TIP3    H211737   2.084   3.417   0.319
 3932TIP3   OH211738   3.173   7.179   3.660
 3932TIP3    H111739   3.208   7.176   3.749
 3932TIP3    H211740   3.084   7.214   3.671
 3933TIP3   OH211741   8.011   5.686   0.692
 3933TIP3    H111742   8.008   5.624   0.765
 3933TIP3    H211743   8.098   5.674   0.654
 3934TIP3   OH211744   6.198   7.543   0.902
 3934TIP3    H111745   6.199   7.618   0.842
 3934TIP3    H211746   6.153   7.474   0.853
 3935TIP3   OH211747   3.766   2.839   3.663
 3935TIP3    H111748   3.715   2.769   3.623
 3935TIP3    H211749   3.705   2.882   3.723
 3936TIP3   OH211750   6.604   3.158   0.661
 3936TIP3    H111751   6.612   3.120   0.748
 3936TIP3    H211752   6.659   3.103   0.606
 3937TIP3   OH211753   6.707   4.298   3.732
 3937TIP3    H111754   6.725   4.304   3.826
 3937TIP3    H211755   6.711   4.204   3.713
 3938TIP3   OH211756   4.519   4.814   3.165
 3938TIP3    H111757   4.523   4.820   3.069
 3938TIP3    H211758   4.558   4.897   3.194
 3939TIP3   OH211759   7.979   7.291   2.072
 3939TIP3    H111760   7.894   7.317   2.108
 3939TIP3    H211761   8.030   7.373   2.069
 3940TIP3   OH211762   1.839   2.629   3.527
 3940TIP3    H111763   1.770   2.577   3.485
 3940TIP3    H211764   1.904   2.643   3.458
 3941TIP3   OH211765   3.702   3.974   0.266
 3941TIP3    H111766   3.651   4.010   0.193
 3941TIP3    H211767   3.754   4.048   0.299
 3942TIP3   OH211768   8.035   4.457   3.557
 3942TIP3    H111769   8.010   4.422   3.643
 3942TIP3    H211770   7.967   4.522   3.537
 3943TIP3   OH211771   0.365   5.247   4.626
 3943TIP3    H111772   0.419   5.238   4.705
 3943TIP3    H211773   0.282   5.204   4.648
 3944TIP3   OH211774   0.317   5.770   5.463
 3944TIP3    H111775   0.336   5.864   5.464
 3944TIP3    H211776   0.239   5.762   5.408
 3945TIP3   OH211777   2.260   0.802   3.143
 3945TIP3    H111778   2.275   0.757   3.226
 3945TIP3    H211779   2.243   0.893   3.168
 3946TIP3   OH211780   0.310   1.440   5.979
 3946TIP3    H111781   0.303   1.415   6.071
 3946TIP3    H211782   0.220   1.439   5.946
 3947TIP3   OH211783   2.861   1.944   6.712
 3947TIP3    H111784   2.923   2.017   6.707
 3947TIP3    H211785   2.789   1.977   6.766
 3948TIP3   OH211786   7.071   2.203   5.524
 3948TIP3    H111787   7.165   2.219   5.526
 3948TIP3    H211788   7.041   2.246   5.444
 3949TIP3   OH211789   1.186   5.320   2.867
 3949TIP3    H111790   1.153   5.400   2.910
 3949TIP3    H211791   1.108   5.269   2.847
 3950TIP3   OH211792   7.815   7.616   4.141
 3950TIP3    H111793   7.741   7.566   4.175
 3950TIP3    H211794   7.878   7.618   4.213
 3951TIP3   OH211795   0.361   4.733   1.438
 3951TIP3    H111796   0.416   4.708   1.511
 3951TIP3    H211797   0.284   4.676   1.446
 3952TIP3   OH211798   1.913   1.786   2.015
 3952TIP3    H111799   2.006   1.794   2.036
 3952TIP3    H211800   1.911   1.763   1.922
 3953TIP3   OH211801   5.017   2.724   2.750
 3953TIP3    H111802   4.921   2.722   2.745
 3953TIP3    H211803   5.045   2.760   2.666
 3954TIP3   OH211804   6.197   7.617   0.206
 3954TIP3    H111805   6.190   7.632   0.111
 3954TIP3    H211806   6.227   7.700   0.242
 3955TIP3   OH211807   0.848   5.852   2.899
 3955TIP3    H111808   0.934   5.873   2.936
 3955TIP3    H211809   0.809   5.936   2.878
 3956TIP3   OH211810   3.718   7.747   2.467
 3956TIP3    H111811   3.714   7.832   2.425
 3956TIP3    H211812   3.706   7.765   2.560
 3957TIP3   OH211813   5.040   4.055   1.370
 3957TIP3    H111814   4.963   4.055   1.313
 3957TIP3    H211815   5.016   3.995   1.441
 3958TIP3   OH211816   1.748   2.711   6.393
 3958TIP3    H111817   1.747   2.807   6.392
 3958TIP3    H211818   1.668   2.686   6.346
 3959TIP3   OH211819   3.600   7.151   3.330
 3959TIP3    H111820   3.664   7.101   3.279
 3959TIP3    H211821   3.563   7.213   3.267
 3960TIP3   OH211822   1.098   3.315   6.418
 3960TIP3    H111823   1.041   3.238   6.415
 3960TIP3    H211824   1.040   3.388   6.394
 3961TIP3   OH211825   3.121   5.370   6.541
 3961TIP3    H111826   3.141   5.284   6.504
 3961TIP3    H211827   3.038   5.395   6.500
 3962TIP3   OH211828   1.071   7.797   1.564
 3962TIP3    H111829   1.022   7.721   1.597
 3962TIP3    H211830   1.158   7.762   1.547
 3963TIP3   OH211831   3.070   3.467   5.469
 3963TIP3    H111832   3.146   3.516   5.440
 3963TIP3    H211833   2.997   3.504   5.420
 3964TIP3   OH211834   4.996   4.270   1.011
 3964TIP3    H111835   5.051   4.346   0.990
 3964TIP3    H211836   5.058   4.198   1.022
 3965TIP3   OH211837   5.498   6.742   1.847
 3965TIP3    H111838   5.574   6.800   1.843
 3965TIP3    H211839   5.502   6.702   1.933
 3966TIP3   OH211840   2.549   3.363   5.951
 3966TIP3    H111841   2.620   3.417   5.916
 3966TIP3    H211842   2.571   3.351   6.043
 3967TIP3   OH211843   5.474   5.815   5.170
 3967TIP3    H111844   5.443   5.816   5.079
 3967TIP3    H211845   5.397   5.838   5.222
 3968TIP3   OH211846   1.461   2.864   3.918
 3968TIP3    H111847   1.434   2.862   3.826
 3968TIP3    H211848   1.452   2.773   3.947
 3969TIP3   OH211849   7.896   2.650   3.261
 3969TIP3    H111850   7.841   2.572   3.268
 3969TIP3    H211851   7.926   2.649   3.170
 3970TIP3   OH211852   0.252   1.730   5.606
 3970TIP3    H111853   0.275   1.711   5.515
 3970TIP3    H211854   0.218   1.647   5.641
 3971TIP3   OH211855   6.734   4.319   0.139
 3971TIP3    H111856   6.641   4.299   0.131
 3971TIP3    H211857   6.776   4.262   0.074
 3972TIP3   OH211858   7.720   2.124   3.871
 3972TIP3    H111859   7.721   2.186   3.944
 3972TIP3    H211860   7.798   2.070   3.884
 3973TIP3   OH211861   6.628   3.491   3.827
 3973TIP3    H111862   6.698   3.426   3.837
 3973TIP3    H211863   6.564   3.447   3.771
 3974TIP3   OH211864   2.608   3.721   1.901
 3974TIP3    H111865   2.637   3.631   1.915
 3974TIP3    H211866   2.562   3.718   1.817
 3975TIP3   OH211867   5.308   1.040   5.496
 3975TIP3    H111868   5.276   1.044   5.406
 3975TIP3    H211869   5.313   0.946   5.515
 3976TIP3   OH211870   3.193   3.315   1.404
 3976TIP3    H111871   3.115   3.273   1.439
 3976TIP3    H211872   3.222   3.257   1.333
 3977TIP3   OH211873   2.459   7.080   5.999
 3977TIP3    H111874   2.472   7.097   6.093
 3977TIP3    H211875   2.545   7.052   5.968
 3978TIP3   OH211876   3.791   1.096   1.500
 3978TIP3    H111877   3.696   1.110   1.498
 3978TIP3    H211878   3.827   1.180   1.527
 3979TIP3   OH211879   4.607   3.660   5.702
 3979TIP3    H111880   4.615   3.700   5.615
 3979TIP3    H211881   4.540   3.593   5.691
 3980TIP3   OH211882   5.918   0.755   3.465
 3980TIP3    H111883   5.830   0.785   3.441
 3980TIP3    H211884   5.955   0.722   3.384
 3981TIP3   OH211885   0.465   0.210   1.283
 3981TIP3    H111886   0.376   0.224   1.317
 3981TIP3    H211887   0.455   0.208   1.188
 3982TIP3   OH211888   6.747   7.252   3.518
 3982TIP3    H111889   6.836   7.244   3.551
 3982TIP3    H211890   6.755   7.301   3.436
 3983TIP3   OH211891   2.119   6.917   3.807
 3983TIP3    H111892   2.045   6.919   3.745
 3983TIP3    H211893   2.130   7.008   3.834
 3984TIP3   OH211894   2.787   3.629   4.349
 3984TIP3    H111895   2.745   3.715   4.357
 3984TIP3    H211896   2.803   3.620   4.255
 3985TIP3   OH211897   5.908   4.220   4.245
 3985TIP3    H111898   5.961   4.142   4.260
 3985TIP3    H211899   5.969   4.293   4.260
 3986TIP3   OH211900   5.536   4.555   1.872
 3986TIP3    H111901   5.461   4.592   1.826
 3986TIP3    H211902   5.522   4.576   1.964
 3987TIP3   OH211903   0.976   0.172   6.508
 3987TIP3    H111904   1.000   0.124   6.429
 3987TIP3    H211905   0.907   0.119   6.548
 3988TIP3   OH211906   6.470   3.700   1.477
 3988TIP3    H111907   6.510   3.645   1.544
 3988TIP3    H211908   6.544   3.746   1.437
 3989TIP3   OH211909   0.131   7.506   4.189
 3989TIP3    H111910   0.214   7.479   4.150
 3989TIP3    H211911   0.119   7.446   4.263
 3990TIP3   OH211912   7.673   3.028   6.183
 3990TIP3    H111913   7.734   2.975   6.132
 3990TIP3    H211914   7.726   3.066   6.252
 3991TIP3   OH211915   4.596   1.172   3.820
 3991TIP3    H111916   4.519   1.219   3.853
 3991TIP3    H211917   4.612   1.104   3.885
 3992TIP3   OH211918   5.526   6.436   6.375
 3992TIP3    H111919   5.601   6.378   6.361
 3992TIP3    H211920   5.530   6.498   6.302
 3993TIP3   OH211921   6.899   7.289   1.488
 3993TIP3    H111922   6.828   7.299   1.552
 3993TIP3    H211923   6.872   7.214   1.434
 3994TIP3   OH211924   5.600   7.466   0.634
 3994TIP3    H111925   5.621   7.436   0.722
 3994TIP3    H211926   5.513   7.430   0.617
 3995TIP3   OH211927   7.014   4.755   3.779
 3995TIP3    H111928   6.932   4.797   3.806
 3995TIP3    H211929   7.076   4.827   3.769
 3996TIP3   OH211930   3.125   4.817   3.652
 3996TIP3    H111931   3.215   4.848   3.640
 3996TIP3    H211932   3.109   4.828   3.746
 3997TIP3   OH211933   2.671   1.506   0.253
 3997TIP3    H111934   2.605   1.575   0.251
 3997TIP3    H211935   2.670   1.469   0.164
 3998TIP3   OH211936   5.310   6.068   3.070
 3998TIP3    H111937   5.257   6.118   3.008
 3998TIP3    H211938   5.308   5.978   3.037
 3999TIP3   OH211939   2.800   0.617   4.252
 3999TIP3    H111940   2.878   0.662   4.283
 3999TIP3    H211941   2.762   0.578   4.331
 4000TIP3   OH211942   7.063   2.676   0.404
 4000TIP3    H111943   7.043   2.638   0.319
 4000TIP3    H211944   7.075   2.601   0.462
 4001TIP3   OH211945   2.417   3.749   0.000
 4001TIP3    H111946   2.356   3.700  -0.055
 4001TIP3    H211947   2.498   3.754  -0.051
 4002TIP3   OH211948   1.103   4.314   4.190
 4002TIP3    H111949   1.138   4.403   4.183
 4002TIP3    H211950   1.030   4.322   4.252
 4003TIP3   OH211951   0.476   7.195   5.106
 4003TIP3    H111952   0.479   7.290   5.121
 4003TIP3    H211953   0.471   7.157   5.194
 4004TIP3   OH211954   1.331   2.770   0.127
 4004TIP3    H111955   1.354   2.716   0.052
 4004TIP3    H211956   1.356   2.718   0.204
 4005TIP3   OH211957   4.067   4.220   5.157
 4005TIP3    H111958   4.135   4.155   5.138
 4005TIP3    H211959   3.999   4.203   5.092
 4006TIP3   OH211960   2.362   2.713   1.456
 4006TIP3    H111961   2.321   2.626   1.460
 4006TIP3    H211962   2.421   2.715   1.531
 4007TIP3   OH211963   4.053   0.836   2.035
 4007TIP3    H111964   4.031   0.928   2.027
 4007TIP3    H211965   4.036   0.799   1.948
 4008TIP3   OH211966   7.745   4.061   3.651
 4008TIP3    H111967   7.689   3.986   3.673
 4008TIP3    H211968   7.834   4.028   3.659
 4009TIP3   OH211969   7.966   4.673   6.056
 4009TIP3    H111970   7.899   4.605   6.070
 4009TIP3    H211971   8.029   4.659   6.127
 4010TIP3   OH211972   3.025   7.321   2.769
 4010TIP3    H111973   3.008   7.379   2.696
 4010TIP3    H211974   2.942   7.276   2.785
 4011TIP3   OH211975   4.682   3.399   1.661
 4011TIP3    H111976   4.664   3.329   1.724
 4011TIP3    H211977   4.769   3.379   1.627
 4012TIP3   OH211978   0.820   6.607   4.938
 4012TIP3    H111979   0.840   6.683   4.992
 4012TIP3    H211980   0.820   6.641   4.848
 4013TIP3   OH211981   7.385   7.762   1.474
 4013TIP3    H111982   7.418   7.673   1.465
 4013TIP3    H211983   7.325   7.758   1.548
 4014TIP3   OH211984   1.507   0.870   4.194
 4014TIP3    H111985   1.467   0.897   4.112
 4014TIP3    H211986   1.586   0.823   4.168
 4015TIP3   OH211987   7.927   4.023   1.184
 4015TIP3    H111988   8.020   4.025   1.205
 4015TIP3    H211989   7.893   4.106   1.215
 4016TIP3   OH211990   3.389   1.539   4.967
 4016TIP3    H111991   3.449   1.576   5.033
 4016TIP3    H211992   3.320   1.497   5.018
 4017TIP3   OH211993   6.812   5.521   2.410
 4017TIP3    H111994   6.907   5.510   2.413
 4017TIP3    H211995   6.786   5.485   2.326
 4018TIP3   OH211996   7.430   1.765   6.498
 4018TIP3    H111997   7.352   1.709   6.492
 4018TIP3    H211998   7.490   1.717   6.555
 4019TIP3   OH211999   6.734   1.627   5.799
 4019TIP3    H112000   6.699   1.553   5.750
 4019TIP3    H212001   6.776   1.587   5.875
 4020TIP3   OH212002   6.487   6.654   3.684
 4020TIP3    H112003   6.446   6.689   3.763
 4020TIP3    H212004   6.578   6.682   3.689
 4021TIP3   OH212005   1.229   1.102   3.645
 4021TIP3    H112006   1.261   1.067   3.728
 4021TIP3    H212007   1.307   1.119   3.593
 4022TIP3   OH212008   7.527   7.251   2.273
 4022TIP3    H112009   7.597   7.188   2.288
 4022TIP3    H212010   7.451   7.214   2.318
 4023TIP3   OH212011   4.743   7.518   4.573
 4023TIP3    H112012   4.654   7.488   4.556
 4023TIP3    H212013   4.792   7.438   4.592
 4024TIP3   OH212014   6.259   3.417   5.974
 4024TIP3    H112015   6.230   3.506   5.959
 4024TIP3    H212016   6.205   3.363   5.916
 4025TIP3   OH212017   7.318   3.081   6.625
 4025TIP3    H112018   7.333   3.045   6.538
 4025TIP3    H212019   7.406   3.102   6.658
 4026TIP3   OH212020   6.229   5.069   3.593
 4026TIP3    H112021   6.208   5.004   3.526
 4026TIP3    H212022   6.287   5.024   3.654
 4027TIP3   OH212023   3.257   3.697   0.750
 4027TIP3    H112024   3.192   3.676   0.683
 4027TIP3    H212025   3.252   3.624   0.811
 4028TIP3   OH212026   0.052   7.145   5.562
 4028TIP3    H112027   0.142   7.119   5.578
 4028TIP3    H212028   0.035   7.213   5.628
 4029TIP3   OH212029   1.946   0.393   2.915
 4029TIP3    H112030   1.908   0.438   2.989
 4029TIP3    H212031   1.958   0.303   2.945
 4030TIP3   OH212032   1.283   2.352   6.716
 4030TIP3    H112033   1.211   2.336   6.777
 4030TIP3    H212034   1.340   2.276   6.725
 4031TIP3   OH212035   3.884   3.409   1.221
 4031TIP3    H112036   3.801   3.398   1.268
 4031TIP3    H212037   3.874   3.493   1.176
 4032TIP3   OH212038   7.688   0.680   2.545
 4032TIP3    H112039   7.634   0.626   2.487
 4032TIP3    H212040   7.630   0.702   2.617
 4033TIP3   OH212041   7.100   0.171   2.827
 4033TIP3    H112042   7.017   0.201   2.864
 4033TIP3    H212043   7.074   0.108   2.760
 4034TIP3   OH212044   7.894   5.640   4.922
 4034TIP3    H112045   7.889   5.622   4.828
 4034TIP3    H212046   7.902   5.554   4.963
 4035TIP3   OH212047   3.409   4.214   0.833
 4035TIP3    H112048   3.383   4.128   0.802
 4035TIP3    H212049   3.500   4.203   0.861
 4036TIP3   OH212050   5.053   6.548   3.372
 4036TIP3    H112051   4.988   6.516   3.310
 4036TIP3    H212052   5.024   6.517   3.457
 4037TIP3   OH212053   4.167   7.169   2.393
 4037TIP3    H112054   4.134   7.233   2.456
 4037TIP3    H212055   4.168   7.086   2.442
 4038TIP3   OH212056   3.616   0.548   6.144
 4038TIP3    H112057   3.560   0.490   6.196
 4038TIP3    H212058   3.622   0.628   6.196
 4039TIP3   OH212059   7.674   0.959   1.434
 4039TIP3    H112060   7.611   0.922   1.496
 4039TIP3    H212061   7.745   0.895   1.429
 4040TIP3   OH212062   1.143   3.803   5.991
 4040TIP3    H112063   1.170   3.750   6.066
 4040TIP3    H212064   1.096   3.877   6.029
 4041TIP3   OH212065   6.450   4.950   1.781
 4041TIP3    H112066   6.508   4.952   1.705
 4041TIP3    H212067   6.444   4.858   1.804
 4042TIP3   OH212068   0.335   3.912   0.438
 4042TIP3    H112069   0.421   3.953   0.425
 4042TIP3    H212070   0.354   3.819   0.442
 4043TIP3   OH212071   3.118   6.132   4.735
 4043TIP3    H112072   3.099   6.223   4.715
 4043TIP3    H212073   3.033   6.088   4.730
 4044TIP3   OH212074   3.667   6.357   3.069
 4044TIP3    H112075   3.589   6.316   3.108
 4044TIP3    H212076   3.699   6.292   3.007
 4045TIP3   OH212077   6.910   7.453   2.707
 4045TIP3    H112078   6.877   7.498   2.784
 4045TIP3    H212079   6.867   7.497   2.633
 4046TIP3   OH212080   2.769   6.165   1.049
 4046TIP3    H112081   2.764   6.216   1.129
 4046TIP3    H212082   2.681   6.171   1.011
 4047TIP3   OH212083   1.362   0.315   5.505
 4047TIP3    H112084   1.350   0.229   5.544
 4047TIP3    H212085   1.273   0.346   5.488
 4048TIP3   OH212086   2.724   2.639   6.129
 4048TIP3    H112087   2.707   2.708   6.192
 4048TIP3    H212088   2.656   2.574   6.145
 4049TIP3   OH212089   2.183   0.121   2.977
 4049TIP3    H112090   2.225   0.205   2.994
 4049TIP3    H212091   2.253   0.057   2.987
 4050TIP3   OH212092   3.955   2.006   0.364
 4050TIP3    H112093   3.862   2.028   0.368
 4050TIP3    H212094   3.957   1.913   0.341
 4051TIP3   OH212095   3.680   4.578   6.129
 4051TIP3    H112096   3.703   4.671   6.137
 4051TIP3    H212097   3.622   4.574   6.053
 4052TIP3   OH212098   6.994   2.093   1.246
 4052TIP3    H112099   6.996   1.997   1.250
 4052TIP3    H212100   6.928   2.118   1.310
 4053TIP3   OH212101   3.357   6.775   6.219
 4053TIP3    H112102   3.429   6.833   6.243
 4053TIP3    H212103   3.312   6.756   6.302
 4054TIP3   OH212104   1.238   1.414   5.247
 4054TIP3    H112105   1.162   1.404   5.191
 4054TIP3    H212106   1.310   1.435   5.187
 4055TIP3   OH212107   6.911   5.297   4.214
 4055TIP3    H112108   6.921   5.346   4.132
 4055TIP3    H212109   6.919   5.364   4.283
 4056TIP3   OH212110   3.549   3.436   0.655
 4056TIP3    H112111   3.491   3.365   0.629
 4056TIP3    H212112   3.528   3.508   0.595
 4057TIP3   OH212113   0.747   3.584   5.679
 4057TIP3    H112114   0.737   3.490   5.692
 4057TIP3    H212115   0.687   3.605   5.608
 4058TIP3   OH212116   5.651   7.582   1.567
 4058TIP3    H112117   5.654   7.643   1.641
 4058TIP3    H212118   5.572   7.606   1.519
 4059TIP3   OH212119   3.486   5.131   6.517
 4059TIP3    H112120   3.459   5.221   6.500
 4059TIP3    H212121   3.423   5.077   6.468
 4060TIP3   OH212122   4.380   6.569   0.553
 4060TIP3    H112123   4.326   6.540   0.480
 4060TIP3    H212124   4.327   6.551   0.631
 4061TIP3   OH212125   8.213   1.553   6.260
 4061TIP3    H112126   8.236   1.590   6.346
 4061TIP3    H212127   8.184   1.464   6.280
 4062TIP3   OH212128   6.864   1.750   5.432
 4062TIP3    H112129   6.882   1.670   5.482
 4062TIP3    H212130   6.832   1.812   5.497
 4063TIP3   OH212131   6.233   1.908   4.449
 4063TIP3    H112132   6.145   1.918   4.484
 4063TIP3    H212133   6.286   1.971   4.498
 4064TIP3   OH212134   0.842   6.223   6.145
 4064TIP3    H112135   0.897   6.299   6.163
 4064TIP3    H212136   0.830   6.223   6.050
 4065TIP3   OH212137   1.049   6.279   3.429
 4065TIP3    H112138   0.980   6.311   3.370
 4065TIP3    H212139   1.093   6.359   3.459
 4066TIP3   OH212140   7.844   1.047   4.100
 4066TIP3    H112141   7.789   0.976   4.132
 4066TIP3    H212142   7.846   1.035   4.006
 4067TIP3   OH212143   2.445   5.174   0.366
 4067TIP3    H112144   2.393   5.192   0.444
 4067TIP3    H212145   2.535   5.170   0.398
 4068TIP3   OH212146   0.375   4.907   1.103
 4068TIP3    H112147   0.436   4.855   1.051
 4068TIP3    H212148   0.288   4.880   1.074
 4069TIP3   OH212149   0.917   3.100   6.390
 4069TIP3    H112150   0.862   3.040   6.440
 4069TIP3    H212151   0.856   3.163   6.351
 4070TIP3   OH212152   1.945   2.311   2.799
 4070TIP3    H112153   2.012   2.303   2.731
 4070TIP3    H212154   1.916   2.402   2.793
 4071TIP3   OH212155   5.052   5.943   1.028
 4071TIP3    H112156   5.038   6.017   1.088
 4071TIP3    H212157   4.981   5.882   1.048
 4072TIP3   OH212158   3.849   5.798   1.132
 4072TIP3    H112159   3.915   5.788   1.063
 4072TIP3    H212160   3.835   5.892   1.138
 4073TIP3   OH212161   1.101   0.784   2.771
 4073TIP3    H112162   1.119   0.707   2.717
 4073TIP3    H212163   1.179   0.838   2.762
 4074TIP3   OH212164   2.977   4.744   4.458
 4074TIP3    H112165   2.890   4.703   4.455
 4074TIP3    H212166   3.027   4.689   4.519
 4075TIP3   OH212167   5.865   0.210   5.347
 4075TIP3    H112168   5.887   0.134   5.294
 4075TIP3    H212169   5.923   0.203   5.423
 4076TIP3   OH212170   5.933   1.530   1.452
 4076TIP3    H112171   5.904   1.570   1.371
 4076TIP3    H212172   5.898   1.586   1.521
 4077TIP3   OH212173   4.652   6.920   1.816
 4077TIP3    H112174   4.644   6.935   1.722
 4077TIP3    H212175   4.743   6.944   1.836
 4078TIP3   OH212176   0.292   5.320   1.996
 4078TIP3    H112177   0.340   5.403   1.982
 4078TIP3    H212178   0.252   5.302   1.911
 4079TIP3   OH212179   7.199   3.621   4.729
 4079TIP3    H112180   7.257   3.691   4.700
 4079TIP3    H212181   7.253   3.568   4.788
 4080TIP3   OH212182   4.796   1.036   4.728
 4080TIP3    H112183   4.792   0.942   4.708
 4080TIP3    H212184   4.845   1.040   4.811
 4081TIP3   OH212185   2.391   4.739   5.249
 4081TIP3    H112186   2.436   4.777   5.173
 4081TIP3    H212187   2.401   4.805   5.318
 4082TIP3   OH212188   2.652   7.593   5.097
 4082TIP3    H112189   2.745   7.586   5.119
 4082TIP3    H212190   2.642   7.683   5.065
 4083TIP3   OH212191   0.901   4.156   3.054
 4083TIP3    H112192   0.892   4.142   3.149
 4083TIP3    H212193   0.913   4.250   3.045
 4084TIP3   OH212194   1.715   3.164   2.256
 4084TIP3    H112195   1.740   3.254   2.237
 4084TIP3    H212196   1.768   3.111   2.197
 4085TIP3   OH212197   2.515   3.128   6.238
 4085TIP3    H112198   2.424   3.114   6.211
 4085TIP3    H212199   2.525   3.223   6.238
 4086TIP3   OH212200   3.854   3.690   5.254
 4086TIP3    H112201   3.879   3.673   5.163
 4086TIP3    H212202   3.811   3.775   5.251
 4087TIP3   OH212203   6.508   7.588   4.597
 4087TIP3    H112204   6.422   7.582   4.554
 4087TIP3    H212205   6.532   7.680   4.589
 4088TIP3   OH212206   5.871   0.588   2.010
 4088TIP3    H112207   5.817   0.540   2.072
 4088TIP3    H212208   5.960   0.559   2.028
 4089TIP3   OH212209   6.067   6.730   3.444
 4089TIP3    H112210   6.065   6.699   3.353
 4089TIP3    H212211   5.982   6.705   3.480
 4090TIP3   OH212212   1.597   5.532   1.024
 4090TIP3    H112213   1.616   5.609   0.970
 4090TIP3    H212214   1.680   5.486   1.031
 4091TIP3   OH212215   7.210   1.189   6.763
 4091TIP3    H112216   7.142   1.122   6.761
 4091TIP3    H212217   7.210   1.227   6.675
 4092TIP3   OH212218   8.117   2.297   0.941
 4092TIP3    H112219   8.119   2.366   0.875
 4092TIP3    H212220   8.204   2.257   0.937
 4093TIP3   OH212221   7.813   6.003   2.172
 4093TIP3    H112222   7.855   5.959   2.246
 4093TIP3    H212223   7.847   6.092   2.175
 4094TIP3   OH212224   5.055   2.215   4.461
 4094TIP3    H112225   5.064   2.294   4.516
 4094TIP3    H212226   4.999   2.242   4.389
 4095TIP3   OH212227   8.011   6.954   4.322
 4095TIP3    H112228   8.066   7.016   4.274
 4095TIP3    H212229   7.923   6.991   4.315
 4096TIP3   OH212230   1.692   2.259   0.735
 4096TIP3    H112231   1.664   2.344   0.770
 4096TIP3    H212232   1.672   2.264   0.642
 4097TIP3   OH212233   1.539   0.677   4.767
 4097TIP3    H112234   1.573   0.732   4.838
 4097TIP3    H212235   1.447   0.663   4.789
 4098TIP3   OH212236   7.542   7.124   3.367
 4098TIP3    H112237   7.569   7.179   3.294
 4098TIP3    H212238   7.458   7.161   3.395
 4099TIP3   OH212239   2.461   2.935   6.512
 4099TIP3    H112240   2.510   2.892   6.582
 4099TIP3    H212241   2.455   3.026   6.540
 4100TIP3   OH212242   2.178   3.982   4.725
 4100TIP3    H112243   2.154   4.055   4.667
 4100TIP3    H212244   2.094   3.944   4.751
 4101TIP3   OH212245   1.355   7.198   6.043
 4101TIP3    H112246   1.371   7.238   6.128
 4101TIP3    H212247   1.437   7.209   5.995
 4102TIP3   OH212248   8.170   6.940   5.411
 4102TIP3    H112249   8.166   6.965   5.318
 4102TIP3    H212250   8.246   6.986   5.445
 4103TIP3   OH212251   6.081   2.516   2.299
 4103TIP3    H112252   6.063   2.608   2.319
 4103TIP3    H212253   6.055   2.507   2.207
 4104TIP3   OH212254   7.656   4.921   1.035
 4104TIP3    H112255   7.601   4.994   1.008
 4104TIP3    H212256   7.687   4.945   1.122
 4105TIP3   OH212257   6.634   4.685   1.940
 4105TIP3    H112258   6.550   4.678   1.895
 4105TIP3    H212259   6.686   4.612   1.906
 4106TIP3   OH212260   6.136   3.960   6.199
 4106TIP3    H112261   6.073   3.895   6.168
 4106TIP3    H212262   6.130   3.955   6.295
 4107TIP3   OH212263   2.248   0.869   5.251
 4107TIP3    H112264   2.282   0.878   5.162
 4107TIP3    H212265   2.321   0.832   5.301
 4108TIP3   OH212266   0.823   3.256   1.151
 4108TIP3    H112267   0.776   3.183   1.193
 4108TIP3    H212268   0.859   3.307   1.224
 4109TIP3   OH212269   4.556   6.209   3.246
 4109TIP3    H112270   4.562   6.206   3.151
 4109TIP3    H212271   4.633   6.261   3.273
 4110TIP3   OH212272   7.517   5.206   3.838
 4110TIP3    H112273   7.529   5.298   3.862
 4110TIP3    H212274   7.598   5.163   3.867
 4111TIP3   OH212275   1.664   3.749   5.909
 4111TIP3    H112276   1.578   3.730   5.872
 4111TIP3    H212277   1.706   3.663   5.918
 4112TIP3   OH212278   3.504   4.265   6.408
 4112TIP3    H112279   3.458   4.345   6.383
 4112TIP3    H212280   3.468   4.197   6.351
 4113TIP3   OH212281   4.793   1.070   1.172
 4113TIP3    H112282   4.861   1.110   1.226
 4113TIP3    H212283   4.827   1.074   1.083
 4114TIP3   OH212284   3.563   3.098   2.095
 4114TIP3    H112285   3.597   3.010   2.080
 4114TIP3    H212286   3.639   3.155   2.089
 4115TIP3   OH212287   1.790   1.598   2.642
 4115TIP3    H112288   1.795   1.611   2.548
 4115TIP3    H212289   1.705   1.556   2.657
 4116TIP3   OH212290   5.717   1.530   3.147
 4116TIP3    H112291   5.717   1.476   3.068
 4116TIP3    H212292   5.678   1.475   3.214
 4117TIP3   OH212293   1.740   3.526   5.311
 4117TIP3    H112294   1.789   3.604   5.282
 4117TIP3    H212295   1.667   3.520   5.250
 4118TIP3   OH212296   4.859   3.821   5.446
 4118TIP3    H112297   4.948   3.856   5.450
 4118TIP3    H212298   4.815   3.857   5.523
 4119TIP3   OH212299   2.698   5.898   6.009
 4119TIP3    H112300   2.773   5.956   5.995
 4119TIP3    H212301   2.733   5.823   6.056
 4120TIP3   OH212302   2.977   1.104   0.019
 4120TIP3    H112303   2.945   1.165  -0.048
 4120TIP3    H212304   2.899   1.082   0.070
 4121TIP3   OH212305   4.744   0.381   5.686
 4121TIP3    H112306   4.663   0.348   5.646
 4121TIP3    H212307   4.743   0.346   5.775
 4122TIP3   OH212308   0.405   0.391   0.538
 4122TIP3    H112309   0.423   0.351   0.623
 4122TIP3    H212310   0.350   0.467   0.558
 4123TIP3   OH212311   1.911   0.652   1.932
 4123TIP3    H112312   1.901   0.692   1.846
 4123TIP3    H212313   1.859   0.572   1.928
 4124TIP3   OH212314   3.462   1.159   2.208
 4124TIP3    H112315   3.462   1.112   2.291
 4124TIP3    H212316   3.547   1.139   2.169
 4125TIP3   OH212317   7.787   6.839   1.774
 4125TIP3    H112318   7.826   6.882   1.698
 4125TIP3    H212319   7.693   6.857   1.767
 4126TIP3   OH212320   7.684   0.977   1.963
 4126TIP3    H112321   7.726   1.060   1.986
 4126TIP3    H212322   7.705   0.964   1.870
 4127TIP3   OH212323   4.149   0.143   2.300
 4127TIP3    H112324   4.098   0.077   2.251
 4127TIP3    H212325   4.165   0.102   2.385
 4128TIP3   OH212326   4.783   0.716   2.356
 4128TIP3    H112327   4.818   0.682   2.273
 4128TIP3    H212328   4.706   0.766   2.330
 4129TIP3   OH212329   5.012   2.711   5.459
 4129TIP3    H112330   4.918   2.718   5.474
 4129TIP3    H212331   5.043   2.645   5.520
 4130TIP3   OH212332   2.533   1.717   3.372
 4130TIP3    H112333   2.487   1.739   3.453
 4130TIP3    H212334   2.503   1.628   3.352
 4131TIP3   OH212335   2.199   5.841   0.543
 4131TIP3    H112336   2.199   5.820   0.450
 4131TIP3    H212337   2.214   5.936   0.546
 4132TIP3   OH212338   3.678   4.602   5.349
 4132TIP3    H112339   3.589   4.568   5.354
 4132TIP3    H212340   3.683   4.641   5.261
 4133TIP3   OH212341   3.784   1.757   5.312
 4133TIP3    H112342   3.721   1.823   5.283
 4133TIP3    H212343   3.826   1.796   5.388
 4134TIP3   OH212344   2.335   4.530   3.306
 4134TIP3    H112345   2.283   4.455   3.278
 4134TIP3    H212346   2.271   4.600   3.320
 4135TIP3   OH212347   7.009   7.321   2.070
 4135TIP3    H112348   7.001   7.372   2.150
 4135TIP3    H212349   7.069   7.250   2.092
 4136TIP3   OH212350   7.448   4.804   5.226
 4136TIP3    H112351   7.365   4.792   5.180
 4136TIP3    H212352   7.515   4.783   5.161
 4137TIP3   OH212353   5.287   0.698   6.449
 4137TIP3    H112354   5.197   0.699   6.481
 4137TIP3    H212355   5.285   0.636   6.376
 4138TIP3   OH212356   0.263  -0.047   6.584
 4138TIP3    H112357   0.276  -0.064   6.491
 4138TIP3    H212358   0.344  -0.006   6.613
 4139TIP3   OH212359   2.144   7.509   6.246
 4139TIP3    H112360   2.066   7.521   6.192
 4139TIP3    H212361   2.217   7.531   6.188
 4140TIP3   OH212362   2.583   3.059   2.998
 4140TIP3    H112363   2.587   3.155   3.007
 4140TIP3    H212364   2.500   3.043   2.952
 4141TIP3   OH212365   7.400   6.307   0.136
 4141TIP3    H112366   7.447   6.327   0.217
 4141TIP3    H212367   7.331   6.373   0.133
 4142TIP3   OH212368   3.411   3.170   4.599
 4142TIP3    H112369   3.380   3.081   4.615
 4142TIP3    H212370   3.358   3.225   4.656
 4143TIP3   OH212371   3.005   2.739   5.010
 4143TIP3    H112372   2.968   2.719   5.096
 4143TIP3    H212373   3.078   2.678   5.000
 4144TIP3   OH212374   1.052   6.789   4.789
 4144TIP3    H112375   1.004   6.864   4.826
 4144TIP3    H212376   1.015   6.778   4.702
 4145TIP3   OH212377   0.408   0.247   0.990
 4145TIP3    H112378   0.400   0.336   1.024
 4145TIP3    H212379   0.502   0.235   0.976
 4146TIP3   OH212380   2.761   3.592   0.784
 4146TIP3    H112381   2.719   3.609   0.699
 4146TIP3    H212382   2.757   3.497   0.793
 4147TIP3   OH212383   3.877   4.557   3.613
 4147TIP3    H112384   3.844   4.499   3.681
 4147TIP3    H212385   3.967   4.527   3.597
 4148TIP3   OH212386   5.079   2.419   1.714
 4148TIP3    H112387   5.174   2.425   1.726
 4148TIP3    H212388   5.049   2.510   1.712
 4149TIP3   OH212389   6.285   6.042   0.758
 4149TIP3    H112390   6.379   6.038   0.774
 4149TIP3    H212391   6.246   6.061   0.843
 4150TIP3   OH212392   4.039   6.378   0.983
 4150TIP3    H112393   4.035   6.458   1.035
 4150TIP3    H212394   3.995   6.400   0.901
 4151TIP3   OH212395   5.510   2.474   2.433
 4151TIP3    H112396   5.497   2.501   2.342
 4151TIP3    H212397   5.601   2.494   2.452
 4152TIP3   OH212398   2.180   6.882   2.557
 4152TIP3    H112399   2.192   6.842   2.470
 4152TIP3    H212400   2.086   6.877   2.572
 4153TIP3   OH212401   6.094   6.547   4.026
 4153TIP3    H112402   6.147   6.622   3.997
 4153TIP3    H212403   6.015   6.587   4.062
 4154TIP3   OH212404   1.664   7.129   1.449
 4154TIP3    H112405   1.631   7.173   1.371
 4154TIP3    H212406   1.758   7.146   1.449
 4155TIP3   OH212407   2.474   4.934   4.338
 4155TIP3    H112408   2.453   4.864   4.400
 4155TIP3    H212409   2.389   4.965   4.307
 4156TIP3   OH212410   1.501   7.439   5.093
 4156TIP3    H112411   1.584   7.429   5.140
 4156TIP3    H212412   1.468   7.524   5.121
 4157TIP3   OH212413   7.875   6.095   2.601
 4157TIP3    H112414   7.957   6.068   2.558
 4157TIP3    H212415   7.891   6.186   2.627
 4158TIP3   OH212416   1.339   6.991   4.078
 4158TIP3    H112417   1.374   7.071   4.119
 4158TIP3    H212418   1.313   7.019   3.990
 4159TIP3   OH212419   6.648   5.332   0.982
 4159TIP3    H112420   6.575   5.293   1.031
 4159TIP3    H212421   6.706   5.366   1.050
 4160TIP3   OH212422   6.623   3.093   4.990
 4160TIP3    H112423   6.615   3.042   4.910
 4160TIP3    H212424   6.633   3.027   5.059
 4161TIP3   OH212425   4.968   4.191   3.893
 4161TIP3    H112426   4.910   4.218   3.822
 4161TIP3    H212427   4.937   4.104   3.918
 4162TIP3   OH212428   4.358   2.377   1.955
 4162TIP3    H112429   4.416   2.300   1.961
 4162TIP3    H212430   4.358   2.413   2.043
 4163TIP3   OH212431   8.148   5.198   1.525
 4163TIP3    H112432   8.148   5.112   1.483
 4163TIP3    H212433   8.226   5.197   1.581
 4164TIP3   OH212434   8.110   6.926   4.696
 4164TIP3    H112435   8.172   6.998   4.701
 4164TIP3    H212436   8.042   6.948   4.760
 4165TIP3   OH212437   0.755   1.561   4.252
 4165TIP3    H112438   0.825   1.581   4.189
 4165TIP3    H212439   0.707   1.643   4.261
 4166TIP3   OH212440   4.895   3.187   0.763
 4166TIP3    H112441   4.822   3.146   0.717
 4166TIP3    H212442   4.959   3.116   0.775
 4167TIP3   OH212443   2.853   6.413   6.842
 4167TIP3    H112444   2.831   6.354   6.770
 4167TIP3    H212445   2.803   6.493   6.824
 4168TIP3   OH212446   7.208   6.224   4.678
 4168TIP3    H112447   7.254   6.244   4.597
 4168TIP3    H212448   7.272   6.241   4.747
 4169TIP3   OH212449   4.977   5.042   1.803
 4169TIP3    H112450   4.890   5.041   1.762
 4169TIP3    H212451   5.037   5.018   1.733
 4170TIP3   OH212452   7.430   5.271   1.430
 4170TIP3    H112453   7.386   5.348   1.395
 4170TIP3    H212454   7.451   5.218   1.353
 4171TIP3   OH212455   4.086   4.818   0.088
 4171TIP3    H112456   4.073   4.886   0.023
 4171TIP3    H212457   4.147   4.757   0.047
 4172TIP3   OH212458   3.756   7.083   3.569
 4172TIP3    H112459   3.693   7.128   3.512
 4172TIP3    H212460   3.723   6.993   3.574
 4173TIP3   OH212461   4.553   6.637   4.681
 4173TIP3    H112462   4.486   6.598   4.624
 4173TIP3    H212463   4.631   6.583   4.668
 4174TIP3   OH212464   4.401   1.293   1.965
 4174TIP3    H112465   4.375   1.275   2.055
 4174TIP3    H212466   4.337   1.246   1.912
 4175TIP3   OH212467   1.805   7.419   5.191
 4175TIP3    H112468   1.820   7.389   5.281
 4175TIP3    H212469   1.810   7.515   5.197
 4176TIP3   OH212470   7.970   4.893   1.878
 4176TIP3    H112471   7.922   4.970   1.848
 4176TIP3    H212472   7.924   4.866   1.958
 4177TIP3   OH212473   1.877   3.539   1.862
 4177TIP3    H112474   1.903   3.582   1.781
 4177TIP3    H212475   1.847   3.453   1.835
 4178TIP3   OH212476   5.649   4.209   4.350
 4178TIP3    H112477   5.732   4.202   4.303
 4178TIP3    H212478   5.583   4.218   4.281
 4179TIP3   OH212479   2.157   4.726   1.739
 4179TIP3    H112480   2.164   4.676   1.657
 4179TIP3    H212481   2.214   4.802   1.726
 4180TIP3   OH212482   4.072   5.509   3.137
 4180TIP3    H112483   4.101   5.490   3.226
 4180TIP3    H212484   4.135   5.463   3.081
 4181TIP3   OH212485   4.550   6.463   0.209
 4181TIP3    H112486   4.582   6.529   0.148
 4181TIP3    H212487   4.454   6.473   0.206
 4182TIP3   OH212488   1.408   4.004   3.193
 4182TIP3    H112489   1.355   3.938   3.239
 4182TIP3    H212490   1.430   3.963   3.109
 4183TIP3   OH212491   8.196   7.122   6.670
 4183TIP3    H112492   8.229   7.066   6.599
 4183TIP3    H212493   8.116   7.079   6.700
 4184TIP3   OH212494   6.798   3.019   1.368
 4184TIP3    H112495   6.832   2.932   1.346
 4184TIP3    H212496   6.863   3.080   1.334
 4185TIP3   OH212497   1.662   1.910   6.121
 4185TIP3    H112498   1.689   1.821   6.142
 4185TIP3    H212499   1.737   1.965   6.144
 4186TIP3   OH212500   2.056   7.492   3.156
 4186TIP3    H112501   2.052   7.472   3.249
 4186TIP3    H212502   2.063   7.406   3.113
 4187TIP3   OH212503   0.670   5.312   2.029
 4187TIP3    H112504   0.629   5.341   2.110
 4187TIP3    H212505   0.637   5.223   2.016
 4188TIP3   OH212506   4.508   2.237  -0.003
 4188TIP3    H112507   4.442   2.288   0.045
 4188TIP3    H212508   4.546   2.180   0.064
 4189TIP3   OH212509   4.886   7.267   4.601
 4189TIP3    H112510   4.825   7.200   4.633
 4189TIP3    H212511   4.952   7.275   4.670
 4190TIP3   OH212512   7.951   0.472   6.582
 4190TIP3    H112513   7.951   0.418   6.661
 4190TIP3    H212514   7.895   0.425   6.520
 4191TIP3   OH212515   1.540   6.206   1.093
 4191TIP3    H112516   1.482   6.282   1.097
 4191TIP3    H212517   1.619   6.234   1.139
 4192TIP3   OH212518   2.083   0.852   1.743
 4192TIP3    H112519   2.116   0.942   1.747
 4192TIP3    H212520   2.127   0.814   1.667
 4193TIP3   OH212521   7.317   4.186   0.487
 4193TIP3    H112522   7.242   4.232   0.525
 4193TIP3    H212523   7.318   4.215   0.395
 4194TIP3   OH212524   6.389   5.972   2.069
 4194TIP3    H112525   6.475   5.992   2.035
 4194TIP3    H212526   6.330   5.984   1.995
 4195TIP3   OH212527   1.027   7.272   2.593
 4195TIP3    H112528   1.101   7.332   2.584
 4195TIP3    H212529   1.000   7.254   2.503
 4196TIP3   OH212530   2.358   3.530   0.798
 4196TIP3    H112531   2.371   3.617   0.760
 4196TIP3    H212532   2.415   3.473   0.746
 4197TIP3   OH212533   4.591   4.375   2.620
 4197TIP3    H112534   4.604   4.461   2.659
 4197TIP3    H212535   4.572   4.317   2.693
 4198TIP3   OH212536   5.947   4.440   6.081
 4198TIP3    H112537   5.995   4.393   6.013
 4198TIP3    H212538   6.013   4.495   6.123
 4199TIP3   OH212539   1.231   1.309   4.074
 4199TIP3    H112540   1.241   1.231   4.128
 4199TIP3    H212541   1.320   1.343   4.064
 4200TIP3   OH212542   6.325   2.802   3.985
 4200TIP3    H112543   6.363   2.889   3.993
 4200TIP3    H212544   6.352   2.756   4.064
 4201TIP3   OH212545   1.735   6.510   6.238
 4201TIP3    H112546   1.762   6.432   6.191
 4201TIP3    H212547   1.682   6.559   6.175
 4202TIP3   OH212548   6.984   1.933   4.741
 4202TIP3    H112549   6.976   1.841   4.765
 4202TIP3    H212550   6.959   1.936   4.649
 4203TIP3   OH212551   5.286   7.335   4.627
 4203TIP3    H112552   5.240   7.263   4.670
 4203TIP3    H212553   5.225   7.409   4.631
 4204TIP3   OH212554   0.503   0.766   4.142
 4204TIP3    H112555   0.537   0.726   4.062
 4204TIP3    H212556   0.572   0.753   4.207
 4205TIP3   OH212557   0.434   3.237   1.572
 4205TIP3    H112558   0.448   3.185   1.651
 4205TIP3    H212559   0.506   3.300   1.571
 4206TIP3   OH212560   7.992   4.823   4.560
 4206TIP3    H112561   8.061   4.863   4.509
 4206TIP3    H212562   7.976   4.884   4.632
 4207TIP3   OH212563   1.566   4.279   6.385
 4207TIP3    H112564   1.556   4.321   6.470
 4207TIP3    H212565   1.488   4.305   6.336
 4208TIP3   OH212566   1.046   0.255   3.993
 4208TIP3    H112567   0.974   0.312   3.965
 4208TIP3    H212568   1.042   0.180   3.934
 4209TIP3   OH212569   4.900   4.644   6.208
 4209TIP3    H112570   4.869   4.632   6.297
 4209TIP3    H212571   4.944   4.561   6.187
 4210TIP3   OH212572   1.059   4.652   5.393
 4210TIP3    H112573   1.118   4.590   5.436
 4210TIP3    H212574   1.082   4.646   5.300
 4211TIP3   OH212575   7.003   6.123   5.161
 4211TIP3    H112576   6.945   6.193   5.133
 4211TIP3    H212577   7.089   6.164   5.167
 4212TIP3   OH212578   3.990   2.822   5.244
 4212TIP3    H112579   3.977   2.889   5.178
 4212TIP3    H212580   4.075   2.783   5.223
 4213TIP3   OH212581   5.603   4.643   3.823
 4213TIP3    H112582   5.615   4.550   3.803
 4213TIP3    H212583   5.683   4.669   3.869
 4214TIP3   OH212584   2.237   4.089   6.405
 4214TIP3    H112585   2.261   4.175   6.370
 4214TIP3    H212586   2.320   4.043   6.415
 4215TIP3   OH212587   2.508   1.111   5.072
 4215TIP3    H112588   2.552   1.185   5.113
 4215TIP3    H212589   2.499   1.136   4.980
 4216TIP3   OH212590   7.799   1.424   5.663
 4216TIP3    H112591   7.769   1.349   5.611
 4216TIP3    H212592   7.755   1.414   5.747
 4217TIP3   OH212593   1.451   2.424   5.318
 4217TIP3    H112594   1.528   2.432   5.374
 4217TIP3    H212595   1.445   2.330   5.300
 4218TIP3   OH212596   1.910   4.698   6.685
 4218TIP3    H112597   1.903   4.603   6.698
 4218TIP3    H212598   1.900   4.734   6.773
 4219TIP3   OH212599   6.851   7.313   6.384
 4219TIP3    H112600   6.914   7.280   6.448
 4219TIP3    H212601   6.833   7.238   6.328
 4220TIP3   OH212602   2.793   0.422   2.123
 4220TIP3    H112603   2.778   0.329   2.138
 4220TIP3    H212604   2.770   0.463   2.207
 4221TIP3   OH212605   2.077   5.548   4.093
 4221TIP3    H112606   2.085   5.454   4.082
 4221TIP3    H212607   2.077   5.583   4.004
 4222TIP3   OH212608   0.850   3.459   0.322
 4222TIP3    H112609   0.771   3.447   0.269
 4222TIP3    H212610   0.860   3.377   0.370
 4223TIP3   OH212611   6.291   7.505   4.445
 4223TIP3    H112612   6.310   7.440   4.377
 4223TIP3    H212613   6.222   7.464   4.498
 4224TIP3   OH212614   7.344   7.259   3.057
 4224TIP3    H112615   7.286   7.319   3.105
 4224TIP3    H212616   7.343   7.291   2.967
 4225TIP3   OH212617   7.267   6.192   5.287
 4225TIP3    H112618   7.351   6.164   5.250
 4225TIP3    H212619   7.240   6.266   5.233
 4226TIP3   OH212620   2.728   1.997   3.168
 4226TIP3    H112621   2.793   2.015   3.100
 4226TIP3    H212622   2.690   1.913   3.144
 4227TIP3   OH212623   7.121   4.219   6.139
 4227TIP3    H112624   7.080   4.242   6.056
 4227TIP3    H212625   7.105   4.294   6.195
 4228TIP3   OH212626   2.560   6.527   5.765
 4228TIP3    H112627   2.521   6.595   5.709
 4228TIP3    H212628   2.502   6.522   5.841
 4229TIP3   OH212629   2.513   7.554   2.341
 4229TIP3    H112630   2.461   7.480   2.313
 4229TIP3    H212631   2.465   7.631   2.309
 4230TIP3   OH212632   7.317   5.970   5.787
 4230TIP3    H112633   7.337   5.877   5.792
 4230TIP3    H212634   7.356   5.999   5.705
 4231TIP3   OH212635   5.285   1.657  -0.014
 4231TIP3    H112636   5.247   1.741   0.011
 4231TIP3    H212637   5.371   1.679  -0.051
 4232TIP3   OH212638   7.109   6.705   0.004
 4232TIP3    H112639   7.052   6.774  -0.031
 4232TIP3    H212640   7.191   6.750   0.024
 4233TIP3   OH212641   4.223   1.412   2.167
 4233TIP3    H112642   4.293   1.475   2.153
 4233TIP3    H212643   4.151   1.443   2.112
 4234TIP3   OH212644   0.439   2.281   0.044
 4234TIP3    H112645   0.380   2.206   0.048
 4234TIP3    H212646   0.504   2.257  -0.021
 4235TIP3   OH212647   6.688   6.270   3.024
 4235TIP3    H112648   6.727   6.226   2.949
 4235TIP3    H212649   6.676   6.361   2.996
 4236TIP3   OH212650   3.512   4.563   4.373
 4236TIP3    H112651   3.436   4.523   4.417
 4236TIP3    H212652   3.520   4.514   4.291
 4237TIP3   OH212653   0.121   5.038   3.348
 4237TIP3    H112654   0.081   5.123   3.329
 4237TIP3    H212655   0.084   5.013   3.433
 4238TIP3   OH212656   1.372   0.373   0.981
 4238TIP3    H112657   1.437   0.306   1.003
 4238TIP3    H212658   1.288   0.328   0.984
 4239TIP3   OH212659   3.159   0.671   5.451
 4239TIP3    H112660   3.223   0.737   5.426
 4239TIP3    H212661   3.121   0.702   5.533
 4240TIP3   OH212662   3.700   3.631   2.740
 4240TIP3    H112663   3.620   3.614   2.790
 4240TIP3    H212664   3.674   3.624   2.648
 4241TIP3   OH212665   2.626   5.161   3.137
 4241TIP3    H112666   2.598   5.246   3.172
 4241TIP3    H212667   2.564   5.144   3.066
 4242TIP3   OH212668   6.884   1.096   1.515
 4242TIP3    H112669   6.873   1.046   1.596
 4242TIP3    H212670   6.796   1.130   1.497
 4243TIP3   OH212671   4.129   7.412   3.040
 4243TIP3    H112672   4.084   7.462   3.108
 4243TIP3    H212673   4.059   7.369   2.992
 4244TIP3   OH212674   5.930   3.892   6.446
 4244TIP3    H112675   5.899   3.890   6.537
 4244TIP3    H212676   5.914   3.803   6.414
 4245TIP3   OH212677   7.855   6.955   4.819
 4245TIP3    H112678   7.821   7.026   4.874
 4245TIP3    H212679   7.847   6.877   4.873
 4246TIP3   OH212680   6.777   6.198   6.035
 4246TIP3    H112681   6.709   6.131   6.027
 4246TIP3    H212682   6.810   6.210   5.946
 4247TIP3   OH212683   2.730   3.356   5.013
 4247TIP3    H112684   2.747   3.362   5.107
 4247TIP3    H212685   2.635   3.367   5.005
 4248TIP3   OH212686   5.771   6.812   0.230
 4248TIP3    H112687   5.693   6.840   0.278
 4248TIP3    H212688   5.743   6.808   0.139
 4249TIP3   OH212689   1.601   5.521   6.149
 4249TIP3    H112690   1.676   5.493   6.202
 4249TIP3    H212691   1.584   5.446   6.091
 4250TIP3   OH212692   2.334   1.798   1.851
 4250TIP3    H112693   2.381   1.749   1.918
 4250TIP3    H212694   2.403   1.839   1.798
 4251TIP3   OH212695   8.252   5.022   0.357
 4251TIP3    H112696   8.159   5.037   0.339
 4251TIP3    H212697   8.295   5.044   0.274
 4252TIP3   OH212698   5.271   7.507   3.097
 4252TIP3    H112699   5.278   7.446   3.024
 4252TIP3    H212700   5.194   7.561   3.075
 4253TIP3   OH212701   5.859   7.172   3.779
 4253TIP3    H112702   5.788   7.149   3.838
 4253TIP3    H212703   5.936   7.180   3.837
 4254TIP3   OH212704   6.123   5.207   1.999
 4254TIP3    H112705   6.099   5.241   2.085
 4254TIP3    H212706   6.069   5.256   1.937
 4255TIP3   OH212707   6.627   7.473   5.385
 4255TIP3    H112708   6.622   7.516   5.299
 4255TIP3    H212709   6.589   7.536   5.446
 4256TIP3   OH212710   2.724   5.283   1.225
 4256TIP3    H112711   2.697   5.192   1.235
 4256TIP3    H212712   2.666   5.332   1.283
 4257TIP3   OH212713   7.858   5.974   0.908
 4257TIP3    H112714   7.846   5.880   0.899
 4257TIP3    H212715   7.952   5.987   0.900
 4258TIP3   OH212716   5.712   4.437   0.240
 4258TIP3    H112717   5.762   4.502   0.289
 4258TIP3    H212718   5.779   4.382   0.199
 4259TIP3   OH212719   6.460   0.798   0.007
 4259TIP3    H112720   6.377   0.844   0.012
 4259TIP3    H212721   6.477   0.787  -0.086
 4260TIP3   OH212722   5.215   5.726   3.389
 4260TIP3    H112723   5.204   5.793   3.322
 4260TIP3    H212724   5.301   5.745   3.428
 4261TIP3   OH212725   0.505   6.493   4.170
 4261TIP3    H112726   0.501   6.577   4.214
 4261TIP3    H212727   0.416   6.458   4.175
 4262TIP3   OH212728   7.156   6.831   3.388
 4262TIP3    H112729   7.186   6.905   3.335
 4262TIP3    H212730   7.133   6.869   3.473
 4263TIP3   OH212731   3.050   7.326   0.366
 4263TIP3    H112732   3.035   7.417   0.390
 4263TIP3    H212733   3.002   7.315   0.284
 4264TIP3   OH212734   5.499   1.012   1.776
 4264TIP3    H112735   5.527   1.096   1.814
 4264TIP3    H212736   5.410   1.028   1.746
 4265TIP3   OH212737   5.844   5.915   1.671
 4265TIP3    H112738   5.790   5.861   1.729
 4265TIP3    H212739   5.837   6.003   1.706
 4266TIP3   OH212740   3.160   6.083   5.006
 4266TIP3    H112741   3.152   6.094   4.911
 4266TIP3    H212742   3.106   6.153   5.043
 4267TIP3   OH212743   5.743   5.874   5.194
 4267TIP3    H112744   5.762   5.826   5.275
 4267TIP3    H212745   5.649   5.864   5.181
 4268TIP3   OH212746   0.949   0.397   3.138
 4268TIP3    H112747   0.946   0.450   3.058
 4268TIP3    H212748   1.002   0.448   3.199
 4269TIP3   OH212749   3.457   1.037   5.587
 4269TIP3    H112750   3.395   1.110   5.588
 4269TIP3    H212751   3.491   1.033   5.676
 4270TIP3   OH212752   4.572   2.959   6.079
 4270TIP3    H112753   4.540   2.878   6.038
 4270TIP3    H212754   4.494   2.995   6.122
 4271TIP3   OH212755   7.469   5.103   0.964
 4271TIP3    H112756   7.510   5.174   0.915
 4271TIP3    H212757   7.382   5.094   0.924
 4272TIP3   OH212758   3.788   0.815   4.895
 4272TIP3    H112759   3.709   0.868   4.908
 4272TIP3    H212760   3.801   0.813   4.800
 4273TIP3   OH212761   3.882   5.129   4.524
 4273TIP3    H112762   3.934   5.146   4.603
 4273TIP3    H212763   3.792   5.128   4.556
 4274TIP3   OH212764   8.067   7.525   3.409
 4274TIP3    H112765   8.146   7.544   3.359
 4274TIP3    H212766   8.002   7.588   3.377
 4275TIP3   OH212767   7.007   3.851   5.514
 4275TIP3    H112768   7.041   3.780   5.459
 4275TIP3    H212769   6.925   3.877   5.472
 4276TIP3   OH212770   5.101   2.632   0.344
 4276TIP3    H112771   5.017   2.655   0.385
 4276TIP3    H212772   5.125   2.709   0.293
 4277TIP3   OH212773   6.668   5.614   2.630
 4277TIP3    H112774   6.646   5.528   2.664
 4277TIP3    H212775   6.737   5.598   2.566
 4278TIP3   OH212776   5.575   3.457   5.378
 4278TIP3    H112777   5.488   3.459   5.419
 4278TIP3    H212778   5.556   3.462   5.284
 4279TIP3   OH212779   0.241   0.584   5.825
 4279TIP3    H112780   0.244   0.680   5.831
 4279TIP3    H212781   0.233   0.566   5.732
 4280TIP3   OH212782   0.584   3.694   1.005
 4280TIP3    H112783   0.571   3.761   1.072
 4280TIP3    H212784   0.497   3.682   0.966
 4281TIP3   OH212785   4.966   4.230   5.120
 4281TIP3    H112786   4.954   4.212   5.213
 4281TIP3    H212787   5.051   4.189   5.099
 4282TIP3   OH212788   2.992   5.304   1.329
 4282TIP3    H112789   2.908   5.267   1.300
 4282TIP3    H212790   3.057   5.237   1.309
 4283TIP3   OH212791   7.451   0.465   6.018
 4283TIP3    H112792   7.545   0.445   6.019
 4283TIP3    H212793   7.439   0.530   6.087
 4284TIP3   OH212794   3.563   1.906   0.896
 4284TIP3    H112795   3.494   1.972   0.909
 4284TIP3    H212796   3.608   1.934   0.816
 4285TIP3   OH212797   5.907   4.818   6.099
 4285TIP3    H112798   5.905   4.911   6.123
 4285TIP3    H212799   5.996   4.790   6.120
 4286TIP3   OH212800   5.014   3.666   0.212
 4286TIP3    H112801   5.091   3.631   0.168
 4286TIP3    H212802   4.980   3.593   0.263
 4287TIP3   OH212803   6.591   5.352   3.523
 4287TIP3    H112804   6.656   5.299   3.570
 4287TIP3    H212805   6.642   5.398   3.457
 4288TIP3   OH212806   3.593   0.125   6.237
 4288TIP3    H112807   3.545   0.121   6.319
 4288TIP3    H212808   3.526   0.130   6.169
 4289TIP3   OH212809   5.062   1.762   4.068
 4289TIP3    H112810   5.073   1.801   4.154
 4289TIP3    H212811   4.992   1.813   4.028
 4290TIP3   OH212812   1.745   7.568   3.358
 4290TIP3    H112813   1.695   7.564   3.276
 4290TIP3    H212814   1.829   7.608   3.332
 4291TIP3   OH212815   2.953   0.882   3.728
 4291TIP3    H112816   3.003   0.801   3.734
 4291TIP3    H212817   3.009   0.941   3.679
 4292TIP3   OH212818   3.843   0.164   1.324
 4292TIP3    H112819   3.939   0.170   1.325
 4292TIP3    H212820   3.824   0.086   1.376
 4293TIP3   OH212821   3.838   3.330   2.998
 4293TIP3    H112822   3.861   3.412   2.954
 4293TIP3    H212823   3.763   3.351   3.052
 4294TIP3   OH212824   3.702   4.884   2.317
 4294TIP3    H112825   3.780   4.859   2.267
 4294TIP3    H212826   3.701   4.980   2.313
 4295TIP3   OH212827   4.312   1.112   4.896
 4295TIP3    H112828   4.328   1.198   4.858
 4295TIP3    H212829   4.309   1.128   4.990
 4296TIP3   OH212830   8.061   2.191   5.562
 4296TIP3    H112831   8.155   2.204   5.553
 4296TIP3    H212832   8.027   2.192   5.472
 4297TIP3   OH212833   4.087   7.106   5.701
 4297TIP3    H112834   4.125   7.019   5.713
 4297TIP3    H212835   4.046   7.127   5.785
 4298TIP3   OH212836   0.407   4.934   5.821
 4298TIP3    H112837   0.453   4.858   5.857
 4298TIP3    H212838   0.322   4.934   5.865
 4299TIP3   OH212839   5.099   6.070   6.555
 4299TIP3    H112840   5.109   5.988   6.603
 4299TIP3    H212841   5.054   6.045   6.475
 4300TIP3   OH212842   4.434   4.497   6.016
 4300TIP3    H112843   4.521   4.537   6.014
 4300TIP3    H212844   4.405   4.509   6.106
 4301TIP3   OH212845   7.313   5.509   3.566
 4301TIP3    H112846   7.385   5.483   3.509
 4301TIP3    H212847   7.353   5.522   3.651
 4302TIP3   OH212848   5.881   1.159   0.634
 4302TIP3    H112849   5.888   1.253   0.621
 4302TIP3    H212850   5.964   1.124   0.602
 4303TIP3   OH212851   6.996   4.755   0.241
 4303TIP3    H112852   6.940   4.680   0.218
 4303TIP3    H212853   6.951   4.796   0.315
 4304TIP3   OH212854   4.422   5.480   5.482
 4304TIP3    H112855   4.497   5.530   5.514
 4304TIP3    H212856   4.373   5.457   5.561
 4305TIP3   OH212857   2.425   0.635   2.958
 4305TIP3    H112858   2.409   0.663   2.868
 4305TIP3    H212859   2.361   0.683   3.010
 4306TIP3   OH212860   4.768   2.675   5.585
 4306TIP3    H112861   4.746   2.582   5.584
 4306TIP3    H212862   4.684   2.720   5.585
 4307TIP3   OH212863   4.562   1.577   5.128
 4307TIP3    H112864   4.529   1.487   5.134
 4307TIP3    H212865   4.656   1.570   5.144
 4308TIP3   OH212866   7.801   6.435   2.241
 4308TIP3    H112867   7.705   6.434   2.240
 4308TIP3    H212868   7.825   6.481   2.160
 4309TIP3   OH212869   0.108   1.426   1.854
 4309TIP3    H112870   0.179   1.456   1.910
 4309TIP3    H212871   0.088   1.501   1.799
 4310TIP3   OH212872   5.257   2.751   5.781
 4310TIP3    H112873   5.255   2.804   5.702
 4310TIP3    H212874   5.324   2.792   5.836
 4311TIP3   OH212875   2.487   0.560   2.465
 4311TIP3    H112876   2.428   0.510   2.409
 4311TIP3    H212877   2.571   0.515   2.459
 4312TIP3   OH212878   6.062   3.292   4.344
 4312TIP3    H112879   6.078   3.382   4.375
 4312TIP3    H212880   6.135   3.242   4.378
 4313TIP3   OH212881   4.113   0.075   0.962
 4313TIP3    H112882   4.169   0.011   1.005
 4313TIP3    H212883   4.119   0.153   1.017
 4314TIP3   OH212884   7.477   3.212   6.140
 4314TIP3    H112885   7.544   3.147   6.163
 4314TIP3    H212886   7.430   3.173   6.066
 4315TIP3   OH212887   3.383   5.367   6.711
 4315TIP3    H112888   3.371   5.385   6.617
 4315TIP3    H212889   3.327   5.291   6.728
 4316TIP3   OH212890   3.517   6.055   2.799
 4316TIP3    H112891   3.574   6.077   2.872
 4316TIP3    H212892   3.435   6.026   2.840
 4317TIP3   OH212893   6.357   4.667   0.212
 4317TIP3    H112894   6.363   4.704   0.300
 4317TIP3    H212895   6.298   4.591   0.222
 4318TIP3   OH212896   2.376   7.776   6.511
 4318TIP3    H112897   2.411   7.827   6.438
 4318TIP3    H212898   2.324   7.839   6.561
 4319TIP3   OH212899   8.010   2.462   5.162
 4319TIP3    H112900   8.090   2.482   5.114
 4319TIP3    H212901   7.941   2.462   5.096
 4320TIP3   OH212902   4.034   1.472   5.726
 4320TIP3    H112903   4.059   1.504   5.640
 4320TIP3    H212904   3.954   1.519   5.747
 4321TIP3   OH212905   4.455   1.034   4.266
 4321TIP3    H112906   4.524   1.014   4.203
 4321TIP3    H212907   4.379   1.055   4.213
 4322TIP3   OH212908   3.436   6.135   6.573
 4322TIP3    H112909   3.483   6.130   6.657
 4322TIP3    H212910   3.499   6.104   6.509
 4323TIP3   OH212911   6.912   0.053   5.215
 4323TIP3    H112912   6.932   0.100   5.134
 4323TIP3    H212913   6.942   0.112   5.285
 4324TIP3   OH212914   3.221   2.342   2.464
 4324TIP3    H112915   3.138   2.307   2.495
 4324TIP3    H212916   3.267   2.265   2.429
 4325TIP3   OH212917   2.615   4.815   5.910
 4325TIP3    H112918   2.594   4.729   5.874
 4325TIP3    H212919   2.582   4.877   5.845
 4326TIP3   OH212920   5.013   5.609   0.361
 4326TIP3    H112921   4.981   5.520   0.346
 4326TIP3    H212922   4.970   5.637   0.442
 4327TIP3   OH212923   1.027   7.650   2.288
 4327TIP3    H112924   1.079   7.604   2.355
 4327TIP3    H212925   1.014   7.584   2.219
 4328TIP3   OH212926   2.830   5.960   6.536
 4328TIP3    H112927   2.848   5.976   6.443
 4328TIP3    H212928   2.824   6.048   6.574
 4329TIP3   OH212929   6.516   2.612   2.469
 4329TIP3    H112930   6.571   2.580   2.397
 4329TIP3    H212931   6.440   2.555   2.468
 4330TIP3   OH212932   7.233   7.676   5.745
 4330TIP3    H112933   7.293   7.701   5.816
 4330TIP3    H212934   7.203   7.588   5.769
 4331TIP3   OH212935   3.615   1.476   6.401
 4331TIP3    H112936   3.692   1.421   6.416
 4331TIP3    H212937   3.582   1.446   6.316
 4332TIP3   OH212938   0.486   3.971   5.214
 4332TIP3    H112939   0.544   3.963   5.290
 4332TIP3    H212940   0.405   3.927   5.242
 4333TIP3   OH212941   2.746   6.163   2.652
 4333TIP3    H112942   2.697   6.118   2.582
 4333TIP3    H212943   2.740   6.256   2.628
 4334TIP3   OH212944   1.117   6.707   3.221
 4334TIP3    H112945   1.092   6.796   3.246
 4334TIP3    H212946   1.035   6.657   3.222
 4335TIP3   OH212947   0.301   4.248   5.012
 4335TIP3    H112948   0.219   4.262   5.060
 4335TIP3    H212949   0.280   4.180   4.949
 4336TIP3   OH212950   2.263   7.414   4.069
 4336TIP3    H112951   2.323   7.488   4.076
 4336TIP3    H212952   2.320   7.337   4.067
 4337TIP3   OH212953   4.184   5.438   2.116
 4337TIP3    H112954   4.252   5.382   2.080
 4337TIP3    H212955   4.214   5.459   2.204
 4338TIP3   OH212956   0.365   1.830   3.881
 4338TIP3    H112957   0.378   1.925   3.874
 4338TIP3    H212958   0.453   1.794   3.874
 4339TIP3   OH212959   0.703   2.796   2.310
 4339TIP3    H112960   0.730   2.876   2.356
 4339TIP3    H212961   0.781   2.740   2.311
 4340TIP3   OH212962   6.579   6.796   2.360
 4340TIP3    H112963   6.577   6.720   2.417
 4340TIP3    H212964   6.652   6.779   2.300
 4341TIP3   OH212965   7.211   2.249   1.292
 4341TIP3    H112966   7.167   2.242   1.377
 4341TIP3    H212967   7.169   2.182   1.237
 4342TIP3   OH212968   2.134   3.769   4.209
 4342TIP3    H112969   2.112   3.858   4.237
 4342TIP3    H212970   2.050   3.729   4.189
 4343TIP3   OH212971   6.189   2.283   5.011
 4343TIP3    H112972   6.279   2.250   5.006
 4343TIP3    H212973   6.156   2.276   4.921
 4344TIP3   OH212974   3.228   3.379   3.240
 4344TIP3    H112975   3.161   3.334   3.189
 4344TIP3    H212976   3.228   3.335   3.324
 4345TIP3   OH212977   5.082   0.042   3.807
 4345TIP3    H112978   5.092   0.123   3.757
 4345TIP3    H212979   5.025  -0.013   3.752
 4346TIP3   OH212980   2.009   6.197   2.837
 4346TIP3    H112981   2.084   6.218   2.782
 4346TIP3    H212982   2.011   6.102   2.846
 4347TIP3   OH212983   7.772   3.253   6.333
 4347TIP3    H112984   7.866   3.271   6.343
 4347TIP3    H212985   7.748   3.294   6.250
 4348TIP3   OH212986   5.551   4.090   3.880
 4348TIP3    H112987   5.559   4.044   3.964
 4348TIP3    H212988   5.457   4.093   3.863
 4349TIP3   OH212989   1.038   3.758   0.686
 4349TIP3    H112990   1.034   3.674   0.639
 4349TIP3    H212991   0.948   3.776   0.711
 4350TIP3   OH212992   2.108   5.509   0.777
 4350TIP3    H112993   2.198   5.504   0.745
 4350TIP3    H212994   2.110   5.463   0.861
 4351TIP3   OH212995   0.047   0.694   3.399
 4351TIP3    H112996   0.082   0.679   3.487
 4351TIP3    H212997   0.120   0.676   3.340
 4352TIP3   OH212998   2.478   1.930   6.568
 4352TIP3    H112999   2.448   1.845   6.535
 4352TIP3    H213000   2.502   1.979   6.490
 4353TIP3   OH213001   6.784   4.949   1.950
 4353TIP3    H113002   6.734   5.016   1.903
 4353TIP3    H213003   6.768   4.869   1.899
 4354TIP3   OH213004   3.514   5.764   3.683
 4354TIP3    H113005   3.569   5.841   3.690
 4354TIP3    H213006   3.456   5.769   3.759
 4355TIP3   OH213007   4.919   6.031   3.494
 4355TIP3    H113008   4.886   5.978   3.421
 4355TIP3    H213009   4.961   6.106   3.452
 4356TIP3   OH213010   3.491   6.197   0.069
 4356TIP3    H113011   3.584   6.187   0.088
 4356TIP3    H213012   3.487   6.212  -0.026
 4357TIP3   OH213013   6.796   5.693   4.858
 4357TIP3    H113014   6.804   5.633   4.932
 4357TIP3    H213015   6.754   5.771   4.895
 4358TIP3   OH213016   5.729   6.754   6.325
 4358TIP3    H113017   5.727   6.741   6.231
 4358TIP3    H213018   5.672   6.829   6.341
 4359TIP3   OH213019   3.533   6.621   6.490
 4359TIP3    H113020   3.560   6.576   6.410
 4359TIP3    H213021   3.604   6.604   6.553
 4360TIP3   OH213022   4.223   5.557   1.644
 4360TIP3    H113023   4.272   5.479   1.669
 4360TIP3    H213024   4.229   5.615   1.721
 4361TIP3   OH213025   4.680   3.081   2.369
 4361TIP3    H113026   4.742   3.087   2.442
 4361TIP3    H213027   4.687   3.166   2.325
 4362TIP3   OH213028   5.889   7.212   2.887
 4362TIP3    H113029   5.828   7.144   2.860
 4362TIP3    H213030   5.931   7.177   2.965
 4363TIP3   OH213031   2.098   1.171   5.599
 4363TIP3    H113032   2.139   1.215   5.674
 4363TIP3    H213033   2.128   1.219   5.523
 4364TIP3   OH213034   1.472   0.159   4.148
 4364TIP3    H113035   1.453   0.100   4.221
 4364TIP3    H213036   1.390   0.206   4.133
 4365TIP3   OH213037   2.536   1.578   4.490
 4365TIP3    H113038   2.564   1.579   4.582
 4365TIP3    H213039   2.518   1.485   4.472
 4366TIP3   OH213040   4.337   6.061   2.568
 4366TIP3    H113041   4.292   6.063   2.652
 4366TIP3    H213042   4.275   6.099   2.506
 4367TIP3   OH213043   4.586   3.999   6.260
 4367TIP3    H113044   4.554   4.032   6.344
 4367TIP3    H213045   4.597   3.905   6.273
 4368TIP3   OH213046   3.316   5.846   6.292
 4368TIP3    H113047   3.349   5.786   6.226
 4368TIP3    H213048   3.279   5.789   6.360
 4369TIP3   OH213049   7.951   6.818   3.314
 4369TIP3    H113050   7.894   6.774   3.252
 4369TIP3    H213051   7.980   6.897   3.268
 4370TIP3   OH213052   0.762   7.495   1.869
 4370TIP3    H113053   0.711   7.511   1.790
 4370TIP3    H213054   0.700   7.455   1.930
 4371TIP3   OH213055   0.988   3.637   5.313
 4371TIP3    H113056   1.009   3.585   5.392
 4371TIP3    H213057   1.072   3.650   5.271
 4372TIP3   OH213058   1.828   3.497   6.601
 4372TIP3    H113059   1.763   3.563   6.625
 4372TIP3    H213060   1.781   3.436   6.544
 4373TIP3   OH213061   7.803   5.204   6.545
 4373TIP3    H113062   7.714   5.175   6.526
 4373TIP3    H213063   7.800   5.299   6.536
 4374TIP3   OH213064   2.106   4.966   4.879
 4374TIP3    H113065   2.111   4.871   4.884
 4374TIP3    H213066   2.195   4.996   4.898
 4375TIP3   OH213067   4.203   5.418   6.228
 4375TIP3    H113068   4.223   5.348   6.166
 4375TIP3    H213069   4.278   5.478   6.221
 4376TIP3   OH213070   6.233   6.464   3.396
 4376TIP3    H113071   6.219   6.380   3.353
 4376TIP3    H213072   6.208   6.449   3.488
 4377TIP3   OH213073   5.787   3.812   1.418
 4377TIP3    H113074   5.795   3.805   1.323
 4377TIP3    H213075   5.859   3.758   1.452
 4378TIP3   OH213076   1.902   6.458   6.581
 4378TIP3    H113077   1.976   6.448   6.641
 4378TIP3    H213078   1.918   6.540   6.535
 4379TIP3   OH213079   6.394   2.475   4.511
 4379TIP3    H113080   6.312   2.466   4.560
 4379TIP3    H213081   6.411   2.388   4.475
 4380TIP3   OH213082   7.915   5.513   0.093
 4380TIP3    H113083   8.000   5.537   0.130
 4380TIP3    H213084   7.857   5.585   0.118
 4381TIP3   OH213085   5.406   6.333   3.112
 4381TIP3    H113086   5.365   6.248   3.132
 4381TIP3    H213087   5.485   6.310   3.063
 4382TIP3   OH213088   5.089   2.937   0.525
 4382TIP3    H113089   5.047   2.933   0.611
 4382TIP3    H213090   5.169   2.885   0.535
 4383TIP3   OH213091   0.172   3.020   6.268
 4383TIP3    H113092   0.257   3.057   6.245
 4383TIP3    H213093   0.159   3.042   6.360
 4384TIP3   OH213094   3.900   0.138   0.747
 4384TIP3    H113095   3.988   0.117   0.717
 4384TIP3    H213096   3.901   0.120   0.841
 4385TIP3   OH213097   1.961   5.164   0.839
 4385TIP3    H113098   2.047   5.134   0.810
 4385TIP3    H213099   1.903   5.147   0.764
 4386TIP3   OH213100   5.052   7.397   1.791
 4386TIP3    H113101   5.095   7.427   1.871
 4386TIP3    H213102   4.960   7.421   1.802
 4387TIP3   OH213103   7.329   3.152   1.768
 4387TIP3    H113104   7.425   3.156   1.764
 4387TIP3    H213105   7.301   3.243   1.759
 4388TIP3   OH213106   7.424   2.410   2.052
 4388TIP3    H113107   7.419   2.501   2.083
 4388TIP3    H213108   7.384   2.412   1.965
 4389TIP3   OH213109   6.170   3.069   3.801
 4389TIP3    H113110   6.104   3.034   3.862
 4389TIP3    H213111   6.224   3.125   3.856
 4390TIP3   OH213112   4.718   2.537   0.621
 4390TIP3    H113113   4.681   2.578   0.699
 4390TIP3    H213114   4.811   2.559   0.624
 4391TIP3   OH213115   4.075   0.362   2.951
 4391TIP3    H113116   3.993   0.345   2.905
 4391TIP3    H213117   4.080   0.458   2.956
 4392TIP3   OH213118   7.639   6.584   5.884
 4392TIP3    H113119   7.688   6.512   5.844
 4392TIP3    H213120   7.680   6.598   5.969
 4393TIP3   OH213121   5.659   6.817   3.045
 4393TIP3    H113122   5.633   6.729   3.019
 4393TIP3    H213123   5.705   6.805   3.128
 4394TIP3   OH213124   8.262   1.575   4.569
 4394TIP3    H113125   8.172   1.598   4.545
 4394TIP3    H213126   8.299   1.656   4.603
 4395TIP3   OH213127   6.879   3.797   2.159
 4395TIP3    H113128   6.803   3.848   2.130
 4395TIP3    H213129   6.841   3.715   2.193
 4396TIP3   OH213130   0.787   2.913   6.161
 4396TIP3    H113131   0.703   2.910   6.115
 4396TIP3    H213132   0.764   2.920   6.253
 4397TIP3   OH213133   2.635   1.291   0.922
 4397TIP3    H113134   2.559   1.323   0.971
 4397TIP3    H213135   2.711   1.324   0.970
 4398TIP3   OH213136   6.479   7.375   3.066
 4398TIP3    H113137   6.534   7.369   2.988
 4398TIP3    H213138   6.422   7.450   3.050
 4399TIP3   OH213139   2.331   7.092   1.589
 4399TIP3    H113140   2.405   7.122   1.641
 4399TIP3    H213141   2.259   7.150   1.614
 4400TIP3   OH213142   0.916   6.661   6.382
 4400TIP3    H113143   0.973   6.688   6.454
 4400TIP3    H213144   0.974   6.616   6.321
 4401TIP3   OH213145   3.896   2.020   0.925
 4401TIP3    H113146   3.863   2.067   0.848
 4401TIP3    H213147   3.953   1.953   0.888
 4402TIP3   OH213148   5.458   6.056   2.367
 4402TIP3    H113149   5.548   6.056   2.398
 4402TIP3    H213150   5.457   5.994   2.294
 4403TIP3   OH213151   5.983   6.628   5.849
 4403TIP3    H113152   5.929   6.553   5.826
 4403TIP3    H213153   6.035   6.646   5.770
 4404TIP3   OH213154   1.560   2.863   5.862
 4404TIP3    H113155   1.584   2.868   5.769
 4404TIP3    H213156   1.589   2.946   5.899
 4405TIP3   OH213157   6.343   4.974   0.895
 4405TIP3    H113158   6.340   4.887   0.858
 4405TIP3    H213159   6.258   5.013   0.875
 4406TIP3   OH213160   2.020   3.348   1.157
 4406TIP3    H113161   2.034   3.379   1.068
 4406TIP3    H213162   1.982   3.261   1.146
 4407TIP3   OH213163   7.390   5.825   5.156
 4407TIP3    H113164   7.352   5.805   5.242
 4407TIP3    H213165   7.441   5.747   5.134
 4408TIP3   OH213166   4.470   3.707   3.866
 4408TIP3    H113167   4.533   3.676   3.931
 4408TIP3    H213168   4.488   3.801   3.859
 4409TIP3   OH213169   5.773   0.963   6.183
 4409TIP3    H113170   5.854   0.923   6.215
 4409TIP3    H213171   5.794   0.993   6.095
 4410TIP3   OH213172   6.244   1.002   1.253
 4410TIP3    H113173   6.247   0.913   1.288
 4410TIP3    H213174   6.153   1.029   1.264
 4411TIP3   OH213175   7.000   3.270   4.648
 4411TIP3    H113176   7.001   3.360   4.617
 4411TIP3    H213177   7.024   3.276   4.741
 4412TIP3   OH213178   5.381   2.645   6.158
 4412TIP3    H113179   5.433   2.604   6.228
 4412TIP3    H213180   5.332   2.714   6.203
 4413TIP3   OH213181   0.012   1.518   3.658
 4413TIP3    H113182   0.047   1.604   3.636
 4413TIP3    H213183   0.004   1.519   3.754
 4414TIP3   OH213184   0.748   1.804   4.643
 4414TIP3    H113185   0.841   1.790   4.625
 4414TIP3    H213186   0.741   1.796   4.738
 4415TIP3   OH213187   1.831   1.683   4.049
 4415TIP3    H113188   1.892   1.687   4.123
 4415TIP3    H213189   1.744   1.688   4.090
 4416TIP3   OH213190   2.106   7.250   3.053
 4416TIP3    H113191   2.066   7.172   3.091
 4416TIP3    H213192   2.185   7.218   3.009
 4417TIP3   OH213193   2.741   7.802   5.660
 4417TIP3    H113194   2.802   7.869   5.693
 4417TIP3    H213195   2.727   7.744   5.735
 4418TIP3   OH213196   3.434   2.530   6.504
 4418TIP3    H113197   3.514   2.529   6.452
 4418TIP3    H213198   3.454   2.586   6.578
 4419TIP3   OH213199   1.164   5.060   0.984
 4419TIP3    H113200   1.096   5.066   0.917
 4419TIP3    H213201   1.118   5.025   1.061
 4420TIP3   OH213202   1.529   4.844   3.271
 4420TIP3    H113203   1.505   4.936   3.269
 4420TIP3    H213204   1.556   4.825   3.181
 4421TIP3   OH213205   4.373   2.783   2.433
 4421TIP3    H113206   4.421   2.827   2.503
 4421TIP3    H213207   4.285   2.772   2.468
 4422TIP3   OH213208   5.246   1.097   1.706
 4422TIP3    H113209   5.264   1.100   1.612
 4422TIP3    H213210   5.151   1.085   1.712
 4423TIP3   OH213211   0.368   5.343   0.627
 4423TIP3    H113212   0.410   5.260   0.651
 4423TIP3    H213213   0.426   5.410   0.664
 4424TIP3   OH213214   7.999   1.864   5.305
 4424TIP3    H113215   7.976   1.774   5.330
 4424TIP3    H213216   7.925   1.894   5.252
 4425TIP3   OH213217   2.170   1.480   6.034
 4425TIP3    H113218   2.083   1.439   6.035
 4425TIP3    H213219   2.179   1.515   5.946
 4426TIP3   OH213220   5.207   6.790   0.826
 4426TIP3    H113221   5.298   6.781   0.855
 4426TIP3    H213222   5.181   6.701   0.802
 4427TIP3   OH213223   0.868   1.416   2.611
 4427TIP3    H113224   0.928   1.347   2.582
 4427TIP3    H213225   0.781   1.387   2.581
 4428TIP3   OH213226   4.904   6.929   2.210
 4428TIP3    H113227   4.849   6.904   2.284
 4428TIP3    H213228   4.987   6.883   2.225
 4429TIP3   OH213229   0.155   1.274   5.485
 4429TIP3    H113230   0.143   1.362   5.448
 4429TIP3    H213231   0.103   1.217   5.428
 4430TIP3   OH213232   2.275   0.631   4.051
 4430TIP3    H113233   2.348   0.570   4.053
 4430TIP3    H213234   2.310   0.712   4.088
 4431TIP3   OH213235   4.920   2.044   2.521
 4431TIP3    H113236   4.871   1.999   2.589
 4431TIP3    H213237   5.006   2.062   2.561
 4432TIP3   OH213238   8.194   0.940   6.393
 4432TIP3    H113239   8.213   0.925   6.486
 4432TIP3    H213240   8.164   0.855   6.361
 4433TIP3   OH213241   3.146   3.444   6.507
 4433TIP3    H113242   3.102   3.373   6.458
 4433TIP3    H213243   3.238   3.437   6.482
 4434TIP3   OH213244   3.286   1.654   0.407
 4434TIP3    H113245   3.276   1.748   0.422
 4434TIP3    H213246   3.301   1.646   0.313
 4435TIP3   OH213247   3.342   7.409   4.711
 4435TIP3    H113248   3.360   7.409   4.617
 4435TIP3    H213249   3.418   7.452   4.750
 4436TIP3   OH213250   3.829   2.140   3.665
 4436TIP3    H113251   3.880   2.143   3.746
 4436TIP3    H213252   3.841   2.051   3.633
 4437TIP3   OH213253   7.714   0.241   2.738
 4437TIP3    H113254   7.773   0.252   2.663
 4437TIP3    H213255   7.716   0.326   2.783
 4438TIP3   OH213256   1.571   1.288   6.410
 4438TIP3    H113257   1.519   1.294   6.330
 4438TIP3    H213258   1.617   1.204   6.402
 4439TIP3   OH213259   7.921   0.868   0.475
 4439TIP3    H113260   7.876   0.937   0.427
 4439TIP3    H213261   8.007   0.862   0.433
 4440TIP3   OH213262   4.272   6.159   6.582
 4440TIP3    H113263   4.253   6.171   6.675
 4440TIP3    H213264   4.317   6.075   6.577
 4441TIP3   OH213265   3.246   4.603   6.755
 4441TIP3    H113266   3.273   4.543   6.686
 4441TIP3    H213267   3.299   4.578   6.831
 4442TIP3   OH213268   3.353   1.593   4.541
 4442TIP3    H113269   3.291   1.560   4.607
 4442TIP3    H213270   3.425   1.529   4.542
 4443TIP3   OH213271   6.979   1.289   1.903
 4443TIP3    H113272   6.908   1.239   1.864
 4443TIP3    H213273   7.051   1.227   1.911
 4444TIP3   OH213274   1.319   1.409   2.890
 4444TIP3    H113275   1.227   1.386   2.874
 4444TIP3    H213276   1.330   1.496   2.853
 4445TIP3   OH213277   8.118   4.639   0.259
 4445TIP3    H113278   8.049   4.704   0.270
 4445TIP3    H213279   8.104   4.577   0.331
 4446TIP3   OH213280   6.493   1.105   5.856
 4446TIP3    H113281   6.586   1.098   5.881
 4446TIP3    H213282   6.472   1.197   5.869
 4447TIP3   OH213283   5.246   0.054   5.569
 4447TIP3    H113284   5.329   0.035   5.612
 4447TIP3    H213285   5.270   0.087   5.483
 4448TIP3   OH213286   6.032   7.464   4.583
 4448TIP3    H113287   5.938   7.451   4.595
 4448TIP3    H213288   6.067   7.467   4.673
 4449TIP3   OH213289   5.286   5.049   0.776
 4449TIP3    H113290   5.293   5.030   0.682
 4449TIP3    H213291   5.209   4.999   0.805
 4450TIP3   OH213292   4.136   3.075   5.615
 4450TIP3    H113293   4.051   3.039   5.591
 4450TIP3    H213294   4.157   3.034   5.699
 4451TIP3   OH213295   4.763   1.850   4.676
 4451TIP3    H113296   4.687   1.878   4.727
 4451TIP3    H213297   4.835   1.904   4.709
 4452TIP3   OH213298   5.798   1.916   2.985
 4452TIP3    H113299   5.741   1.840   2.973
 4452TIP3    H213300   5.874   1.897   2.930
 4453TIP3   OH213301   5.097   5.793   2.759
 4453TIP3    H113302   5.002   5.805   2.756
 4453TIP3    H213303   5.118   5.793   2.853
 4454TIP3   OH213304   1.551   6.433   3.234
 4454TIP3    H113305   1.512   6.499   3.291
 4454TIP3    H213306   1.566   6.479   3.152
 4455TIP3   OH213307   0.300   3.196   3.557
 4455TIP3    H113308   0.373   3.134   3.553
 4455TIP3    H213309   0.225   3.148   3.523
 4456TIP3   OH213310   3.549   6.531   5.271
 4456TIP3    H113311   3.607   6.467   5.230
 4456TIP3    H213312   3.469   6.481   5.291
 4457TIP3   OH213313  -0.029   1.975   6.383
 4457TIP3    H113314   0.029   2.047   6.407
 4457TIP3    H213315   0.024   1.919   6.326
 4458TIP3   OH213316   2.924   2.281   5.898
 4458TIP3    H113317   3.015   2.277   5.929
 4458TIP3    H213318   2.909   2.196   5.859
 4459TIP3   OH213319   7.259   2.700   4.504
 4459TIP3    H113320   7.209   2.766   4.455
 4459TIP3    H213321   7.210   2.619   4.492
 4460TIP3   OH213322   3.124   5.160   5.322
 4460TIP3    H113323   3.144   5.211   5.401
 4460TIP3    H213324   3.207   5.155   5.275
 4461TIP3   OH213325   3.380   2.412   2.048
 4461TIP3    H113326   3.379   2.507   2.057
 4461TIP3    H213327   3.470   2.391   2.024
 4462TIP3   OH213328   3.644   0.759   6.339
 4462TIP3    H113329   3.713   0.824   6.351
 4462TIP3    H213330   3.608   0.746   6.427
 4463TIP3   OH213331   4.945   7.345   1.152
 4463TIP3    H113332   4.942   7.415   1.087
 4463TIP3    H213333   4.885   7.278   1.118
 4464TIP3   OH213334   5.847   6.028   4.147
 4464TIP3    H113335   5.770   6.084   4.134
 4464TIP3    H213336   5.830   5.983   4.229
 4465TIP3   OH213337   8.010   3.541   2.509
 4465TIP3    H113338   8.081   3.533   2.573
 4465TIP3    H213339   8.054   3.534   2.424
 4466TIP3   OH213340   2.863   3.496   1.330
 4466TIP3    H113341   2.857   3.466   1.420
 4466TIP3    H213342   2.788   3.455   1.286
 4467TIP3   OH213343   6.255   5.655   5.233
 4467TIP3    H113344   6.345   5.633   5.258
 4467TIP3    H213345   6.262   5.686   5.143
 4468TIP3   OH213346   6.159   2.037   4.071
 4468TIP3    H113347   6.233   2.083   4.112
 4468TIP3    H213348   6.171   1.946   4.097
 4469TIP3   OH213349   5.978   5.822   6.145
 4469TIP3    H113350   6.031   5.747   6.118
 4469TIP3    H213351   5.904   5.784   6.192
 4470TIP3   OH213352   4.293   0.968   5.459
 4470TIP3    H113353   4.259   0.880   5.442
 4470TIP3    H213354   4.334   0.995   5.377
 4471TIP3   OH213355   2.481   4.086   2.971
 4471TIP3    H113356   2.482   4.094   2.875
 4471TIP3    H213357   2.489   4.175   3.003
 4472TIP3   OH213358   0.073   3.793   0.394
 4472TIP3    H113359   0.150   3.850   0.392
 4472TIP3    H213360   0.101   3.716   0.443
 4473TIP3   OH213361   7.288   2.826   0.874
 4473TIP3    H113362   7.281   2.921   0.879
 4473TIP3    H213363   7.199   2.794   0.890
 4474TIP3   OH213364   8.278   7.630   3.241
 4474TIP3    H113365   8.233   7.713   3.224
 4474TIP3    H213366   8.271   7.582   3.159
 4475TIP3   OH213367   4.484   2.742   5.594
 4475TIP3    H113368   4.471   2.691   5.674
 4475TIP3    H213369   4.409   2.719   5.539
 4476TIP3   OH213370   7.674   2.631   0.358
 4476TIP3    H113371   7.642   2.550   0.398
 4476TIP3    H213372   7.694   2.688   0.432
 4477TIP3   OH213373   1.542   1.341   4.344
 4477TIP3    H113374   1.613   1.358   4.407
 4477TIP3    H213375   1.512   1.253   4.364
 4478TIP3   OH213376   5.306   6.606   0.538
 4478TIP3    H113377   5.251   6.536   0.575
 4478TIP3    H213378   5.249   6.682   0.532
 4479TIP3   OH213379   1.955   4.320   0.444
 4479TIP3    H113380   1.894   4.351   0.511
 4479TIP3    H213381   1.930   4.229   0.430
 4480TIP3   OH213382   1.882   2.228   3.661
 4480TIP3    H113383   1.963   2.271   3.688
 4480TIP3    H213384   1.840   2.203   3.744
 4481TIP3   OH213385   5.137   2.932   1.767
 4481TIP3    H113386   5.096   3.018   1.780
 4481TIP3    H213387   5.221   2.950   1.725
 4482TIP3   OH213388   3.514   7.538   5.673
 4482TIP3    H113389   3.451   7.475   5.708
 4482TIP3    H213390   3.579   7.484   5.627
 4483TIP3   OH213391   5.477   2.660   3.181
 4483TIP3    H113392   5.391   2.666   3.224
 4483TIP3    H213393   5.512   2.576   3.211
 4484TIP3   OH213394   7.046   0.936   2.053
 4484TIP3    H113395   7.059   0.913   1.961
 4484TIP3    H213396   6.951   0.928   2.067
 4485TIP3   OH213397   4.198   5.415   4.604
 4485TIP3    H113398   4.256   5.342   4.624
 4485TIP3    H213399   4.135   5.416   4.676
 4486TIP3   OH213400   7.822   0.417   0.068
 4486TIP3    H113401   7.855   0.459   0.148
 4486TIP3    H213402   7.735   0.386   0.092
 4487TIP3   OH213403   7.575   6.472   5.606
 4487TIP3    H113404   7.573   6.399   5.668
 4487TIP3    H213405   7.574   6.550   5.661
 4488TIP3   OH213406   2.348   6.938   4.292
 4488TIP3    H113407   2.258   6.960   4.314
 4488TIP3    H213408   2.348   6.929   4.196
 4489TIP3   OH213409   5.470   6.434   0.768
 4489TIP3    H113410   5.464   6.457   0.675
 4489TIP3    H213411   5.424   6.350   0.775
 4490TIP3   OH213412   0.706   4.687   5.251
 4490TIP3    H113413   0.684   4.693   5.344
 4490TIP3    H213414   0.692   4.596   5.228
 4491TIP3   OH213415   8.171   1.276   2.728
 4491TIP3    H113416   8.246   1.224   2.699
 4491TIP3    H213417   8.109   1.272   2.655
 4492TIP3   OH213418   1.305   6.511   6.442
 4492TIP3    H113419   1.399   6.522   6.424
 4492TIP3    H213420   1.293   6.416   6.449
 4493TIP3   OH213421   7.370   1.912   4.811
 4493TIP3    H113422   7.415   1.904   4.895
 4493TIP3    H213423   7.401   1.994   4.774
 4494TIP3   OH213424   5.711   1.458   2.348
 4494TIP3    H113425   5.643   1.392   2.339
 4494TIP3    H213426   5.667   1.541   2.329
 4495TIP3   OH213427   7.108   6.144   3.741
 4495TIP3    H113428   7.043   6.160   3.810
 4495TIP3    H213429   7.110   6.227   3.691
 4496TIP3   OH213430   8.211   4.606   4.394
 4496TIP3    H113431   8.137   4.586   4.451
 4496TIP3    H213432   8.278   4.542   4.418
 4497TIP3   OH213433   5.692   0.455   1.816
 4497TIP3    H113434   5.763   0.498   1.863
 4497TIP3    H213435   5.695   0.364   1.846
 4498TIP3   OH213436   2.312   3.845   1.035
 4498TIP3    H113437   2.267   3.929   1.038
 4498TIP3    H213438   2.258   3.787   1.089
 4499TIP3   OH213439   0.801   2.930   5.818
 4499TIP3    H113440   0.781   2.836   5.822
 4499TIP3    H213441   0.849   2.940   5.736
 4500TIP3   OH213442   7.747   7.173   4.176
 4500TIP3    H113443   7.815   7.235   4.200
 4500TIP3    H213444   7.667   7.208   4.215
 4501TIP3   OH213445   7.096   5.868   4.343
 4501TIP3    H113446   7.112   5.907   4.429
 4501TIP3    H213447   7.143   5.785   4.346
 4502TIP3   OH213448   1.713   3.403   0.472
 4502TIP3    H113449   1.696   3.424   0.380
 4502TIP3    H213450   1.648   3.336   0.494
 4503TIP3   OH213451   2.184   4.223   4.515
 4503TIP3    H113452   2.210   4.253   4.428
 4503TIP3    H213453   2.255   4.252   4.573
 4504TIP3   OH213454   8.195   1.606   1.342
 4504TIP3    H113455   8.124   1.609   1.278
 4504TIP3    H213456   8.187   1.520   1.383
 4505TIP3   OH213457   7.972   4.202   1.415
 4505TIP3    H113458   7.949   4.115   1.446
 4505TIP3    H213459   7.892   4.234   1.373
 4506TIP3   OH213460   5.105   4.397   3.337
 4506TIP3    H113461   5.154   4.413   3.417
 4506TIP3    H213462   5.152   4.326   3.294
 4507TIP3   OH213463   7.771   7.830   0.128
 4507TIP3    H113464   7.811   7.916   0.144
 4507TIP3    H213465   7.836   7.767   0.160
 4508TIP3   OH213466   3.158   4.957   0.143
 4508TIP3    H113467   3.237   5.009   0.154
 4508TIP3    H213468   3.171   4.880   0.198
 4509TIP3   OH213469   8.004   2.693   3.879
 4509TIP3    H113470   8.091   2.704   3.918
 4509TIP3    H213471   7.963   2.624   3.931
 4510TIP3   OH213472   6.013   2.903   6.510
 4510TIP3    H113473   6.071   2.833   6.481
 4510TIP3    H213474   6.035   2.977   6.453
 4511TIP3   OH213475   5.828   6.331   2.363
 4511TIP3    H113476   5.913   6.322   2.405
 4511TIP3    H213477   5.813   6.245   2.322
 4512TIP3   OH213478   3.008   2.471   3.028
 4512TIP3    H113479   2.983   2.547   2.974
 4512TIP3    H213480   2.980   2.495   3.116
 4513TIP3   OH213481   0.998   5.928   1.615
 4513TIP3    H113482   0.914   5.941   1.572
 4513TIP3    H213483   0.980   5.866   1.685
 4514TIP3   OH213484   5.370   6.781   2.136
 4514TIP3    H113485   5.402   6.858   2.183
 4514TIP3    H213486   5.439   6.715   2.148
 4515TIP3   OH213487   3.548   4.223   4.307
 4515TIP3    H113488   3.558   4.317   4.290
 4515TIP3    H213489   3.489   4.219   4.382
 4516TIP3   OH213490   5.296   1.128   4.661
 4516TIP3    H113491   5.267   1.181   4.735
 4516TIP3    H213492   5.324   1.045   4.701
 4517TIP3   OH213493   0.604   0.128   4.467
 4517TIP3    H113494   0.643   0.210   4.499
 4517TIP3    H213495   0.510   0.146   4.465
 4518TIP3   OH213496   7.766   1.348   6.447
 4518TIP3    H113497   7.827   1.420   6.462
 4518TIP3    H213498   7.746   1.314   6.534
 4519TIP3   OH213499   5.963   1.421   0.644
 4519TIP3    H113500   5.931   1.477   0.715
 4519TIP3    H213501   6.036   1.470   0.606
 4520TIP3   OH213502   5.843   5.439   0.535
 4520TIP3    H113503   5.789   5.440   0.456
 4520TIP3    H213504   5.865   5.347   0.548
 4521TIP3   OH213505   7.201   4.785   5.112
 4521TIP3    H113506   7.125   4.747   5.068
 4521TIP3    H213507   7.187   4.879   5.106
 4522TIP3   OH213508   5.179   0.391   4.940
 4522TIP3    H113509   5.202   0.326   5.007
 4522TIP3    H213510   5.257   0.447   4.934
 4523TIP3   OH213511   5.958   7.291   1.469
 4523TIP3    H113512   5.868   7.261   1.452
 4523TIP3    H213513   5.950   7.386   1.477
 4524TIP3   OH213514   7.991   0.234   5.476
 4524TIP3    H113515   7.965   0.176   5.546
 4524TIP3    H213516   7.910   0.253   5.428
 4525TIP3   OH213517   5.798   5.935   4.434
 4525TIP3    H113518   5.786   5.949   4.528
 4525TIP3    H213519   5.773   5.844   4.419
 4526TIP3   OH213520   2.440   5.972   1.122
 4526TIP3    H113521   2.438   6.043   1.186
 4526TIP3    H213522   2.347   5.953   1.105
 4527TIP3   OH213523   7.888   5.541   0.446
 4527TIP3    H113524   7.823   5.479   0.414
 4527TIP3    H213525   7.896   5.522   0.540
 4528TIP3   OH213526   3.458   7.780   4.494
 4528TIP3    H113527   3.535   7.814   4.448
 4528TIP3    H213528   3.485   7.776   4.585
 4529TIP3   OH213529   2.314   2.981   4.102
 4529TIP3    H113530   2.373   2.972   4.176
 4529TIP3    H213531   2.354   3.047   4.046
 4530TIP3   OH213532   3.598   0.918   3.177
 4530TIP3    H113533   3.575   0.946   3.266
 4530TIP3    H213534   3.536   0.966   3.121
 4531TIP3   OH213535   2.077   5.167   3.752
 4531TIP3    H113536   2.089   5.084   3.706
 4531TIP3    H213537   2.049   5.229   3.684
 4532TIP3   OH213538   6.421   6.255   1.161
 4532TIP3    H113539   6.344   6.273   1.106
 4532TIP3    H213540   6.470   6.337   1.161
 4533TIP3   OH213541   7.742   1.287   4.226
 4533TIP3    H113542   7.655   1.249   4.215
 4533TIP3    H213543   7.737   1.335   4.309
 4534TIP3   OH213544   7.233   6.444   3.871
 4534TIP3    H113545   7.150   6.434   3.824
 4534TIP3    H213546   7.285   6.503   3.816
 4535TIP3   OH213547   6.055   2.103   1.016
 4535TIP3    H113548   6.027   2.173   1.075
 4535TIP3    H213549   5.974   2.063   0.986
 4536TIP3   OH213550   6.330   6.444   4.454
 4536TIP3    H113551   6.396   6.402   4.398
 4536TIP3    H213552   6.247   6.422   4.413
 4537TIP3   OH213553   3.831   2.821   5.466
 4537TIP3    H113554   3.790   2.735   5.479
 4537TIP3    H213555   3.880   2.812   5.384
 4538TIP3   OH213556   2.118   3.682   5.415
 4538TIP3    H113557   2.110   3.751   5.480
 4538TIP3    H213558   2.070   3.608   5.452
 4539TIP3   OH213559   6.766   4.399   2.480
 4539TIP3    H113560   6.729   4.452   2.551
 4539TIP3    H213561   6.776   4.460   2.407
 4540TIP3   OH213562   4.446   7.049   2.164
 4540TIP3    H113563   4.540   7.064   2.158
 4540TIP3    H213564   4.427   7.048   2.258
 4541TIP3   OH213565   4.365   0.202   0.089
 4541TIP3    H113566   4.445   0.252   0.108
 4541TIP3    H213567   4.294   0.261   0.114
 4542TIP3   OH213568   4.492   1.649   4.711
 4542TIP3    H113569   4.545   1.581   4.671
 4542TIP3    H213570   4.445   1.689   4.638
 4543TIP3   OH213571   1.265   6.604   0.089
 4543TIP3    H113572   1.278   6.544   0.163
 4543TIP3    H213573   1.178   6.641   0.104
 4544TIP3   OH213574   5.209   0.909   2.092
 4544TIP3    H113575   5.165   0.966   2.029
 4544TIP3    H213576   5.237   0.834   2.041
 4545TIP3   OH213577   3.187   6.984   4.846
 4545TIP3    H113578   3.248   6.911   4.844
 4545TIP3    H213579   3.211   7.037   4.769
 4546TIP3   OH213580   6.356   5.704   6.064
 4546TIP3    H113581   6.347   5.782   6.119
 4546TIP3    H213582   6.431   5.658   6.101
 4547TIP3   OH213583   2.536   7.261   1.287
 4547TIP3    H113584   2.563   7.272   1.378
 4547TIP3    H213585   2.547   7.167   1.270
 4548TIP3   OH213586   2.156   3.735   4.533
 4548TIP3    H113587   2.242   3.776   4.535
 4548TIP3    H213588   2.101   3.792   4.588
 4549TIP3   OH213589   4.334   2.815   4.916
 4549TIP3    H113590   4.247   2.805   4.878
 4549TIP3    H213591   4.375   2.883   4.863
 4550TIP3   OH213592   3.911   6.703   0.390
 4550TIP3    H113593   3.924   6.786   0.344
 4550TIP3    H213594   3.817   6.697   0.403
 4551TIP3   OH213595   1.233   0.244   2.046
 4551TIP3    H113596   1.261   0.217   2.134
 4551TIP3    H213597   1.305   0.220   1.989
 4552TIP3   OH213598   1.812   1.852   3.811
 4552TIP3    H113599   1.831   1.789   3.881
 4552TIP3    H213600   1.723   1.883   3.830
 4553TIP3   OH213601   6.971   6.534   3.066
 4553TIP3    H113602   7.052   6.483   3.055
 4553TIP3    H213603   6.947   6.561   2.977
 4554TIP3   OH213604   0.913   6.692   3.431
 4554TIP3    H113605   0.893   6.599   3.445
 4554TIP3    H213606   0.924   6.728   3.519
 4555TIP3   OH213607   2.470   4.648   2.865
 4555TIP3    H113608   2.545   4.607   2.909
 4555TIP3    H213609   2.508   4.688   2.787
 4556TIP3   OH213610   2.556   2.895   3.283
 4556TIP3    H113611   2.482   2.948   3.255
 4556TIP3    H213612   2.627   2.919   3.224
 4557TIP3   OH213613   0.182   2.098   0.589
 4557TIP3    H113614   0.263   2.127   0.630
 4557TIP3    H213615   0.204   2.084   0.497
 4558TIP3   OH213616   2.867   3.545   5.235
 4558TIP3    H113617   2.848   3.607   5.305
 4558TIP3    H213618   2.865   3.597   5.155
 4559TIP3   OH213619   7.171   6.924   6.389
 4559TIP3    H113620   7.167   7.018   6.369
 4559TIP3    H213621   7.149   6.918   6.482
 4560TIP3   OH213622   5.339   7.225   1.961
 4560TIP3    H113623   5.376   7.255   2.044
 4560TIP3    H213624   5.316   7.133   1.978
 4561TIP3   OH213625   0.828   6.595   0.507
 4561TIP3    H113626   0.753   6.638   0.464
 4561TIP3    H213627   0.860   6.533   0.441
 4562TIP3   OH213628   5.501   4.656   0.344
 4562TIP3    H113629   5.575   4.705   0.308
 4562TIP3    H213630   5.502   4.573   0.297
 4563TIP3   OH213631   6.277   2.755   2.065
 4563TIP3    H113632   6.323   2.803   2.135
 4563TIP3    H213633   6.340   2.753   1.993
 4564TIP3   OH213634   5.737   5.058   0.096
 4564TIP3    H113635   5.676   5.047   0.023
 4564TIP3    H213636   5.783   5.140   0.077
 4565TIP3   OH213637   5.351   1.149   4.397
 4565TIP3    H113638   5.360   1.134   4.491
 4565TIP3    H213639   5.436   1.122   4.361
 4566TIP3   OH213640   7.637   0.297   3.809
 4566TIP3    H113641   7.657   0.362   3.742
 4566TIP3    H213642   7.541   0.289   3.806
 4567TIP3   OH213643   3.013   2.407   4.401
 4567TIP3    H113644   2.961   2.434   4.477
 4567TIP3    H213645   2.958   2.343   4.355
 4568TIP3   OH213646   5.822   5.801   2.765
 4568TIP3    H113647   5.823   5.747   2.843
 4568TIP3    H213648   5.730   5.808   2.742
 4569TIP3   OH213649   5.635   3.809   6.019
 4569TIP3    H113650   5.574   3.842   5.953
 4569TIP3    H213651   5.579   3.785   6.093
 4570TIP3   OH213652   2.330   2.125   2.184
 4570TIP3    H113653   2.424   2.142   2.176
 4570TIP3    H213654   2.298   2.126   2.094
 4571TIP3   OH213655   3.418   1.490   4.196
 4571TIP3    H113656   3.386   1.572   4.233
 4571TIP3    H213657   3.387   1.422   4.256
 4572TIP3   OH213658   0.023   4.590   1.261
 4572TIP3    H113659   0.084   4.535   1.311
 4572TIP3    H213660  -0.057   4.538   1.256
 4573TIP3   OH213661   0.570   5.733   1.686
 4573TIP3    H113662   0.632   5.660   1.684
 4573TIP3    H213663   0.561   5.755   1.779
 4574TIP3   OH213664   6.501   6.311   4.269
 4574TIP3    H113665   6.509   6.273   4.182
 4574TIP3    H213666   6.590   6.311   4.304
 4575TIP3   OH213667   7.431   5.875   2.713
 4575TIP3    H113668   7.509   5.925   2.690
 4575TIP3    H213669   7.426   5.879   2.808
 4576TIP3   OH213670   5.835   2.326   1.162
 4576TIP3    H113671   5.834   2.379   1.083
 4576TIP3    H213672   5.755   2.274   1.158
 4577TIP3   OH213673   1.978   4.047   2.288
 4577TIP3    H113674   1.950   3.956   2.284
 4577TIP3    H213675   1.899   4.096   2.308
 4578TIP3   OH213676   1.252   3.436   5.703
 4578TIP3    H113677   1.326   3.471   5.752
 4578TIP3    H213678   1.202   3.385   5.767
 4579TIP3   OH213679   2.825   0.564   3.190
 4579TIP3    H113680   2.738   0.556   3.230
 4579TIP3    H213681   2.811   0.621   3.114
 4580TIP3   OH213682   6.821   4.502   4.049
 4580TIP3    H113683   6.895   4.547   4.091
 4580TIP3    H213684   6.754   4.570   4.039
 4581TIP3   OH213685   7.788   2.291   6.060
 4581TIP3    H113686   7.880   2.306   6.040
 4581TIP3    H213687   7.786   2.277   6.155
 4582TIP3   OH213688   0.770   4.557   6.019
 4582TIP3    H113689   0.811   4.473   5.998
 4582TIP3    H213690   0.724   4.541   6.101
 4583TIP3   OH213691   7.213   0.819   0.934
 4583TIP3    H113692   7.286   0.833   0.994
 4583TIP3    H213693   7.226   0.883   0.864
 4584TIP3   OH213694   1.260   7.666   1.817
 4584TIP3    H113695   1.214   7.587   1.843
 4584TIP3    H213696   1.207   7.737   1.853
 4585TIP3   OH213697   2.735   1.047   1.182
 4585TIP3    H113698   2.814   1.049   1.237
 4585TIP3    H213699   2.662   1.049   1.245
 4586TIP3   OH213700   5.264   4.072   1.874
 4586TIP3    H113701   5.259   4.159   1.913
 4586TIP3    H213702   5.318   4.083   1.796
 4587TIP3   OH213703   3.003   6.238   3.468
 4587TIP3    H113704   3.092   6.210   3.490
 4587TIP3    H213705   2.987   6.314   3.524
 4588TIP3   OH213706   3.763   0.962   3.908
 4588TIP3    H113707   3.795   0.941   3.996
 4588TIP3    H213708   3.841   0.958   3.853
 4589TIP3   OH213709   6.147   7.084   3.687
 4589TIP3    H113710   6.238   7.059   3.705
 4589TIP3    H213711   6.102   7.073   3.771
 4590TIP3   OH213712   5.654   2.265   3.495
 4590TIP3    H113713   5.581   2.207   3.473
 4590TIP3    H213714   5.682   2.237   3.582
 4591TIP3   OH213715   3.594   6.850   0.876
 4591TIP3    H113716   3.542   6.852   0.795
 4591TIP3    H213717   3.598   6.942   0.903
 4592TIP3   OH213718   7.103   1.677   2.970
 4592TIP3    H113719   7.130   1.766   2.991
 4592TIP3    H213720   7.052   1.648   3.046
 4593TIP3   OH213721   2.943   7.238   1.358
 4593TIP3    H113722   2.910   7.282   1.280
 4593TIP3    H213723   2.920   7.146   1.347
 4594TIP3   OH213724   4.803   1.873   1.851
 4594TIP3    H113725   4.785   1.779   1.849
 4594TIP3    H213726   4.743   1.911   1.787
 4595TIP3   OH213727   3.460   1.819   1.704
 4595TIP3    H113728   3.546   1.800   1.665
 4595TIP3    H213729   3.418   1.878   1.641
 4596TIP3   OH213730   6.247   1.240   2.274
 4596TIP3    H113731   6.286   1.183   2.207
 4596TIP3    H213732   6.244   1.326   2.232
 4597TIP3   OH213733   0.601   6.170   1.808
 4597TIP3    H113734   0.627   6.226   1.735
 4597TIP3    H213735   0.641   6.085   1.789
 4598TIP3   OH213736   0.596   4.187   1.345
 4598TIP3    H113737   0.509   4.155   1.324
 4598TIP3    H213738   0.645   4.178   1.263
 4599TIP3   OH213739   3.030   1.545   3.556
 4599TIP3    H113740   2.958   1.607   3.553
 4599TIP3    H213741   3.085   1.568   3.481
 4600TIP3   OH213742   5.804   2.306   6.107
 4600TIP3    H113743   5.816   2.288   6.013
 4600TIP3    H213744   5.765   2.393   6.109
 4601TIP3   OH213745   8.000   3.437   6.842
 4601TIP3    H113746   7.987   3.515   6.788
 4601TIP3    H213747   8.046   3.376   6.785
 4602TIP3   OH213748   8.134   3.717   0.974
 4602TIP3    H113749   8.218   3.673   0.981
 4602TIP3    H213750   8.147   3.785   0.907
 4603TIP3   OH213751   6.852   4.801   0.957
 4603TIP3    H113752   6.883   4.736   1.020
 4603TIP3    H213753   6.822   4.874   1.011
 4604TIP3   OH213754   4.586   3.552   5.081
 4604TIP3    H113755   4.661   3.588   5.128
 4604TIP3    H213756   4.594   3.457   5.093
 4605TIP3   OH213757   1.984   6.013   6.085
 4605TIP3    H113758   1.937   5.949   6.032
 4605TIP3    H213759   1.939   6.013   6.169
 4606TIP3   OH213760   4.564   4.007   1.313
 4606TIP3    H113761   4.554   4.055   1.231
 4606TIP3    H213762   4.507   3.930   1.304
 4607TIP3   OH213763   5.539   1.703   5.585
 4607TIP3    H113764   5.614   1.701   5.645
 4607TIP3    H213765   5.488   1.625   5.607
 4608TIP3   OH213766   3.474   3.382   5.438
 4608TIP3    H113767   3.429   3.457   5.400
 4608TIP3    H213768   3.426   3.364   5.519
 4609TIP3   OH213769   0.947   7.499   5.771
 4609TIP3    H113770   1.009   7.443   5.818
 4609TIP3    H213771   0.865   7.489   5.818
 4610TIP3   OH213772   3.672   3.017   0.558
 4610TIP3    H113773   3.732   2.959   0.606
 4610TIP3    H213774   3.668   2.979   0.471
 4611TIP3   OH213775   5.602   0.361   3.726
 4611TIP3    H113776   5.563   0.378   3.812
 4611TIP3    H213777   5.604   0.447   3.684
 4612TIP3   OH213778   0.586   6.400   1.131
 4612TIP3    H113779   0.496   6.411   1.100
 4612TIP3    H213780   0.591   6.307   1.156
 4613TIP3   OH213781   5.126   1.200   2.243
 4613TIP3    H113782   5.213   1.235   2.225
 4613TIP3    H213783   5.137   1.105   2.243
 4614TIP3   OH213784   2.557   6.219   3.236
 4614TIP3    H113785   2.646   6.186   3.233
 4614TIP3    H213786   2.559   6.299   3.184
 4615TIP3   OH213787   8.062   1.386   3.533
 4615TIP3    H113788   8.043   1.428   3.450
 4615TIP3    H213789   8.145   1.425   3.561
 4616TIP3   OH213790   2.020   5.726   4.306
 4616TIP3    H113791   1.964   5.801   4.284
 4616TIP3    H213792   2.051   5.693   4.221
 4617TIP3   OH213793   0.492   3.554   1.787
 4617TIP3    H113794   0.543   3.535   1.708
 4617TIP3    H213795   0.416   3.602   1.755
 4618TIP3   OH213796   6.636   1.629   1.948
 4618TIP3    H113797   6.620   1.720   1.927
 4618TIP3    H213798   6.582   1.579   1.887
 4619TIP3   OH213799   6.209   5.540   3.497
 4619TIP3    H113800   6.222   5.446   3.482
 4619TIP3    H213801   6.114   5.551   3.503
 4620TIP3   OH213802   0.113   7.710   3.805
 4620TIP3    H113803   0.049   7.781   3.796
 4620TIP3    H213804   0.194   7.755   3.829
 4621TIP3   OH213805   6.962   0.188   4.052
 4621TIP3    H113806   6.944   0.094   4.056
 4621TIP3    H213807   7.042   0.199   4.104
 4622TIP3   OH213808   0.112   6.055   5.967
 4622TIP3    H113809   0.100   5.961   5.979
 4622TIP3    H213810   0.040   6.094   6.016
 4623TIP3   OH213811   4.207   1.807   5.682
 4623TIP3    H113812   4.192   1.810   5.587
 4623TIP3    H213813   4.246   1.892   5.703
 4624TIP3   OH213814   7.184   5.412   0.226
 4624TIP3    H113815   7.195   5.319   0.209
 4624TIP3    H213816   7.093   5.420   0.256
 4625TIP3   OH213817   5.795   7.360   4.207
 4625TIP3    H113818   5.706   7.397   4.201
 4625TIP3    H213819   5.851   7.428   4.169
 4626TIP3   OH213820   5.178   5.903   1.444
 4626TIP3    H113821   5.137   5.990   1.437
 4626TIP3    H213822   5.114   5.850   1.490
 4627TIP3   OH213823   0.861   6.527   2.688
 4627TIP3    H113824   0.954   6.510   2.705
 4627TIP3    H213825   0.856   6.540   2.593
 4628TIP3   OH213826   0.421   2.751   5.358
 4628TIP3    H113827   0.478   2.676   5.373
 4628TIP3    H213828   0.425   2.766   5.263
 4629TIP3   OH213829   0.455   1.969   5.177
 4629TIP3    H113830   0.394   1.925   5.119
 4629TIP3    H213831   0.400   2.013   5.242
 4630TIP3   OH213832   5.011   1.364   4.277
 4630TIP3    H113833   4.926   1.406   4.272
 4630TIP3    H213834   5.035   1.367   4.369
 4631TIP3   OH213835   1.282   3.121   3.871
 4631TIP3    H113836   1.313   3.184   3.936
 4631TIP3    H213837   1.215   3.070   3.916
 4632TIP3   OH213838   3.777   0.934   0.798
 4632TIP3    H113839   3.805   0.845   0.778
 4632TIP3    H213840   3.799   0.946   0.891
 4633TIP3   OH213841   6.696   5.588   0.376
 4633TIP3    H113842   6.634   5.589   0.449
 4633TIP3    H213843   6.650   5.633   0.305
 4634TIP3   OH213844   2.126   5.580   3.827
 4634TIP3    H113845   2.098   5.534   3.748
 4634TIP3    H213846   2.185   5.649   3.796
 4635TIP3   OH213847   5.454   0.563   6.049
 4635TIP3    H113848   5.530   0.609   6.013
 4635TIP3    H213849   5.386   0.573   5.982
 4636TIP3   OH213850   4.682   2.806   4.653
 4636TIP3    H113851   4.744   2.847   4.714
 4636TIP3    H213852   4.720   2.721   4.632
 4637TIP3   OH213853   4.215   1.972   4.339
 4637TIP3    H113854   4.188   1.925   4.260
 4637TIP3    H213855   4.198   1.911   4.410
 4638TIP3   OH213856   4.902   4.547   3.709
 4638TIP3    H113857   4.837   4.576   3.645
 4638TIP3    H213858   4.853   4.492   3.771
 4639TIP3   OH213859   6.960   0.264   0.233
 4639TIP3    H113860   7.040   0.243   0.282
 4639TIP3    H213861   6.992   0.303   0.152
 4640TIP3   OH213862   4.473   2.389   4.282
 4640TIP3    H113863   4.505   2.459   4.226
 4640TIP3    H213864   4.380   2.406   4.292
 4641TIP3   OH213865   4.406   6.321   1.828
 4641TIP3    H113866   4.426   6.411   1.853
 4641TIP3    H213867   4.368   6.328   1.740
 4642TIP3   OH213868   3.681   3.491   5.078
 4642TIP3    H113869   3.736   3.474   5.002
 4642TIP3    H213870   3.671   3.586   5.080
 4643TIP3   OH213871   3.458   2.172   3.679
 4643TIP3    H113872   3.532   2.170   3.740
 4643TIP3    H213873   3.498   2.157   3.593
 4644TIP3   OH213874   6.718   5.262   4.562
 4644TIP3    H113875   6.719   5.355   4.586
 4644TIP3    H213876   6.754   5.218   4.639
 4645TIP3   OH213877   8.023   4.762   1.159
 4645TIP3    H113878   7.931   4.746   1.178
 4645TIP3    H213879   8.027   4.770   1.064
 4646TIP3   OH213880   7.520   6.028   3.544
 4646TIP3    H113881   7.486   6.117   3.556
 4646TIP3    H213882   7.461   5.973   3.597
 4647TIP3   OH213883   1.316   0.627   5.578
 4647TIP3    H113884   1.308   0.602   5.486
 4647TIP3    H213885   1.227   0.646   5.606
 4648TIP3   OH213886   8.173   5.302   2.455
 4648TIP3    H113887   8.118   5.303   2.534
 4648TIP3    H213888   8.221   5.220   2.460
 4649TIP3   OH213889   1.868   2.859   4.092
 4649TIP3    H113890   1.850   2.823   4.005
 4649TIP3    H213891   1.790   2.911   4.113
 4650TIP3   OH213892   1.809   1.150   3.645
 4650TIP3    H113893   1.825   1.199   3.565
 4650TIP3    H213894   1.873   1.184   3.707
 4651TIP3   OH213895   5.828   5.566   0.789
 4651TIP3    H113896   5.867   5.652   0.803
 4651TIP3    H213897   5.834   5.552   0.695
 4652TIP3   OH213898   6.127   6.523   6.594
 4652TIP3    H113899   6.130   6.508   6.688
 4652TIP3    H213900   6.034   6.511   6.571
 4653TIP3   OH213901   0.203   7.219   1.043
 4653TIP3    H113902   0.136   7.249   0.981
 4653TIP3    H213903   0.165   7.236   1.129
 4654TIP3   OH213904   0.963   7.168   2.828
 4654TIP3    H113905   0.995   7.207   2.746
 4654TIP3    H213906   1.042   7.139   2.873
 4655TIP3   OH213907   6.700   4.549   4.975
 4655TIP3    H113908   6.691   4.621   4.911
 4655TIP3    H213909   6.685   4.470   4.923
 4656TIP3   OH213910   6.083   3.084   3.537
 4656TIP3    H113911   6.009   3.136   3.509
 4656TIP3    H213912   6.092   3.103   3.631
 4657TIP3   OH213913   7.257   6.083   2.313
 4657TIP3    H113914   7.225   6.048   2.230
 4657TIP3    H213915   7.342   6.122   2.292
 4658TIP3   OH213916   1.450   6.108   2.946
 4658TIP3    H113917   1.445   6.155   2.863
 4658TIP3    H213918   1.535   6.065   2.943
 4659TIP3   OH213919   6.110   6.763   5.307
 4659TIP3    H113920   6.080   6.849   5.277
 4659TIP3    H213921   6.202   6.759   5.280
 4660TIP3   OH213922   1.124   2.012   3.833
 4660TIP3    H113923   1.074   1.942   3.792
 4660TIP3    H213924   1.209   1.972   3.854
 4661TIP3   OH213925   0.653   0.249   4.053
 4661TIP3    H113926   0.602   0.304   3.995
 4661TIP3    H213927   0.640   0.160   4.019
 4662TIP3   OH213928   7.468   4.089   3.243
 4662TIP3    H113929   7.438   4.158   3.302
 4662TIP3    H213930   7.520   4.134   3.177
 4663TIP3   OH213931   1.475   3.053   4.771
 4663TIP3    H113932   1.424   3.102   4.707
 4663TIP3    H213933   1.537   3.116   4.807
 4664TIP3   OH213934   2.196   1.228   4.147
 4664TIP3    H113935   2.114   1.276   4.135
 4664TIP3    H213936   2.260   1.295   4.173
 4665TIP3   OH213937   4.965   6.369   3.594
 4665TIP3    H113938   4.971   6.288   3.645
 4665TIP3    H213939   4.871   6.389   3.592
 4666TIP3   OH213940   5.199   4.438   0.935
 4666TIP3    H113941   5.242   4.515   0.897
 4666TIP3    H213942   5.269   4.375   0.948
 4667TIP3   OH213943   5.837   6.440   4.574
 4667TIP3    H113944   5.775   6.500   4.616
 4667TIP3    H213945   5.784   6.385   4.517
 4668TIP3   OH213946   4.981   1.218   5.704
 4668TIP3    H113947   4.941   1.294   5.662
 4668TIP3    H213948   5.070   1.247   5.726
 4669TIP3   OH213949   5.340   5.932   6.069
 4669TIP3    H113950   5.386   5.861   6.114
 4669TIP3    H213951   5.383   6.012   6.099
 4670TIP3   OH213952   6.169   2.385   1.830
 4670TIP3    H113953   6.139   2.474   1.848
 4670TIP3    H213954   6.247   2.396   1.775
 4671TIP3   OH213955   6.925   6.949   1.397
 4671TIP3    H113956   6.947   6.975   1.486
 4671TIP3    H213957   6.853   7.008   1.372
 4672TIP3   OH213958   3.926   1.479   3.507
 4672TIP3    H113959   3.850   1.537   3.516
 4672TIP3    H213960   3.896   1.410   3.447
 4673TIP3   OH213961   0.129   3.104   2.075
 4673TIP3    H113962   0.106   3.168   2.008
 4673TIP3    H213963   0.135   3.155   2.156
 4674TIP3   OH213964   5.226   7.507   1.973
 4674TIP3    H113965   5.270   7.564   2.036
 4674TIP3    H213966   5.292   7.441   1.950
 4675TIP3   OH213967   6.327   3.389   0.543
 4675TIP3    H113968   6.371   3.473   0.532
 4675TIP3    H213969   6.319   3.378   0.638
 4676TIP3   OH213970   7.177   5.301   1.659
 4676TIP3    H113971   7.165   5.362   1.731
 4676TIP3    H213972   7.250   5.337   1.608
 4677TIP3   OH213973   1.699   7.378   4.141
 4677TIP3    H113974   1.687   7.425   4.058
 4677TIP3    H213975   1.610   7.355   4.168
 4678TIP3   OH213976   5.934   1.091   4.488
 4678TIP3    H113977   5.992   1.100   4.412
 4678TIP3    H213978   5.850   1.127   4.458
 4679TIP3   OH213979   6.029   7.280   2.646
 4679TIP3    H113980   6.002   7.200   2.600
 4679TIP3    H213981   5.976   7.280   2.726
 4680TIP3   OH213982   1.096   5.293   4.323
 4680TIP3    H113983   1.036   5.303   4.397
 4680TIP3    H213984   1.042   5.310   4.245
 4681TIP3   OH213985   4.014   4.544   0.915
 4681TIP3    H113986   4.078   4.475   0.932
 4681TIP3    H213987   3.963   4.549   0.996
 4682TIP3   OH213988   3.215   1.768   5.109
 4682TIP3    H113989   3.310   1.771   5.101
 4682TIP3    H213990   3.196   1.676   5.127
 4683TIP3   OH213991   1.142   4.595   5.147
 4683TIP3    H113992   1.154   4.508   5.108
 4683TIP3    H213993   1.222   4.642   5.125
 4684TIP3   OH213994   3.953   5.744   5.708
 4684TIP3    H113995   3.910   5.711   5.629
 4684TIP3    H213996   4.037   5.778   5.677
 4685TIP3   OH213997   4.845   6.225   5.283
 4685TIP3    H113998   4.781   6.284   5.322
 4685TIP3    H213999   4.867   6.164   5.354
 4686TIP3   OH214000   2.069   7.429   5.681
 4686TIP3    H114001   2.034   7.493   5.743
 4686TIP3    H214002   2.155   7.464   5.657
 4687TIP3   OH214003   0.032   6.725   4.510
 4687TIP3    H114004   0.105   6.667   4.534
 4687TIP3    H214005   0.075   6.801   4.470
 4688TIP3   OH214006   4.997   3.006   3.456
 4688TIP3    H114007   5.015   2.942   3.388
 4688TIP3    H214008   4.999   3.090   3.412
 4689TIP3   OH214009   1.715   7.806   5.100
 4689TIP3    H114010   1.716   7.769   5.012
 4689TIP3    H214011   1.665   7.887   5.091
 4690TIP3   OH214012   5.709   3.665   2.097
 4690TIP3    H114013   5.650   3.738   2.112
 4690TIP3    H214014   5.757   3.689   2.017
 4691TIP3   OH214015   6.609   5.036   2.904
 4691TIP3    H114016   6.694   5.078   2.893
 4691TIP3    H214017   6.609   4.965   2.840
 4692TIP3   OH214018   7.365   2.843   2.490
 4692TIP3    H114019   7.365   2.906   2.419
 4692TIP3    H214020   7.457   2.818   2.500
 4693TIP3   OH214021   3.265   4.210   1.474
 4693TIP3    H114022   3.268   4.259   1.391
 4693TIP3    H214023   3.327   4.139   1.462
 4694TIP3   OH214024   6.036   2.088   5.657
 4694TIP3    H114025   6.033   2.126   5.569
 4694TIP3    H214026   6.060   2.160   5.714
 4695TIP3   OH214027   4.727   1.824   5.115
 4695TIP3    H114028   4.794   1.800   5.180
 4695TIP3    H214029   4.647   1.835   5.166
 4696TIP3   OH214030   5.622   2.090   0.584
 4696TIP3    H114031   5.616   2.150   0.510
 4696TIP3    H214032   5.566   2.016   0.560
 4697TIP3   OH214033   1.956   6.451   4.043
 4697TIP3    H114034   1.865   6.466   4.017
 4697TIP3    H214035   2.008   6.493   3.974
 4698TIP3   OH214036   1.139   2.821   2.284
 4698TIP3    H114037   1.114   2.905   2.324
 4698TIP3    H214038   1.204   2.785   2.343
 4699TIP3   OH214039   7.167   4.935   2.387
 4699TIP3    H114040   7.177   5.006   2.323
 4699TIP3    H214041   7.158   4.979   2.471
 4700TIP3   OH214042   1.016   2.944   5.222
 4700TIP3    H114043   0.946   2.992   5.179
 4700TIP3    H214044   0.971   2.880   5.277
 4701TIP3   OH214045   6.475   2.875   6.610
 4701TIP3    H114046   6.496   2.791   6.570
 4701TIP3    H214047   6.452   2.931   6.535
 4702TIP3   OH214048   2.905   5.255   4.582
 4702TIP3    H114049   2.880   5.165   4.559
 4702TIP3    H214050   2.991   5.246   4.623
 4703TIP3   OH214051   3.010   3.843   2.128
 4703TIP3    H114052   2.941   3.902   2.096
 4703TIP3    H214053   3.081   3.902   2.153
 4704TIP3   OH214054   5.508   1.501   5.921
 4704TIP3    H114055   5.522   1.472   5.831
 4704TIP3    H214056   5.583   1.558   5.939
 4705TIP3   OH214057   1.179   2.304   2.192
 4705TIP3    H114058   1.263   2.289   2.236
 4705TIP3    H214059   1.145   2.216   2.175
 4706TIP3   OH214060   8.086   0.258   2.530
 4706TIP3    H114061   8.145   0.246   2.604
 4706TIP3    H214062   8.065   0.169   2.501
 4707TIP3   OH214063   5.561   6.248   5.895
 4707TIP3    H114064   5.590   6.300   5.820
 4707TIP3    H214065   5.501   6.305   5.942
 4708TIP3   OH214066   7.312   5.567   1.648
 4708TIP3    H114067   7.248   5.603   1.710
 4708TIP3    H214068   7.264   5.563   1.565
 4709TIP3   OH214069   4.529   5.768   3.439
 4709TIP3    H114070   4.552   5.847   3.390
 4709TIP3    H214071   4.603   5.709   3.425
 4710TIP3   OH214072   4.830   1.228   4.516
 4710TIP3    H114073   4.833   1.160   4.584
 4710TIP3    H214074   4.913   1.276   4.526
 4711TIP3   OH214075   8.203   5.654   3.237
 4711TIP3    H114076   8.157   5.722   3.187
 4711TIP3    H214077   8.133   5.597   3.269
 4712TIP3   OH214078   1.864   4.854   4.358
 4712TIP3    H114079   1.786   4.800   4.349
 4712TIP3    H214080   1.888   4.845   4.450
 4713TIP3   OH214081   7.834   1.747   6.510
 4713TIP3    H114082   7.829   1.833   6.552
 4713TIP3    H214083   7.765   1.749   6.443
 4714TIP3   OH214084   4.115   3.742   2.707
 4714TIP3    H114085   4.109   3.693   2.625
 4714TIP3    H214086   4.158   3.681   2.767
 4715TIP3   OH214087   1.647   2.380   0.191
 4715TIP3    H114088   1.552   2.371   0.181
 4715TIP3    H214089   1.683   2.302   0.148
 4716TIP3   OH214090   6.199   5.371   3.995
 4716TIP3    H114091   6.276   5.357   3.940
 4716TIP3    H214092   6.162   5.284   4.008
 4717TIP3   OH214093   4.602   4.035   4.101
 4717TIP3    H114094   4.601   4.128   4.081
 4717TIP3    H214095   4.578   4.030   4.194
 4718TIP3   OH214096   4.671   4.614   0.103
 4718TIP3    H114097   4.695   4.538   0.050
 4718TIP3    H214098   4.708   4.689   0.055
 4719TIP3   OH214099   8.004   3.016   2.610
 4719TIP3    H114100   7.988   3.051   2.697
 4719TIP3    H214101   7.992   3.090   2.551
 4720TIP3   OH214102   0.314   4.917   4.158
 4720TIP3    H114103   0.327   4.918   4.253
 4720TIP3    H214104   0.270   4.833   4.141
 4721TIP3   OH214105   4.037   1.070   4.782
 4721TIP3    H114106   4.040   0.980   4.816
 4721TIP3    H214107   4.115   1.077   4.726
 4722TIP3   OH214108   1.967   1.674   6.677
 4722TIP3    H114109   2.038   1.617   6.707
 4722TIP3    H214110   1.891   1.646   6.728
 4723TIP3   OH214111   5.326   2.102   6.076
 4723TIP3    H114112   5.415   2.125   6.047
 4723TIP3    H214113   5.339   2.064   6.163
 4724TIP3   OH214114   6.032   1.987   2.435
 4724TIP3    H114115   6.052   2.024   2.521
 4724TIP3    H214116   6.064   1.897   2.440
 4725TIP3   OH214117   7.926   3.340   3.445
 4725TIP3    H114118   7.987   3.412   3.433
 4725TIP3    H214119   7.849   3.364   3.395
 4726TIP3   OH214120   8.270   2.369   1.430
 4726TIP3    H114121   8.213   2.336   1.361
 4726TIP3    H214122   8.238   2.327   1.510
 4727TIP3   OH214123   0.287   2.042   0.073
 4727TIP3    H114124   0.191   2.039   0.068
 4727TIP3    H214125   0.316   2.019  -0.015
 4728TIP3   OH214126   3.382   2.300   5.679
 4728TIP3    H114127   3.428   2.368   5.631
 4728TIP3    H214128   3.419   2.218   5.647
 4729TIP3   OH214129   0.222   6.556   5.366
 4729TIP3    H114130   0.146   6.582   5.315
 4729TIP3    H214131   0.196   6.475   5.409
 4730TIP3   OH214132   3.797   4.306   0.542
 4730TIP3    H114133   3.782   4.362   0.618
 4730TIP3    H214134   3.733   4.335   0.477
 4731TIP3   OH214135   2.573   5.178   4.616
 4731TIP3    H114136   2.479   5.168   4.635
 4731TIP3    H214137   2.576   5.251   4.554
 4732TIP3   OH214138   6.087   2.903   0.860
 4732TIP3    H114139   6.033   2.931   0.786
 4732TIP3    H214140   6.170   2.948   0.848
 4733TIP3   OH214141   2.857   1.383   1.063
 4733TIP3    H114142   2.933   1.434   1.035
 4733TIP3    H214143   2.823   1.431   1.138
 4734TIP3   OH214144   7.817   4.667   6.599
 4734TIP3    H114145   7.838   4.674   6.506
 4734TIP3    H214146   7.896   4.696   6.645
 4735TIP3   OH214147   2.300   0.600   4.971
 4735TIP3    H114148   2.282   0.612   4.878
 4735TIP3    H214149   2.374   0.659   4.988
 4736TIP3   OH214150   7.267   5.708   0.870
 4736TIP3    H114151   7.312   5.694   0.787
 4736TIP3    H214152   7.215   5.787   0.857
 4737TIP3   OH214153   4.363   7.882   6.607
 4737TIP3    H114154   4.299   7.825   6.649
 4737TIP3    H214155   4.410   7.824   6.546
 4738TIP3   OH214156   1.442   6.336   4.141
 4738TIP3    H114157   1.380   6.268   4.165
 4738TIP3    H214158   1.391   6.398   4.088
 4739TIP3   OH214159   5.544   2.146   4.972
 4739TIP3    H114160   5.636   2.119   4.968
 4739TIP3    H214161   5.543   2.235   4.937
 4740TIP3   OH214162   0.764   3.722   6.302
 4740TIP3    H114163   0.691   3.720   6.364
 4740TIP3    H214164   0.840   3.694   6.352
 4741TIP3   OH214165   2.602   6.233   1.437
 4741TIP3    H114166   2.689   6.208   1.405
 4741TIP3    H214167   2.557   6.265   1.359
 4742TIP3   OH214168   3.838   5.597   3.488
 4742TIP3    H114169   3.897   5.671   3.488
 4742TIP3    H214170   3.846   5.559   3.575
 4743TIP3   OH214171   7.301   6.100   6.035
 4743TIP3    H114172   7.292   6.022   6.090
 4743TIP3    H214173   7.290   6.067   5.946
 4744TIP3   OH214174   1.622   2.859   1.390
 4744TIP3    H114175   1.657   2.927   1.332
 4744TIP3    H214176   1.555   2.904   1.441
 4745TIP3   OH214177   4.076   7.430   5.776
 4745TIP3    H114178   3.983   7.430   5.755
 4745TIP3    H214179   4.117   7.376   5.709
 4746TIP3   OH214180   0.929   0.754   5.345
 4746TIP3    H114181   0.887   0.838   5.363
 4746TIP3    H214182   0.895   0.728   5.260
 4747TIP3   OH214183   2.396   3.875   3.106
 4747TIP3    H114184   2.377   3.935   3.179
 4747TIP3    H214185   2.449   3.927   3.046
 4748TIP3   OH214186   6.270   4.554   5.825
 4748TIP3    H114187   6.202   4.545   5.759
 4748TIP3    H214188   6.303   4.465   5.839
 4749TIP3   OH214189   5.198   4.626   6.472
 4749TIP3    H114190   5.126   4.666   6.521
 4749TIP3    H214191   5.180   4.650   6.381
 4750TIP3   OH214192   0.809   7.632   5.280
 4750TIP3    H114193   0.766   7.699   5.333
 4750TIP3    H214194   0.819   7.557   5.338
 4751TIP3   OH214195   4.719   3.681   4.842
 4751TIP3    H114196   4.641   3.650   4.796
 4751TIP3    H214197   4.761   3.602   4.876
 4752TIP3   OH214198   7.264   2.263   2.696
 4752TIP3    H114199   7.217   2.181   2.683
 4752TIP3    H214200   7.220   2.306   2.769
 4753TIP3   OH214201   4.942   2.945   2.185
 4753TIP3    H114202   4.862   2.922   2.137
 4753TIP3    H214203   4.921   3.030   2.225
 4754TIP3   OH214204   6.915   4.530   0.093
 4754TIP3    H114205   6.832   4.484   0.104
 4754TIP3    H214206   6.950   4.496   0.010
 4755TIP3   OH214207   5.304   3.413   3.926
 4755TIP3    H114208   5.288   3.401   4.020
 4755TIP3    H214209   5.325   3.506   3.918
 4756TIP3   OH214210   0.599   2.379   0.505
 4756TIP3    H114211   0.675   2.358   0.450
 4756TIP3    H214212   0.525   2.383   0.445
 4757TIP3   OH214213   5.212   6.824   5.248
 4757TIP3    H114214   5.193   6.807   5.156
 4757TIP3    H214215   5.152   6.767   5.296
 4758TIP3   OH214216   7.557   5.346   5.609
 4758TIP3    H114217   7.616   5.305   5.546
 4758TIP3    H214218   7.589   5.316   5.694
 4759TIP3   OH214219   1.089   6.336   5.939
 4759TIP3    H114220   1.097   6.246   5.969
 4759TIP3    H214221   1.055   6.328   5.850
 4760TIP3   OH214222   4.321   4.394   6.461
 4760TIP3    H114223   4.360   4.451   6.394
 4760TIP3    H214224   4.292   4.454   6.530
 4761TIP3   OH214225   5.440   7.188   1.395
 4761TIP3    H114226   5.446   7.194   1.491
 4761TIP3    H214227   5.357   7.231   1.373
 4762TIP3   OH214228   7.904   2.453   1.905
 4762TIP3    H114229   7.894   2.415   1.818
 4762TIP3    H214230   7.990   2.496   1.903
 4763TIP3   OH214231   6.496   6.243   0.085
 4763TIP3    H114232   6.480   6.164   0.034
 4763TIP3    H214233   6.502   6.313   0.020
 4764TIP3   OH214234   5.157   6.083   5.023
 4764TIP3    H114235   5.155   6.054   5.114
 4764TIP3    H214236   5.140   6.004   4.972
 4765TIP3   OH214237   5.228   4.649   2.610
 4765TIP3    H114238   5.159   4.666   2.674
 4765TIP3    H214239   5.256   4.559   2.628
 4766TIP3   OH214240   4.493   6.149   3.990
 4766TIP3    H114241   4.559   6.219   3.990
 4766TIP3    H214242   4.520   6.090   3.920
 4767TIP3   OH214243   2.523   5.427   4.464
 4767TIP3    H114244   2.542   5.513   4.427
 4767TIP3    H214245   2.433   5.409   4.437
 4768TIP3   OH214246   3.358   1.400   5.805
 4768TIP3    H114247   3.434   1.457   5.814
 4768TIP3    H214248   3.284   1.461   5.801
 4769TIP3   OH214249   1.954   2.617   4.925
 4769TIP3    H114250   1.952   2.523   4.907
 4769TIP3    H214251   2.047   2.640   4.921
 4770TIP3   OH214252   2.728   3.883   4.430
 4770TIP3    H114253   2.822   3.899   4.436
 4770TIP3    H214254   2.700   3.932   4.353
 4771TIP3   OH214255   7.968   6.930   3.583
 4771TIP3    H114256   7.876   6.954   3.579
 4771TIP3    H214257   7.982   6.878   3.503
 4772TIP3   OH214258   4.788   2.572   4.554
 4772TIP3    H114259   4.873   2.531   4.541
 4772TIP3    H214260   4.727   2.498   4.564
 4773TIP3   OH214261   3.379   3.590   0.029
 4773TIP3    H114262   3.327   3.550   0.100
 4773TIP3    H214263   3.449   3.637   0.075
 4774TIP3   OH214264   6.661   1.715   4.112
 4774TIP3    H114265   6.588   1.774   4.094
 4774TIP3    H214266   6.711   1.712   4.031
 4775TIP3   OH214267   1.875   2.786   6.027
 4775TIP3    H114268   1.880   2.774   5.932
 4775TIP3    H214269   1.793   2.745   6.053
 4776TIP3   OH214270   2.758   5.496   1.630
 4776TIP3    H114271   2.707   5.572   1.600
 4776TIP3    H214272   2.838   5.499   1.578
 4777TIP3   OH214273   1.311   4.506   2.063
 4777TIP3    H114274   1.311   4.438   1.995
 4777TIP3    H214275   1.403   4.530   2.072
 4778TIP3   OH214276   7.418   0.227   2.568
 4778TIP3    H114277   7.400   0.144   2.523
 4778TIP3    H214278   7.401   0.208   2.660
 4779TIP3   OH214279   0.006   5.251   4.502
 4779TIP3    H114280  -0.018   5.160   4.488
 4779TIP3    H214281   0.029   5.257   4.594
 4780TIP3   OH214282   2.755   4.187   2.678
 4780TIP3    H114283   2.680   4.132   2.700
 4780TIP3    H214284   2.767   4.173   2.584
 4781TIP3   OH214285   7.338   4.499   4.895
 4781TIP3    H114286   7.332   4.448   4.814
 4781TIP3    H214287   7.429   4.489   4.922
 4782TIP3   OH214288   2.456   5.164   6.736
 4782TIP3    H114289   2.395   5.091   6.726
 4782TIP3    H214290   2.504   5.167   6.653
 4783TIP3   OH214291   8.219   6.684   1.174
 4783TIP3    H114292   8.268   6.673   1.255
 4783TIP3    H214293   8.208   6.779   1.165
 4784TIP3   OH214294   3.598   4.711   1.324
 4784TIP3    H114295   3.577   4.798   1.358
 4784TIP3    H214296   3.676   4.685   1.373
 4785TIP3   OH214297   2.602   5.045   1.299
 4785TIP3    H114298   2.583   5.084   1.384
 4785TIP3    H214299   2.516   5.032   1.260
 4786TIP3   OH214300   7.940   7.013   2.855
 4786TIP3    H114301   7.858   7.048   2.890
 4786TIP3    H214302   7.996   7.002   2.932
 4787TIP3   OH214303   2.186   5.380   3.309
 4787TIP3    H114304   2.246   5.435   3.358
 4787TIP3    H214305   2.239   5.342   3.240
 4788TIP3   OH214306   2.735   1.995   2.736
 4788TIP3    H114307   2.782   1.973   2.816
 4788TIP3    H214308   2.647   1.961   2.749
 4789TIP3   OH214309   5.531   3.825   2.253
 4789TIP3    H114310   5.450   3.788   2.218
 4789TIP3    H214311   5.522   3.818   2.348
 4790TIP3   OH214312   0.627   4.340   4.375
 4790TIP3    H114313   0.606   4.417   4.428
 4790TIP3    H214314   0.641   4.374   4.287
 4791TIP3   OH214315   1.697   0.018   2.410
 4791TIP3    H114316   1.730   0.108   2.407
 4791TIP3    H214317   1.601   0.028   2.409
 4792TIP3   OH214318   3.416   7.202   5.052
 4792TIP3    H114319   3.447   7.133   4.994
 4792TIP3    H214320   3.429   7.167   5.140
 4793TIP3   OH214321   7.147   1.359   2.792
 4793TIP3    H114322   7.167   1.267   2.776
 4793TIP3    H214323   7.210   1.387   2.859
 4794TIP3   OH214324   1.412   2.890   5.214
 4794TIP3    H114325   1.471   2.905   5.139
 4794TIP3    H214326   1.344   2.956   5.205
 4795TIP3   OH214327   1.402   2.313   0.054
 4795TIP3    H114328   1.354   2.230   0.053
 4795TIP3    H214329   1.342   2.374   0.096
 4796TIP3   OH214330   3.146   5.103   3.969
 4796TIP3    H114331   3.190   5.173   3.920
 4796TIP3    H214332   3.098   5.150   4.038
 4797TIP3   OH214333   5.823   4.993   4.280
 4797TIP3    H114334   5.869   5.076   4.266
 4797TIP3    H214335   5.835   4.974   4.373
 4798TIP3   OH214336   1.569   3.321   5.794
 4798TIP3    H114337   1.610   3.356   5.715
 4798TIP3    H214338   1.596   3.380   5.864
 4799TIP3   OH214339   8.044   6.006   1.409
 4799TIP3    H114340   7.977   5.983   1.345
 4799TIP3    H214341   8.118   5.949   1.389
 4800TIP3   OH214342   0.460   6.446   1.471
 4800TIP3    H114343   0.446   6.469   1.563
 4800TIP3    H214344   0.439   6.352   1.467
 4801TIP3   OH214345   5.074   6.986   1.021
 4801TIP3    H114346   5.042   6.937   1.096
 4801TIP3    H214347   5.131   6.924   0.974
 4802TIP3   OH214348   2.391   2.904   1.263
 4802TIP3    H114349   2.316   2.956   1.234
 4802TIP3    H214350   2.354   2.819   1.287
 4803TIP3   OH214351   5.788   6.216   0.181
 4803TIP3    H114352   5.697   6.187   0.191
 4803TIP3    H214353   5.835   6.171   0.251
 4804TIP3   OH214354   7.764   7.120   2.288
 4804TIP3    H114355   7.812   7.065   2.349
 4804TIP3    H214356   7.761   7.069   2.207
 4805TIP3   OH214357   5.093   2.282   2.632
 4805TIP3    H114358   5.149   2.276   2.555
 4805TIP3    H214359   5.005   2.288   2.597
 4806TIP3   OH214360   3.129   4.172   4.556
 4806TIP3    H114361   3.216   4.150   4.525
 4806TIP3    H214362   3.142   4.201   4.646
 4807TIP3   OH214363   3.784   4.786   3.810
 4807TIP3    H114364   3.776   4.704   3.762
 4807TIP3    H214365   3.754   4.765   3.898
 4808TIP3   OH214366   0.715   3.269   2.913
 4808TIP3    H114367   0.633   3.294   2.956
 4808TIP3    H214368   0.782   3.292   2.976
 4809TIP3   OH214369   0.418   0.145   6.735
 4809TIP3    H114370   0.498   0.114   6.692
 4809TIP3    H214371   0.403   0.232   6.700
 4810TIP3   OH214372   7.127   7.621   4.922
 4810TIP3    H114373   7.053   7.656   4.872
 4810TIP3    H214374   7.105   7.641   5.013
 4811TIP3   OH214375   6.140   3.509   4.532
 4811TIP3    H114376   6.087   3.493   4.610
 4811TIP3    H214377   6.230   3.490   4.559
 4812TIP3   OH214378   0.067   5.974   6.635
 4812TIP3    H114379   0.139   6.031   6.609
 4812TIP3    H214380   0.101   5.925   6.709
 4813TIP3   OH214381   4.212   7.818   2.623
 4813TIP3    H114382   4.209   7.731   2.585
 4813TIP3    H214383   4.173   7.875   2.556
 4814TIP3   OH214384   5.937   6.496   1.968
 4814TIP3    H114385   5.993   6.419   1.958
 4814TIP3    H214386   5.996   6.571   1.959
 4815TIP3   OH214387   0.030   0.785   6.041
 4815TIP3    H114388   0.060   0.875   6.056
 4815TIP3    H214389  -0.019   0.790   5.959
 4816TIP3   OH214390   2.106   5.794   5.675
 4816TIP3    H114391   2.062   5.877   5.690
 4816TIP3    H214392   2.199   5.816   5.676
 4817TIP3   OH214393   6.718   3.498   6.203
 4817TIP3    H114394   6.754   3.548   6.277
 4817TIP3    H214395   6.654   3.558   6.163
 4818TIP3   OH214396   2.155   1.105   1.862
 4818TIP3    H114397   2.154   1.191   1.904
 4818TIP3    H214398   2.168   1.044   1.934
 4819TIP3   OH214399   0.301   1.382   0.393
 4819TIP3    H114400   0.373   1.411   0.336
 4819TIP3    H214401   0.270   1.462   0.435
 4820TIP3   OH214402   1.421   5.309   4.408
 4820TIP3    H114403   1.326   5.314   4.399
 4820TIP3    H214404   1.456   5.349   4.328
 4821TIP3   OH214405   1.354   4.580   1.273
 4821TIP3    H114406   1.273   4.590   1.222
 4821TIP3    H214407   1.403   4.661   1.255
 4822TIP3   OH214408   2.578   6.070   0.567
 4822TIP3    H114409   2.568   6.098   0.476
 4822TIP3    H214410   2.552   5.978   0.567
 4823TIP3   OH214411   1.325   5.657   5.520
 4823TIP3    H114412   1.412   5.691   5.543
 4823TIP3    H214413   1.344   5.584   5.461
 4824TIP3   OH214414   1.541   1.365   3.584
 4824TIP3    H114415   1.613   1.362   3.521
 4824TIP3    H214416   1.545   1.280   3.629
 4825TIP3   OH214417   6.105   1.336   2.711
 4825TIP3    H114418   6.061   1.283   2.645
 4825TIP3    H214419   6.042   1.403   2.734
 4826TIP3   OH214420   5.848   3.658   0.455
 4826TIP3    H114421   5.846   3.683   0.363
 4826TIP3    H214422   5.764   3.616   0.471
 4827TIP3   OH214423   7.290   7.681   0.587
 4827TIP3    H114424   7.240   7.762   0.595
 4827TIP3    H214425   7.379   7.705   0.613
 4828TIP3   OH214426   6.773   0.938   2.562
 4828TIP3    H114427   6.814   0.987   2.491
 4828TIP3    H214428   6.776   0.997   2.637
 4829TIP3   OH214429   6.494   3.704   5.827
 4829TIP3    H114430   6.564   3.668   5.772
 4829TIP3    H214431   6.429   3.735   5.764
 4830TIP3   OH214432   5.525   6.042   3.354
 4830TIP3    H114433   5.589   6.003   3.413
 4830TIP3    H214434   5.561   6.029   3.267
 4831TIP3   OH214435   6.140   5.656   4.145
 4831TIP3    H114436   6.221   5.686   4.185
 4831TIP3    H214437   6.072   5.676   4.210
 4832TIP3   OH214438   0.040   3.374   5.326
 4832TIP3    H114439   0.092   3.321   5.387
 4832TIP3    H214440   0.056   3.464   5.354
 4833TIP3   OH214441   0.183   1.247   2.248
 4833TIP3    H114442   0.122   1.197   2.194
 4833TIP3    H214443   0.233   1.181   2.295
 4834TIP3   OH214444   4.718   5.993   6.726
 4834TIP3    H114445   4.726   6.026   6.636
 4834TIP3    H214446   4.797   6.025   6.770
 4835TIP3   OH214447   7.527   4.983   0.259
 4835TIP3    H114448   7.506   5.044   0.330
 4835TIP3    H214449   7.544   4.900   0.303
 4836TIP3   OH214450   2.808   4.372   6.243
 4836TIP3    H114451   2.734   4.369   6.304
 4836TIP3    H214452   2.883   4.400   6.296
 4837TIP3   OH214453   7.827   5.877   0.608
 4837TIP3    H114454   7.872   5.913   0.532
 4837TIP3    H214455   7.893   5.824   0.652
 4838TIP3   OH214456   7.421   0.054   1.446
 4838TIP3    H114457   7.479   0.130   1.446
 4838TIP3    H214458   7.457  -0.003   1.515
 4839TIP3   OH214459   1.105   6.315   1.673
 4839TIP3    H114460   1.198   6.316   1.695
 4839TIP3    H214461   1.064   6.266   1.745
 4840TIP3   OH214462   8.170   3.804   0.722
 4840TIP3    H114463   8.207   3.727   0.681
 4840TIP3    H214464   8.077   3.802   0.698
 4841TIP3   OH214465   8.064   1.974   1.951
 4841TIP3    H114466   8.032   2.054   1.993
 4841TIP3    H214467   7.999   1.952   1.885
 4842TIP3   OH214468   0.565   0.201   2.023
 4842TIP3    H114469   0.644   0.155   1.995
 4842TIP3    H214470   0.591   0.248   2.102
 4843TIP3   OH214471   0.740   3.701   0.133
 4843TIP3    H114472   0.673   3.680   0.067
 4843TIP3    H214473   0.723   3.640   0.205
 4844TIP3   OH214474   0.089   0.566   4.156
 4844TIP3    H114475   0.012   0.516   4.129
 4844TIP3    H214476   0.057   0.655   4.169
 4845TIP3   OH214477   0.835   0.854   3.463
 4845TIP3    H114478   0.829   0.936   3.513
 4845TIP3    H214479   0.873   0.792   3.525
 4846TIP3   OH214480   3.898   1.193   5.703
 4846TIP3    H114481   3.809   1.223   5.720
 4846TIP3    H214482   3.946   1.273   5.679
 4847TIP3   OH214483   8.300   7.792   5.850
 4847TIP3    H114484   8.306   7.835   5.935
 4847TIP3    H214485   8.208   7.767   5.843
 4848TIP3   OH214486   1.987   5.313   2.997
 4848TIP3    H114487   2.078   5.304   3.025
 4848TIP3    H214488   1.991   5.316   2.901
 4849TIP3   OH214489   0.945   4.012   5.082
 4849TIP3    H114490   1.022   4.040   5.034
 4849TIP3    H214491   0.916   3.933   5.036
 4850TIP3   OH214492   7.700   3.782   5.498
 4850TIP3    H114493   7.760   3.755   5.567
 4850TIP3    H214494   7.616   3.742   5.523
 4851TIP3   OH214495   0.729   4.568   6.519
 4851TIP3    H114496   0.810   4.516   6.523
 4851TIP3    H214497   0.758   4.659   6.528
 4852TIP3   OH214498   5.323   7.688   6.549
 4852TIP3    H114499   5.268   7.766   6.541
 4852TIP3    H214500   5.377   7.689   6.470
 4853TIP3   OH214501   2.203   2.164   4.767
 4853TIP3    H114502   2.220   2.253   4.799
 4853TIP3    H214503   2.237   2.107   4.837
 4854TIP3   OH214504   2.653   2.882   2.178
 4854TIP3    H114505   2.655   2.939   2.255
 4854TIP3    H214506   2.708   2.807   2.202
 4855TIP3   OH214507   0.597   6.328   3.921
 4855TIP3    H114508   0.535   6.334   3.994
 4855TIP3    H214509   0.589   6.238   3.890
 4856TIP3   OH214510   6.591   5.657   2.102
 4856TIP3    H114511   6.607   5.562   2.099
 4856TIP3    H214512   6.669   5.693   2.144
 4857TIP3   OH214513   6.532   0.461   0.639
 4857TIP3    H114514   6.579   0.392   0.592
 4857TIP3    H214515   6.448   0.422   0.662
 4858TIP3   OH214516   3.723   4.508   2.212
 4858TIP3    H114517   3.688   4.515   2.123
 4858TIP3    H214518   3.798   4.566   2.214
 4859TIP3   OH214519   3.842   4.517   0.296
 4859TIP3    H114520   3.899   4.481   0.364
 4859TIP3    H214521   3.765   4.549   0.344
 4860TIP3   OH214522   3.543   1.328   3.084
 4860TIP3    H114523   3.623   1.310   3.133
 4860TIP3    H214524   3.475   1.281   3.133
 4861TIP3   OH214525   6.827   6.344   2.352
 4861TIP3    H114526   6.849   6.377   2.439
 4861TIP3    H214527   6.746   6.295   2.364
 4862TIP3   OH214528   6.220   3.653   0.872
 4862TIP3    H114529   6.186   3.698   0.949
 4862TIP3    H214530   6.156   3.671   0.803
 4863TIP3   OH214531   5.351   0.123   3.835
 4863TIP3    H114532   5.351   0.206   3.882
 4863TIP3    H214533   5.267   0.083   3.855
 4864TIP3   OH214534   7.469   0.562   1.923
 4864TIP3    H114535   7.556   0.598   1.907
 4864TIP3    H214536   7.454   0.503   1.850
 4865TIP3   OH214537   4.046   2.709   5.634
 4865TIP3    H114538   3.969   2.757   5.606
 4865TIP3    H214539   4.088   2.682   5.553
 4866TIP3   OH214540   4.626   2.286   0.663
 4866TIP3    H114541   4.533   2.275   0.641
 4866TIP3    H214542   4.647   2.375   0.634
 4867TIP3   OH214543   3.672   5.806   4.092
 4867TIP3    H114544   3.669   5.877   4.156
 4867TIP3    H214545   3.703   5.730   4.143
 4868TIP3   OH214546   6.874   0.981   4.192
 4868TIP3    H114547   6.894   0.996   4.100
 4868TIP3    H214548   6.959   0.964   4.233
 4869TIP3   OH214549   4.773   0.264   3.167
 4869TIP3    H114550   4.832   0.210   3.115
 4869TIP3    H214551   4.809   0.263   3.255
 4870TIP3   OH214552   6.548   2.821   6.080
 4870TIP3    H114553   6.519   2.770   6.005
 4870TIP3    H214554   6.469   2.831   6.134
 4871TIP3   OH214555   3.150   6.005   3.562
 4871TIP3    H114556   3.059   5.993   3.590
 4871TIP3    H214557   3.198   6.014   3.644
 4872TIP3   OH214558   5.044   4.030   5.668
 4872TIP3    H114559   5.135   4.059   5.674
 4872TIP3    H214560   4.997   4.107   5.637
 4873TIP3   OH214561   6.519   5.371   6.212
 4873TIP3    H114562   6.530   5.344   6.303
 4873TIP3    H214563   6.554   5.460   6.208
 4874TIP3   OH214564   6.460   3.121   2.703
 4874TIP3    H114565   6.551   3.097   2.685
 4874TIP3    H214566   6.433   3.061   2.773
 4875TIP3   OH214567   4.846   7.135   1.634
 4875TIP3    H114568   4.920   7.133   1.694
 4875TIP3    H214569   4.879   7.093   1.554
 4876TIP3   OH214570  -0.009   0.932   0.147
 4876TIP3    H114571   0.085   0.940   0.163
 4876TIP3    H214572  -0.017   0.935   0.052
 4877TIP3   OH214573   5.037   3.412   4.383
 4877TIP3    H114574   5.007   3.322   4.393
 4877TIP3    H214575   5.056   3.442   4.472
 4878TIP3   OH214576   7.975   2.184   2.738
 4878TIP3    H114577   7.904   2.192   2.674
 4878TIP3    H214578   7.937   2.135   2.810
 4879TIP3   OH214579   4.597   7.245   5.432
 4879TIP3    H114580   4.536   7.291   5.375
 4879TIP3    H214581   4.633   7.175   5.378
 4880TIP3   OH214582   2.394   2.598   2.929
 4880TIP3    H114583   2.325   2.538   2.957
 4880TIP3    H214584   2.413   2.572   2.839
 4881TIP3   OH214585   5.947   2.104   5.059
 4881TIP3    H114586   6.030   2.151   5.061
 4881TIP3    H214587   5.911   2.117   5.147
 4882TIP3   OH214588   2.142   4.101   3.028
 4882TIP3    H114589   2.214   4.069   2.974
 4882TIP3    H214590   2.129   4.034   3.094
 4883TIP3   OH214591   1.455   3.167   5.360
 4883TIP3    H114592   1.432   3.131   5.445
 4883TIP3    H214593   1.378   3.150   5.305
 4884TIP3   OH214594   8.075   7.335   6.342
 4884TIP3    H114595   8.027   7.304   6.418
 4884TIP3    H214596   8.115   7.257   6.304
 4885TIP3   OH214597   8.023   1.641   1.047
 4885TIP3    H114598   7.942   1.617   1.002
 4885TIP3    H214599   8.080   1.674   0.978
 4886TIP3   OH214600   6.931   1.957   5.602
 4886TIP3    H114601   7.007   2.012   5.581
 4886TIP3    H214602   6.965   1.890   5.661
 4887TIP3   OH214603   7.350   0.216   6.054
 4887TIP3    H114604   7.421   0.175   6.005
 4887TIP3    H214605   7.375   0.309   6.060
 4888TIP3   OH214606   5.685   4.074   0.807
 4888TIP3    H114607   5.686   4.159   0.762
 4888TIP3    H214608   5.701   4.096   0.899
 4889TIP3   OH214609   1.502   7.102   0.296
 4889TIP3    H114610   1.597   7.110   0.282
 4889TIP3    H214611   1.474   7.189   0.323
 4890TIP3   OH214612   5.289   6.485   6.609
 4890TIP3    H114613   5.251   6.402   6.639
 4890TIP3    H214614   5.341   6.461   6.532
 4891TIP3   OH214615   8.182   4.737   4.982
 4891TIP3    H114616   8.138   4.679   4.920
 4891TIP3    H214617   8.243   4.680   5.029
 4892TIP3   OH214618   2.631   3.836   5.218
 4892TIP3    H114619   2.539   3.825   5.242
 4892TIP3    H214620   2.630   3.854   5.124
 4893TIP3   OH214621   5.943   3.481   1.061
 4893TIP3    H114622   5.963   3.539   1.135
 4893TIP3    H214623   6.020   3.425   1.053
 4894TIP3   OH214624   4.599   4.650   2.760
 4894TIP3    H114625   4.562   4.731   2.726
 4894TIP3    H214626   4.564   4.642   2.849
 4895TIP3   OH214627   2.119   1.193   0.350
 4895TIP3    H114628   2.091   1.253   0.419
 4895TIP3    H214629   2.131   1.248   0.273
 4896TIP3   OH214630   1.875   2.075   5.770
 4896TIP3    H114631   1.813   2.142   5.801
 4896TIP3    H214632   1.928   2.054   5.848
 4897TIP3   OH214633   0.423   7.060   2.943
 4897TIP3    H114634   0.439   7.147   2.905
 4897TIP3    H214635   0.491   7.052   3.010
 4898TIP3   OH214636   1.490   3.751   4.318
 4898TIP3    H114637   1.493   3.773   4.225
 4898TIP3    H214638   1.478   3.835   4.363
 4899TIP3   OH214639   5.220   6.249   5.290
 4899TIP3    H114640   5.254   6.247   5.201
 4899TIP3    H214641   5.270   6.180   5.335
 4900TIP3   OH214642   3.107   1.804   3.021
 4900TIP3    H114643   3.136   1.737   3.083
 4900TIP3    H214644   3.056   1.755   2.956
 4901TIP3   OH214645   6.586   6.407   6.791
 4901TIP3    H114646   6.576   6.456   6.709
 4901TIP3    H214647   6.562   6.317   6.769
 4902TIP3   OH214648   1.568   3.148   3.884
 4902TIP3    H114649   1.550   3.056   3.865
 4902TIP3    H214650   1.492   3.195   3.850
 4903TIP3   OH214651   6.143   2.385   6.172
 4903TIP3    H114652   6.130   2.295   6.204
 4903TIP3    H214653   6.236   2.389   6.150
 4904TIP3   OH214654   4.150   3.354   6.650
 4904TIP3    H114655   4.148   3.410   6.728
 4904TIP3    H214656   4.067   3.372   6.606
 4905TIP3   OH214657   0.263   7.585   3.349
 4905TIP3    H114658   0.186   7.595   3.293
 4905TIP3    H214659   0.227   7.557   3.433
 4906TIP3   OH214660   1.906   3.210   5.494
 4906TIP3    H114661   1.820   3.182   5.525
 4906TIP3    H214662   1.918   3.163   5.411
 4907TIP3   OH214663   0.242   5.547   4.599
 4907TIP3    H114664   0.334   5.521   4.607
 4907TIP3    H214665   0.193   5.472   4.633
 4908TIP3   OH214666   3.435   7.768   2.235
 4908TIP3    H114667   3.492   7.696   2.208
 4908TIP3    H214668   3.373   7.778   2.163
 4909TIP3   OH214669   3.586   4.938   1.494
 4909TIP3    H114670   3.611   4.920   1.584
 4909TIP3    H214671   3.491   4.925   1.492
 4910TIP3   OH214672   5.913   5.005   4.543
 4910TIP3    H114673   5.916   4.934   4.607
 4910TIP3    H214674   5.996   5.051   4.555
 4911TIP3   OH214675   1.782   3.316   3.855
 4911TIP3    H114676   1.723   3.255   3.898
 4911TIP3    H214677   1.792   3.282   3.766
 4912TIP3   OH214678   6.616   7.554   1.406
 4912TIP3    H114679   6.566   7.622   1.451
 4912TIP3    H214680   6.561   7.476   1.413
 4913TIP3   OH214681   1.266   4.497   1.577
 4913TIP3    H114682   1.199   4.520   1.513
 4913TIP3    H214683   1.219   4.496   1.661
 4914TIP3   OH214684   3.497   1.866   4.014
 4914TIP3    H114685   3.452   1.946   4.039
 4914TIP3    H214686   3.569   1.859   4.078
 4915TIP3   OH214687   1.937   1.331   4.167
 4915TIP3    H114688   1.908   1.272   4.237
 4915TIP3    H214689   1.938   1.418   4.207
 4916TIP3   OH214690   2.401   2.933   5.983
 4916TIP3    H114691   2.467   2.988   5.941
 4916TIP3    H214692   2.341   2.995   6.025
 4917TIP3   OH214693   1.591   4.557   4.725
 4917TIP3    H114694   1.563   4.641   4.762
 4917TIP3    H214695   1.553   4.555   4.637
 4918TIP3   OH214696   2.865   3.711   4.690
 4918TIP3    H114697   2.782   3.721   4.644
 4918TIP3    H214698   2.932   3.730   4.624
 4919TIP3   OH214699   6.741   0.609   6.279
 4919TIP3    H114700   6.659   0.622   6.326
 4919TIP3    H214701   6.798   0.566   6.342
 4920TIP3   OH214702   1.840   5.961   4.925
 4920TIP3    H114703   1.756   5.923   4.949
 4920TIP3    H214704   1.884   5.892   4.876
 4921TIP3   OH214705   0.485   2.858   0.646
 4921TIP3    H114706   0.515   2.771   0.672
 4921TIP3    H214707   0.557   2.916   0.669
 4922TIP3   OH214708   0.057   6.137   0.683
 4922TIP3    H114709   0.006   6.092   0.616
 4922TIP3    H214710   0.079   6.068   0.746
 4923TIP3   OH214711   6.051   2.236   2.045
 4923TIP3    H114712   6.105   2.180   2.100
 4923TIP3    H214713   6.107   2.259   1.971
 4924TIP3   OH214714   0.641   2.822   3.417
 4924TIP3    H114715   0.641   2.727   3.421
 4924TIP3    H214716   0.733   2.847   3.422
 4925TIP3   OH214717   1.485   1.554   6.451
 4925TIP3    H114718   1.557   1.584   6.395
 4925TIP3    H214719   1.503   1.461   6.465
 4926TIP3   OH214720   5.124   4.618   0.350
 4926TIP3    H114721   5.195   4.572   0.305
 4926TIP3    H214722   5.045   4.570   0.326
 4927TIP3   OH214723   4.816   6.724   2.968
 4927TIP3    H114724   4.840   6.772   2.889
 4927TIP3    H214725   4.737   6.768   3.000
 4928TIP3   OH214726   5.888   0.404   3.063
 4928TIP3    H114727   5.980   0.403   3.035
 4928TIP3    H214728   5.861   0.312   3.057
 4929TIP3   OH214729   5.693   1.529   0.490
 4929TIP3    H114730   5.679   1.616   0.452
 4929TIP3    H214731   5.766   1.541   0.551
 4930TIP3   OH214732   3.100   7.106   4.252
 4930TIP3    H114733   3.111   7.027   4.305
 4930TIP3    H214734   3.005   7.118   4.246
 4931TIP3   OH214735   5.639   3.972   5.357
 4931TIP3    H114736   5.674   3.964   5.446
 4931TIP3    H214737   5.574   4.041   5.362
 4932TIP3   OH214738   1.119   6.468   2.254
 4932TIP3    H114739   1.208   6.435   2.241
 4932TIP3    H214740   1.077   6.460   2.169
 4933TIP3   OH214741   5.471   2.312   2.040
 4933TIP3    H114742   5.441   2.235   2.088
 4933TIP3    H214743   5.411   2.382   2.065
 4934TIP3   OH214744   2.319   2.521   0.873
 4934TIP3    H114745   2.336   2.437   0.831
 4934TIP3    H214746   2.295   2.500   0.963
 4935TIP3   OH214747   7.933   1.982   3.969
 4935TIP3    H114748   7.992   1.953   3.901
 4935TIP3    H214749   7.926   1.908   4.029
 4936TIP3   OH214750   1.421   7.449   1.782
 4936TIP3    H114751   1.462   7.502   1.851
 4936TIP3    H214752   1.359   7.510   1.740
 4937TIP3   OH214753   4.168   1.446   0.386
 4937TIP3    H114754   4.240   1.498   0.422
 4937TIP3    H214755   4.203   1.357   0.382
 4938TIP3   OH214756   5.349   2.474   1.736
 4938TIP3    H114757   5.362   2.550   1.792
 4938TIP3    H214758   5.435   2.431   1.733
 4939TIP3   OH214759   0.863   3.189   0.780
 4939TIP3    H114760   0.803   3.242   0.832
 4939TIP3    H214761   0.934   3.167   0.841
 4940TIP3   OH214762   2.913   6.900   4.776
 4940TIP3    H114763   2.843   6.853   4.821
 4940TIP3    H214764   2.959   6.947   4.845
 4941TIP3   OH214765   0.510   1.423   4.009
 4941TIP3    H114766   0.455   1.347   3.995
 4941TIP3    H214767   0.463   1.495   3.967
 4942TIP3   OH214768   5.311   3.420   6.282
 4942TIP3    H114769   5.237   3.416   6.222
 4942TIP3    H214770   5.281   3.372   6.360
 4943TIP3   OH214771   1.805   6.233   4.198
 4943TIP3    H114772   1.891   6.268   4.174
 4943TIP3    H214773   1.764   6.303   4.248
 4944TIP3   OH214774   4.644   5.480   5.067
 4944TIP3    H114775   4.555   5.447   5.080
 4944TIP3    H214776   4.632   5.566   5.026
 4945TIP3   OH214777   7.449   7.264   6.612
 4945TIP3    H114778   7.442   7.169   6.606
 4945TIP3    H214779   7.455   7.293   6.521
 4946TIP3   OH214780   4.731   5.860   6.051
 4946TIP3    H114781   4.774   5.867   6.136
 4946TIP3    H214782   4.801   5.871   5.987
 4947TIP3   OH214783   2.944   3.928   5.295
 4947TIP3    H114784   3.002   3.903   5.223
 4947TIP3    H214785   2.878   3.860   5.298
 4948TIP3   OH214786   6.727   1.828   5.176
 4948TIP3    H114787   6.808   1.789   5.207
 4948TIP3    H214788   6.731   1.919   5.206
 4949TIP3   OH214789   6.183   4.502   4.589
 4949TIP3    H114790   6.139   4.572   4.539
 4949TIP3    H214791   6.149   4.512   4.678
 4950TIP3   OH214792   6.352   0.086   1.660
 4950TIP3    H114793   6.365   0.065   1.752
 4950TIP3    H214794   6.318   0.005   1.621
 4951TIP3   OH214795   4.094   1.042   0.186
 4951TIP3    H114796   4.033   0.988   0.136
 4951TIP3    H214797   4.057   1.045   0.274
 4952TIP3   OH214798   3.931   4.114   4.628
 4952TIP3    H114799   3.848   4.121   4.677
 4952TIP3    H214800   3.911   4.060   4.553
 4953TIP3   OH214801   6.354   5.881   0.253
 4953TIP3    H114802   6.433   5.933   0.238
 4953TIP3    H214803   6.311   5.924   0.327
 4954TIP3   OH214804   2.294   7.711   2.247
 4954TIP3    H114805   2.320   7.803   2.249
 4954TIP3    H214806   2.205   7.710   2.284
 4955TIP3   OH214807   3.143   3.447   4.431
 4955TIP3    H114808   3.220   3.455   4.374
 4955TIP3    H214809   3.157   3.514   4.499
 4956TIP3   OH214810   0.986   4.596   2.627
 4956TIP3    H114811   1.014   4.592   2.536
 4956TIP3    H214812   1.025   4.677   2.660
 4957TIP3   OH214813  -0.032   2.751   3.987
 4957TIP3    H114814   0.012   2.795   4.059
 4957TIP3    H214815   0.030   2.758   3.914
 4958TIP3   OH214816   2.701   7.576   4.493
 4958TIP3    H114817   2.664   7.626   4.565
 4958TIP3    H214818   2.725   7.492   4.532
 4959TIP3   OH214819   0.564   6.106   6.500
 4959TIP3    H114820   0.585   6.176   6.561
 4959TIP3    H214821   0.645   6.055   6.492
 4960TIP3   OH214822   8.285   1.136   6.242
 4960TIP3    H114823   8.238   1.218   6.256
 4960TIP3    H214824   8.242   1.073   6.300
 4961TIP3   OH214825   3.152   4.162   1.771
 4961TIP3    H114826   3.070   4.181   1.818
 4961TIP3    H214827   3.123   4.140   1.683
 4962TIP3   OH214828   7.585   0.213   5.105
 4962TIP3    H114829   7.496   0.185   5.087
 4962TIP3    H214830   7.623   0.229   5.018
 4963TIP3   OH214831   6.240   5.960   5.894
 4963TIP3    H114832   6.321   6.005   5.869
 4963TIP3    H214833   6.247   5.947   5.988
 4964TIP3   OH214834   3.792   5.499   3.206
 4964TIP3    H114835   3.888   5.496   3.206
 4964TIP3    H214836   3.770   5.557   3.279
 4965TIP3   OH214837   5.676   4.734   3.505
 4965TIP3    H114838   5.696   4.780   3.423
 4965TIP3    H214839   5.689   4.800   3.573
 4966TIP3   OH214840   7.605   2.359   4.784
 4966TIP3    H114841   7.606   2.448   4.749
 4966TIP3    H214842   7.675   2.314   4.737
 4967TIP3   OH214843   3.514   3.849   1.698
 4967TIP3    H114844   3.607   3.851   1.722
 4967TIP3    H214845   3.482   3.765   1.732
 4968TIP3   OH214846   1.623   4.331   2.066
 4968TIP3    H114847   1.718   4.340   2.069
 4968TIP3    H214848   1.594   4.355   2.154
 4969TIP3   OH214849   0.605   3.479   4.024
 4969TIP3    H114850   0.523   3.504   3.981
 4969TIP3    H214851   0.618   3.387   4.000
 4970TIP3   OH214852   7.050   2.898   3.180
 4970TIP3    H114853   7.096   2.889   3.096
 4970TIP3    H214854   6.958   2.910   3.156
 4971TIP3   OH214855   1.373   6.823   5.042
 4971TIP3    H114856   1.427   6.865   5.109
 4971TIP3    H214857   1.315   6.892   5.011
 4972TIP3   OH214858   1.046   0.547   1.177
 4972TIP3    H114859   0.964   0.508   1.207
 4972TIP3    H214860   1.044   0.536   1.082
 4973TIP3   OH214861   5.795   5.615   3.022
 4973TIP3    H114862   5.785   5.533   2.973
 4973TIP3    H214863   5.809   5.587   3.113
 4974TIP3   OH214864   3.298   3.967   3.303
 4974TIP3    H114865   3.319   4.037   3.242
 4974TIP3    H214866   3.370   3.905   3.296
 4975TIP3   OH214867   5.524   1.158   0.484
 4975TIP3    H114868   5.579   1.148   0.406
 4975TIP3    H214869   5.485   1.071   0.497
 4976TIP3   OH214870   4.424   4.078   0.748
 4976TIP3    H114871   4.463   4.155   0.790
 4976TIP3    H214872   4.464   4.076   0.661
 4977TIP3   OH214873   0.156   3.300   6.010
 4977TIP3    H114874   0.240   3.275   6.049
 4977TIP3    H214875   0.161   3.266   5.920
 4978TIP3   OH214876   3.793   3.747   1.055
 4978TIP3    H114877   3.720   3.716   1.109
 4978TIP3    H214878   3.759   3.746   0.965
 4979TIP3   OH214879   3.660   1.687   6.530
 4979TIP3    H114880   3.638   1.602   6.492
 4979TIP3    H214881   3.665   1.746   6.455
 4980TIP3   OH214882   1.306   2.455   4.391
 4980TIP3    H114883   1.367   2.404   4.445
 4980TIP3    H214884   1.260   2.511   4.454
 4981TIP3   OH214885   6.656   0.829   3.509
 4981TIP3    H114886   6.569   0.791   3.498
 4981TIP3    H214887   6.692   0.785   3.586
 4982TIP3   OH214888   7.398   3.205   2.606
 4982TIP3    H114889   7.427   3.114   2.615
 4982TIP3    H214890   7.464   3.246   2.551
 4983TIP3   OH214891   5.186   5.891   2.288
 4983TIP3    H114892   5.095   5.859   2.286
 4983TIP3    H214893   5.184   5.972   2.237
 4984TIP3   OH214894   2.419   6.251   5.775
 4984TIP3    H114895   2.404   6.339   5.809
 4984TIP3    H214896   2.498   6.221   5.819
 4985TIP3   OH214897   7.991   5.832   6.565
 4985TIP3    H114898   8.020   5.835   6.656
 4985TIP3    H214899   7.909   5.783   6.568
 4986TIP3   OH214900   3.949   3.305   0.694
 4986TIP3    H114901   3.899   3.246   0.751
 4986TIP3    H214902   4.019   3.250   0.659
 4987TIP3   OH214903   3.757   3.005   0.204
 4987TIP3    H114904   3.756   3.101   0.210
 4987TIP3    H214905   3.758   2.987   0.110
 4988TIP3   OH214906   3.332   3.635   1.744
 4988TIP3    H114907   3.263   3.681   1.792
 4988TIP3    H214908   3.286   3.596   1.669
 4989TIP3   OH214909   0.133   3.395   0.144
 4989TIP3    H114910   0.047   3.378   0.182
 4989TIP3    H214911   0.155   3.314   0.098
 4990TIP3   OH214912   4.849   0.941   5.597
 4990TIP3    H114913   4.884   0.853   5.609
 4990TIP3    H214914   4.910   0.999   5.643
 4991TIP3   OH214915   4.290   3.525   3.921
 4991TIP3    H114916   4.206   3.523   3.876
 4991TIP3    H214917   4.334   3.603   3.886
 4992TIP3   OH214918   4.810   4.448   4.677
 4992TIP3    H114919   4.871   4.487   4.740
 4992TIP3    H214920   4.775   4.522   4.628
 4993TIP3   OH214921   6.707   2.853   5.794
 4993TIP3    H114922   6.686   2.944   5.813
 4993TIP3    H214923   6.802   2.850   5.790
 4994TIP3   OH214924   1.738   5.051   6.256
 4994TIP3    H114925   1.658   5.015   6.218
 4994TIP3    H214926   1.802   5.047   6.185
 4995TIP3   OH214927   4.625   5.849   5.534
 4995TIP3    H114928   4.537   5.883   5.545
 4995TIP3    H214929   4.612   5.758   5.507
 4996TIP3   OH214930   3.227   0.609   2.084
 4996TIP3    H114931   3.304   0.579   2.036
 4996TIP3    H214932   3.183   0.529   2.112
 4997TIP3   OH214933   5.845   5.690   0.091
 4997TIP3    H114934   5.884   5.652   0.012
 4997TIP3    H214935   5.781   5.754   0.057
 4998TIP3   OH214936   0.100   4.485   4.073
 4998TIP3    H114937   0.088   4.390   4.081
 4998TIP3    H214938   0.192   4.500   4.096
 4999TIP3   OH214939   1.503   5.629   6.394
 4999TIP3    H114940   1.586   5.644   6.349
 4999TIP3    H214941   1.463   5.556   6.348
 5000TIP3   OH214942   2.886   2.533   1.638
 5000TIP3    H114943   2.847   2.527   1.725
 5000TIP3    H214944   2.980   2.539   1.655
 5001TIP3   OH214945   4.255   0.208   5.176
 5001TIP3    H114946   4.232   0.191   5.267
 5001TIP3    H214947   4.271   0.302   5.172
 5002TIP3   OH214948   8.012   1.291   4.044
 5002TIP3    H114949   8.095   1.316   4.086
 5002TIP3    H214950   8.029   1.300   3.950
 5003TIP3   OH214951   2.328   2.637   0.055
 5003TIP3    H114952   2.377   2.578  -0.002
 5003TIP3    H214953   2.253   2.665   0.002
 5004TIP3   OH214954   2.268   2.641   6.650
 5004TIP3    H114955   2.269   2.670   6.558
 5004TIP3    H214956   2.327   2.702   6.694
 5005TIP3   OH214957   6.180   1.316   1.985
 5005TIP3    H114958   6.251   1.255   2.005
 5005TIP3    H214959   6.106   1.261   1.960
 5006TIP3   OH214960   2.418   1.627   2.809
 5006TIP3    H114961   2.512   1.617   2.800
 5006TIP3    H214962   2.396   1.576   2.887
 5007TIP3   OH214963   3.167   0.093   1.459
 5007TIP3    H114964   3.243   0.116   1.511
 5007TIP3    H214965   3.129   0.177   1.433
 5008TIP3   OH214966   2.215   6.270   5.553
 5008TIP3    H114967   2.202   6.361   5.577
 5008TIP3    H214968   2.284   6.240   5.613
 5009TIP3   OH214969   0.185   0.211   5.514
 5009TIP3    H114970   0.188   0.116   5.524
 5009TIP3    H214971   0.158   0.224   5.423
 5010TIP3   OH214972   7.219   3.459   6.411
 5010TIP3    H114973   7.212   3.547   6.446
 5010TIP3    H214974   7.135   3.442   6.370
 5011TIP3   OH214975   0.424   3.299   3.831
 5011TIP3    H114976   0.405   3.391   3.852
 5011TIP3    H214977   0.365   3.278   3.759
 5012TIP3   OH214978   7.189   0.576   0.795
 5012TIP3    H114979   7.120   0.583   0.729
 5012TIP3    H214980   7.200   0.666   0.827
 5013TIP3   OH214981   3.397   2.292   3.231
 5013TIP3    H114982   3.307   2.259   3.227
 5013TIP3    H214983   3.411   2.333   3.146
 5014TIP3   OH214984   5.393   0.084   0.594
 5014TIP3    H114985   5.403   0.104   0.688
 5014TIP3    H214986   5.482   0.087   0.560
 5015TIP3   OH214987   1.175   1.074   6.083
 5015TIP3    H114988   1.093   1.114   6.114
 5015TIP3    H214989   1.167   1.076   5.988
 5016TIP3   OH214990   5.442   0.949   4.138
 5016TIP3    H114991   5.497   0.964   4.061
 5016TIP3    H214992   5.482   0.873   4.181
 5017TIP3   OH214993   6.735   4.814   3.331
 5017TIP3    H114994   6.768   4.805   3.242
 5017TIP3    H214995   6.807   4.785   3.387
 5018TIP3   OH214996   4.652   6.655   0.029
 5018TIP3    H114997   4.584   6.679  -0.034
 5018TIP3    H214998   4.687   6.572  -0.003
 5019TIP3   OH214999   2.527   4.122   5.273
 5019TIP3    H115000   2.493   4.051   5.327
 5019TIP3    H215001   2.620   4.126   5.295
 5020TIP3   OH215002   2.404   3.867   4.585
 5020TIP3    H115003   2.347   3.926   4.635
 5020TIP3    H215004   2.405   3.905   4.497
 5021TIP3   OH215005   1.686   2.512   4.365
 5021TIP3    H115006   1.782   2.505   4.358
 5021TIP3    H215007   1.665   2.592   4.317
 5022TIP3   OH215008   0.055   6.447   5.091
 5022TIP3    H115009   0.129   6.395   5.123
 5022TIP3    H215010   0.071   6.458   4.998
 5023TIP3   OH215011   1.559   6.172   1.718
 5023TIP3    H115012   1.612   6.226   1.660
 5023TIP3    H215013   1.622   6.112   1.759
 5024TIP3   OH215014   5.640   0.661   5.838
 5024TIP3    H115015   5.727   0.648   5.876
 5024TIP3    H215016   5.643   0.611   5.756
 5025TIP3   OH215017   5.314   5.472   0.354
 5025TIP3    H115018   5.285   5.415   0.426
 5025TIP3    H215019   5.259   5.550   0.362
 5026TIP3   OH215020   2.448   6.260   1.198
 5026TIP3    H115021   2.385   6.330   1.183
 5026TIP3    H215022   2.481   6.238   1.111
 5027TIP3   OH215023   2.159   1.332   0.118
 5027TIP3    H115024   2.074   1.308   0.082
 5027TIP3    H215025   2.172   1.423   0.090
 5028TIP3   OH215026   1.236   3.691   2.331
 5028TIP3    H115027   1.223   3.783   2.354
 5028TIP3    H215028   1.215   3.643   2.411
 5029TIP3   OH215029   3.161   7.550   3.920
 5029TIP3    H115030   3.213   7.560   3.841
 5029TIP3    H215031   3.085   7.606   3.907
 5030TIP3   OH215032   5.361   4.781   0.585
 5030TIP3    H115033   5.384   4.874   0.575
 5030TIP3    H215034   5.427   4.735   0.533
 5031TIP3   OH215035   5.936   4.486   1.396
 5031TIP3    H115036   5.924   4.552   1.328
 5031TIP3    H215037   6.030   4.474   1.402
 5032TIP3   OH215038   2.457   5.866   3.403
 5032TIP3    H115039   2.411   5.800   3.454
 5032TIP3    H215040   2.435   5.845   3.312
 5033TIP3   OH215041   0.734   3.334   5.774
 5033TIP3    H115042   0.822   3.300   5.755
 5033TIP3    H215043   0.735   3.349   5.868
 5034TIP3   OH215044   2.466   1.748   3.641
 5034TIP3    H115045   2.451   1.672   3.697
 5034TIP3    H215046   2.557   1.774   3.660
 5035TIP3   OH215047   0.282   7.155   6.491
 5035TIP3    H115048   0.350   7.194   6.437
 5035TIP3    H215049   0.329   7.100   6.554
 5036TIP3   OH215050   8.245   6.432   5.777
 5036TIP3    H115051   8.340   6.421   5.767
 5036TIP3    H215052   8.207   6.358   5.729
 5037TIP3   OH215053   4.495   5.483   1.076
 5037TIP3    H115054   4.507   5.568   1.035
 5037TIP3    H215055   4.436   5.436   1.017
 5038TIP3   OH215056   4.964   7.024   0.742
 5038TIP3    H115057   4.978   7.002   0.835
 5038TIP3    H215058   4.947   7.118   0.742
 5039TIP3   OH215059   3.427   5.508   4.704
 5039TIP3    H115060   3.356   5.556   4.663
 5039TIP3    H215061   3.384   5.445   4.762
 5040TIP3   OH215062   4.388   3.076   6.256
 5040TIP3    H115063   4.304   3.029   6.256
 5040TIP3    H215064   4.366   3.164   6.286
 5041TIP3   OH215065   6.008   2.620   1.794
 5041TIP3    H115066   5.966   2.697   1.755
 5041TIP3    H215067   5.957   2.546   1.761
 5042TIP3   OH215068   3.468   3.331   3.070
 5042TIP3    H115069   3.491   3.239   3.082
 5042TIP3    H215070   3.378   3.338   3.104
 5043TIP3   OH215071   5.169   7.330   3.860
 5043TIP3    H115072   5.239   7.298   3.802
 5043TIP3    H215073   5.126   7.251   3.892
 5044TIP3   OH215074   7.476   1.487   4.458
 5044TIP3    H115075   7.437   1.567   4.494
 5044TIP3    H215076   7.401   1.431   4.440
 5045TIP3   OH215077   2.760   3.442   4.576
 5045TIP3    H115078   2.665   3.446   4.589
 5045TIP3    H215079   2.778   3.509   4.509
 5046TIP3   OH215080   8.162   2.019   2.622
 5046TIP3    H115081   8.114   2.089   2.667
 5046TIP3    H215082   8.158   1.945   2.683
 5047TIP3   OH215083   4.499   2.291   5.112
 5047TIP3    H115084   4.433   2.226   5.089
 5047TIP3    H215085   4.563   2.286   5.041
 5048TIP3   OH215086   7.450   2.678   4.043
 5048TIP3    H115087   7.451   2.645   3.954
 5048TIP3    H215088   7.492   2.764   4.037
 5049TIP3   OH215089   0.115   6.724   3.797
 5049TIP3    H115090   0.196   6.732   3.745
 5049TIP3    H215091   0.065   6.803   3.776
 5050TIP3   OH215092   7.778   5.888   5.201
 5050TIP3    H115093   7.698   5.890   5.254
 5050TIP3    H215094   7.752   5.847   5.119
 5051TIP3   OH215095   1.198   7.555   2.739
 5051TIP3    H115096   1.257   7.483   2.716
 5051TIP3    H215097   1.238   7.594   2.817
 5052TIP3   OH215098   7.829   1.193   3.072
 5052TIP3    H115099   7.915   1.160   3.045
 5052TIP3    H215100   7.849   1.272   3.123
 5053TIP3   OH215101   6.438   1.981   6.197
 5053TIP3    H115102   6.388   2.037   6.138
 5053TIP3    H215103   6.447   1.898   6.150
 5054TIP3   OH215104   0.111   6.312   5.481
 5054TIP3    H115105   0.114   6.256   5.404
 5054TIP3    H215106   0.112   6.252   5.555
 5055TIP3   OH215107   7.071   1.606   3.344
 5055TIP3    H115108   7.027   1.565   3.419
 5055TIP3    H215109   7.147   1.550   3.327
 5056TIP3   OH215110   2.176   6.763   0.506
 5056TIP3    H115111   2.208   6.708   0.434
 5056TIP3    H215112   2.083   6.776   0.487
 5057TIP3   OH215113   3.715   7.369   4.809
 5057TIP3    H115114   3.741   7.326   4.728
 5057TIP3    H215115   3.732   7.304   4.877
 5058TIP3   OH215116   7.075   2.629   6.699
 5058TIP3    H115117   7.126   2.593   6.627
 5058TIP3    H215118   6.988   2.589   6.690
 5059TIP3   OH215119   7.137   7.442   2.321
 5059TIP3    H115120   7.048   7.428   2.350
 5059TIP3    H215121   7.183   7.361   2.344
 5060TIP3   OH215122   5.725   3.548   2.822
 5060TIP3    H115123   5.778   3.473   2.796
 5060TIP3    H215124   5.765   3.623   2.778
 5061TIP3   OH215125   1.910   7.762   6.395
 5061TIP3    H115126   1.956   7.844   6.376
 5061TIP3    H215127   1.954   7.728   6.473
 5062TIP3   OH215128   4.474   6.996   4.424
 5062TIP3    H115129   4.429   6.944   4.491
 5062TIP3    H215130   4.488   7.081   4.466
 5063TIP3   OH215131   7.364   1.940   5.410
 5063TIP3    H115132   7.333   1.958   5.499
 5063TIP3    H215133   7.284   1.942   5.357
 5064TIP3   OH215134   0.377   2.262   4.071
 5064TIP3    H115135   0.412   2.338   4.116
 5064TIP3    H215136   0.444   2.194   4.083
 5065TIP3   OH215137   5.908   0.268   0.983
 5065TIP3    H115138   5.971   0.202   1.012
 5065TIP3    H215139   5.842   0.270   1.052
 5066TIP3   OH215140   0.070   5.999   4.065
 5066TIP3    H115141   0.156   5.966   4.089
 5066TIP3    H215142   0.015   5.921   4.058
 5067TIP3   OH215143   3.724   0.978   5.505
 5067TIP3    H115144   3.634   1.010   5.513
 5067TIP3    H215145   3.775   1.058   5.489
 5068TIP3   OH215146   5.973   6.146   5.383
 5068TIP3    H115147   5.962   6.094   5.303
 5068TIP3    H215148   6.054   6.195   5.370
 5069TIP3   OH215149   7.093   5.507   1.839
 5069TIP3    H115150   7.117   5.592   1.878
 5069TIP3    H215151   7.011   5.525   1.793
 5070TIP3   OH215152   4.211   2.588   3.133
 5070TIP3    H115153   4.117   2.579   3.147
 5070TIP3    H215154   4.251   2.519   3.186
 5071TIP3   OH215155   6.137   5.539   1.090
 5071TIP3    H115156   6.130   5.602   1.162
 5071TIP3    H215157   6.157   5.456   1.132
 5072TIP3   OH215158   5.857   0.632   4.171
 5072TIP3    H115159   5.882   0.670   4.087
 5072TIP3    H215160   5.778   0.680   4.197
 5073TIP3   OH215161   6.460   5.056   5.754
 5073TIP3    H115162   6.475   4.974   5.706
 5073TIP3    H215163   6.480   5.035   5.845
 5074TIP3   OH215164   2.662   1.642   4.245
 5074TIP3    H115165   2.655   1.575   4.177
 5074TIP3    H215166   2.637   1.597   4.326
 5075TIP3   OH215167   4.411   4.840   1.502
 5075TIP3    H115168   4.482   4.782   1.528
 5075TIP3    H215169   4.400   4.823   1.408
 5076TIP3   OH215170   3.574   6.240   2.152
 5076TIP3    H115171   3.546   6.160   2.106
 5076TIP3    H215172   3.585   6.213   2.243
 5077TIP3   OH215173   0.031   6.111   0.271
 5077TIP3    H115174   0.077   6.029   0.252
 5077TIP3    H215175   0.014   6.108   0.365
 5078TIP3   OH215176   3.271   0.695   0.496
 5078TIP3    H115177   3.215   0.769   0.473
 5078TIP3    H215178   3.276   0.697   0.592
 5079TIP3   OH215179   6.006   4.671   3.796
 5079TIP3    H115180   5.954   4.601   3.755
 5079TIP3    H215181   6.067   4.624   3.853
 5080TIP3   OH215182   5.707   6.930   3.593
 5080TIP3    H115183   5.627   6.981   3.611
 5080TIP3    H215184   5.752   6.981   3.525
 5081TIP3   OH215185   0.372   5.619   0.816
 5081TIP3    H115186   0.363   5.710   0.786
 5081TIP3    H215187   0.454   5.589   0.777
 5082TIP3   OH215188   2.145   1.915   4.954
 5082TIP3    H115189   2.168   1.878   4.869
 5082TIP3    H215190   2.082   1.984   4.934
 5083TIP3   OH215191   0.350   3.479   3.578
 5083TIP3    H115192   0.329   3.393   3.543
 5083TIP3    H215193   0.277   3.501   3.637
 5084TIP3   OH215194   1.143   0.019   0.691
 5084TIP3    H115195   1.131  -0.028   0.609
 5084TIP3    H215196   1.070  -0.010   0.746
 5085TIP3   OH215197   7.314   3.147   0.971
 5085TIP3    H115198   7.243   3.206   0.997
 5085TIP3    H215199   7.331   3.169   0.880
 5086TIP3   OH215200   4.353   2.745   0.984
 5086TIP3    H115201   4.313   2.659   0.996
 5086TIP3    H215202   4.313   2.800   1.051
 5087TIP3   OH215203   4.665   2.173   1.391
 5087TIP3    H115204   4.757   2.191   1.372
 5087TIP3    H215205   4.618   2.245   1.350
 5088TIP3   OH215206   5.199   0.392   1.643
 5088TIP3    H115207   5.113   0.353   1.661
 5088TIP3    H215208   5.181   0.456   1.574
 5089TIP3   OH215209   5.553   4.207   5.754
 5089TIP3    H115210   5.599   4.125   5.736
 5089TIP3    H215211   5.603   4.247   5.825
 5090TIP3   OH215212   8.234   5.238   6.726
 5090TIP3    H115213   8.262   5.329   6.738
 5090TIP3    H215214   8.193   5.214   6.809
 5091TIP3   OH215215   2.537   6.974   1.186
 5091TIP3    H115216   2.587   7.009   1.112
 5091TIP3    H215217   2.495   6.896   1.151
 5092TIP3   OH215218   1.319   3.549   4.399
 5092TIP3    H115219   1.372   3.613   4.352
 5092TIP3    H215220   1.332   3.467   4.352
 5093TIP3   OH215221   2.726   7.446   2.040
 5093TIP3    H115222   2.779   7.366   2.031
 5093TIP3    H215223   2.645   7.426   1.994
 5094TIP3   OH215224   4.735   1.750   6.651
 5094TIP3    H115225   4.756   1.834   6.693
 5094TIP3    H215226   4.821   1.709   6.636
 5095TIP3   OH215227   1.159   2.047   3.075
 5095TIP3    H115228   1.220   2.069   3.005
 5095TIP3    H215229   1.076   2.086   3.048
 5096TIP3   OH215230   2.952   4.888   6.317
 5096TIP3    H115231   2.862   4.906   6.290
 5096TIP3    H215232   2.946   4.805   6.365
 5097TIP3   OH215233   2.972   3.537   3.403
 5097TIP3    H115234   2.936   3.525   3.315
 5097TIP3    H215235   2.898   3.520   3.462
 5098TIP3   OH215236   5.208   3.177   1.139
 5098TIP3    H115237   5.280   3.200   1.197
 5098TIP3    H215238   5.190   3.256   1.089
 5099TIP3   OH215239   3.696   5.394   6.763
 5099TIP3    H115240   3.702   5.429   6.674
 5099TIP3    H215241   3.603   5.388   6.780
 5100TIP3   OH215242   3.574   1.125   4.251
 5100TIP3    H115243   3.587   1.182   4.327
 5100TIP3    H215244   3.629   1.163   4.183
 5101TIP3   OH215245   3.790   2.308   3.469
 5101TIP3    H115246   3.696   2.292   3.460
 5101TIP3    H215247   3.816   2.258   3.547
 5102TIP3   OH215248   4.979   2.049   0.897
 5102TIP3    H115249   4.887   2.027   0.906
 5102TIP3    H215250   4.988   2.080   0.807
 5103TIP3   OH215251   6.703   1.907   5.956
 5103TIP3    H115252   6.620   1.872   5.989
 5103TIP3    H215253   6.696   1.900   5.861
 5104TIP3   OH215254   2.607   3.227   3.299
 5104TIP3    H115255   2.588   3.320   3.285
 5104TIP3    H215256   2.527   3.182   3.272
 5105TIP3   OH215257   7.008   0.765   6.557
 5105TIP3    H115258   7.058   0.693   6.598
 5105TIP3    H215259   6.970   0.725   6.478
 5106TIP3   OH215260   6.840   4.485   1.013
 5106TIP3    H115261   6.821   4.402   1.058
 5106TIP3    H215262   6.769   4.493   0.949
 5107TIP3   OH215263   6.003   2.995   1.375
 5107TIP3    H115264   5.996   2.963   1.285
 5107TIP3    H215265   6.053   2.928   1.421
 5108TIP3   OH215266   1.509   0.885   4.572
 5108TIP3    H115267   1.543   0.815   4.628
 5108TIP3    H215268   1.454   0.839   4.508
 5109TIP3   OH215269   4.614   2.820   1.058
 5109TIP3    H115270   4.599   2.815   1.152
 5109TIP3    H215271   4.528   2.803   1.019
 5110TIP3   OH215272   0.836   4.812   3.935
 5110TIP3    H115273   0.777   4.841   4.005
 5110TIP3    H215274   0.798   4.730   3.904
 5111TIP3   OH215275   1.149   7.176   2.035
 5111TIP3    H115276   1.153   7.085   2.064
 5111TIP3    H215277   1.072   7.180   1.978
 5112TIP3   OH215278   1.418   5.340   3.410
 5112TIP3    H115279   1.445   5.426   3.379
 5112TIP3    H215280   1.468   5.326   3.490
 5113TIP3   OH215281   3.604   5.044   0.541
 5113TIP3    H115282   3.538   5.036   0.472
 5113TIP3    H215283   3.688   5.042   0.495
 5114TIP3   OH215284   5.578   0.392   6.628
 5114TIP3    H115285   5.664   0.428   6.607
 5114TIP3    H215286   5.535   0.460   6.680
 5115TIP3   OH215287   2.903   7.676   2.095
 5115TIP3    H115288   2.856   7.605   2.051
 5115TIP3    H215289   2.834   7.734   2.127
 5116TIP3   OH215290   1.272   1.065   2.294
 5116TIP3    H115291   1.293   1.134   2.357
 5116TIP3    H215292   1.342   1.071   2.229
 5117TIP3   OH215293   3.015   7.634   1.486
 5117TIP3    H115294   3.103   7.628   1.523
 5117TIP3    H215295   2.956   7.637   1.561
 5118TIP3   OH215296   4.769   5.343   5.610
 5118TIP3    H115297   4.729   5.256   5.615
 5118TIP3    H215298   4.788   5.366   5.701
 5119TIP3   OH215299   3.257   4.419   4.076
 5119TIP3    H115300   3.188   4.469   4.119
 5119TIP3    H215301   3.329   4.418   4.139
 5120TIP3   OH215302   1.796   5.540   2.032
 5120TIP3    H115303   1.800   5.634   2.018
 5120TIP3    H215304   1.872   5.521   2.088
 5121TIP3   OH215305   4.222   1.541  -0.016
 5121TIP3    H115306   4.282   1.564  -0.086
 5121TIP3    H215307   4.238   1.605   0.053
 5122TIP3   OH215308   4.390   6.534   2.507
 5122TIP3    H115309   4.325   6.492   2.563
 5122TIP3    H215310   4.345   6.610   2.470
 5123TIP3   OH215311   3.089   6.067   0.357
 5123TIP3    H115312   3.008   6.095   0.313
 5123TIP3    H215313   3.065   5.985   0.401
 5124TIP3   OH215314   1.527   1.203   0.975
 5124TIP3    H115315   1.564   1.209   1.063
 5124TIP3    H215316   1.432   1.201   0.989
 5125TIP3   OH215317   1.759   4.357   0.625
 5125TIP3    H115318   1.768   4.350   0.720
 5125TIP3    H215319   1.664   4.354   0.611
 5126TIP3   OH215320   1.824   0.954   3.324
 5126TIP3    H115321   1.860   0.989   3.242
 5126TIP3    H215322   1.874   0.874   3.340
 5127TIP3   OH215323   0.737   7.648   4.072
 5127TIP3    H115324   0.761   7.727   4.121
 5127TIP3    H215325   0.802   7.644   4.001
 5128TIP3   OH215326   4.527   7.576   0.191
 5128TIP3    H115327   4.462   7.509   0.210
 5128TIP3    H215328   4.506   7.647   0.250
 5129TIP3   OH215329   3.030   6.934   2.694
 5129TIP3    H115330   2.989   7.018   2.713
 5129TIP3    H215331   3.031   6.888   2.779
 5130TIP3   OH215332   6.583   0.995   2.271
 5130TIP3    H115333   6.516   1.011   2.204
 5130TIP3    H215334   6.595   1.080   2.313
 5131TIP3   OH215335   1.690   2.424   5.468
 5131TIP3    H115336   1.732   2.458   5.390
 5131TIP3    H215337   1.743   2.349   5.493
 5132TIP3   OH215338   1.936   4.159   4.453
 5132TIP3    H115339   2.021   4.196   4.478
 5132TIP3    H215340   1.898   4.127   4.535
 5133TIP3   OH215341   0.981   4.124   1.466
 5133TIP3    H115342   0.906   4.128   1.525
 5133TIP3    H215343   0.994   4.030   1.450
 5134TIP3   OH215344   2.654   3.238   1.443
 5134TIP3    H115345   2.630   3.297   1.371
 5134TIP3    H215346   2.707   3.292   1.502
 5135TIP3   OH215347   5.497   6.676   5.688
 5135TIP3    H115348   5.420   6.716   5.648
 5135TIP3    H215349   5.527   6.740   5.752
 5136TIP3   OH215350   8.105   4.375   3.285
 5136TIP3    H115351   8.037   4.431   3.324
 5136TIP3    H215352   8.147   4.432   3.220
 5137TIP3   OH215353   1.851   3.880   6.456
 5137TIP3    H115354   1.903   3.818   6.508
 5137TIP3    H215355   1.768   3.834   6.440
 5138TIP3   OH215356   0.075   7.698   0.589
 5138TIP3    H115357   0.006   7.705   0.523
 5138TIP3    H215358   0.035   7.732   0.669
 5139TIP3   OH215359   6.768   3.468   2.598
 5139TIP3    H115360   6.717   3.458   2.518
 5139TIP3    H215361   6.808   3.555   2.590
 5140TIP3   OH215362   6.549   1.198   6.526
 5140TIP3    H115363   6.635   1.173   6.492
 5140TIP3    H215364   6.568   1.249   6.604
 5141TIP3   OH215365   7.917   7.355   4.294
 5141TIP3    H115366   7.914   7.309   4.378
 5141TIP3    H215367   7.952   7.441   4.315
 5142TIP3   OH215368   0.187   7.514   3.599
 5142TIP3    H115369   0.164   7.578   3.666
 5142TIP3    H215370   0.254   7.460   3.641
 5143TIP3   OH215371   3.783   4.510   3.091
 5143TIP3    H115372   3.810   4.545   3.176
 5143TIP3    H215373   3.783   4.586   3.033
 5144TIP3   OH215374   4.018   3.471   3.893
 5144TIP3    H115375   3.974   3.546   3.854
 5144TIP3    H215376   3.955   3.400   3.886
 5145TIP3   OH215377   4.420   7.571   2.991
 5145TIP3    H115378   4.498   7.624   2.975
 5145TIP3    H215379   4.351   7.635   3.010
 5146TIP3   OH215380   2.407   7.228   6.280
 5146TIP3    H115381   2.407   7.281   6.359
 5146TIP3    H215382   2.347   7.156   6.300
 5147TIP3   OH215383   3.512   5.485   4.296
 5147TIP3    H115384   3.578   5.426   4.260
 5147TIP3    H215385   3.428   5.443   4.275
 5148TIP3   OH215386   2.822   5.978   3.576
 5148TIP3    H115387   2.808   5.901   3.521
 5148TIP3    H215388   2.749   6.036   3.557
 5149TIP3   OH215389   5.995   1.419   3.027
 5149TIP3    H115390   5.957   1.455   3.107
 5149TIP3    H215391   6.085   1.399   3.050
 5150TIP3   OH215392   1.766   1.809  -0.025
 5150TIP3    H115393   1.763   1.845   0.064
 5150TIP3    H215394   1.829   1.864  -0.071
 5151TIP3   OH215395   5.196   6.581   3.782
 5151TIP3    H115396   5.208   6.508   3.721
 5151TIP3    H215397   5.236   6.656   3.737
 5152TIP3   OH215398   0.195   2.622   6.280
 5152TIP3    H115399   0.266   2.558   6.271
 5152TIP3    H215400   0.199   2.673   6.199
 5153TIP3   OH215401   7.019   4.826   2.775
 5153TIP3    H115402   6.977   4.819   2.860
 5153TIP3    H215403   7.108   4.793   2.789
 5154TIP3   OH215404   2.485   2.164   4.833
 5154TIP3    H115405   2.426   2.238   4.846
 5154TIP3    H215406   2.544   2.167   4.908
 5155TIP3   OH215407   1.610   4.437   3.341
 5155TIP3    H115408   1.525   4.404   3.312
 5155TIP3    H215409   1.599   4.455   3.434
 5156TIP3   OH215410   1.887   0.654   1.557
 5156TIP3    H115411   1.820   0.660   1.625
 5156TIP3    H215412   1.864   0.723   1.494
 5157TIP3   OH215413   0.511   4.729   2.181
 5157TIP3    H115414   0.433   4.698   2.228
 5157TIP3    H215415   0.574   4.657   2.190
 5158TIP3   OH215416   2.791   2.880   2.982
 5158TIP3    H115417   2.728   2.816   3.015
 5158TIP3    H215418   2.745   2.964   2.986
 5159TIP3   OH215419   5.083   6.114   2.140
 5159TIP3    H115420   5.011   6.135   2.082
 5159TIP3    H215421   5.108   6.198   2.179
 5160TIP3   OH215422   6.967   2.798   5.855
 5160TIP3    H115423   6.973   2.826   5.946
 5160TIP3    H215424   7.058   2.796   5.825
 5161TIP3   OH215425   1.456   6.083   6.148
 5161TIP3    H115426   1.507   6.051   6.222
 5161TIP3    H215427   1.522   6.106   6.082
 5162TIP3   OH215428   7.408   5.711   1.329
 5162TIP3    H115429   7.370   5.623   1.339
 5162TIP3    H215430   7.344   5.759   1.276
 5163TIP3   OH215431   6.079   4.297   5.905
 5163TIP3    H115432   6.162   4.256   5.929
 5163TIP3    H215433   6.070   4.278   5.812
 5164TIP3   OH215434   4.049   3.079   4.225
 5164TIP3    H115435   4.133   3.055   4.265
 5164TIP3    H215436   3.983   3.042   4.284
 5165TIP3   OH215437   4.342   5.522   4.160
 5165TIP3    H115438   4.390   5.452   4.203
 5165TIP3    H215439   4.374   5.521   4.070
 5166TIP3   OH215440   4.650   7.663   2.730
 5166TIP3    H115441   4.609   7.687   2.647
 5166TIP3    H215442   4.744   7.678   2.716
 5167TIP3   OH215443   0.092   5.591   2.646
 5167TIP3    H115444   0.185   5.597   2.627
 5167TIP3    H215445   0.087   5.541   2.727
 5168TIP3   OH215446   4.999   2.080   1.791
 5168TIP3    H115447   4.955   2.006   1.832
 5168TIP3    H215448   4.946   2.156   1.815
 5169TIP3   OH215449   5.557   3.582   3.718
 5169TIP3    H115450   5.595   3.545   3.639
 5169TIP3    H215451   5.464   3.589   3.699
 5170TIP3   OH215452   4.184   1.752   4.763
 5170TIP3    H115453   4.140   1.668   4.746
 5170TIP3    H215454   4.245   1.734   4.834
 5171TIP3   OH215455   5.980   3.374   5.083
 5171TIP3    H115456   5.908   3.344   5.139
 5171TIP3    H215457   6.052   3.391   5.144
 5172TIP3   OH215458   5.069   2.883   6.383
 5172TIP3    H115459   5.114   2.841   6.456
 5172TIP3    H215460   4.987   2.915   6.419
 5173TIP3   OH215461   1.141   1.268   4.539
 5173TIP3    H115462   1.111   1.349   4.498
 5173TIP3    H215463   1.206   1.233   4.478
 5174TIP3   OH215464   5.619   1.793   0.408
 5174TIP3    H115465   5.604   1.832   0.322
 5174TIP3    H215466   5.566   1.846   0.468
 5175TIP3   OH215467   3.642   4.675   5.076
 5175TIP3    H115468   3.704   4.669   5.003
 5175TIP3    H215469   3.565   4.627   5.046
 5176TIP3   OH215470   5.994   3.294   5.465
 5176TIP3    H115471   6.042   3.211   5.461
 5176TIP3    H215472   5.925   3.286   5.399
 5177TIP3   OH215473   5.205   1.273   6.630
 5177TIP3    H115474   5.236   1.184   6.646
 5177TIP3    H215475   5.112   1.263   6.611
 5178TIP3   OH215476   4.702   3.073   4.261
 5178TIP3    H115477   4.630   3.096   4.202
 5178TIP3    H215478   4.756   3.012   4.210
 5179TIP3   OH215479   6.917   6.894   4.377
 5179TIP3    H115480   6.967   6.869   4.299
 5179TIP3    H215481   6.879   6.812   4.408
 5180TIP3   OH215482   2.699   4.927   6.179
 5180TIP3    H115483   2.661   4.902   6.095
 5180TIP3    H215484   2.751   5.005   6.159
 5181TIP3   OH215485   4.247   2.764   5.835
 5181TIP3    H115486   4.249   2.679   5.878
 5181TIP3    H215487   4.186   2.752   5.761
 5182TIP3   OH215488   7.583   7.022   4.449
 5182TIP3    H115489   7.659   6.970   4.473
 5182TIP3    H215490   7.592   7.103   4.499
 5183TIP3   OH215491   0.157   4.473   5.340
 5183TIP3    H115492   0.086   4.424   5.298
 5183TIP3    H215493   0.150   4.451   5.433
 5184TIP3   OH215494   1.045   0.886   3.160
 5184TIP3    H115495   1.006   0.800   3.141
 5184TIP3    H215496   1.081   0.876   3.248
 5185TIP3   OH215497   3.940   7.225   1.345
 5185TIP3    H115498   4.016   7.246   1.292
 5185TIP3    H215499   3.872   7.286   1.315
 5186TIP3   OH215500   6.055   4.695   0.654
 5186TIP3    H115501   6.030   4.725   0.566
 5186TIP3    H215502   5.997   4.743   0.713
 5187TIP3   OH215503   6.957  -0.017   1.215
 5187TIP3    H115504   7.044  -0.047   1.190
 5187TIP3    H215505   6.915   0.009   1.133
 5188TIP3   OH215506   0.331   6.856   6.632
 5188TIP3    H115507   0.324   6.911   6.710
 5188TIP3    H215508   0.348   6.768   6.666
 5189TIP3   OH215509   7.488   7.333   1.838
 5189TIP3    H115510   7.437   7.390   1.895
 5189TIP3    H215511   7.434   7.256   1.826
 5190TIP3   OH215512   8.110   0.420   1.377
 5190TIP3    H115513   8.069   0.402   1.292
 5190TIP3    H215514   8.156   0.339   1.399
 5191TIP3   OH215515   0.862   2.308   2.182
 5191TIP3    H115516   0.902   2.382   2.136
 5191TIP3    H215517   0.892   2.231   2.133
 5192TIP3   OH215518   0.336   0.434   5.229
 5192TIP3    H115519   0.322   0.459   5.138
 5192TIP3    H215520   0.307   0.343   5.234
 5193TIP3   OH215521   2.275   2.010   2.675
 5193TIP3    H115522   2.196   1.975   2.636
 5193TIP3    H215523   2.245   2.059   2.752
 5194TIP3   OH215524   2.347   1.038   0.659
 5194TIP3    H115525   2.297   1.119   0.665
 5194TIP3    H215526   2.369   1.016   0.750
 5195TIP3   OH215527   8.053   7.693   5.954
 5195TIP3    H115528   8.034   7.632   6.025
 5195TIP3    H215529   8.029   7.645   5.874
 5196TIP3   OH215530   8.208   2.589   3.062
 5196TIP3    H115531   8.222   2.594   2.967
 5196TIP3    H215532   8.143   2.520   3.073
 5197TIP3   OH215533   3.414   3.458   4.026
 5197TIP3    H115534   3.416   3.507   4.108
 5197TIP3    H215535   3.326   3.473   3.991
 5198TIP3   OH215536   4.558   0.418   6.644
 5198TIP3    H115537   4.574   0.420   6.739
 5198TIP3    H215538   4.565   0.326   6.620
 5199TIP3   OH215539   7.837   4.962   2.489
 5199TIP3    H115540   7.866   5.044   2.530
 5199TIP3    H215541   7.749   4.983   2.455
 5200TIP3   OH215542   5.927   4.636   2.082
 5200TIP3    H115543   5.909   4.641   2.176
 5200TIP3    H215544   5.854   4.681   2.040
 5201TIP3   OH215545   7.714   2.048   0.467
 5201TIP3    H115546   7.783   2.059   0.402
 5201TIP3    H215547   7.633   2.052   0.417
 5202TIP3   OH215548   7.754   1.949   6.673
 5202TIP3    H115549   7.661   1.964   6.687
 5202TIP3    H215550   7.780   1.888   6.742
 5203TIP3   OH215551   5.123   3.022   0.943
 5203TIP3    H115552   5.071   2.948   0.974
 5203TIP3    H215553   5.152   3.066   1.023
 5204TIP3   OH215554   7.307   0.326   2.165
 5204TIP3    H115555   7.386   0.282   2.132
 5204TIP3    H215556   7.331   0.355   2.253
 5205TIP3   OH215557   4.362   3.723   5.110
 5205TIP3    H115558   4.447   3.684   5.091
 5205TIP3    H215559   4.332   3.677   5.189
 5206TIP3   OH215560   4.636   4.446   5.620
 5206TIP3    H115561   4.559   4.483   5.578
 5206TIP3    H215562   4.602   4.376   5.675
 5207TIP3   OH215563   0.639   3.418   4.301
 5207TIP3    H115564   0.625   3.442   4.210
 5207TIP3    H215565   0.551   3.404   4.336
 5208TIP3   OH215566   4.660   6.375   4.416
 5208TIP3    H115567   4.693   6.427   4.489
 5208TIP3    H215568   4.714   6.402   4.341
 5209TIP3   OH215569   2.358   3.594   6.227
 5209TIP3    H115570   2.292   3.525   6.232
 5209TIP3    H215571   2.368   3.624   6.317
 5210TIP3   OH215572   1.765   0.942   0.221
 5210TIP3    H115573   1.775   1.021   0.273
 5210TIP3    H215574   1.729   0.972   0.137
 5211TIP3   OH215575   3.284   3.705   6.475
 5211TIP3    H115576   3.205   3.655   6.455
 5211TIP3    H215577   3.351   3.667   6.419
 5212TIP3   OH215578   4.763   7.013   1.227
 5212TIP3    H115579   4.703   7.057   1.287
 5212TIP3    H215580   4.779   7.077   1.158
 5213TIP3   OH215581   0.815   4.233   6.333
 5213TIP3    H115582   0.839   4.275   6.416
 5213TIP3    H215583   0.720   4.220   6.339
 5214TIP3   OH215584   6.643   4.870   4.238
 5214TIP3    H115585   6.730   4.885   4.275
 5214TIP3    H215586   6.609   4.957   4.220
 5215TIP3   OH215587   8.090   0.015   1.315
 5215TIP3    H115588   8.154   0.083   1.295
 5215TIP3    H215589   8.056   0.037   1.401
 5216TIP3   OH215590   2.666   1.035   6.086
 5216TIP3    H115591   2.615   0.972   6.035
 5216TIP3    H215592   2.754   0.998   6.090
 5217TIP3   OH215593   8.053   5.410   5.540
 5217TIP3    H115594   8.059   5.350   5.615
 5217TIP3    H215595   7.982   5.469   5.564
 5218TIP3   OH215596   4.238   0.522   0.637
 5218TIP3    H115597   4.165   0.516   0.699
 5218TIP3    H215598   4.300   0.583   0.678
 5219TIP3   OH215599   2.198   4.890   0.512
 5219TIP3    H115600   2.158   4.948   0.447
 5219TIP3    H215601   2.125   4.855   0.562
 5220TIP3   OH215602   7.131   0.357   3.187
 5220TIP3    H115603   7.086   0.275   3.207
 5220TIP3    H215604   7.182   0.338   3.108
 5221TIP3   OH215605   0.814   3.483   3.325
 5221TIP3    H115606   0.776   3.540   3.392
 5221TIP3    H215607   0.739   3.454   3.273
 5222TIP3   OH215608   5.050   3.051   6.142
 5222TIP3    H115609   5.076   2.987   6.208
 5222TIP3    H215610   5.029   3.130   6.193
 5223TIP3   OH215611   3.891   5.096   4.077
 5223TIP3    H115612   3.967   5.039   4.084
 5223TIP3    H215613   3.926   5.178   4.042
 5224TIP3   OH215614   0.051   5.813   1.515
 5224TIP3    H115615   0.119   5.848   1.458
 5224TIP3    H215616   0.099   5.764   1.581
 5225TIP3   OH215617   3.675   5.903   1.673
 5225TIP3    H115618   3.741   5.964   1.707
 5225TIP3    H215619   3.718   5.860   1.600
 5226TIP3   OH215620   3.802   5.898   3.746
 5226TIP3    H115621   3.808   5.808   3.781
 5226TIP3    H215622   3.850   5.951   3.810
 5227TIP3   OH215623   7.762   7.245   3.526
 5227TIP3    H115624   7.702   7.221   3.596
 5227TIP3    H215625   7.746   7.180   3.457
 5228TIP3   OH215626   7.853   3.507   5.232
 5228TIP3    H115627   7.869   3.460   5.151
 5228TIP3    H215628   7.904   3.461   5.298
 5229TIP3   OH215629   3.309   3.311   3.637
 5229TIP3    H115630   3.395   3.281   3.608
 5229TIP3    H215631   3.311   3.406   3.625
 5230TIP3   OH215632   5.317   1.950   0.084
 5230TIP3    H115633   5.402   1.912   0.104
 5230TIP3    H215634   5.300   2.012   0.155
 5231TIP3   OH215635   0.425   1.986   4.348
 5231TIP3    H115636   0.464   2.039   4.417
 5231TIP3    H215637   0.476   2.007   4.270
 5232TIP3   OH215638   2.490   4.306   2.201
 5232TIP3    H115639   2.527   4.382   2.155
 5232TIP3    H215640   2.421   4.274   2.143
 5233TIP3   OH215641   4.279   1.653   3.802
 5233TIP3    H115642   4.296   1.746   3.812
 5233TIP3    H215643   4.365   1.614   3.788
 5234TIP3   OH215644   3.704   1.183   6.672
 5234TIP3    H115645   3.616   1.181   6.635
 5234TIP3    H215646   3.708   1.106   6.728
 5235TIP3   OH215647   6.259   5.738   1.502
 5235TIP3    H115648   6.332   5.798   1.490
 5235TIP3    H215649   6.230   5.754   1.592
 5236TIP3   OH215650   3.510   0.705   4.771
 5236TIP3    H115651   3.546   0.692   4.859
 5236TIP3    H215652   3.511   0.799   4.758
 5237TIP3   OH215653   6.108   4.751   1.088
 5237TIP3    H115654   6.067   4.760   1.001
 5237TIP3    H215655   6.041   4.781   1.149
 5238TIP3   OH215656   6.560   6.648   4.310
 5238TIP3    H115657   6.641   6.661   4.358
 5238TIP3    H215658   6.544   6.554   4.315
 5239TIP3   OH215659   6.152   6.953   4.912
 5239TIP3    H115660   6.100   6.957   4.832
 5239TIP3    H215661   6.201   6.872   4.905
 5240TIP3   OH215662   4.783   6.497   4.632
 5240TIP3    H115663   4.835   6.571   4.601
 5240TIP3    H215664   4.844   6.444   4.683
 5241TIP3   OH215665   0.435   1.006   1.665
 5241TIP3    H115666   0.483   1.065   1.722
 5241TIP3    H215667   0.427   1.054   1.582
 5242TIP3   OH215668   6.363   5.255   4.274
 5242TIP3    H115669   6.291   5.310   4.306
 5242TIP3    H215670   6.434   5.317   4.257
 5243TIP3   OH215671   2.638   4.413   1.272
 5243TIP3    H115672   2.635   4.319   1.256
 5243TIP3    H215673   2.668   4.451   1.189
 5244TIP3   OH215674   2.341   7.458   5.675
 5244TIP3    H115675   2.428   7.452   5.715
 5244TIP3    H215676   2.313   7.367   5.664
 5245TIP3   OH215677   7.874   4.823   5.208
 5245TIP3    H115678   7.954   4.794   5.253
 5245TIP3    H215679   7.809   4.757   5.229
 5246TIP3   OH215680   6.716   5.410   2.103
 5246TIP3    H115681   6.783   5.352   2.138
 5246TIP3    H215682   6.651   5.351   2.063
 5247TIP3   OH215683   2.399   3.136   4.722
 5247TIP3    H115684   2.484   3.164   4.755
 5247TIP3    H215685   2.408   3.139   4.627
 5248TIP3   OH215686   2.473   5.705   3.150
 5248TIP3    H115687   2.558   5.734   3.118
 5248TIP3    H215688   2.428   5.671   3.072
 5249TIP3   OH215689   1.719   2.754   4.825
 5249TIP3    H115690   1.650   2.689   4.817
 5249TIP3    H215691   1.798   2.702   4.846
 5250TIP3   OH215692   5.081   4.519   1.171
 5250TIP3    H115693   5.139   4.585   1.209
 5250TIP3    H215694   5.115   4.506   1.083
 5251TIP3   OH215695   7.891   6.421   3.946
 5251TIP3    H115696   7.928   6.501   3.981
 5251TIP3    H215697   7.849   6.447   3.864
 5252TIP3   OH215698   7.673   1.597   5.212
 5252TIP3    H115699   7.617   1.580   5.136
 5252TIP3    H215700   7.674   1.514   5.260
 5253TIP3   OH215701   6.800   7.510   5.052
 5253TIP3    H115702   6.707   7.491   5.059
 5253TIP3    H215703   6.812   7.591   5.102
 5254TIP3   OH215704   2.600   5.569   6.533
 5254TIP3    H115705   2.584   5.663   6.536
 5254TIP3    H215706   2.541   5.537   6.465
 5255TIP3   OH215707   5.507   3.267   3.781
 5255TIP3    H115708   5.452   3.189   3.772
 5255TIP3    H215709   5.452   3.329   3.828
 5256TIP3   OH215710   0.964   4.899   0.152
 5256TIP3    H115711   1.012   4.834   0.099
 5256TIP3    H215712   0.949   4.854   0.235
 5257TIP3   OH215713   4.893   5.690   0.855
 5257TIP3    H115714   4.904   5.702   0.760
 5257TIP3    H215715   4.911   5.776   0.892
 5258TIP3   OH215716   1.695   5.632   5.285
 5258TIP3    H115717   1.756   5.594   5.221
 5258TIP3    H215718   1.728   5.720   5.300
 5259TIP3   OH215719   2.314   7.404   1.175
 5259TIP3    H115720   2.253   7.357   1.232
 5259TIP3    H215721   2.400   7.374   1.202
 5260TIP3   OH215722   2.388   0.097   3.666
 5260TIP3    H115723   2.429   0.012   3.682
 5260TIP3    H215724   2.415   0.150   3.741
 5261TIP3   OH215725   7.105   4.366   4.512
 5261TIP3    H115726   7.087   4.347   4.420
 5261TIP3    H215727   7.020   4.360   4.555
 5262TIP3   OH215728   7.959   4.326   0.165
 5262TIP3    H115729   8.047   4.345   0.197
 5262TIP3    H215730   7.960   4.233   0.145
 5263TIP3   OH215731   5.885   0.204   3.697
 5263TIP3    H115732   5.798   0.225   3.663
 5263TIP3    H215733   5.899   0.268   3.767
 5264TIP3   OH215734   2.431   3.679   5.341
 5264TIP3    H115735   2.358   3.666   5.281
 5264TIP3    H215736   2.440   3.596   5.387
 5265TIP3   OH215737   6.358   3.480   3.649
 5265TIP3    H115738   6.357   3.528   3.731
 5265TIP3    H215739   6.374   3.389   3.675
 5266TIP3   OH215740   1.742   0.423   2.474
 5266TIP3    H115741   1.674   0.488   2.491
 5266TIP3    H215742   1.766   0.389   2.560
 5267TIP3   OH215743   8.011   6.552   5.697
 5267TIP3    H115744   8.039   6.524   5.609
 5267TIP3    H215745   8.086   6.532   5.753
 5268TIP3   OH215746   1.864   1.714   1.718
 5268TIP3    H115747   1.807   1.742   1.646
 5268TIP3    H215748   1.845   1.621   1.729
 5269TIP3   OH215749   4.233   3.261   2.438
 5269TIP3    H115750   4.220   3.350   2.404
 5269TIP3    H215751   4.203   3.204   2.368
 5270TIP3   OH215752   2.602   4.603   3.318
 5270TIP3    H115753   2.635   4.594   3.408
 5270TIP3    H215754   2.510   4.576   3.324
 5271TIP3   OH215755   4.435   5.585   6.196
 5271TIP3    H115756   4.461   5.676   6.203
 5271TIP3    H215757   4.489   5.549   6.126
 5272TIP3   OH215758   0.389   0.427   1.922
 5272TIP3    H115759   0.441   0.480   1.983
 5272TIP3    H215760   0.453   0.393   1.860
 5273TIP3   OH215761   5.772   3.445   0.668
 5273TIP3    H115762   5.863   3.446   0.638
 5273TIP3    H215763   5.721   3.422   0.591
 5274TIP3   OH215764   3.611   5.199   3.409
 5274TIP3    H115765   3.674   5.196   3.481
 5274TIP3    H215766   3.527   5.176   3.449
 5275TIP3   OH215767   6.133   2.811   5.847
 5275TIP3    H115768   6.053   2.803   5.795
 5275TIP3    H215769   6.175   2.891   5.814
 5276TIP3   OH215770   7.461   3.879   6.526
 5276TIP3    H115771   7.467   3.860   6.432
 5276TIP3    H215772   7.381   3.930   6.535
 5277TIP3   OH215773   3.768   3.464   6.379
 5277TIP3    H115774   3.740   3.399   6.443
 5277TIP3    H215775   3.786   3.542   6.431
 5278TIP3   OH215776   3.472   1.511   1.119
 5278TIP3    H115777   3.497   1.441   1.059
 5278TIP3    H215778   3.544   1.516   1.182
 5279TIP3   OH215779   7.749   3.126   2.293
 5279TIP3    H115780   7.726   3.135   2.201
 5279TIP3    H215781   7.734   3.034   2.313
 5280TIP3   OH215782   6.809   3.261   3.567
 5280TIP3    H115783   6.829   3.317   3.642
 5280TIP3    H215784   6.893   3.223   3.542
 5281TIP3   OH215785   7.438   6.934   2.464
 5281TIP3    H115786   7.485   6.894   2.390
 5281TIP3    H215787   7.406   7.017   2.430
 5282TIP3   OH215788   0.383   5.415   0.224
 5282TIP3    H115789   0.338   5.331   0.215
 5282TIP3    H215790   0.435   5.424   0.145
 5283TIP3   OH215791   3.988   5.773   1.973
 5283TIP3    H115792   3.916   5.833   1.990
 5283TIP3    H215793   4.060   5.805   2.027
 5284TIP3   OH215794   1.764   3.090   1.540
 5284TIP3    H115795   1.845   3.049   1.570
 5284TIP3    H215796   1.696   3.051   1.593
 5285TIP3   OH215797   4.642   1.875   6.383
 5285TIP3    H115798   4.710   1.810   6.401
 5285TIP3    H215799   4.629   1.920   6.466
 5286TIP3   OH215800   2.302   3.625   0.228
 5286TIP3    H115801   2.357   3.675   0.167
 5286TIP3    H215802   2.268   3.691   0.289
 5287TIP3   OH215803   7.863   0.420   2.569
 5287TIP3    H115804   7.941   0.369   2.544
 5287TIP3    H215805   7.848   0.478   2.494
 5288TIP3   OH215806   4.245   6.384   3.275
 5288TIP3    H115807   4.274   6.432   3.354
 5288TIP3    H215808   4.303   6.309   3.270
 5289TIP3   OH215809   1.284   6.727   2.657
 5289TIP3    H115810   1.288   6.822   2.668
 5289TIP3    H215811   1.201   6.701   2.698
 5290TIP3   OH215812   1.146   1.561   3.211
 5290TIP3    H115813   1.117   1.647   3.181
 5290TIP3    H215814   1.100   1.499   3.154
 5291TIP3   OH215815   6.499   6.885   4.486
 5291TIP3    H115816   6.515   6.979   4.490
 5291TIP3    H215817   6.481   6.860   4.577
 5292TIP3   OH215818   0.927   0.668   0.605
 5292TIP3    H115819   0.958   0.671   0.514
 5292TIP3    H215820   0.835   0.641   0.599
 5293TIP3   OH215821   1.680   7.029   4.325
 5293TIP3    H115822   1.712   7.055   4.238
 5293TIP3    H215823   1.754   6.985   4.366
 5294TIP3   OH215824   4.696   6.077   6.463
 5294TIP3    H115825   4.762   6.076   6.394
 5294TIP3    H215826   4.662   6.166   6.463
 5295TIP3   OH215827   6.399   7.181   2.773
 5295TIP3    H115828   6.420   7.103   2.823
 5295TIP3    H215829   6.463   7.246   2.801
 5296TIP3   OH215830   2.357   4.075   3.609
 5296TIP3    H115831   2.403   4.150   3.571
 5296TIP3    H215832   2.310   4.112   3.684
 5297TIP3   OH215833   3.929   7.324   2.856
 5297TIP3    H115834   3.841   7.359   2.844
 5297TIP3    H215835   3.916   7.230   2.870
 5298TIP3   OH215836   5.855   4.889   5.512
 5298TIP3    H115837   5.944   4.883   5.548
 5298TIP3    H215838   5.824   4.976   5.539
 5299TIP3   OH215839   7.871   7.735   1.856
 5299TIP3    H115840   7.929   7.669   1.818
 5299TIP3    H215841   7.907   7.818   1.825
 5300TIP3   OH215842   6.156   6.206   2.165
 5300TIP3    H115843   6.146   6.141   2.096
 5300TIP3    H215844   6.159   6.290   2.119
 5301TIP3   OH215845   6.842   6.397   3.271
 5301TIP3    H115846   6.860   6.460   3.202
 5301TIP3    H215847   6.917   6.338   3.271
 5302TIP3   OH215848   0.848   6.350   5.310
 5302TIP3    H115849   0.854   6.274   5.368
 5302TIP3    H215850   0.866   6.315   5.223
 5303TIP3   OH215851   7.249   1.071   2.155
 5303TIP3    H115852   7.253   1.131   2.080
 5303TIP3    H215853   7.191   1.000   2.125
 5304TIP3   OH215854   2.088   5.353   2.526
 5304TIP3    H115855   2.077   5.354   2.621
 5304TIP3    H215856   2.003   5.326   2.492
 5305TIP3   OH215857   4.509   1.877   4.868
 5305TIP3    H115858   4.444   1.861   4.936
 5305TIP3    H215859   4.496   1.805   4.806
 5306TIP3   OH215860   6.064   4.447   1.075
 5306TIP3    H115861   6.082   4.454   1.168
 5306TIP3    H215862   6.126   4.507   1.034
 5307TIP3   OH215863   3.522   4.551   3.669
 5307TIP3    H115864   3.435   4.539   3.633
 5307TIP3    H215865   3.574   4.586   3.597
 5308TIP3   OH215866   0.124   4.013   2.597
 5308TIP3    H115867   0.029   3.998   2.595
 5308TIP3    H215868   0.149   3.988   2.686
 5309TIP3   OH215869   1.216   7.703   5.456
 5309TIP3    H115870   1.184   7.786   5.421
 5309TIP3    H215871   1.137   7.652   5.473
 5310TIP3   OH215872   7.538   6.430   3.777
 5310TIP3    H115873   7.628   6.463   3.767
 5310TIP3    H215874   7.484   6.508   3.770
 5311TIP3   OH215875   2.659   6.649   0.077
 5311TIP3    H115876   2.753   6.644   0.098
 5311TIP3    H215877   2.624   6.564   0.103
 5312TIP3   OH215878   5.360   5.208   4.355
 5312TIP3    H115879   5.279   5.161   4.377
 5312TIP3    H215880   5.430   5.145   4.372
 5313TIP3   OH215881   3.065   4.181   1.063
 5313TIP3    H115882   2.973   4.207   1.058
 5313TIP3    H215883   3.089   4.157   0.974
 5314TIP3   OH215884   2.777   2.744   0.395
 5314TIP3    H115885   2.772   2.723   0.489
 5314TIP3    H215886   2.777   2.840   0.393
 5315TIP3   OH215887   2.393   3.761   2.069
 5315TIP3    H115888   2.317   3.761   2.012
 5315TIP3    H215889   2.468   3.762   2.010
 5316TIP3   OH215890   3.959   3.886   2.349
 5316TIP3    H115891   3.864   3.891   2.346
 5316TIP3    H215892   3.986   3.966   2.395
 5317TIP3   OH215893   5.966   0.875   2.561
 5317TIP3    H115894   6.025   0.830   2.621
 5317TIP3    H215895   5.886   0.823   2.563
 5318TIP3   OH215896   3.538   6.230   5.551
 5318TIP3    H115897   3.571   6.249   5.463
 5318TIP3    H215898   3.595   6.161   5.584
 5319TIP3   OH215899   8.136   0.893   5.801
 5319TIP3    H115900   8.079   0.921   5.872
 5319TIP3    H215901   8.077   0.857   5.735
 5320TIP3   OH215902   6.907   2.613   4.203
 5320TIP3    H115903   6.845   2.663   4.150
 5320TIP3    H215904   6.993   2.641   4.172
 5321TIP3   OH215905   5.713   6.138   5.063
 5321TIP3    H115906   5.641   6.192   5.098
 5321TIP3    H215907   5.717   6.063   5.122
 5322TIP3   OH215908   5.904   0.055   4.345
 5322TIP3    H115909   5.957   0.061   4.265
 5322TIP3    H215910   5.963   0.018   4.410
 5323TIP3   OH215911   2.841   7.147   1.783
 5323TIP3    H115912   2.887   7.229   1.766
 5323TIP3    H215913   2.900   7.099   1.842
 5324TIP3   OH215914   2.486   2.263   0.358
 5324TIP3    H115915   2.546   2.336   0.343
 5324TIP3    H215916   2.401   2.295   0.326
 5325TIP3   OH215917   2.544   2.654   3.846
 5325TIP3    H115918   2.523   2.641   3.939
 5325TIP3    H215919   2.632   2.618   3.837
 5326TIP3   OH215920   2.089   5.777   6.613
 5326TIP3    H115921   2.149   5.757   6.685
 5326TIP3    H215922   2.079   5.872   6.616
 5327TIP3   OH215923   0.856   4.730   5.548
 5327TIP3    H115924   0.923   4.711   5.482
 5327TIP3    H215925   0.815   4.811   5.517
 5328TIP3   OH215926   6.232   5.791   1.763
 5328TIP3    H115927   6.157   5.732   1.772
 5328TIP3    H215928   6.198   5.876   1.790
 5329TIP3   OH215929   6.627   1.892   1.843
 5329TIP3    H115930   6.587   1.955   1.904
 5329TIP3    H215931   6.716   1.924   1.830
 5330TIP3   OH215932   4.863   6.025   2.955
 5330TIP3    H115933   4.944   6.054   2.914
 5330TIP3    H215934   4.835   5.949   2.904
 5331TIP3   OH215935   7.444   7.677   6.003
 5331TIP3    H115936   7.397   7.598   6.029
 5331TIP3    H215937   7.530   7.646   5.975
 5332TIP3   OH215938   1.681   7.795   5.549
 5332TIP3    H115939   1.768   7.806   5.511
 5332TIP3    H215940   1.697   7.786   5.643
 5333TIP3   OH215941   1.012   3.096   0.101
 5333TIP3    H115942   1.080   3.152   0.138
 5333TIP3    H215943   1.057   3.044   0.035
 5334TIP3   OH215944   7.516   4.453   5.637
 5334TIP3    H115945   7.568   4.513   5.692
 5334TIP3    H215946   7.447   4.508   5.601
 5335TIP3   OH215947   6.099   5.159   2.300
 5335TIP3    H115948   6.174   5.108   2.328
 5335TIP3    H215949   6.049   5.175   2.380
 5336TIP3   OH215950   0.139   5.730   5.844
 5336TIP3    H115951   0.087   5.686   5.777
 5336TIP3    H215952   0.208   5.775   5.796
 5337TIP3   OH215953   2.923   7.277   2.308
 5337TIP3    H115954   2.950   7.293   2.218
 5337TIP3    H215955   2.857   7.344   2.325
 5338TIP3   OH215956   3.804   6.181   4.477
 5338TIP3    H115957   3.808   6.107   4.416
 5338TIP3    H215958   3.805   6.139   4.564
 5339TIP3   OH215959   7.648   4.915   6.558
 5339TIP3    H115960   7.623   4.823   6.563
 5339TIP3    H215961   7.696   4.932   6.639
 5340TIP3   OH215962   2.726   6.893   2.841
 5340TIP3    H115963   2.673   6.832   2.892
 5340TIP3    H215964   2.806   6.905   2.892
 5341TIP3   OH215965   3.073   3.823   3.092
 5341TIP3    H115966   3.094   3.852   3.003
 5341TIP3    H215967   3.001   3.761   3.080
 5342TIP3   OH215968   2.377   5.947   5.719
 5342TIP3    H115969   2.461   5.916   5.684
 5342TIP3    H215970   2.395   6.036   5.748
 5343TIP3   OH215971   2.767   6.996   5.417
 5343TIP3    H115972   2.696   6.935   5.395
 5343TIP3    H215973   2.789   6.975   5.507
 5344TIP3   OH215974   2.422   6.544   1.896
 5344TIP3    H115975   2.410   6.623   1.948
 5344TIP3    H215976   2.417   6.573   1.805
 5345TIP3   OH215977   2.441   3.180   6.660
 5345TIP3    H115978   2.444   3.168   6.755
 5345TIP3    H215979   2.519   3.233   6.640
 5346TIP3   OH215980   4.183   2.218   5.924
 5346TIP3    H115981   4.140   2.205   6.008
 5346TIP3    H215982   4.268   2.176   5.934
 5347TIP3   OH215983   3.001   5.798   2.885
 5347TIP3    H115984   2.908   5.783   2.901
 5347TIP3    H215985   3.011   5.893   2.887
 5348TIP3   OH215986   1.612   1.427   0.553
 5348TIP3    H115987   1.692   1.393   0.593
 5348TIP3    H215988   1.542   1.401   0.613
 5349TIP3   OH215989   7.823   1.100   5.408
 5349TIP3    H115990   7.772   1.054   5.341
 5349TIP3    H215991   7.907   1.055   5.410
 5350TIP3   OH215992   2.027   7.005   2.837
 5350TIP3    H115993   1.965   7.035   2.771
 5350TIP3    H215994   2.019   6.910   2.837
 5351TIP3   OH215995   6.821   1.275   3.294
 5351TIP3    H115996   6.854   1.203   3.239
 5351TIP3    H215997   6.872   1.351   3.267
 5352TIP3   OH215998   3.951   0.708   5.504
 5352TIP3    H115999   3.870   0.746   5.539
 5352TIP3    H216000   4.019   0.769   5.530
 5353TIP3   OH216001   7.946   2.142   2.128
 5353TIP3    H116002   7.881   2.210   2.144
 5353TIP3    H216003   7.989   2.130   2.213
 5354TIP3   OH216004   4.051   4.973   1.371
 5354TIP3    H116005   4.025   5.059   1.403
 5354TIP3    H216006   4.112   4.991   1.300
 5355TIP3   OH216007   0.704   6.286   1.574
 5355TIP3    H116008   0.735   6.376   1.565
 5355TIP3    H216009   0.623   6.284   1.523
 5356TIP3   OH216010   1.314   6.665   5.560
 5356TIP3    H116011   1.392   6.687   5.509
 5356TIP3    H216012   1.244   6.657   5.495
 5357TIP3   OH216013   1.495   4.116   1.956
 5357TIP3    H116014   1.517   4.051   2.022
 5357TIP3    H216015   1.561   4.185   1.968
 5358TIP3   OH216016   3.589   5.577   1.945
 5358TIP3    H116017   3.563   5.594   2.035
 5358TIP3    H216018   3.547   5.646   1.894
 5359TIP3   OH216019   6.934   2.822   3.625
 5359TIP3    H116020   6.872   2.750   3.633
 5359TIP3    H216021   7.020   2.780   3.626
 5360TIP3   OH216022   7.914   6.746   4.967
 5360TIP3    H116023   8.002   6.734   5.003
 5360TIP3    H216024   7.861   6.679   5.010
 5361TIP3   OH216025   5.078   5.220   5.122
 5361TIP3    H116026   5.092   5.296   5.179
 5361TIP3    H216027   4.994   5.238   5.078
 5362TIP3   OH216028   3.201   5.192   0.825
 5362TIP3    H116029   3.258   5.120   0.850
 5362TIP3    H216030   3.234   5.268   0.873
 5363TIP3   OH216031   0.190   6.192   4.952
 5363TIP3    H116032   0.226   6.264   5.005
 5363TIP3    H216033   0.200   6.222   4.862
 5364TIP3   OH216034   4.887   7.143   3.008
 5364TIP3    H116035   4.935   7.088   3.070
 5364TIP3    H216036   4.952   7.168   2.942
 5365TIP3   OH216037   0.593   0.086   3.823
 5365TIP3    H116038   0.542   0.033   3.761
 5365TIP3    H216039   0.606   0.028   3.898
 5366TIP3   OH216040   7.317   7.338   0.904
 5366TIP3    H116041   7.385   7.270   0.900
 5366TIP3    H216042   7.325   7.384   0.820
 5367TIP3   OH216043   5.061   1.494   4.018
 5367TIP3    H116044   5.064   1.589   4.011
 5367TIP3    H216045   5.051   1.476   4.112
 5368TIP3   OH216046   0.418   1.683   1.751
 5368TIP3    H116047   0.454   1.708   1.836
 5368TIP3    H216048   0.335   1.731   1.745
 5369TIP3   OH216049   7.091   6.739   4.805
 5369TIP3    H116050   7.106   6.749   4.711
 5369TIP3    H216051   7.169   6.695   4.838
 5370TIP3   OH216052   6.161   7.708   0.616
 5370TIP3    H116053   6.150   7.772   0.545
 5370TIP3    H216054   6.202   7.633   0.573
 5371TIP3   OH216055   5.467   2.055   5.367
 5371TIP3    H116056   5.447   2.074   5.459
 5371TIP3    H216057   5.382   2.048   5.324
 5372TIP3   OH216058   3.764   3.367   5.497
 5372TIP3    H116059   3.783   3.339   5.586
 5372TIP3    H216060   3.677   3.406   5.502
 5373TIP3   OH216061   0.156   7.226   3.994
 5373TIP3    H116062   0.218   7.276   4.048
 5373TIP3    H216063   0.132   7.286   3.923
 5374TIP3   OH216064   6.941   1.988   0.448
 5374TIP3    H116065   7.016   1.941   0.410
 5374TIP3    H216066   6.968   2.006   0.538
 5375TIP3   OH216067   3.089   3.199   4.441
 5375TIP3    H116068   3.111   3.292   4.448
 5375TIP3    H216069   3.167   3.159   4.403
 5376TIP3   OH216070   0.399   1.919   6.444
 5376TIP3    H116071   0.469   1.930   6.508
 5376TIP3    H216072   0.444   1.884   6.366
 5377TIP3   OH216073   1.253   7.007   2.716
 5377TIP3    H116074   1.210   6.989   2.800
 5377TIP3    H216075   1.184   6.993   2.650
 5378TIP3   OH216076   1.726   0.526   0.131
 5378TIP3    H116077   1.663   0.466   0.091
 5378TIP3    H216078   1.779   0.470   0.189
 5379TIP3   OH216079   3.204   0.144   5.527
 5379TIP3    H116080   3.208   0.207   5.599
 5379TIP3    H216081   3.273   0.172   5.467
 5380TIP3   OH216082   6.199   0.890   0.700
 5380TIP3    H116083   6.283   0.867   0.739
 5380TIP3    H216084   6.171   0.811   0.654
 5381TIP3   OH216085   5.720   6.828   2.296
 5381TIP3    H116086   5.808   6.866   2.297
 5381TIP3    H216087   5.717   6.776   2.215
 5382TIP3   OH216088   2.354   0.675   1.802
 5382TIP3    H116089   2.268   0.640   1.778
 5382TIP3    H216090   2.387   0.614   1.867
 5383TIP3   OH216091   0.104   2.043   5.170
 5383TIP3    H116092   0.099   2.010   5.080
 5383TIP3    H216093   0.072   1.970   5.224
 5384TIP3   OH216094   7.866   2.474   2.458
 5384TIP3    H116095   7.852   2.438   2.371
 5384TIP3    H216096   7.782   2.466   2.502
 5385TIP3   OH216097   4.683   7.577   2.116
 5385TIP3    H116098   4.658   7.502   2.169
 5385TIP3    H216099   4.608   7.591   2.058
 5386TIP3   OH216100   3.135   4.651   6.288
 5386TIP3    H116101   3.133   4.746   6.298
 5386TIP3    H216102   3.059   4.631   6.233
 5387TIP3   OH216103   2.968   7.003   3.977
 5387TIP3    H116104   3.016   7.081   4.006
 5387TIP3    H216105   2.923   7.030   3.897
 5388TIP3   OH216106   4.762   1.927   2.124
 5388TIP3    H116107   4.847   1.920   2.166
 5388TIP3    H216108   4.781   1.921   2.030
 5389TIP3   OH216109   6.066   0.844   2.088
 5389TIP3    H116110   6.024   0.904   2.149
 5389TIP3    H216111   6.012   0.765   2.090
 5390TIP3   OH216112   2.101   3.495   2.023
 5390TIP3    H116113   2.012   3.475   1.996
 5390TIP3    H216114   2.121   3.579   1.981
 5391TIP3   OH216115   7.356   3.401   4.202
 5391TIP3    H116116   7.359   3.443   4.288
 5391TIP3    H216117   7.283   3.443   4.157
 5392TIP3   OH216118   4.294   4.811   2.639
 5392TIP3    H116119   4.233   4.881   2.661
 5392TIP3    H216120   4.354   4.850   2.575
 5393TIP3   OH216121   7.865   0.935   2.725
 5393TIP3    H116122   7.938   0.952   2.784
 5393TIP3    H216123   7.824   1.021   2.712
 5394TIP3   OH216124   6.906   5.023   3.589
 5394TIP3    H116125   6.975   5.029   3.524
 5394TIP3    H216126   6.858   4.943   3.566
 5395TIP3   OH216127   1.284   3.776   3.602
 5395TIP3    H116128   1.240   3.861   3.609
 5395TIP3    H216129   1.223   3.715   3.643
 5396TIP3   OH216130   6.784   7.539   2.937
 5396TIP3    H116131   6.804   7.629   2.966
 5396TIP3    H216132   6.817   7.484   3.008
 5397TIP3   OH216133   0.987   2.742   1.400
 5397TIP3    H116134   0.892   2.741   1.397
 5397TIP3    H216135   1.010   2.835   1.401
 5398TIP3   OH216136   1.155   1.600   5.432
 5398TIP3    H116137   1.212   1.612   5.507
 5398TIP3    H216138   1.204   1.542   5.373
 5399TIP3   OH216139   3.597   7.475   0.846
 5399TIP3    H116140   3.516   7.518   0.819
 5399TIP3    H216141   3.611   7.503   0.936
 5400TIP3   OH216142   4.228   6.735   6.277
 5400TIP3    H116143   4.192   6.646   6.284
 5400TIP3    H216144   4.314   6.728   6.318
 5401TIP3   OH216145   6.024   1.018   3.977
 5401TIP3    H116146   5.998   1.050   3.890
 5401TIP3    H216147   6.075   1.089   4.015
 5402TIP3   OH216148   0.056   1.726   1.980
 5402TIP3    H116149   0.079   1.650   2.033
 5402TIP3    H216150   0.057   1.799   2.041
 5403TIP3   OH216151   6.856   5.853   2.647
 5403TIP3    H116152   6.815   5.767   2.636
 5403TIP3    H216153   6.796   5.901   2.704
 5404TIP3   OH216154   4.321   7.302   5.714
 5404TIP3    H116155   4.336   7.208   5.706
 5404TIP3    H216156   4.301   7.315   5.807
 5405TIP3   OH216157   1.232   2.550   2.095
 5405TIP3    H116158   1.280   2.577   2.174
 5405TIP3    H216159   1.216   2.457   2.108
 5406TIP3   OH216160   7.560   0.535   0.412
 5406TIP3    H116161   7.505   0.471   0.459
 5406TIP3    H216162   7.620   0.568   0.479
 5407TIP3   OH216163   2.087   6.614   1.298
 5407TIP3    H116164   2.060   6.702   1.322
 5407TIP3    H216165   2.070   6.562   1.377
 5408TIP3   OH216166   6.758   0.066   0.221
 5408TIP3    H116167   6.815   0.141   0.238
 5408TIP3    H216168   6.691   0.100   0.161
 5409TIP3   OH216169   5.290   1.876   3.499
 5409TIP3    H116170   5.333   1.801   3.457
 5409TIP3    H216171   5.245   1.838   3.575
 5410TIP3   OH216172   6.970   2.665   4.910
 5410TIP3    H116173   6.940   2.659   5.000
 5410TIP3    H216174   6.981   2.758   4.894
 5411TIP3   OH216175   3.326   1.965   3.794
 5411TIP3    H116176   3.378   2.036   3.755
 5411TIP3    H216177   3.380   1.933   3.867
 5412TIP3   OH216178   8.104   2.211   3.542
 5412TIP3    H116179   8.197   2.201   3.521
 5412TIP3    H216180   8.104   2.237   3.635
 5413TIP3   OH216181   0.818   6.803   1.783
 5413TIP3    H116182   0.899   6.756   1.765
 5413TIP3    H216183   0.752   6.759   1.729
 5414TIP3   OH216184   1.035   7.373   3.148
 5414TIP3    H116185   1.072   7.299   3.099
 5414TIP3    H216186   0.968   7.409   3.090
 5415TIP3   OH216187   4.860   4.591   1.034
 5415TIP3    H116188   4.823   4.658   1.092
 5415TIP3    H216189   4.933   4.554   1.083
 5416TIP3   OH216190   1.387   5.895   2.518
 5416TIP3    H116191   1.410   5.896   2.611
 5416TIP3    H216192   1.337   5.814   2.507
 5417TIP3   OH216193   7.417   6.212   1.265
 5417TIP3    H116194   7.510   6.221   1.242
 5417TIP3    H216195   7.376   6.181   1.185
 5418TIP3   OH216196   5.874   2.846   1.675
 5418TIP3    H116197   5.829   2.927   1.652
 5418TIP3    H216198   5.877   2.797   1.593
 5419TIP3   OH216199   1.773   4.200   1.494
 5419TIP3    H116200   1.725   4.255   1.556
 5419TIP3    H216201   1.849   4.252   1.470
 5420TIP3   OH216202   2.516   0.394   1.724
 5420TIP3    H116203   2.462   0.317   1.703
 5420TIP3    H216204   2.562   0.414   1.642
 5421TIP3   OH216205   7.413   1.629   1.888
 5421TIP3    H116206   7.410   1.568   1.814
 5421TIP3    H216207   7.359   1.588   1.955
 5422TIP3   OH216208   7.450   5.135   5.875
 5422TIP3    H116209   7.355   5.139   5.865
 5422TIP3    H216210   7.473   5.214   5.923
 5423TIP3   OH216211   6.529   5.876   6.401
 5423TIP3    H116212   6.470   5.802   6.389
 5423TIP3    H216213   6.484   5.933   6.463
 5424TIP3   OH216214   0.309   0.949   0.722
 5424TIP3    H116215   0.311   0.883   0.652
 5424TIP3    H216216   0.218   0.977   0.725
 5425TIP3   OH216217   2.304   6.544   4.103
 5425TIP3    H116218   2.219   6.501   4.103
 5425TIP3    H216219   2.287   6.632   4.069
 5426TIP3   OH216220   0.781   6.423   6.384
 5426TIP3    H116221   0.778   6.372   6.465
 5426TIP3    H216222   0.837   6.498   6.404
 5427TIP3   OH216223   5.182   5.224   0.476
 5427TIP3    H116224   5.138   5.251   0.556
 5427TIP3    H216225   5.195   5.129   0.486
 5428TIP3   OH216226   5.087   0.155   2.269
 5428TIP3    H116227   5.065   0.214   2.197
 5428TIP3    H216228   5.057   0.201   2.348
 5429TIP3   OH216229   1.654   7.416   3.866
 5429TIP3    H116230   1.615   7.345   3.816
 5429TIP3    H216231   1.696   7.472   3.800
 5430TIP3   OH216232   8.131   0.737   5.219
 5430TIP3    H116233   8.213   0.716   5.263
 5430TIP3    H216234   8.137   0.695   5.134
 5431TIP3   OH216235   4.213   3.176   1.939
 5431TIP3    H116236   4.226   3.233   1.862
 5431TIP3    H216237   4.296   3.180   1.986
 5432TIP3   OH216238   8.205   6.708   5.050
 5432TIP3    H116239   8.200   6.720   4.955
 5432TIP3    H216240   8.279   6.649   5.063
 5433TIP3   OH216241   1.504   3.706   2.300
 5433TIP3    H116242   1.514   3.619   2.262
 5433TIP3    H216243   1.409   3.716   2.311
 5434TIP3   OH216244   1.767   6.643   1.964
 5434TIP3    H116245   1.704   6.715   1.966
 5434TIP3    H216246   1.770   6.617   1.872
 5435TIP3   OH216247   2.190   4.140   3.840
 5435TIP3    H116248   2.131   4.181   3.777
 5435TIP3    H216249   2.173   4.186   3.922
 5436TIP3   OH216250   4.305   3.390   0.216
 5436TIP3    H116251   4.341   3.478   0.204
 5436TIP3    H216252   4.367   3.347   0.275
 5437TIP3   OH216253   6.410   2.604   4.932
 5437TIP3    H116254   6.342   2.629   4.995
 5437TIP3    H216255   6.486   2.585   4.986
 5438TIP3   OH216256   3.401   4.968   4.028
 5438TIP3    H116257   3.422   4.875   4.017
 5438TIP3    H216258   3.336   4.985   3.960
 5439TIP3   OH216259   4.219   4.176   3.266
 5439TIP3    H116260   4.257   4.102   3.314
 5439TIP3    H216261   4.254   4.253   3.310
 5440TIP3   OH216262   4.858   3.082   2.645
 5440TIP3    H116263   4.829   3.073   2.736
 5440TIP3    H216264   4.940   3.033   2.641
 5441TIP3   OH216265   5.855   7.394   6.172
 5441TIP3    H116266   5.913   7.408   6.248
 5441TIP3    H216267   5.915   7.370   6.101
 5442TIP3   OH216268   3.733   5.401   2.457
 5442TIP3    H116269   3.644   5.366   2.467
 5442TIP3    H216270   3.723   5.495   2.469
 5443TIP3   OH216271   7.868   0.484   2.271
 5443TIP3    H116272   7.886   0.578   2.263
 5443TIP3    H216273   7.954   0.442   2.264
 5444TIP3   OH216274   1.407   5.041   5.737
 5444TIP3    H116275   1.402   5.100   5.812
 5444TIP3    H216276   1.330   4.985   5.745
 5445TIP3   OH216277   4.951   1.184   0.264
 5445TIP3    H116278   4.873   1.138   0.233
 5445TIP3    H216279   4.999   1.206   0.184
 5446TIP3   OH216280   1.762   2.912   2.818
 5446TIP3    H116281   1.702   2.839   2.805
 5446TIP3    H216282   1.810   2.919   2.735
 5447TIP3   OH216283   2.195   1.860   2.926
 5447TIP3    H116284   2.171   1.947   2.894
 5447TIP3    H216285   2.147   1.800   2.869
 5448TIP3   OH216286   7.689   0.497   3.617
 5448TIP3    H116287   7.695   0.587   3.587
 5448TIP3    H216288   7.654   0.449   3.542
 5449TIP3   OH216289   5.326   1.378   0.392
 5449TIP3    H116290   5.386   1.316   0.433
 5449TIP3    H216291   5.380   1.423   0.326
 5450TIP3   OH216292   1.577   6.359   0.325
 5450TIP3    H116293   1.625   6.436   0.355
 5450TIP3    H216294   1.617   6.337   0.241
 5451TIP3   OH216295   0.502   1.058   3.528
 5451TIP3    H116296   0.497   1.096   3.616
 5451TIP3    H216297   0.431   1.099   3.479
 5452TIP3   OH216298   6.387   3.823   2.187
 5452TIP3    H116299   6.457   3.833   2.123
 5452TIP3    H216300   6.430   3.834   2.272
 5453TIP3   OH216301   1.216   6.033   4.809
 5453TIP3    H116302   1.133   6.026   4.762
 5453TIP3    H216303   1.242   6.124   4.798
 5454TIP3   OH216304   0.554   0.629   1.195
 5454TIP3    H116305   0.498   0.564   1.153
 5454TIP3    H216306   0.623   0.576   1.237
 5455TIP3   OH216307   5.850   4.103   3.767
 5455TIP3    H116308   5.833   4.176   3.826
 5455TIP3    H216309   5.763   4.066   3.750
 5456TIP3   OH216310   7.050   0.780   6.033
 5456TIP3    H116311   7.089   0.710   5.981
 5456TIP3    H216312   7.118   0.804   6.096
 5457TIP3   OH216313   4.727   1.435   3.671
 5457TIP3    H116314   4.784   1.439   3.594
 5457TIP3    H216315   4.656   1.377   3.646
 5458TIP3   OH216316   5.414   7.241   1.688
 5458TIP3    H116317   5.365   7.203   1.761
 5458TIP3    H216318   5.460   7.315   1.727
 5459TIP3   OH216319   8.178   7.067   2.649
 5459TIP3    H116320   8.183   6.986   2.699
 5459TIP3    H216321   8.186   7.137   2.714
 5460TIP3   OH216322   4.878   5.760   4.422
 5460TIP3    H116323   4.939   5.793   4.488
 5460TIP3    H216324   4.904   5.668   4.409
 5461TIP3   OH216325   1.202   2.188   3.631
 5461TIP3    H116326   1.151   2.192   3.550
 5461TIP3    H216327   1.152   2.130   3.688
 5462TIP3   OH216328   3.382   0.297   4.699
 5462TIP3    H116329   3.339   0.211   4.705
 5462TIP3    H216330   3.417   0.312   4.787
 5463TIP3   OH216331   7.443   6.262   5.860
 5463TIP3    H116332   7.378   6.227   5.921
 5463TIP3    H216333   7.525   6.223   5.888
 5464TIP3   OH216334   5.422   5.780   4.895
 5464TIP3    H116335   5.498   5.784   4.837
 5464TIP3    H216336   5.381   5.696   4.875
 5465TIP3   OH216337   1.051   0.186   3.302
 5465TIP3    H116338   1.018   0.257   3.246
 5465TIP3    H216339   1.047   0.222   3.390
 5466TIP3   OH216340   3.032   5.614   3.387
 5466TIP3    H116341   3.083   5.551   3.337
 5466TIP3    H216342   3.097   5.660   3.441
 5467TIP3   OH216343   0.977   5.667   4.729
 5467TIP3    H116344   0.940   5.715   4.803
 5467TIP3    H216345   0.913   5.599   4.710
 5468TIP3   OH216346   0.091   6.644   3.002
 5468TIP3    H116347   0.172   6.692   2.984
 5468TIP3    H216348   0.121   6.561   3.041
 5469TIP3   OH216349   0.650   3.425   1.596
 5469TIP3    H116350   0.724   3.486   1.599
 5469TIP3    H216351   0.641   3.404   1.503
 5470TIP3   OH216352   7.041   7.534   4.094
 5470TIP3    H116353   6.976   7.498   4.155
 5470TIP3    H216354   7.091   7.459   4.064
 5471TIP3   OH216355   4.535   3.554   3.629
 5471TIP3    H116356   4.615   3.601   3.608
 5471TIP3    H216357   4.496   3.603   3.701
 5472TIP3   OH216358   0.756   5.038   0.357
 5472TIP3    H116359   0.846   5.007   0.373
 5472TIP3    H216360   0.727   4.988   0.281
 5473TIP3   OH216361   4.304   1.755   1.936
 5473TIP3    H116362   4.388   1.716   1.910
 5473TIP3    H216363   4.307   1.756   2.032
 5474TIP3   OH216364   6.636   4.968   0.229
 5474TIP3    H116365   6.717   5.009   0.199
 5474TIP3    H216366   6.567   5.013   0.181
 5475TIP3   OH216367   5.967   6.070   6.039
 5475TIP3    H116368   5.959   5.988   6.088
 5475TIP3    H216369   5.890   6.073   5.983
 5476TIP3   OH216370   2.746   4.027   6.552
 5476TIP3    H116371   2.837   4.000   6.540
 5476TIP3    H216372   2.751   4.097   6.616
 5477TIP3   OH216373   0.997   2.002   1.788
 5477TIP3    H116374   0.959   1.931   1.839
 5477TIP3    H216375   1.023   1.962   1.705
 5478TIP3   OH216376   3.692   6.547   0.592
 5478TIP3    H116377   3.615   6.557   0.648
 5478TIP3    H216378   3.685   6.619   0.529
 5479TIP3   OH216379   0.340   0.106   3.001
 5479TIP3    H116380   0.392   0.117   2.922
 5479TIP3    H216381   0.404   0.097   3.072
 5480TIP3   OH216382   6.863   5.207   0.761
 5480TIP3    H116383   6.796   5.212   0.693
 5480TIP3    H216384   6.814   5.212   0.843
 5481TIP3   OH216385   3.809   1.926   3.418
 5481TIP3    H116386   3.892   1.970   3.397
 5481TIP3    H216387   3.742   1.983   3.381
 5482TIP3   OH216388   5.039   5.240   6.398
 5482TIP3    H116389   5.073   5.295   6.468
 5482TIP3    H216390   5.090   5.159   6.404
 5483TIP3   OH216391   3.822   1.153   0.307
 5483TIP3    H116392   3.803   1.166   0.214
 5483TIP3    H216393   3.796   1.063   0.325
 5484TIP3   OH216394   1.724   1.071   5.537
 5484TIP3    H116395   1.663   1.116   5.479
 5484TIP3    H216396   1.669   1.012   5.588
 5485TIP3   OH216397   5.881   5.438   4.707
 5485TIP3    H116398   5.824   5.515   4.716
 5485TIP3    H216399   5.824   5.370   4.672
 5486TIP3   OH216400   1.496   7.545   1.394
 5486TIP3    H116401   1.446   7.466   1.375
 5486TIP3    H216402   1.554   7.519   1.467
 5487TIP3   OH216403   6.914   7.682   0.042
 5487TIP3    H116404   6.924   7.587   0.047
 5487TIP3    H216405   6.973   7.715   0.110
 5488TIP3   OH216406   7.441   1.060   2.900
 5488TIP3    H116407   7.502   0.987   2.894
 5488TIP3    H216408   7.359   1.020   2.928
 5489TIP3   OH216409   5.416   3.242   4.260
 5489TIP3    H116410   5.367   3.324   4.262
 5489TIP3    H216411   5.360   3.179   4.305
 5490TIP3   OH216412   0.208   6.653   4.884
 5490TIP3    H116413   0.245   6.711   4.950
 5490TIP3    H216414   0.284   6.615   4.840
 5491TIP3   OH216415   2.330   3.480   1.076
 5491TIP3    H116416   2.272   3.553   1.100
 5491TIP3    H216417   2.352   3.496   0.984
 5492TIP3   OH216418   3.732   5.332   1.253
 5492TIP3    H116419   3.764   5.271   1.320
 5492TIP3    H216420   3.793   5.406   1.258
 5493TIP3   OH216421   5.480   2.802   2.785
 5493TIP3    H116422   5.575   2.809   2.795
 5493TIP3    H216423   5.467   2.781   2.692
 5494TIP3   OH216424   2.951   0.581   6.319
 5494TIP3    H116425   2.946   0.667   6.276
 5494TIP3    H216426   2.874   0.579   6.375
 5495TIP3   OH216427   1.502   0.037   4.412
 5495TIP3    H116428   1.570  -0.011   4.459
 5495TIP3    H216429   1.460   0.091   4.480
 5496TIP3   OH216430   6.301   0.570   5.865
 5496TIP3    H116431   6.380   0.614   5.835
 5496TIP3    H216432   6.249   0.558   5.786
 5497TIP3   OH216433   6.689   5.109   6.317
 5497TIP3    H116434   6.769   5.120   6.266
 5497TIP3    H216435   6.705   5.030   6.369
 5498TIP3   OH216436   1.071   3.723   5.628
 5498TIP3    H116437   1.021   3.643   5.614
 5498TIP3    H216438   1.161   3.701   5.602
 5499TIP3   OH216439   7.167   0.681   5.670
 5499TIP3    H116440   7.219   0.603   5.692
 5499TIP3    H216441   7.082   0.646   5.643
 5500TIP3   OH216442   5.960   3.333   4.082
 5500TIP3    H116443   6.002   3.302   4.162
 5500TIP3    H216444   6.029   3.335   4.017
 5501TIP3   OH216445   7.490   6.293   6.640
 5501TIP3    H116446   7.426   6.247   6.695
 5501TIP3    H216447   7.551   6.332   6.703
 5502TIP3   OH216448   7.105   5.404   5.629
 5502TIP3    H116449   7.124   5.310   5.635
 5502TIP3    H216450   7.190   5.446   5.645
 5503TIP3   OH216451   4.471   1.032   1.911
 5503TIP3    H116452   4.441   1.069   1.993
 5503TIP3    H216453   4.398   0.978   1.880
 5504TIP3   OH216454   2.614   7.776   0.035
 5504TIP3    H116455   2.647   7.866   0.039
 5504TIP3    H216456   2.670   7.733  -0.030
 5505TIP3   OH216457   4.618   2.774   6.647
 5505TIP3    H116458   4.611   2.686   6.685
 5505TIP3    H216459   4.588   2.764   6.557
 5506TIP3   OH216460   4.121   5.778   6.606
 5506TIP3    H116461   4.083   5.744   6.687
 5506TIP3    H216462   4.107   5.708   6.542
 5507TIP3   OH216463   6.035   6.740   4.536
 5507TIP3    H116464   6.119   6.735   4.490
 5507TIP3    H216465   6.050   6.697   4.620
 5508TIP3   OH216466   4.045   6.832   4.334
 5508TIP3    H116467   4.102   6.806   4.262
 5508TIP3    H216468   4.094   6.900   4.381
 5509TIP3   OH216469   2.155   5.164   6.214
 5509TIP3    H116470   2.085   5.174   6.150
 5509TIP3    H216471   2.124   5.210   6.292
 5510TIP3   OH216472   4.217   0.092   0.345
 5510TIP3    H116473   4.303   0.091   0.304
 5510TIP3    H216474   4.173   0.014   0.311
 5511TIP3   OH216475   7.055   1.102   0.599
 5511TIP3    H116476   7.026   1.162   0.667
 5511TIP3    H216477   7.136   1.065   0.632
 5512TIP3   OH216478   0.586   0.945   5.681
 5512TIP3    H116479   0.570   1.003   5.756
 5512TIP3    H216480   0.519   0.970   5.617
 5513TIP3   OH216481   4.594   1.956   4.448
 5513TIP3    H116482   4.556   1.870   4.467
 5513TIP3    H216483   4.664   1.965   4.512
 5514TIP3   OH216484   7.100   1.779   6.016
 5514TIP3    H116485   7.181   1.750   5.976
 5514TIP3    H216486   7.039   1.788   5.943
 5515TIP3   OH216487   5.845   3.145   4.435
 5515TIP3    H116488   5.815   3.073   4.379
 5515TIP3    H216489   5.905   3.195   4.380
 5516TIP3   OH216490   1.619   3.536   0.228
 5516TIP3    H116491   1.527   3.514   0.245
 5516TIP3    H216492   1.633   3.508   0.137
 5517TIP3   OH216493   0.774   1.082   6.561
 5517TIP3    H116494   0.716   1.123   6.496
 5517TIP3    H216495   0.715   1.044   6.626
 5518TIP3   OH216496   5.951   5.699   0.438
 5518TIP3    H116497   5.893   5.749   0.495
 5518TIP3    H216498   5.925   5.608   0.452
 5519TIP3   OH216499   1.578   6.625   6.017
 5519TIP3    H116500   1.509   6.560   6.007
 5519TIP3    H216501   1.551   6.698   5.961
 5520TIP3   OH216502   4.737   1.409   3.958
 5520TIP3    H116503   4.795   1.334   3.951
 5520TIP3    H216504   4.725   1.439   3.868
 5521TIP3   OH216505   8.014   2.455   4.643
 5521TIP3    H116506   7.998   2.460   4.737
 5521TIP3    H216507   7.926   2.455   4.604
 5522TIP3   OH216508   0.123   4.136   6.060
 5522TIP3    H116509   0.162   4.054   6.029
 5522TIP3    H216510   0.178   4.162   6.134
 5523TIP3   OH216511   8.214   0.985   1.198
 5523TIP3    H116512   8.283   0.963   1.261
 5523TIP3    H216513   8.247   1.063   1.153
 5524TIP3   OH216514   4.866   5.290   4.604
 5524TIP3    H116515   4.871   5.384   4.587
 5524TIP3    H216516   4.894   5.249   4.522
 5525TIP3   OH216517   6.400   1.986   1.067
 5525TIP3    H116518   6.477   1.945   1.108
 5525TIP3    H216519   6.420   1.986   0.973
 5526TIP3   OH216520   3.256   4.974   0.591
 5526TIP3    H116521   3.324   4.910   0.611
 5526TIP3    H216522   3.236   5.014   0.675
 5527TIP3   OH216523   5.466   0.521   3.322
 5527TIP3    H116524   5.434   0.607   3.350
 5527TIP3    H216525   5.561   0.532   3.314
 5528TIP3   OH216526   6.988   2.206   3.174
 5528TIP3    H116527   6.962   2.195   3.266
 5528TIP3    H216528   7.023   2.121   3.149
 5529TIP3   OH216529   3.008   5.940   0.607
 5529TIP3    H116530   2.976   5.971   0.692
 5529TIP3    H216531   3.101   5.924   0.621
 5530TIP3   OH216532   6.938   1.102   3.124
 5530TIP3    H116533   6.893   1.047   3.059
 5530TIP3    H216534   7.025   1.063   3.132
 5531TIP3   OH216535   4.740   2.079   4.969
 5531TIP3    H116536   4.725   1.996   5.012
 5531TIP3    H216537   4.654   2.108   4.940
 5532TIP3   OH216538   7.632   6.197   6.095
 5532TIP3    H116539   7.672   6.260   6.155
 5532TIP3    H216540   7.644   6.112   6.138
 5533TIP3   OH216541   4.808   1.561   4.259
 5533TIP3    H116542   4.716   1.580   4.238
 5533TIP3    H216543   4.835   1.634   4.315
 5534TIP3   OH216544   0.631   6.539   5.445
 5534TIP3    H116545   0.659   6.486   5.370
 5534TIP3    H216546   0.561   6.594   5.410
 5535TIP3   OH216547   6.301   0.114   1.268
 5535TIP3    H116548   6.323   0.163   1.347
 5535TIP3    H216549   6.365   0.043   1.264
 5536TIP3   OH216550   7.722   6.615   6.483
 5536TIP3    H116551   7.649   6.590   6.426
 5536TIP3    H216552   7.700   6.702   6.514
 5537TIP3   OH216553   1.443   7.594   5.852
 5537TIP3    H116554   1.366   7.580   5.906
 5537TIP3    H216555   1.416   7.659   5.787
 5538TIP3   OH216556   4.815   4.207   5.568
 5538TIP3    H116557   4.788   4.298   5.557
 5538TIP3    H216558   4.882   4.193   5.500
 5539TIP3   OH216559   5.375   0.372   3.951
 5539TIP3    H116560   5.359   0.455   3.906
 5539TIP3    H216561   5.407   0.398   4.037
 5540TIP3   OH216562   2.289   1.651   3.912
 5540TIP3    H116563   2.203   1.686   3.890
 5540TIP3    H216564   2.306   1.584   3.846
 5541TIP3   OH216565   7.753   0.076   3.968
 5541TIP3    H116566   7.701   0.133   3.911
 5541TIP3    H216567   7.822   0.042   3.912
 5542TIP3   OH216568   8.290   5.169   3.703
 5542TIP3    H116569   8.287   5.173   3.798
 5542TIP3    H216570   8.337   5.248   3.677
 5543TIP3   OH216571   1.896   1.231   0.095
 5543TIP3    H116572   1.889   1.205   0.186
 5543TIP3    H216573   1.828   1.297   0.083
 5544TIP3   OH216574   7.829   5.906   1.252
 5544TIP3    H116575   7.773   5.862   1.188
 5544TIP3    H216576   7.853   5.838   1.314
 5545TIP3   OH216577   2.973   3.882   6.485
 5545TIP3    H116578   2.936   3.798   6.459
 5545TIP3    H216579   3.034   3.904   6.414
 5546TIP3   OH216580   3.634   0.274   5.231
 5546TIP3    H116581   3.685   0.295   5.152
 5546TIP3    H216582   3.620   0.358   5.274
 5547TIP3   OH216583   7.313   1.719   1.069
 5547TIP3    H116584   7.262   1.640   1.054
 5547TIP3    H216585   7.399   1.699   1.032
 5548TIP3   OH216586   5.581   0.674   4.060
 5548TIP3    H116587   5.601   0.581   4.071
 5548TIP3    H216588   5.488   0.676   4.037
 5549TIP3   OH216589   6.388   4.602   2.665
 5549TIP3    H116590   6.296   4.574   2.668
 5549TIP3    H216591   6.436   4.527   2.700
 5550TIP3   OH216592   0.371   6.559   3.515
 5550TIP3    H116593   0.358   6.589   3.425
 5550TIP3    H216594   0.466   6.548   3.523
 5551TIP3   OH216595   0.276   3.423   2.612
 5551TIP3    H116596   0.296   3.487   2.543
 5551TIP3    H216597   0.287   3.338   2.568
 5552TIP3   OH216598   3.437   0.599   5.794
 5552TIP3    H116599   3.430   0.653   5.872
 5552TIP3    H216600   3.361   0.541   5.797
 5553TIP3   OH216601   5.367   5.859   0.049
 5553TIP3    H116602   5.295   5.795   0.056
 5553TIP3    H216603   5.357   5.896  -0.039
 5554TIP3   OH216604   2.676   3.362   6.661
 5554TIP3    H116605   2.737   3.290   6.676
 5554TIP3    H216606   2.731   3.441   6.663
 5555TIP3   OH216607   6.645   3.123   4.410
 5555TIP3    H116608   6.594   3.204   4.409
 5555TIP3    H216609   6.695   3.127   4.492
 5556TIP3   OH216610   5.070   6.882   4.698
 5556TIP3    H116611   5.059   6.841   4.784
 5556TIP3    H216612   4.986   6.867   4.653
 5557TIP3   OH216613   3.390   6.588   4.998
 5557TIP3    H116614   3.373   6.631   5.082
 5557TIP3    H216615   3.479   6.555   5.006
 5558TIP3   OH216616   3.952   6.930   1.194
 5558TIP3    H116617   3.905   6.934   1.278
 5558TIP3    H216618   4.002   7.011   1.191
 5559TIP3   OH216619   3.870   4.025   3.285
 5559TIP3    H116620   3.786   3.982   3.270
 5559TIP3    H216621   3.903   4.044   3.197
 5560TIP3   OH216622   1.726   0.478   4.668
 5560TIP3    H116623   1.708   0.492   4.575
 5560TIP3    H216624   1.675   0.546   4.712
 5561TIP3   OH216625   6.073   2.438   5.275
 5561TIP3    H116626   6.034   2.358   5.312
 5561TIP3    H216627   6.136   2.406   5.211
 5562TIP3   OH216628   6.986   5.099   3.257
 5562TIP3    H116629   7.030   5.185   3.262
 5562TIP3    H216630   6.893   5.120   3.250
 5563TIP3   OH216631   7.689   3.595   3.657
 5563TIP3    H116632   7.765   3.645   3.627
 5563TIP3    H216633   7.720   3.550   3.736
 5564TIP3   OH216634   2.324   2.280   3.053
 5564TIP3    H116635   2.275   2.361   3.068
 5564TIP3    H216636   2.396   2.283   3.116
 5565TIP3   OH216637   6.038   1.461   0.022
 5565TIP3    H116638   5.989   1.542   0.033
 5565TIP3    H216639   6.062   1.434   0.111
 5566TIP3   OH216640   5.333   6.526   1.218
 5566TIP3    H116641   5.335   6.613   1.178
 5566TIP3    H216642   5.344   6.543   1.312
 5567TIP3   OH216643   6.442   0.654   0.250
 5567TIP3    H116644   6.485   0.681   0.331
 5567TIP3    H216645   6.475   0.714   0.183
 5568TIP3   OH216646   7.520   1.436   3.674
 5568TIP3    H116647   7.454   1.368   3.662
 5568TIP3    H216648   7.603   1.391   3.659
 5569TIP3   OH216649   6.625   7.199   0.025
 5569TIP3    H116650   6.596   7.112   0.049
 5569TIP3    H216651   6.714   7.206   0.061
 5570TIP3   OH216652   7.555   3.829   4.019
 5570TIP3    H116653   7.485   3.877   4.063
 5570TIP3    H216654   7.631   3.841   4.076
 5571TIP3   OH216655   1.806   1.058   2.492
 5571TIP3    H116656   1.858   1.114   2.550
 5571TIP3    H216657   1.841   1.075   2.404
 5572TIP3   OH216658   2.158   7.698   3.636
 5572TIP3    H116659   2.207   7.644   3.574
 5572TIP3    H216660   2.071   7.659   3.638
 5573TIP3   OH216661   0.889   7.584   1.141
 5573TIP3    H116662   0.963   7.559   1.086
 5573TIP3    H216663   0.911   7.672   1.172
 5574TIP3   OH216664   2.566   6.714   2.982
 5574TIP3    H116665   2.475   6.732   3.003
 5574TIP3    H216666   2.571   6.618   2.977
 5575TIP3   OH216667   8.188   3.015   2.374
 5575TIP3    H116668   8.132   3.004   2.450
 5575TIP3    H216669   8.131   3.052   2.307
 5576TIP3   OH216670   2.523   6.838   4.508
 5576TIP3    H116671   2.460   6.872   4.446
 5576TIP3    H216672   2.602   6.890   4.495
 5577TIP3   OH216673   7.225   4.620   0.397
 5577TIP3    H116674   7.247   4.637   0.489
 5577TIP3    H216675   7.168   4.693   0.372
 5578TIP3   OH216676   7.700   4.046   2.118
 5578TIP3    H116677   7.639   4.024   2.048
 5578TIP3    H216678   7.776   4.084   2.074
 5579TIP3   OH216679   3.505   2.778   1.749
 5579TIP3    H116680   3.491   2.774   1.844
 5579TIP3    H216681   3.500   2.871   1.728
 5580TIP3   OH216682   4.735   1.672   2.617
 5580TIP3    H116683   4.759   1.749   2.668
 5580TIP3    H216684   4.712   1.606   2.682
 5581TIP3   OH216685   0.366   4.934   2.922
 5581TIP3    H116686   0.292   4.890   2.879
 5581TIP3    H216687   0.371   5.019   2.880
 5582TIP3   OH216688   4.244   1.040   4.093
 5582TIP3    H116689   4.167   1.011   4.142
 5582TIP3    H216690   4.212   1.052   4.004
 5583TIP3   OH216691   7.287   7.688   3.846
 5583TIP3    H116692   7.259   7.731   3.927
 5583TIP3    H216693   7.327   7.759   3.795
 5584TIP3   OH216694   0.534   3.890   1.182
 5584TIP3    H116695   0.607   3.904   1.242
 5584TIP3    H216696   0.467   3.952   1.212
 5585TIP3   OH216697   4.664   6.030   4.693
 5585TIP3    H116698   4.620   6.110   4.667
 5585TIP3    H216699   4.596   5.962   4.688
 5586TIP3   OH216700   6.261   0.343   4.913
 5586TIP3    H116701   6.188   0.353   4.852
 5586TIP3    H216702   6.220   0.316   4.995
 5587TIP3   OH216703   8.222   4.599   6.172
 5587TIP3    H116704   8.317   4.601   6.185
 5587TIP3    H216705   8.202   4.509   6.148
 5588TIP3   OH216706   7.728   6.065   3.027
 5588TIP3    H116707   7.812   6.043   2.988
 5588TIP3    H216708   7.664   6.043   2.959
 5589TIP3   OH216709   7.160   1.267   2.345
 5589TIP3    H116710   7.186   1.182   2.310
 5589TIP3    H216711   7.066   1.257   2.364
 5590TIP3   OH216712   3.990   5.552   1.522
 5590TIP3    H116713   3.932   5.522   1.592
 5590TIP3    H216714   4.077   5.552   1.560
 5591TIP3   OH216715   3.313   4.048   0.302
 5591TIP3    H116716   3.231   4.082   0.337
 5591TIP3    H216717   3.303   4.057   0.207
 5592TIP3   OH216718   1.721   6.888   0.178
 5592TIP3    H116719   1.643   6.866   0.126
 5592TIP3    H216720   1.722   6.984   0.179
 5593TIP3   OH216721   7.883   2.875   5.890
 5593TIP3    H116722   7.891   2.788   5.928
 5593TIP3    H216723   7.914   2.934   5.959
 5594TIP3   OH216724   7.797   5.539   2.210
 5594TIP3    H116725   7.880   5.492   2.220
 5594TIP3    H216726   7.820   5.631   2.223
 5595TIP3   OH216727   8.086   3.567   4.678
 5595TIP3    H116728   8.055   3.652   4.711
 5595TIP3    H216729   8.024   3.544   4.609
 5596TIP3   OH216730   7.309   5.099   6.161
 5596TIP3    H116731   7.285   5.184   6.199
 5596TIP3    H216732   7.403   5.092   6.176
 5597TIP3   OH216733   4.790   1.906   5.477
 5597TIP3    H116734   4.839   1.974   5.523
 5597TIP3    H216735   4.700   1.938   5.477
 5598TIP3   OH216736   3.584   3.367   1.729
 5598TIP3    H116737   3.502   3.382   1.682
 5598TIP3    H216738   3.576   3.419   1.809
 5599TIP3   OH216739   2.141   6.637   4.732
 5599TIP3    H116740   2.135   6.687   4.651
 5599TIP3    H216741   2.214   6.677   4.780
 5600TIP3   OH216742   2.534   4.964   5.695
 5600TIP3    H116743   2.478   5.041   5.706
 5600TIP3    H216744   2.545   4.955   5.601
 5601TIP3   OH216745   1.309   5.698   3.226
 5601TIP3    H116746   1.229   5.705   3.175
 5601TIP3    H216747   1.331   5.788   3.251
 5602TIP3   OH216748   0.454   2.059   1.865
 5602TIP3    H116749   0.548   2.062   1.884
 5602TIP3    H216750   0.449   2.034   1.773
 5603TIP3   OH216751   7.657   0.549   3.225
 5603TIP3    H116752   7.636   0.494   3.300
 5603TIP3    H216753   7.752   0.549   3.221
 5604TIP3   OH216754   6.805   0.358   2.606
 5604TIP3    H116755   6.824   0.416   2.532
 5604TIP3    H216756   6.852   0.398   2.679
 5605TIP3   OH216757   4.703   1.996   1.634
 5605TIP3    H116758   4.699   2.070   1.573
 5605TIP3    H216759   4.724   1.921   1.579
 5606TIP3   OH216760   5.349   3.701   3.966
 5606TIP3    H116761   5.385   3.737   4.047
 5606TIP3    H216762   5.397   3.745   3.896
 5607TIP3   OH216763   5.835   3.924   2.302
 5607TIP3    H116764   5.757   3.875   2.329
 5607TIP3    H216765   5.900   3.856   2.281
 5608TIP3   OH216766   5.552   4.120   2.337
 5608TIP3    H116767   5.572   4.166   2.256
 5608TIP3    H216768   5.539   4.029   2.311
 5609TIP3   OH216769   6.582   5.847   3.427
 5609TIP3    H116770   6.512   5.902   3.462
 5609TIP3    H216771   6.637   5.907   3.377
 5610TIP3   OH216772   5.766   7.142   0.362
 5610TIP3    H116773   5.809   7.196   0.427
 5610TIP3    H216774   5.702   7.090   0.411
 5611TIP3   OH216775   5.216   6.613   1.510
 5611TIP3    H116776   5.274   6.604   1.586
 5611TIP3    H216777   5.224   6.704   1.484
 5612TIP3   OH216778   2.442   7.381   6.512
 5612TIP3    H116779   2.514   7.423   6.559
 5612TIP3    H216780   2.376   7.449   6.502
 5613TIP3   OH216781   5.029   3.985   0.838
 5613TIP3    H116782   5.072   4.010   0.920
 5613TIP3    H216783   5.100   3.962   0.779
 5614TIP3   OH216784   5.062   6.234   1.779
 5614TIP3    H116785   5.027   6.316   1.744
 5614TIP3    H216786   5.153   6.254   1.800
 5615TIP3   OH216787   3.105   1.945   2.092
 5615TIP3    H116788   3.177   1.890   2.059
 5615TIP3    H216789   3.026   1.907   2.053
 5616TIP3   OH216790   1.928   2.136   0.275
 5616TIP3    H116791   1.975   2.213   0.306
 5616TIP3    H216792   1.886   2.165   0.194
 5617TIP3   OH216793   1.681   6.569   0.767
 5617TIP3    H116794   1.675   6.474   0.754
 5617TIP3    H216795   1.641   6.606   0.689
 5618TIP3   OH216796   1.349   0.613   3.885
 5618TIP3    H116797   1.282   0.575   3.942
 5618TIP3    H216798   1.426   0.557   3.898
 5619TIP3   OH216799   6.138   6.708   2.900
 5619TIP3    H116800   6.229   6.687   2.922
 5619TIP3    H216801   6.141   6.799   2.871
 5620TIP3   OH216802   4.741   5.208   2.435
 5620TIP3    H116803   4.744   5.273   2.364
 5620TIP3    H216804   4.661   5.158   2.419
 5621TIP3   OH216805   1.718   0.503   4.406
 5621TIP3    H116806   1.808   0.509   4.375
 5621TIP3    H216807   1.670   0.461   4.334
 5622TIP3   OH216808   1.244   3.132   2.107
 5622TIP3    H116809   1.195   3.145   2.188
 5622TIP3    H216810   1.218   3.205   2.051
 5623TIP3   OH216811   7.218   6.781   5.663
 5623TIP3    H116812   7.255   6.749   5.581
 5623TIP3    H216813   7.268   6.734   5.731
 5624TIP3   OH216814   3.601   5.460   5.086
 5624TIP3    H116815   3.548   5.472   5.165
 5624TIP3    H216816   3.558   5.389   5.039
 5625TIP3   OH216817   0.750   7.466   2.368
 5625TIP3    H116818   0.740   7.393   2.430
 5625TIP3    H216819   0.812   7.434   2.303
 5626TIP3   OH216820   4.423   5.140   0.993
 5626TIP3    H116821   4.387   5.224   0.967
 5626TIP3    H216822   4.448   5.098   0.911
 5627TIP3   OH216823   2.750   5.982   2.293
 5627TIP3    H116824   2.811   6.051   2.267
 5627TIP3    H216825   2.787   5.945   2.373
 5628TIP3   OH216826   5.616   1.653   1.330
 5628TIP3    H116827   5.548   1.634   1.395
 5628TIP3    H216828   5.581   1.726   1.280
 5629TIP3   OH216829   7.610   5.904   5.423
 5629TIP3    H116830   7.600   5.844   5.497
 5629TIP3    H216831   7.664   5.975   5.458
 5630TIP3   OH216832   6.782   5.450   3.332
 5630TIP3    H116833   6.863   5.458   3.383
 5630TIP3    H216834   6.811   5.447   3.241
 5631TIP3   OH216835   7.343   6.512   1.846
 5631TIP3    H116836   7.404   6.570   1.892
 5631TIP3    H216837   7.383   6.497   1.760
 5632TIP3   OH216838   0.739   4.417   1.426
 5632TIP3    H116839   0.727   4.331   1.386
 5632TIP3    H216840   0.689   4.477   1.370
 5633TIP3   OH216841   4.309   1.021   2.168
 5633TIP3    H116842   4.267   0.937   2.187
 5633TIP3    H216843   4.244   1.069   2.116
 5634TIP3   OH216844   3.279   3.439   5.859
 5634TIP3    H116845   3.266   3.518   5.913
 5634TIP3    H216846   3.232   3.370   5.906
 5635TIP3   OH216847   7.565   4.265   3.552
 5635TIP3    H116848   7.496   4.209   3.586
 5635TIP3    H216849   7.646   4.217   3.570
 5636TIP3   OH216850   5.474   5.134   0.234
 5636TIP3    H116851   5.551   5.110   0.183
 5636TIP3    H216852   5.424   5.192   0.176
 5637TIP3   OH216853   7.137   0.151   5.654
 5637TIP3    H116854   7.100   0.130   5.740
 5637TIP3    H216855   7.227   0.178   5.673
 5638TIP3   OH216856   2.287   2.423   0.251
 5638TIP3    H116857   2.229   2.459   0.317
 5638TIP3    H216858   2.318   2.500   0.202
 5639TIP3   OH216859   7.091   3.748   2.793
 5639TIP3    H116860   7.008   3.795   2.806
 5639TIP3    H216861   7.078   3.664   2.838
 5640TIP3   OH216862   7.608   7.531   1.129
 5640TIP3    H116863   7.628   7.603   1.190
 5640TIP3    H216864   7.518   7.506   1.152
 5641TIP3   OH216865   8.292   6.071   5.388
 5641TIP3    H116866   8.370   6.019   5.408
 5641TIP3    H216867   8.285   6.068   5.293
 5642TIP3   OH216868   2.002   1.096   6.113
 5642TIP3    H116869   1.931   1.033   6.119
 5642TIP3    H216870   2.047   1.089   6.198
 5643TIP3   OH216871   1.127   3.049   6.610
 5643TIP3    H116872   1.178   2.994   6.550
 5643TIP3    H216873   1.062   3.091   6.555
 5644TIP3   OH216874   5.243   5.065   1.625
 5644TIP3    H116875   5.188   5.096   1.552
 5644TIP3    H216876   5.324   5.115   1.617
 5645TIP3   OH216877   7.218   7.315   4.551
 5645TIP3    H116878   7.217   7.295   4.458
 5645TIP3    H216879   7.305   7.350   4.568
 5646TIP3   OH216880   1.507   5.523   4.222
 5646TIP3    H116881   1.602   5.511   4.223
 5646TIP3    H216882   1.494   5.612   4.190
 5647TIP3   OH216883   2.633   7.356   2.882
 5647TIP3    H116884   2.704   7.295   2.863
 5647TIP3    H216885   2.640   7.423   2.815
 5648TIP3   OH216886   8.299   1.834   5.757
 5648TIP3    H116887   8.378   1.806   5.709
 5648TIP3    H216888   8.331   1.861   5.842
 5649TIP3   OH216889   5.871   7.197   2.295
 5649TIP3    H116890   5.943   7.204   2.232
 5649TIP3    H216891   5.905   7.139   2.363
 5650TIP3   OH216892   4.565   0.727   6.082
 5650TIP3    H116893   4.568   0.636   6.052
 5650TIP3    H216894   4.516   0.773   6.014
 5651TIP3   OH216895   3.883   7.096   4.261
 5651TIP3    H116896   3.949   7.028   4.256
 5651TIP3    H216897   3.933   7.176   4.281
 5652TIP3   OH216898   1.957   7.372   2.843
 5652TIP3    H116899   2.018   7.436   2.807
 5652TIP3    H216900   2.013   7.306   2.885
 5653TIP3   OH216901   1.833   2.012   3.500
 5653TIP3    H116902   1.804   2.065   3.426
 5653TIP3    H216903   1.867   2.075   3.563
 5654TIP3   OH216904   0.444   5.012   1.347
 5654TIP3    H116905   0.420   4.931   1.391
 5654TIP3    H216906   0.422   4.997   1.255
 5655TIP3   OH216907   1.254   2.378   1.852
 5655TIP3    H116908   1.308   2.412   1.923
 5655TIP3    H216909   1.275   2.285   1.847
 5656TIP3   OH216910   6.846   5.061   5.683
 5656TIP3    H116911   6.849   5.100   5.596
 5656TIP3    H216912   6.787   4.986   5.674
 5657TIP3   OH216913   2.576   3.682   4.663
 5657TIP3    H116914   2.525   3.636   4.730
 5657TIP3    H216915   2.518   3.752   4.633
 5658TIP3   OH216916   7.522   0.484   1.281
 5658TIP3    H116917   7.552   0.530   1.204
 5658TIP3    H216918   7.428   0.499   1.284
 5659TIP3   OH216919   3.785   3.326   3.806
 5659TIP3    H116920   3.783   3.279   3.723
 5659TIP3    H216921   3.741   3.268   3.868
 5660TIP3   OH216922   7.228   4.468   5.157
 5660TIP3    H116923   7.209   4.550   5.202
 5660TIP3    H216924   7.280   4.493   5.081
 5661TIP3   OH216925   4.834   5.266   4.998
 5661TIP3    H116926   4.762   5.326   5.015
 5661TIP3    H216927   4.791   5.184   4.974
 5662TIP3   OH216928   7.654   6.864   6.578
 5662TIP3    H116929   7.631   6.843   6.669
 5662TIP3    H216930   7.575   6.903   6.542
 5663TIP3   OH216931   7.944   2.688   2.254
 5663TIP3    H116932   8.036   2.694   2.232
 5663TIP3    H216933   7.942   2.638   2.336
 5664TIP3   OH216934   0.290   6.358   5.167
 5664TIP3    H116935   0.336   6.300   5.228
 5664TIP3    H216936   0.273   6.437   5.218
 5665TIP3   OH216937   4.861   2.405   5.159
 5665TIP3    H116938   4.832   2.360   5.238
 5665TIP3    H216939   4.957   2.398   5.162
 5666TIP3   OH216940   1.064   6.987   1.153
 5666TIP3    H116941   1.032   6.916   1.098
 5666TIP3    H216942   1.160   6.984   1.144
 5667TIP3   OH216943   1.096   6.093   3.173
 5667TIP3    H116944   1.005   6.104   3.202
 5667TIP3    H216945   1.116   6.174   3.127
 5668TIP3   OH216946   2.513   0.342   6.610
 5668TIP3    H116947   2.547   0.324   6.698
 5668TIP3    H216948   2.512   0.257   6.567
 5669TIP3   OH216949   1.776   2.872   0.434
 5669TIP3    H116950   1.787   2.938   0.366
 5669TIP3    H216951   1.863   2.833   0.446
 5670TIP3   OH216952   7.968   2.898   4.132
 5670TIP3    H116953   7.986   2.816   4.178
 5670TIP3    H216954   7.882   2.926   4.164
 5671TIP3   OH216955   2.940   5.826   3.231
 5671TIP3    H116956   2.882   5.816   3.306
 5671TIP3    H216957   3.005   5.757   3.240
 5672TIP3   OH216958   6.667   6.808   6.482
 5672TIP3    H116959   6.747   6.815   6.534
 5672TIP3    H216960   6.655   6.714   6.467
 5673TIP3   OH216961   5.781   6.219   1.683
 5673TIP3    H116962   5.791   6.229   1.589
 5673TIP3    H216963   5.709   6.278   1.706
 5674TIP3   OH216964   2.134   4.672   3.399
 5674TIP3    H116965   2.061   4.633   3.447
 5674TIP3    H216966   2.100   4.756   3.369
 5675TIP3   OH216967   7.452   4.605   1.517
 5675TIP3    H116968   7.418   4.687   1.480
 5675TIP3    H216969   7.511   4.633   1.587
 5676TIP3   OH216970   6.734   3.968   4.916
 5676TIP3    H116971   6.825   3.961   4.886
 5676TIP3    H216972   6.741   4.006   5.004
 5677TIP3   OH216973   1.724   3.124   4.124
 5677TIP3    H116974   1.658   3.134   4.056
 5677TIP3    H216975   1.702   3.190   4.189
 5678TIP3   OH216976   6.951   0.260   6.064
 5678TIP3    H116977   6.912   0.280   5.979
 5678TIP3    H216978   6.888   0.200   6.105
 5679TIP3   OH216979   7.763   0.907   5.240
 5679TIP3    H116980   7.758   0.936   5.149
 5679TIP3    H216981   7.806   0.822   5.236
 5680TIP3   OH216982   0.298   0.391   0.288
 5680TIP3    H116983   0.267   0.301   0.278
 5680TIP3    H216984   0.320   0.398   0.381
 5681TIP3   OH216985   2.493   5.533   4.753
 5681TIP3    H116986   2.439   5.608   4.729
 5681TIP3    H216987   2.448   5.458   4.713
 5682TIP3   OH216988   7.148   5.999   6.253
 5682TIP3    H116989   7.162   6.039   6.339
 5682TIP3    H216990   7.054   6.010   6.237
 5683TIP3   OH216991   2.330   2.952   3.627
 5683TIP3    H116992   2.412   3.003   3.627
 5683TIP3    H216993   2.268   3.007   3.579
 5684TIP3   OH216994   0.802   1.390   3.972
 5684TIP3    H116995   0.714   1.406   4.007
 5684TIP3    H216996   0.851   1.470   3.995
 5685TIP3   OH216997   4.187   7.117   5.413
 5685TIP3    H116998   4.197   7.179   5.340
 5685TIP3    H216999   4.194   7.172   5.491
 5686TIP3   OH217000   3.627   0.042   1.201
 5686TIP3    H117001   3.579   0.069   1.123
 5686TIP3    H217002   3.714   0.081   1.191
 5687TIP3   OH217003   2.835   3.793   5.907
 5687TIP3    H117004   2.787   3.714   5.934
 5687TIP3    H217005   2.873   3.770   5.823
 5688TIP3   OH217006   0.495   7.267   1.117
 5688TIP3    H117007   0.427   7.251   1.052
 5688TIP3    H217008   0.557   7.325   1.073
 5689TIP3   OH217009   3.961   2.281   5.433
 5689TIP3    H117010   3.963   2.226   5.512
 5689TIP3    H217011   4.041   2.333   5.437
 5690TIP3   OH217012   2.079   2.975   3.900
 5690TIP3    H117013   2.080   3.061   3.858
 5690TIP3    H217014   2.060   2.914   3.829
 5691TIP3   OH217015   6.645   6.986   3.915
 5691TIP3    H117016   6.612   6.905   3.953
 5691TIP3    H217017   6.740   6.982   3.926
 5692TIP3   OH217018   4.589   3.118   4.535
 5692TIP3    H117019   4.533   3.178   4.486
 5692TIP3    H217020   4.626   3.059   4.469
 5693TIP3   OH217021   1.268   6.770   4.394
 5693TIP3    H117022   1.303   6.760   4.482
 5693TIP3    H217023   1.297   6.692   4.347
 5694TIP3   OH217024   5.961   1.140   0.187
 5694TIP3    H117025   5.945   1.057   0.231
 5694TIP3    H217026   6.044   1.171   0.223
 5695TIP3   OH217027   7.042   1.963   0.696
 5695TIP3    H117028   7.104   1.891   0.687
 5695TIP3    H217029   7.064   2.004   0.779
 5696TIP3   OH217030   1.618   1.512   0.961
 5696TIP3    H117031   1.562   1.452   0.913
 5696TIP3    H217032   1.566   1.593   0.969
 5697TIP3   OH217033   1.736   4.838   3.431
 5697TIP3    H117034   1.710   4.826   3.523
 5697TIP3    H217035   1.655   4.830   3.382
 5698TIP3   OH217036   1.737   1.608   1.437
 5698TIP3    H117037   1.696   1.555   1.368
 5698TIP3    H217038   1.821   1.566   1.454
 5699TIP3   OH217039   2.033   1.667   3.873
 5699TIP3    H117040   1.958   1.666   3.932
 5699TIP3    H217041   1.995   1.657   3.786
 5700TIP3   OH217042   2.231   0.864   5.575
 5700TIP3    H117043   2.290   0.922   5.624
 5700TIP3    H217044   2.290   0.815   5.517
 5701TIP3   OH217045   5.367   2.984   1.655
 5701TIP3    H117046   5.431   2.931   1.701
 5701TIP3    H217047   5.417   3.058   1.619
 5702TIP3   OH217048   8.051   0.094   1.593
 5702TIP3    H117049   8.076   0.166   1.651
 5702TIP3    H217050   8.085   0.016   1.636
 5703TIP3   OH217051   2.237   2.480   6.060
 5703TIP3    H117052   2.229   2.397   6.014
 5703TIP3    H217053   2.300   2.530   6.009
 5704TIP3   OH217054   5.797   1.529   5.940
 5704TIP3    H117055   5.832   1.508   5.854
 5704TIP3    H217056   5.833   1.462   5.998
 5705TIP3   OH217057   0.034   2.087   1.010
 5705TIP3    H117058   0.078   2.118   1.090
 5705TIP3    H217059  -0.027   2.020   1.041
 5706TIP3   OH217060   3.246   0.956   5.807
 5706TIP3    H117061   3.230   0.900   5.731
 5706TIP3    H217062   3.160   0.991   5.830
 5707TIP3   OH217063   5.442   1.425   3.629
 5707TIP3    H117064   5.367   1.397   3.682
 5707TIP3    H217065   5.518   1.412   3.686
 5708TIP3   OH217066   3.767   5.948   5.795
 5708TIP3    H117067   3.840   5.888   5.775
 5708TIP3    H217068   3.798   5.999   5.869
 5709TIP3   OH217069   7.097   1.058   5.473
 5709TIP3    H117070   7.149   1.028   5.547
 5709TIP3    H217071   7.035   0.987   5.455
 5710TIP3   OH217072   0.368   7.819   5.982
 5710TIP3    H117073   0.354   7.838   6.075
 5710TIP3    H217074   0.316   7.741   5.965
 5711TIP3   OH217075   4.215   1.228   5.150
 5711TIP3    H117076   4.145   1.225   5.085
 5711TIP3    H217077   4.201   1.311   5.197
 5712TIP3   OH217078   3.138   2.173   3.150
 5712TIP3    H117079   3.182   2.109   3.095
 5712TIP3    H217080   3.119   2.127   3.231
 5713TIP3   OH217081   3.275   0.024   4.686
 5713TIP3    H117082   3.357  -0.015   4.717
 5713TIP3    H217083   3.221   0.030   4.764
 5714TIP3   OH217084   2.294   1.944   0.827
 5714TIP3    H117085   2.209   1.908   0.803
 5714TIP3    H217086   2.357   1.881   0.793
 5715TIP3   OH217087   1.407   1.607   1.158
 5715TIP3    H117088   1.439   1.530   1.205
 5715TIP3    H217089   1.437   1.681   1.209
 5716TIP3   OH217090   6.625   2.516   0.860
 5716TIP3    H117091   6.626   2.596   0.808
 5716TIP3    H217092   6.707   2.472   0.838
 5717TIP3   OH217093   6.513   5.756   1.197
 5717TIP3    H117094   6.490   5.799   1.116
 5717TIP3    H217095   6.602   5.724   1.182
 5718TIP3   OH217096   6.496   2.684   2.991
 5718TIP3    H117097   6.562   2.753   2.980
 5718TIP3    H217098   6.523   2.615   2.930
 5719TIP3   OH217099   1.890   2.823   1.823
 5719TIP3    H117100   1.858   2.735   1.801
 5719TIP3    H217101   1.916   2.817   1.915
 5720TIP3   OH217102   5.591   3.536   1.652
 5720TIP3    H117103   5.593   3.614   1.596
 5720TIP3    H217104   5.670   3.544   1.706
 5721TIP3   OH217105   0.290   6.163   6.592
 5721TIP3    H117106   0.358   6.157   6.525
 5721TIP3    H217107   0.333   6.135   6.673
 5722TIP3   OH217108   4.945   6.173   0.310
 5722TIP3    H117109   4.895   6.179   0.229
 5722TIP3    H217110   4.953   6.263   0.341
 5723TIP3   OH217111   2.068   5.141   1.571
 5723TIP3    H117112   1.983   5.187   1.574
 5723TIP3    H217113   2.046   5.053   1.541
 5724TIP3   OH217114   1.016   6.780   2.753
 5724TIP3    H117115   0.928   6.788   2.715
 5724TIP3    H217116   1.010   6.703   2.810
 5725TIP3   OH217117   7.867   1.972   4.550
 5725TIP3    H117118   7.827   1.907   4.607
 5725TIP3    H217119   7.796   2.000   4.492
 5726TIP3   OH217120   6.973   3.345   6.292
 5726TIP3    H117121   7.039   3.276   6.290
 5726TIP3    H217122   6.890   3.299   6.291
 5727TIP3   OH217123   2.412   6.007   6.531
 5727TIP3    H117124   2.363   6.084   6.504
 5727TIP3    H217125   2.442   5.968   6.449
 5728TIP3   OH217126   7.532   6.656   1.972
 5728TIP3    H117127   7.623   6.628   1.983
 5728TIP3    H217128   7.535   6.751   1.984
 5729TIP3   OH217129   3.895   6.925   3.064
 5729TIP3    H117130   3.903   6.967   3.150
 5729TIP3    H217131   3.865   6.994   3.006
 5730TIP3   OH217132   5.924   6.525   2.961
 5730TIP3    H117133   5.979   6.593   2.923
 5730TIP3    H217134   5.935   6.450   2.902
 5731TIP3   OH217135   0.032   2.520   5.311
 5731TIP3    H117136   0.080   2.548   5.233
 5731TIP3    H217137   0.092   2.460   5.356
 5732TIP3   OH217138   1.731   3.916   6.097
 5732TIP3    H117139   1.712   3.864   6.018
 5732TIP3    H217140   1.824   3.902   6.113
 5733TIP3   OH217141   6.682   2.290   5.468
 5733TIP3    H117142   6.605   2.302   5.413
 5733TIP3    H217143   6.651   2.306   5.557
 5734TIP3   OH217144   1.862   6.244   0.384
 5734TIP3    H117145   1.863   6.149   0.371
 5734TIP3    H217146   1.769   6.267   0.384
 5735TIP3   OH217147   7.117   3.250   5.668
 5735TIP3    H117148   7.133   3.161   5.636
 5735TIP3    H217149   7.204   3.286   5.683
 5736TIP3   OH217150   3.563   2.595   1.278
 5736TIP3    H117151   3.479   2.632   1.304
 5736TIP3    H217152   3.542   2.536   1.206
 5737TIP3   OH217153   6.343   1.665   1.181
 5737TIP3    H117154   6.391   1.696   1.104
 5737TIP3    H217155   6.259   1.710   1.178
 5738TIP3   OH217156   4.422   3.347   6.580
 5738TIP3    H117157   4.364   3.305   6.643
 5738TIP3    H217158   4.363   3.392   6.519
 5739TIP3   OH217159   4.106   6.020   1.573
 5739TIP3    H117160   4.037   6.000   1.635
 5739TIP3    H217161   4.093   6.113   1.552
 5740TIP3   OH217162   4.610   6.340   6.466
 5740TIP3    H117163   4.534   6.364   6.413
 5740TIP3    H217164   4.581   6.352   6.557
 5741TIP3   OH217165   6.400   1.575   2.114
 5741TIP3    H117166   6.466   1.592   2.046
 5741TIP3    H217167   6.443   1.512   2.172
 5742TIP3   OH217168   3.272   2.831   2.882
 5742TIP3    H117169   3.189   2.880   2.885
 5742TIP3    H217170   3.251   2.745   2.916
 5743TIP3   OH217171   4.774   0.351   0.517
 5743TIP3    H117172   4.820   0.432   0.535
 5743TIP3    H217173   4.687   0.363   0.557
 5744TIP3   OH217174   7.036   6.532   6.558
 5744TIP3    H117175   7.131   6.524   6.568
 5744TIP3    H217176   7.023   6.537   6.463
 5745TIP3   OH217177   3.852   3.601   6.704
 5745TIP3    H117178   3.855   3.653   6.784
 5745TIP3    H217179   3.803   3.522   6.728
 5746TIP3   OH217180   3.952   0.094   4.338
 5746TIP3    H117181   3.913   0.065   4.421
 5746TIP3    H217182   3.984   0.013   4.297
 5747TIP3   OH217183   1.565   0.425   5.126
 5747TIP3    H117184   1.567   0.482   5.203
 5747TIP3    H217185   1.657   0.405   5.108
 5748TIP3   OH217186   0.293   3.865   0.084
 5748TIP3    H117187   0.231   3.930   0.117
 5748TIP3    H217188   0.250   3.828   0.007
 5749TIP3   OH217189   0.645   6.307   5.943
 5749TIP3    H117190   0.707   6.377   5.925
 5749TIP3    H217191   0.580   6.314   5.872
 5750TIP3   OH217192   0.852   0.406   2.310
 5750TIP3    H117193   0.824   0.321   2.342
 5750TIP3    H217194   0.875   0.456   2.388
 5751TIP3   OH217195   3.980   7.079   1.988
 5751TIP3    H117196   3.927   7.058   1.911
 5751TIP3    H217197   4.059   7.119   1.952
 5752TIP3   OH217198   5.535   2.571   6.418
 5752TIP3    H117199   5.600   2.501   6.408
 5752TIP3    H217200   5.586   2.648   6.441
 5753TIP3   OH217201   0.658   6.235   5.655
 5753TIP3    H117202   0.644   6.145   5.685
 5753TIP3    H217203   0.692   6.225   5.566
 5754TIP3   OH217204   3.236   6.363   1.482
 5754TIP3    H117205   3.279   6.295   1.534
 5754TIP3    H217206   3.298   6.436   1.480
 5755TIP3   OH217207   5.996   3.254  -0.052
 5755TIP3    H117208   5.982   3.211   0.032
 5755TIP3    H217209   6.019   3.344  -0.030
 5756TIP3   OH217210   6.872   7.613   5.652
 5756TIP3    H117211   6.848   7.700   5.620
 5756TIP3    H217212   6.904   7.627   5.741
 5757TIP3   OH217213   1.023   1.775   4.536
 5757TIP3    H117214   1.092   1.711   4.515
 5757TIP3    H217215   1.047   1.853   4.486
 5758TIP3   OH217216   5.764   6.256   5.489
 5758TIP3    H117217   5.835   6.207   5.449
 5758TIP3    H217218   5.806   6.326   5.538
 5759TIP3   OH217219   5.826   2.567   6.397
 5759TIP3    H117220   5.828   2.478   6.433
 5759TIP3    H217221   5.852   2.623   6.470
 5760TIP3   OH217222   4.337   4.686  -0.004
 5760TIP3    H117223   4.407   4.665   0.056
 5760TIP3    H217224   4.381   4.704  -0.087
 5761TIP3   OH217225   0.858   7.428   5.101
 5761TIP3    H117226   0.951   7.428   5.124
 5761TIP3    H217227   0.816   7.476   5.172
 5762TIP3   OH217228   0.768   5.463   3.529
 5762TIP3    H117229   0.738   5.378   3.500
 5762TIP3    H217230   0.851   5.446   3.574
 5763TIP3   OH217231   5.653   2.553   6.068
 5763TIP3    H117232   5.576   2.590   6.110
 5763TIP3    H217233   5.684   2.622   6.009
 5764TIP3   OH217234   2.754   4.244   3.392
 5764TIP3    H117235   2.814   4.195   3.448
 5764TIP3    H217236   2.805   4.261   3.312
 5765TIP3   OH217237   1.150   7.379   3.932
 5765TIP3    H117238   1.133   7.464   3.893
 5765TIP3    H217239   1.220   7.395   3.996
 5766TIP3   OH217240   2.246   0.731   2.277
 5766TIP3    H117241   2.193   0.662   2.316
 5766TIP3    H217242   2.230   0.808   2.332
 5767TIP3   OH217243   6.284   1.077   0.261
 5767TIP3    H117244   6.378   1.090   0.270
 5767TIP3    H217245   6.252   1.070   0.351
 5768TIP3   OH217246   7.255   3.244   3.124
 5768TIP3    H117247   7.332   3.218   3.074
 5768TIP3    H217248   7.282   3.324   3.169
 5769TIP3   OH217249   5.436   7.312   4.383
 5769TIP3    H117250   5.394   7.293   4.466
 5769TIP3    H217251   5.378   7.275   4.317
 5770TIP3   OH217252   2.663   4.216   3.802
 5770TIP3    H117253   2.661   4.124   3.777
 5770TIP3    H217254   2.617   4.261   3.731
 5771TIP3   OH217255   3.316   6.918   2.742
 5771TIP3    H117256   3.343   7.010   2.741
 5771TIP3    H217257   3.224   6.920   2.716
 5772TIP3   OH217258   4.291   1.555   0.715
 5772TIP3    H117259   4.355   1.521   0.777
 5772TIP3    H217260   4.333   1.546   0.629
 5773TIP3   OH217261   4.764   4.630   0.381
 5773TIP3    H117262   4.720   4.621   0.296
 5773TIP3    H217263   4.801   4.543   0.397
 5774TIP3   OH217264   1.852   6.510   1.183
 5774TIP3    H117265   1.945   6.528   1.201
 5774TIP3    H217266   1.830   6.568   1.110
 5775TIP3   OH217267   5.942   5.471   4.971
 5775TIP3    H117268   5.856   5.469   5.013
 5775TIP3    H217269   5.923   5.477   4.878
 5776TIP3   OH217270   1.870   2.289   2.145
 5776TIP3    H117271   1.947   2.259   2.193
 5776TIP3    H217272   1.819   2.209   2.130
 5777TIP3   OH217273   3.700   3.960   5.215
 5777TIP3    H117274   3.642   4.027   5.178
 5777TIP3    H217275   3.680   3.961   5.309
 5778TIP3   OH217276   3.686   2.126   5.688
 5778TIP3    H117277   3.708   2.160   5.601
 5778TIP3    H217278   3.596   2.094   5.679
 5779TIP3   OH217279   0.321   7.366   2.951
 5779TIP3    H117280   0.342   7.336   3.039
 5779TIP3    H217281   0.401   7.352   2.901
 5780TIP3   OH217282   7.344   0.673   2.440
 5780TIP3    H117283   7.369   0.682   2.531
 5780TIP3    H217284   7.386   0.592   2.411
 5781TIP3   OH217285   5.563   5.697   2.677
 5781TIP3    H117286   5.493   5.633   2.665
 5781TIP3    H217287   5.603   5.706   2.591
 5782TIP3   OH217288   4.716   5.064   5.954
 5782TIP3    H117289   4.793   5.109   5.918
 5782TIP3    H217290   4.743   4.972   5.960
 5783TIP3   OH217291   0.964   3.266   4.897
 5783TIP3    H117292   0.880   3.239   4.861
 5783TIP3    H217293   0.969   3.360   4.880
 5784TIP3   OH217294   3.497   0.487   2.471
 5784TIP3    H117295   3.431   0.420   2.455
 5784TIP3    H217296   3.573   0.439   2.503
 5785TIP3   OH217297   1.805   5.215   6.449
 5785TIP3    H117298   1.748   5.169   6.387
 5785TIP3    H217299   1.887   5.166   6.448
 5786TIP3   OH217300   0.594   7.418   6.617
 5786TIP3    H117301   0.523   7.476   6.645
 5786TIP3    H217302   0.647   7.406   6.696
 5787TIP3   OH217303   5.009   7.296   0.204
 5787TIP3    H117304   5.056   7.379   0.204
 5787TIP3    H217305   5.016   7.264   0.294
 5788TIP3   OH217306   5.984   0.794   5.005
 5788TIP3    H117307   6.041   0.861   4.967
 5788TIP3    H217308   5.967   0.825   5.094
 5789TIP3   OH217309   0.076   7.010   2.200
 5789TIP3    H117310   0.126   7.030   2.280
 5789TIP3    H217311  -0.015   7.021   2.225
 5790TIP3   OH217312   0.574   1.678   6.648
 5790TIP3    H117313   0.565   1.773   6.655
 5790TIP3    H217314   0.485   1.645   6.659
 5791TIP3   OH217315   0.085   2.492   3.259
 5791TIP3    H117316   0.036   2.530   3.187
 5791TIP3    H217317   0.020   2.478   3.328
 5792TIP3   OH217318   1.327   2.313   1.173
 5792TIP3    H117319   1.262   2.382   1.189
 5792TIP3    H217320   1.345   2.277   1.260
 5793TIP3   OH217321   5.334   1.602   4.942
 5793TIP3    H117322   5.317   1.670   4.876
 5793TIP3    H217323   5.248   1.576   4.973
 5794TIP3   OH217324   7.462   1.964   6.095
 5794TIP3    H117325   7.523   2.002   6.158
 5794TIP3    H217326   7.380   1.955   6.144
 5795TIP3   OH217327   3.260   1.157   2.804
 5795TIP3    H117328   3.252   1.077   2.751
 5795TIP3    H217329   3.336   1.203   2.766
 5796TIP3   OH217330   1.456   6.639   5.292
 5796TIP3    H117331   1.474   6.710   5.230
 5796TIP3    H217332   1.522   6.573   5.272
 5797TIP3   OH217333   5.094   1.709   2.445
 5797TIP3    H117334   5.182   1.674   2.433
 5797TIP3    H217335   5.091   1.738   2.536
 5798TIP3   OH217336   3.802   3.871   3.568
 5798TIP3    H117337   3.813   3.849   3.475
 5798TIP3    H217338   3.707   3.883   3.578
 5799TIP3   OH217339   7.703   7.048   3.004
 5799TIP3    H117340   7.699   7.141   3.022
 5799TIP3    H217341   7.611   7.019   3.001
 5800TIP3   OH217342   6.449   4.618   3.582
 5800TIP3    H117343   6.541   4.602   3.563
 5800TIP3    H217344   6.420   4.541   3.630
 5801TIP3   OH217345   2.078   4.976   3.543
 5801TIP3    H117346   2.161   4.937   3.516
 5801TIP3    H217347   2.052   5.031   3.469
 5802TIP3   OH217348   0.900   6.279   5.053
 5802TIP3    H117349   0.936   6.191   5.042
 5802TIP3    H217350   0.848   6.294   4.974
 5803TIP3   OH217351   4.886   3.526   3.089
 5803TIP3    H117352   4.893   3.510   3.183
 5803TIP3    H217353   4.875   3.440   3.050
 5804TIP3   OH217354   6.377   5.714   2.664
 5804TIP3    H117355   6.453   5.675   2.621
 5804TIP3    H217356   6.304   5.697   2.603
 5805TIP3   OH217357   6.302   4.136   3.378
 5805TIP3    H117358   6.362   4.092   3.317
 5805TIP3    H217359   6.350   4.213   3.408
 5806TIP3   OH217360   4.732   3.700   2.661
 5806TIP3    H117361   4.697   3.662   2.742
 5806TIP3    H217362   4.826   3.706   2.676
 5807TIP3   OH217363   5.136   2.373   5.157
 5807TIP3    H117364   5.217   2.419   5.134
 5807TIP3    H217365   5.166   2.291   5.196
 5808TIP3   OH217366   6.667   4.331   6.047
 5808TIP3    H117367   6.612   4.345   6.124
 5808TIP3    H217368   6.640   4.399   5.985
 5809TIP3   OH217369   2.970   0.341   4.902
 5809TIP3    H117370   3.022   0.392   4.841
 5809TIP3    H217371   2.967   0.394   4.982
 5810TIP3   OH217372   3.145   5.415   3.235
 5810TIP3    H117373   3.234   5.444   3.253
 5810TIP3    H217374   3.128   5.443   3.145
 5811TIP3   OH217375   1.880   0.833   4.278
 5811TIP3    H117376   1.839   0.867   4.198
 5811TIP3    H217377   1.954   0.892   4.294
 5812TIP3   OH217378   5.111   1.188   3.302
 5812TIP3    H117379   5.053   1.262   3.322
 5812TIP3    H217380   5.052   1.113   3.292
 5813TIP3   OH217381   4.630   0.304   3.777
 5813TIP3    H117382   4.647   0.213   3.803
 5813TIP3    H217383   4.657   0.356   3.853
 5814TIP3   OH217384   5.865   0.654   0.440
 5814TIP3    H117385   5.783   0.684   0.480
 5814TIP3    H217386   5.851   0.560   0.427
 5815TIP3   OH217387   3.164   2.795   2.008
 5815TIP3    H117388   3.073   2.768   2.015
 5815TIP3    H217389   3.177   2.856   2.081
 5816TIP3   OH217390   7.196   6.116   1.448
 5816TIP3    H117391   7.214   6.197   1.495
 5816TIP3    H217392   7.279   6.093   1.406
 5817TIP3   OH217393   5.145   4.675   5.907
 5817TIP3    H117394   5.053   4.649   5.906
 5817TIP3    H217395   5.178   4.643   5.991
 5818TIP3   OH217396   3.327   5.421   6.209
 5818TIP3    H117397   3.291   5.338   6.177
 5818TIP3    H217398   3.400   5.439   6.150
 5819TIP3   OH217399   8.142   5.523   4.160
 5819TIP3    H117400   8.102   5.592   4.107
 5819TIP3    H217401   8.094   5.526   4.243
 5820TIP3   OH217402   7.983   6.451   6.152
 5820TIP3    H117403   8.014   6.420   6.236
 5820TIP3    H217404   8.063   6.475   6.104
 5821TIP3   OH217405   3.510   5.393   3.699
 5821TIP3    H117406   3.580   5.425   3.756
 5821TIP3    H217407   3.500   5.460   3.632
 5822TIP3   OH217408   4.228   3.976   4.528
 5822TIP3    H117409   4.324   3.973   4.535
 5822TIP3    H217410   4.212   4.019   4.444
 5823TIP3   OH217411   2.096   1.818   0.655
 5823TIP3    H117412   2.077   1.786   0.567
 5823TIP3    H217413   2.078   1.744   0.712
 5824TIP3   OH217414   5.059   1.625   6.008
 5824TIP3    H117415   5.064   1.711   6.051
 5824TIP3    H217416   5.011   1.642   5.927
 5825TIP3   OH217417   5.010   6.640   2.504
 5825TIP3    H117418   5.073   6.647   2.575
 5825TIP3    H217419   5.040   6.703   2.439
 5826TIP3   OH217420   4.369   4.671   3.749
 5826TIP3    H117421   4.386   4.579   3.769
 5826TIP3    H217422   4.284   4.690   3.789
 5827TIP3   OH217423   0.702   7.550   6.374
 5827TIP3    H117424   0.632   7.498   6.413
 5827TIP3    H217425   0.710   7.518   6.285
 5828TIP3   OH217426   4.014   0.484   1.597
 5828TIP3    H117427   4.027   0.421   1.668
 5828TIP3    H217428   3.950   0.442   1.538
 5829TIP3   OH217429   8.220   3.950   1.236
 5829TIP3    H117430   8.287   3.936   1.169
 5829TIP3    H217431   8.268   3.988   1.310
 5830TIP3   OH217432   2.948   0.188   1.002
 5830TIP3    H117433   3.001   0.257   1.044
 5830TIP3    H217434   2.883   0.235   0.951
 5831TIP3   OH217435   6.292   1.395   5.566
 5831TIP3    H117436   6.313   1.404   5.659
 5831TIP3    H217437   6.376   1.401   5.521
 5832TIP3   OH217438   0.697   5.856   6.160
 5832TIP3    H117439   0.758   5.900   6.219
 5832TIP3    H217440   0.618   5.844   6.212
 5833TIP3   OH217441   2.647   0.497   4.749
 5833TIP3    H117442   2.676   0.549   4.824
 5833TIP3    H217443   2.593   0.428   4.788
 5834TIP3   OH217444   1.276   7.422   3.246
 5834TIP3    H117445   1.278   7.486   3.317
 5834TIP3    H217446   1.183   7.400   3.237
 5835TIP3   OH217447  -0.023   4.330   3.565
 5835TIP3    H117448  -0.101   4.385   3.569
 5835TIP3    H217449   0.049   4.391   3.545
 5836TIP3   OH217450   2.808   2.626   5.847
 5836TIP3    H117451   2.757   2.547   5.832
 5836TIP3    H217452   2.777   2.657   5.933
 5837TIP3   OH217453   0.604   1.218   3.148
 5837TIP3    H117454   0.696   1.193   3.161
 5837TIP3    H217455   0.590   1.290   3.208
 5838TIP3   OH217456   7.291   4.451   4.108
 5838TIP3    H117457   7.326   4.423   4.024
 5838TIP3    H217458   7.251   4.372   4.145
 5839TIP3   OH217459   7.933   0.571   0.266
 5839TIP3    H117460   7.878   0.644   0.239
 5839TIP3    H217461   7.955   0.591   0.357
 5840TIP3   OH217462   4.715   6.463   3.512
 5840TIP3    H117463   4.759   6.420   3.439
 5840TIP3    H217464   4.647   6.516   3.470
 5841TIP3   OH217465   3.448   4.030   5.107
 5841TIP3    H117466   3.451   4.038   5.203
 5841TIP3    H217467   3.483   4.114   5.075
 5842TIP3   OH217468   2.521   4.261   3.509
 5842TIP3    H117469   2.605   4.271   3.465
 5842TIP3    H217470   2.507   4.345   3.553
 5843TIP3   OH217471   0.279   2.676   3.268
 5843TIP3    H117472   0.268   2.684   3.362
 5843TIP3    H217473   0.220   2.605   3.243
 5844TIP3   OH217474   2.271   1.266   3.867
 5844TIP3    H117475   2.297   1.194   3.809
 5844TIP3    H217476   2.261   1.225   3.953
 5845TIP3   OH217477   4.842   6.947   3.871
 5845TIP3    H117478   4.746   6.942   3.867
 5845TIP3    H217479   4.872   6.857   3.867
 5846TIP3   OH217480   7.111   6.489   5.552
 5846TIP3    H117481   7.195   6.516   5.514
 5846TIP3    H217482   7.133   6.415   5.608
 5847TIP3   OH217483   5.350   5.536   1.574
 5847TIP3    H117484   5.353   5.509   1.482
 5847TIP3    H217485   5.349   5.632   1.571
 5848TIP3   OH217486   4.979   3.034   4.989
 5848TIP3    H117487   5.026   3.093   4.930
 5848TIP3    H217488   4.958   3.088   5.066
 5849TIP3   OH217489   6.805   1.130   6.483
 5849TIP3    H117490   6.864   1.084   6.424
 5849TIP3    H217491   6.856   1.143   6.563
 5850TIP3   OH217492   3.105   5.867   2.237
 5850TIP3    H117493   3.145   5.886   2.321
 5850TIP3    H217494   3.036   5.803   2.257
 5851TIP3   OH217495   0.499   5.110   4.835
 5851TIP3    H117496   0.419   5.104   4.888
 5851TIP3    H217497   0.565   5.142   4.895
 5852TIP3   OH217498   3.719   1.092   2.121
 5852TIP3    H117499   3.799   1.144   2.116
 5852TIP3    H217500   3.740   1.022   2.183
 5853TIP3   OH217501   2.373   2.670   6.395
 5853TIP3    H117502   2.430   2.597   6.372
 5853TIP3    H217503   2.427   2.748   6.381
 5854TIP3   OH217504   1.439   7.162   4.289
 5854TIP3    H117505   1.358   7.138   4.334
 5854TIP3    H217506   1.503   7.098   4.321
 5855TIP3   OH217507   5.014   3.487   6.465
 5855TIP3    H117508   4.922   3.467   6.486
 5855TIP3    H217509   5.020   3.582   6.470
 5856TIP3   OH217510   6.728   4.609   0.781
 5856TIP3    H117511   6.668   4.633   0.711
 5856TIP3    H217512   6.732   4.687   0.837
 5857TIP3   OH217513   5.409   4.496   0.638
 5857TIP3    H117514   5.317   4.471   0.632
 5857TIP3    H217515   5.407   4.592   0.634
 5858TIP3   OH217516   0.620   3.540   3.534
 5858TIP3    H117517   0.528   3.513   3.534
 5858TIP3    H217518   0.670   3.459   3.546
 5859TIP3   OH217519   1.431   0.950   5.737
 5859TIP3    H117520   1.377   1.028   5.755
 5859TIP3    H217521   1.376   0.876   5.765
 5860TIP3   OH217522   2.153   2.912   4.712
 5860TIP3    H117523   2.178   2.951   4.628
 5860TIP3    H217524   2.232   2.919   4.765
 5861TIP3   OH217525   6.056   3.158   4.762
 5861TIP3    H117526   6.084   3.158   4.670
 5861TIP3    H217527   6.121   3.212   4.807
 5862TIP3   OH217528   3.468   4.008   1.468
 5862TIP3    H117529   3.483   3.950   1.543
 5862TIP3    H217530   3.555   4.042   1.446
 5863TIP3   OH217531   1.534   0.042   0.562
 5863TIP3    H117532   1.520   0.109   0.496
 5863TIP3    H217533   1.496  -0.038   0.524
 5864TIP3   OH217534   1.522   3.306   3.170
 5864TIP3    H117535   1.492   3.216   3.177
 5864TIP3    H217536   1.499   3.346   3.255
 5865TIP3   OH217537   6.215   2.523   1.421
 5865TIP3    H117538   6.175   2.446   1.381
 5865TIP3    H217539   6.287   2.545   1.362
 5866TIP3   OH217540   1.364   7.299   6.301
 5866TIP3    H117541   1.274   7.331   6.290
 5866TIP3    H217542   1.392   7.335   6.386
 5867TIP3   OH217543   0.005   5.504   5.997
 5867TIP3    H117544  -0.001   5.470   5.907
 5867TIP3    H217545   0.090   5.473   6.029
 5868TIP3   OH217546   6.433   4.659   5.206
 5868TIP3    H117547   6.458   4.647   5.298
 5868TIP3    H217548   6.356   4.604   5.194
 5869TIP3   OH217549   5.774   6.767   6.048
 5869TIP3    H117550   5.847   6.742   5.991
 5869TIP3    H217551   5.698   6.771   5.990
 5870TIP3   OH217552   4.715   3.762   3.183
 5870TIP3    H117553   4.727   3.771   3.088
 5870TIP3    H217554   4.788   3.811   3.221
 5871TIP3   OH217555   6.536   6.215   4.027
 5871TIP3    H117556   6.496   6.281   3.970
 5871TIP3    H217557   6.590   6.162   3.968
 5872TIP3   OH217558   2.767   0.036   1.195
 5872TIP3    H117559   2.745   0.107   1.256
 5872TIP3    H217560   2.831   0.074   1.135
 5873TIP3   OH217561   4.166   3.081   2.173
 5873TIP3    H117562   4.173   3.130   2.092
 5873TIP3    H217563   4.074   3.054   2.177
 5874TIP3   OH217564   3.209   2.377   0.290
 5874TIP3    H117565   3.204   2.436   0.365
 5874TIP3    H217566   3.253   2.429   0.222
 5875TIP3   OH217567   0.128   4.359   5.597
 5875TIP3    H117568   0.219   4.363   5.626
 5875TIP3    H217569   0.078   4.348   5.678
 5876TIP3   OH217570   5.864   2.902   6.050
 5876TIP3    H117571   5.771   2.919   6.062
 5876TIP3    H217572   5.877   2.813   6.083
 5877TIP3   OH217573   6.251   6.517   6.092
 5877TIP3    H117574   6.171   6.551   6.133
 5877TIP3    H217575   6.221   6.439   6.045
 5878TIP3   OH217576   7.063   4.923   6.680
 5878TIP3    H117577   7.104   4.945   6.763
 5878TIP3    H217578   7.006   4.849   6.701
 5879TIP3   OH217579   3.032   4.915   2.530
 5879TIP3    H117580   3.082   4.990   2.562
 5879TIP3    H217581   2.976   4.890   2.603
 5880TIP3   OH217582   4.057   5.329   0.417
 5880TIP3    H117583   4.153   5.332   0.410
 5880TIP3    H217584   4.034   5.410   0.462
 5881TIP3   OH217585   2.481   0.743   1.587
 5881TIP3    H117586   2.419   0.733   1.659
 5881TIP3    H217587   2.447   0.687   1.518
 5882TIP3   OH217588   4.576   0.162   3.023
 5882TIP3    H117589   4.644   0.195   3.082
 5882TIP3    H217590   4.500   0.219   3.040
 5883TIP3   OH217591   3.985   4.662   4.186
 5883TIP3    H117592   3.945   4.687   4.269
 5883TIP3    H217593   4.027   4.742   4.154
 5884TIP3   OH217594   7.662   6.816   2.639
 5884TIP3    H117595   7.640   6.909   2.644
 5884TIP3    H217596   7.579   6.771   2.651
 5885TIP3   OH217597   1.549   2.978   1.710
 5885TIP3    H117598   1.527   3.035   1.783
 5885TIP3    H217599   1.483   2.909   1.712
 5886TIP3   OH217600   5.927   7.467   3.893
 5886TIP3    H117601   5.995   7.443   3.829
 5886TIP3    H217602   5.975   7.479   3.975
 5887TIP3   OH217603   0.897   5.084   4.167
 5887TIP3    H117604   0.813   5.130   4.168
 5887TIP3    H217605   0.893   5.025   4.242
 5888TIP3   OH217606   1.969   3.562   1.542
 5888TIP3    H117607   2.049   3.545   1.492
 5888TIP3    H217608   1.918   3.482   1.535
 5889TIP3   OH217609   3.174   2.051   2.331
 5889TIP3    H117610   3.122   1.990   2.279
 5889TIP3    H217611   3.227   2.098   2.268
 5890TIP3   OH217612   6.647   7.721   3.240
 5890TIP3    H117613   6.711   7.716   3.168
 5890TIP3    H217614   6.641   7.814   3.260
 5891TIP3   OH217615   0.522   6.555   5.728
 5891TIP3    H117616   0.549   6.535   5.638
 5891TIP3    H217617   0.603   6.545   5.779
 5892TIP3   OH217618   6.664   1.955   5.698
 5892TIP3    H117619   6.615   1.936   5.618
 5892TIP3    H217620   6.755   1.938   5.675
 5893TIP3   OH217621   4.100   0.270   2.041
 5893TIP3    H117622   4.170   0.296   2.101
 5893TIP3    H217623   4.021   0.268   2.095
 5894TIP3   OH217624   3.496   0.203   1.916
 5894TIP3    H117625   3.581   0.204   1.961
 5894TIP3    H217626   3.467   0.295   1.916
 5895TIP3   OH217627   3.865   2.054   2.925
 5895TIP3    H117628   3.940   2.111   2.910
 5895TIP3    H217629   3.900   1.979   2.974
 5896TIP3   OH217630   3.255   0.930   2.197
 5896TIP3    H117631   3.308   1.006   2.172
 5896TIP3    H217632   3.286   0.908   2.285
 5897TIP3   OH217633   1.960   3.721   3.899
 5897TIP3    H117634   2.053   3.721   3.919
 5897TIP3    H217635   1.939   3.813   3.879
 5898TIP3   OH217636   3.154   5.443   5.249
 5898TIP3    H117637   3.091   5.372   5.265
 5898TIP3    H217638   3.101   5.516   5.217
 5899TIP3   OH217639   7.908   5.453   6.499
 5899TIP3    H117640   7.853   5.523   6.463
 5899TIP3    H217641   7.944   5.490   6.579
 5900TIP3   OH217642   3.811   6.914   5.231
 5900TIP3    H117643   3.905   6.894   5.228
 5900TIP3    H217644   3.805   6.990   5.289
 5901TIP3   OH217645   0.080   7.327   6.431
 5901TIP3    H117646   0.048   7.283   6.353
 5901TIP3    H217647   0.153   7.273   6.462
 5902TIP3   OH217648   4.822   0.165   6.390
 5902TIP3    H117649   4.875   0.237   6.424
 5902TIP3    H217650   4.869   0.137   6.311
 5903TIP3   OH217651   3.797   0.365   5.038
 5903TIP3    H117652   3.889   0.355   5.064
 5903TIP3    H217653   3.801   0.403   4.950
 5904TIP3   OH217654   5.302   1.739   2.227
 5904TIP3    H117655   5.398   1.741   2.222
 5904TIP3    H217656   5.273   1.805   2.165
 5905TIP3   OH217657   3.750   5.323   6.294
 5905TIP3    H117658   3.772   5.367   6.212
 5905TIP3    H217659   3.659   5.294   6.281
 5906TIP3   OH217660   2.556   7.202   5.526
 5906TIP3    H117661   2.551   7.110   5.500
 5906TIP3    H217662   2.584   7.247   5.447
 5907TIP3   OH217663   5.166   0.103   2.616
 5907TIP3    H117664   5.235   0.064   2.563
 5907TIP3    H217665   5.203   0.104   2.705
 5908TIP3   OH217666   5.687   3.173   6.658
 5908TIP3    H117667   5.596   3.154   6.683
 5908TIP3    H217668   5.700   3.264   6.686
 5909TIP3   OH217669   3.354   4.539   1.170
 5909TIP3    H117670   3.379   4.447   1.160
 5909TIP3    H217671   3.399   4.583   1.097
 5910TIP3   OH217672   0.047   5.694   2.000
 5910TIP3    H117673   0.130   5.660   1.967
 5910TIP3    H217674  -0.005   5.616   2.017
 5911TIP3   OH217675   4.914   5.933   4.828
 5911TIP3    H117676   4.966   5.907   4.752
 5911TIP3    H217677   4.851   5.996   4.793
 5912TIP3   OH217678   6.167   1.229   5.795
 5912TIP3    H117679   6.210   1.308   5.761
 5912TIP3    H217680   6.074   1.246   5.783
 5913TIP3   OH217681   4.477   3.004   1.939
 5913TIP3    H117682   4.407   2.940   1.924
 5913TIP3    H217683   4.465   3.032   2.030
 5914TIP3   OH217684   6.825   6.482   2.584
 5914TIP3    H117685   6.737   6.518   2.573
 5914TIP3    H217686   6.867   6.539   2.648
 5915TIP3   OH217687   8.286   7.441   6.094
 5915TIP3    H117688   8.294   7.410   6.184
 5915TIP3    H217689   8.202   7.405   6.064
 5916TIP3   OH217690   3.163   1.593   1.783
 5916TIP3    H117691   3.165   1.499   1.800
 5916TIP3    H217692   3.070   1.616   1.781
 5917TIP3   OH217693   5.522   7.109   4.917
 5917TIP3    H117694   5.554   7.058   4.992
 5917TIP3    H217695   5.427   7.097   4.920
 5918TIP3   OH217696   2.369   2.860   2.194
 5918TIP3    H117697   2.358   2.765   2.195
 5918TIP3    H217698   2.463   2.874   2.202
 5919TIP3   OH217699   1.050   7.444   1.856
 5919TIP3    H117700   0.980   7.479   1.802
 5919TIP3    H217701   1.083   7.368   1.807
 5920TIP3   OH217702   5.964   3.711   2.525
 5920TIP3    H117703   6.048   3.681   2.489
 5920TIP3    H217704   5.977   3.710   2.620
 5921TIP3   OH217705   1.151   5.262   1.233
 5921TIP3    H117706   1.059   5.247   1.210
 5921TIP3    H217707   1.148   5.333   1.297
 5922TIP3   OH217708   7.466   0.440   2.422
 5922TIP3    H117709   7.553   0.409   2.397
 5922TIP3    H217710   7.434   0.375   2.484
 5923TIP3   OH217711   1.564   1.330   5.651
 5923TIP3    H117712   1.652   1.323   5.614
 5923TIP3    H217713   1.510   1.276   5.594
 5924TIP3   OH217714   1.710   6.634   1.399
 5924TIP3    H117715   1.757   6.579   1.336
 5924TIP3    H217716   1.621   6.599   1.400
 5925TIP3   OH217717   4.179   3.989   0.732
 5925TIP3    H117718   4.142   4.070   0.697
 5925TIP3    H217719   4.271   4.009   0.748
 5926TIP3   OH217720   6.267   7.736   4.628
 5926TIP3    H117721   6.211   7.813   4.620
 5926TIP3    H217722   6.208   7.666   4.657
 5927TIP3   OH217723   0.560   3.948   0.073
 5927TIP3    H117724   0.627   3.879   0.075
 5927TIP3    H217725   0.477   3.901   0.072
 5928TIP3   OH217726   0.885   0.083   5.896
 5928TIP3    H117727   0.896   0.177   5.913
 5928TIP3    H217728   0.973   0.047   5.899
 5929TIP3   OH217729   4.291   3.789   0.510
 5929TIP3    H117730   4.254   3.779   0.597
 5929TIP3    H217731   4.223   3.834   0.460
 5930TIP3   OH217732   0.285   0.927   4.129
 5930TIP3    H117733   0.345   0.853   4.139
 5930TIP3    H217734   0.230   0.903   4.055
 5931TIP3   OH217735   5.763   3.636   5.386
 5931TIP3    H117736   5.821   3.634   5.463
 5931TIP3    H217737   5.701   3.565   5.402
 5932TIP3   OH217738   4.212   7.260   3.445
 5932TIP3    H117739   4.261   7.253   3.363
 5932TIP3    H217740   4.256   7.200   3.505
 5933TIP3   OH217741   3.288   1.582   1.513
 5933TIP3    H117742   3.347   1.655   1.492
 5933TIP3    H217743   3.238   1.613   1.588
 5934TIP3   OH217744   5.893   3.713   4.956
 5934TIP3    H117745   5.810   3.667   4.961
 5934TIP3    H217746   5.956   3.646   4.931
 5935TIP3   OH217747   0.100   0.484   5.335
 5935TIP3    H117748   0.035   0.413   5.332
 5935TIP3    H217749   0.147   0.476   5.252
 5936TIP3   OH217750   3.561   6.263   3.487
 5936TIP3    H117751   3.634   6.285   3.546
 5936TIP3    H217752   3.526   6.181   3.522
 5937TIP3   OH217753   0.025   1.492   2.595
 5937TIP3    H117754   0.001   1.403   2.622
 5937TIP3    H217755   0.072   1.528   2.670
 5938TIP3   OH217756   5.384   4.393   3.142
 5938TIP3    H117757   5.466   4.420   3.183
 5938TIP3    H217758   5.369   4.305   3.174
 5939TIP3   OH217759   4.833   0.441   3.504
 5939TIP3    H117760   4.742   0.417   3.486
 5939TIP3    H217761   4.871   0.361   3.541
 5940TIP3   OH217762   4.828   0.356   4.314
 5940TIP3    H117763   4.912   0.365   4.359
 5940TIP3    H217764   4.772   0.422   4.356
 5941TIP3   OH217765   1.841   0.930   1.025
 5941TIP3    H117766   1.772   0.877   0.986
 5941TIP3    H217767   1.912   0.869   1.042
 5942TIP3   OH217768   2.657   0.850   0.273
 5942TIP3    H117769   2.723   0.915   0.251
 5942TIP3    H217770   2.598   0.894   0.333
 5943TIP3   OH217771   0.155   6.366   2.669
 5943TIP3    H117772   0.249   6.367   2.651
 5943TIP3    H217773   0.115   6.409   2.593
 5944TIP3   OH217774   4.336   7.204   0.810
 5944TIP3    H117775   4.333   7.117   0.849
 5944TIP3    H217776   4.360   7.188   0.718
 5945TIP3   OH217777   6.841   2.392   4.015
 5945TIP3    H117778   6.840   2.443   4.096
 5945TIP3    H217779   6.774   2.433   3.960
 5946TIP3   OH217780   1.680   2.142   0.090
 5946TIP3    H117781   1.707   2.100   0.008
 5946TIP3    H217782   1.652   2.069   0.145
 5947TIP3   OH217783   5.836   0.240   1.394
 5947TIP3    H117784   5.789   0.199   1.322
 5947TIP3    H217785   5.918   0.191   1.400
 5948TIP3   OH217786   3.463   3.741   2.210
 5948TIP3    H117787   3.400   3.677   2.177
 5948TIP3    H217788   3.475   3.803   2.138
 5949TIP3   OH217789   3.047   5.561   2.594
 5949TIP3    H117790   3.105   5.486   2.605
 5949TIP3    H217791   2.968   5.537   2.642
 5950TIP3   OH217792   5.713   4.028   4.127
 5950TIP3    H117793   5.753   3.987   4.204
 5950TIP3    H217794   5.787   4.044   4.068
 5951TIP3   OH217795   2.994   7.005   1.979
 5951TIP3    H117796   2.986   6.910   1.966
 5951TIP3    H217797   3.070   7.015   2.035
 5952TIP3   OH217798   4.942   3.212   2.247
 5952TIP3    H117799   4.954   3.260   2.328
 5952TIP3    H217800   4.982   3.267   2.180
 5953TIP3   OH217801   2.957   3.944   6.750
 5953TIP3    H117802   2.993   3.908   6.670
 5953TIP3    H217803   2.968   3.875   6.815
 5954TIP3   OH217804   2.014   6.046   3.508
 5954TIP3    H117805   2.053   5.967   3.546
 5954TIP3    H217806   1.920   6.037   3.524
 5955TIP3   OH217807   8.199   0.394   4.027
 5955TIP3    H117808   8.248   0.382   3.946
 5955TIP3    H217809   8.125   0.334   4.019
 5956TIP3   OH217810   3.876   3.027   2.314
 5956TIP3    H117811   3.891   2.939   2.348
 5956TIP3    H217812   3.818   3.014   2.239
 5957TIP3   OH217813   6.879   3.474   5.361
 5957TIP3    H117814   6.896   3.437   5.275
 5957TIP3    H217815   6.816   3.544   5.346
 5958TIP3   OH217816   7.048   4.045   3.362
 5958TIP3    H117817   7.020   3.967   3.409
 5958TIP3    H217818   7.112   4.013   3.299
 5959TIP3   OH217819   5.907   2.289   5.854
 5959TIP3    H117820   5.897   2.307   5.760
 5959TIP3    H217821   6.001   2.282   5.867
 5960TIP3   OH217822   4.668   5.350   2.729
 5960TIP3    H117823   4.607   5.281   2.707
 5960TIP3    H217824   4.680   5.343   2.824
 5961TIP3   OH217825   6.569   1.033   3.329
 5961TIP3    H117826   6.553   1.114   3.377
 5961TIP3    H217827   6.636   0.988   3.381
 5962TIP3   OH217828   3.915   3.598   2.918
 5962TIP3    H117829   3.961   3.663   2.972
 5962TIP3    H217830   3.858   3.650   2.862
 5963TIP3   OH217831   0.934   1.193   2.046
 5963TIP3    H117832   0.986   1.251   2.101
 5963TIP3    H217833   0.844   1.210   2.072
 5964TIP3   OH217834   2.388   0.086   4.264
 5964TIP3    H117835   2.424  -0.002   4.253
 5964TIP3    H217836   2.459   0.136   4.304
 5965TIP3   OH217837   6.733   1.281   4.483
 5965TIP3    H117838   6.712   1.216   4.416
 5965TIP3    H217839   6.697   1.363   4.450
 5966TIP3   OH217840   2.060   0.688   0.467
 5966TIP3    H117841   2.099   0.603   0.449
 5966TIP3    H217842   1.989   0.696   0.404
 5967TIP3   OH217843   3.651   5.316   2.061
 5967TIP3    H117844   3.745   5.330   2.056
 5967TIP3    H217845   3.612   5.402   2.048
 5968TIP3   OH217846   5.261   5.637   3.949
 5968TIP3    H117847   5.298   5.723   3.966
 5968TIP3    H217848   5.332   5.589   3.906
 5969TIP3   OH217849   3.541   3.481   5.775
 5969TIP3    H117850   3.448   3.463   5.791
 5969TIP3    H217851   3.585   3.454   5.856
 5970TIP3   OH217852   8.158   4.351   0.418
 5970TIP3    H117853   8.246   4.379   0.392
 5970TIP3    H217854   8.153   4.259   0.390
 5971TIP3   OH217855   0.376   4.400   4.612
 5971TIP3    H117856   0.379   4.408   4.707
 5971TIP3    H217857   0.457   4.442   4.582
 5972TIP3   OH217858   1.565   2.159   4.727
 5972TIP3    H117859   1.549   2.224   4.659
 5972TIP3    H217860   1.661   2.152   4.730
 5973TIP3   OH217861   1.192   4.706   0.307
 5973TIP3    H117862   1.197   4.627   0.361
 5973TIP3    H217863   1.137   4.680   0.232
 5974TIP3   OH217864   6.058   2.913   2.079
 5974TIP3    H117865   5.977   2.880   2.039
 5974TIP3    H217866   6.124   2.846   2.059
 5975TIP3   OH217867   4.873   6.281   6.245
 5975TIP3    H117868   4.945   6.327   6.289
 5975TIP3    H217869   4.892   6.188   6.259
 5976TIP3   OH217870   1.068   5.602   4.036
 5976TIP3    H117871   1.122   5.680   4.021
 5976TIP3    H217872   1.115   5.532   3.991
 5977TIP3   OH217873   0.542   6.039   5.787
 5977TIP3    H117874   0.493   6.085   5.854
 5977TIP3    H217875   0.611   5.993   5.835
 5978TIP3   OH217876   6.552   3.683   6.096
 5978TIP3    H117877   6.470   3.666   6.142
 5978TIP3    H217878   6.526   3.697   6.005
 5979TIP3   OH217879   4.627   0.567   6.426
 5979TIP3    H117880   4.597   0.515   6.500
 5979TIP3    H217881   4.639   0.503   6.355
 5980TIP3   OH217882   3.723   6.117   2.959
 5980TIP3    H117883   3.804   6.089   2.916
 5980TIP3    H217884   3.706   6.050   3.024
 5981TIP3   OH217885   2.034   3.340   4.009
 5981TIP3    H117886   1.942   3.364   4.012
 5981TIP3    H217887   2.047   3.285   4.087
 5982TIP3   OH217888   7.739   7.471   3.881
 5982TIP3    H117889   7.688   7.543   3.918
 5982TIP3    H217890   7.821   7.472   3.932
 5983TIP3   OH217891   1.368   2.687   5.394
 5983TIP3    H117892   1.395   2.755   5.332
 5983TIP3    H217893   1.381   2.605   5.348
 5984TIP3   OH217894   1.157   2.641   0.381
 5984TIP3    H117895   1.153   2.724   0.334
 5984TIP3    H217896   1.184   2.665   0.470
 5985TIP3   OH217897   3.883   2.691   0.385
 5985TIP3    H117898   3.928   2.689   0.300
 5985TIP3    H217899   3.890   2.782   0.413
 5986TIP3   OH217900   3.190   1.936   5.452
 5986TIP3    H117901   3.234   1.965   5.372
 5986TIP3    H217902   3.104   1.977   5.449
 5987TIP3   OH217903   7.023   1.696   5.231
 5987TIP3    H117904   6.971   1.685   5.310
 5987TIP3    H217905   7.093   1.631   5.239
 5988TIP3   OH217906   4.482   2.654   2.189
 5988TIP3    H117907   4.403   2.646   2.135
 5988TIP3    H217908   4.449   2.668   2.278
 5989TIP3   OH217909   1.808   0.139   1.809
 5989TIP3    H117910   1.722   0.099   1.822
 5989TIP3    H217911   1.861   0.104   1.881
 5990TIP3   OH217912   8.161   3.021   2.006
 5990TIP3    H117913   8.186   3.059   1.921
 5990TIP3    H217914   8.243   2.987   2.042
 5991TIP3   OH217915   5.648   6.377   0.415
 5991TIP3    H117916   5.687   6.370   0.502
 5991TIP3    H217917   5.566   6.328   0.422
 5992TIP3   OH217918   3.921   5.628   2.282
 5992TIP3    H117919   3.900   5.538   2.256
 5992TIP3    H217920   3.877   5.639   2.367
 5993TIP3   OH217921   7.549   6.031   4.631
 5993TIP3    H117922   7.644   6.028   4.626
 5993TIP3    H217923   7.519   5.960   4.575
 5994TIP3   OH217924   1.684   5.414   3.833
 5994TIP3    H117925   1.759   5.422   3.893
 5994TIP3    H217926   1.679   5.321   3.813
 5995TIP3   OH217927   4.193   0.440   4.464
 5995TIP3    H117928   4.215   0.348   4.474
 5995TIP3    H217929   4.263   0.476   4.409
 5996TIP3   OH217930   1.300   6.960   3.154
 5996TIP3    H117931   1.271   6.992   3.239
 5996TIP3    H217932   1.381   7.008   3.137
 5997TIP3   OH217933   1.851   7.391   0.931
 5997TIP3    H117934   1.886   7.350   0.852
 5997TIP3    H217935   1.915   7.458   0.954
 5998TIP3   OH217936   8.172   1.547   2.894
 5998TIP3    H117937   8.174   1.472   2.834
 5998TIP3    H217938   8.258   1.588   2.884
 5999TIP3   OH217939   5.203   4.219   2.867
 5999TIP3    H117940   5.138   4.149   2.866
 5999TIP3    H217941   5.286   4.176   2.889
 6000TIP3   OH217942  -0.011   3.417   1.283
 6000TIP3    H117943   0.031   3.502   1.272
 6000TIP3    H217944  -0.096   3.426   1.240
 6001TIP3   OH217945   4.047   2.418   6.490
 6001TIP3    H117946   4.064   2.512   6.475
 6001TIP3    H217947   4.025   2.412   6.583
 6002TIP3   OH217948   0.553   4.855   5.074
 6002TIP3    H117949   0.629   4.912   5.065
 6002TIP3    H217950   0.570   4.803   5.152
 6003TIP3   OH217951   2.327   0.796   1.337
 6003TIP3    H117952   2.318   0.704   1.359
 6003TIP3    H217953   2.246   0.837   1.368
 6004TIP3   OH217954   0.174   6.742   4.168
 6004TIP3    H117955   0.105   6.683   4.199
 6004TIP3    H217956   0.128   6.823   4.145
 6005TIP3   OH217957   2.770   5.740   4.718
 6005TIP3    H117958   2.797   5.718   4.629
 6005TIP3    H217959   2.757   5.656   4.762
 6006TIP3   OH217960   0.139   1.626   2.810
 6006TIP3    H117961   0.206   1.579   2.860
 6006TIP3    H217962   0.176   1.713   2.796
 6007TIP3   OH217963   7.251   6.950   0.079
 6007TIP3    H117964   7.303   6.928   0.157
 6007TIP3    H217965   7.208   7.032   0.100
 6008TIP3   OH217966   5.019   2.850   3.236
 6008TIP3    H117967   4.995   2.757   3.240
 6008TIP3    H217968   4.989   2.879   3.150
 6009TIP3   OH217969   6.070   0.057   1.398
 6009TIP3    H117970   6.153   0.079   1.355
 6009TIP3    H217971   6.042  -0.025   1.356
 6010TIP3   OH217972   4.282   2.199   2.279
 6010TIP3    H117973   4.370   2.207   2.242
 6010TIP3    H217974   4.290   2.133   2.347
 6011TIP3   OH217975   1.058   2.728   2.587
 6011TIP3    H117976   0.985   2.678   2.623
 6011TIP3    H217977   1.019   2.811   2.560
 6012TIP3   OH217978   4.266   4.992   0.460
 6012TIP3    H117979   4.306   5.077   0.446
 6012TIP3    H217980   4.178   5.012   0.493
 6013TIP3   OH217981   2.789   1.727   6.226
 6013TIP3    H117982   2.814   1.768   6.310
 6013TIP3    H217983   2.846   1.769   6.162
 6014TIP3   OH217984   1.158   6.668   6.226
 6014TIP3    H117985   1.236   6.633   6.269
 6014TIP3    H217986   1.160   6.762   6.246
 6015TIP3   OH217987   6.021   1.094   1.598
 6015TIP3    H117988   6.111   1.117   1.573
 6015TIP3    H217989   6.006   1.009   1.556
 6016TIP3   OH217990   2.974   1.020   5.884
 6016TIP3    H117991   2.948   0.939   5.928
 6016TIP3    H217992   2.896   1.048   5.837
 6017TIP3   OH217993   0.673   1.244   0.368
 6017TIP3    H117994   0.701   1.193   0.444
 6017TIP3    H217995   0.742   1.229   0.303
 6018TIP3   OH217996   0.957   4.453   2.381
 6018TIP3    H117997   0.935   4.394   2.453
 6018TIP3    H217998   1.035   4.415   2.341
 6019TIP3   OH217999   6.105   5.714   0.205
 6019TIP3    H118000   6.038   5.707   0.137
 6019TIP3    H218001   6.056   5.719   0.287
 6020TIP3   OH218002   8.228   4.816   1.899
 6020TIP3    H118003   8.234   4.783   1.989
 6020TIP3    H218004   8.134   4.831   1.886
 6021TIP3   OH218005   4.128   3.799   5.034
 6021TIP3    H118006   4.203   3.769   5.085
 6021TIP3    H218007   4.070   3.722   5.029
 6022TIP3   OH218008   6.128   4.682   6.589
 6022TIP3    H118009   6.058   4.744   6.609
 6022TIP3    H218010   6.083   4.605   6.555
 6023TIP3   OH218011   6.830   4.056   0.888
 6023TIP3    H118012   6.824   4.083   0.979
 6023TIP3    H218013   6.923   4.065   0.867
 6024TIP3   OH218014   7.431   6.279   6.259
 6024TIP3    H118015   7.388   6.194   6.262
 6024TIP3    H218016   7.507   6.265   6.201
 6025TIP3   OH218017   7.479   2.023   6.714
 6025TIP3    H118018   7.436   1.977   6.786
 6025TIP3    H218019   7.414   2.022   6.643
 6026TIP3   OH218020   1.857   4.719   1.761
 6026TIP3    H118021   1.837   4.713   1.855
 6026TIP3    H218022   1.948   4.749   1.759
 6027TIP3   OH218023   4.629   0.012   3.679
 6027TIP3    H118024   4.610   0.014   3.772
 6027TIP3    H218025   4.627  -0.081   3.656
 6028TIP3   OH218026   7.331   7.269   0.055
 6028TIP3    H118027   7.293   7.354   0.077
 6028TIP3    H218028   7.306   7.253  -0.035
 6029TIP3   OH218029   5.928   4.442   3.666
 6029TIP3    H118030   5.995   4.374   3.663
 6029TIP3    H218031   5.846   4.395   3.651
 6030TIP3   OH218032   3.072   2.170   6.186
 6030TIP3    H118033   3.160   2.199   6.161
 6030TIP3    H218034   3.019   2.250   6.183
 6031TIP3   OH218035   4.765   4.401   1.889
 6031TIP3    H118036   4.816   4.320   1.891
 6031TIP3    H218037   4.768   4.433   1.979
 6032TIP3   OH218038   2.948   6.025   5.997
 6032TIP3    H118039   2.977   5.934   6.000
 6032TIP3    H218040   2.941   6.044   5.903
 6033TIP3   OH218041   0.571   5.056   2.304
 6033TIP3    H118042   0.617   4.978   2.333
 6033TIP3    H218043   0.556   5.041   2.211
 6034TIP3   OH218044   0.770   5.028   3.168
 6034TIP3    H118045   0.714   4.957   3.136
 6034TIP3    H218046   0.753   5.101   3.109
 6035TIP3   OH218047   3.665   7.587   1.104
 6035TIP3    H118048   3.741   7.632   1.142
 6035TIP3    H218049   3.634   7.529   1.174
 6036TIP3   OH218050   5.525   2.724   1.639
 6036TIP3    H118051   5.499   2.688   1.554
 6036TIP3    H218052   5.616   2.752   1.626
 6037TIP3   OH218053   2.759   5.699   5.779
 6037TIP3    H118054   2.765   5.725   5.871
 6037TIP3    H218055   2.849   5.698   5.748
 6038TIP3   OH218056   3.876   6.912   4.684
 6038TIP3    H118057   3.966   6.889   4.659
 6038TIP3    H218058   3.878   6.911   4.780
 6039TIP3   OH218059   4.576   0.247   1.527
 6039TIP3    H118060   4.581   0.265   1.620
 6039TIP3    H218061   4.632   0.171   1.514
 6040TIP3   OH218062   4.375   1.923   3.750
 6040TIP3    H118063   4.291   1.968   3.760
 6040TIP3    H218064   4.428   1.956   3.823
 6041TIP3   OH218065   7.251   3.982   6.231
 6041TIP3    H118066   7.303   3.953   6.155
 6041TIP3    H218067   7.197   4.053   6.198
 6042TIP3   OH218068   7.551   3.325   2.375
 6042TIP3    H118069   7.558   3.409   2.422
 6042TIP3    H218070   7.642   3.300   2.358
 6043TIP3   OH218071   3.700   1.733   6.043
 6043TIP3    H118072   3.695   1.825   6.018
 6043TIP3    H218073   3.706   1.734   6.139
 6044TIP3   OH218074   4.741   6.542   5.736
 6044TIP3    H118075   4.666   6.573   5.786
 6044TIP3    H218076   4.816   6.561   5.792
 6045TIP3   OH218077   3.853   4.009   4.374
 6045TIP3    H118078   3.772   3.966   4.348
 6045TIP3    H218079   3.920   3.972   4.316
 6046TIP3   OH218080   6.213   2.387   6.460
 6046TIP3    H118081   6.307   2.375   6.446
 6046TIP3    H218082   6.174   2.306   6.427
 6047TIP3   OH218083   5.543   4.368   0.449
 6047TIP3    H118084   5.524   4.442   0.506
 6047TIP3    H218085   5.588   4.406   0.374
 6048TIP3   OH218086   5.020   3.221   3.782
 6048TIP3    H118087   5.114   3.211   3.794
 6048TIP3    H218088   4.982   3.141   3.818
 6049TIP3   OH218089   5.047   4.314   5.698
 6049TIP3    H118090   5.128   4.319   5.749
 6049TIP3    H218091   5.065   4.367   5.620
 6050TIP3   OH218092   0.431   4.585   5.211
 6050TIP3    H118093   0.460   4.617   5.297
 6050TIP3    H218094   0.349   4.540   5.229
 6051TIP3   OH218095   1.176   5.789   0.254
 6051TIP3    H118096   1.267   5.795   0.283
 6051TIP3    H218097   1.143   5.709   0.293
 6052TIP3   OH218098   5.779   0.509   1.298
 6052TIP3    H118099   5.717   0.508   1.224
 6052TIP3    H218100   5.777   0.419   1.330
 6053TIP3   OH218101   1.062   1.989   4.367
 6053TIP3    H118102   1.114   2.014   4.291
 6053TIP3    H218103   1.006   2.064   4.385
 6054TIP3   OH218104   5.599   2.093   5.985
 6054TIP3    H118105   5.555   2.032   5.926
 6054TIP3    H218106   5.571   2.180   5.955
 6055TIP3   OH218107   6.947   7.047   0.814
 6055TIP3    H118108   6.979   7.137   0.811
 6055TIP3    H218109   7.012   6.997   0.766
 6056TIP3   OH218110   7.669   5.411   0.322
 6056TIP3    H118111   7.646   5.351   0.251
 6056TIP3    H218112   7.640   5.365   0.401
 6057TIP3   OH218113   1.099   2.539   4.599
 6057TIP3    H118114   1.142   2.455   4.608
 6057TIP3    H218115   1.052   2.552   4.682
 6058TIP3   OH218116   2.768   3.958   2.048
 6058TIP3    H118117   2.720   3.886   2.008
 6058TIP3    H218118   2.733   4.037   2.006
 6059TIP3   OH218119   1.234   1.601   1.593
 6059TIP3    H118120   1.237   1.630   1.502
 6059TIP3    H218121   1.216   1.507   1.587
 6060TIP3   OH218122   3.297   7.094   5.981
 6060TIP3    H118123   3.310   7.189   5.985
 6060TIP3    H218124   3.206   7.082   6.009
 6061TIP3   OH218125   4.984   7.806   0.561
 6061TIP3    H118126   4.968   7.885   0.509
 6061TIP3    H218127   4.981   7.734   0.497
 6062TIP3   OH218128   2.205   6.620   0.044
 6062TIP3    H118129   2.255   6.644  -0.034
 6062TIP3    H218130   2.231   6.683   0.111
 6063TIP3   OH218131   7.249   6.770   6.170
 6063TIP3    H118132   7.202   6.807   6.245
 6063TIP3    H218133   7.180   6.737   6.112
 6064TIP3   OH218134   7.238   5.300   3.869
 6064TIP3    H118135   7.194   5.272   3.789
 6064TIP3    H218136   7.326   5.263   3.863
 6065TIP3   OH218137   6.303   0.101   6.518
 6065TIP3    H118138   6.325   0.009   6.538
 6065TIP3    H218139   6.374   0.130   6.461
 6066TIP3   OH218140   6.339   1.299   2.554
 6066TIP3    H118141   6.280   1.374   2.552
 6066TIP3    H218142   6.314   1.247   2.478
 6067TIP3   OH218143   7.918   0.294   3.765
 6067TIP3    H118144   7.961   0.238   3.829
 6067TIP3    H218145   7.825   0.278   3.778
 6068TIP3   OH218146   0.004   3.383   2.472
 6068TIP3    H118147  -0.014   3.331   2.550
 6068TIP3    H218148   0.052   3.459   2.505
 6069TIP3   OH218149   7.584   2.953   4.467
 6069TIP3    H118150   7.535   2.957   4.549
 6069TIP3    H218151   7.524   2.912   4.405
 6070TIP3   OH218152   5.076   7.087   3.936
 6070TIP3    H118153   5.138   7.014   3.935
 6070TIP3    H218154   4.990   7.046   3.928
 6071TIP3   OH218155   0.145   0.862   1.037
 6071TIP3    H118156   0.081   0.927   1.009
 6071TIP3    H218157   0.229   0.896   1.007
 6072TIP3   OH218158   5.368   2.992   0.807
 6072TIP3    H118159   5.283   3.014   0.845
 6072TIP3    H218160   5.415   2.948   0.878
 6073TIP3   OH218161   7.208   2.488   0.546
 6073TIP3    H118162   7.178   2.455   0.631
 6073TIP3    H218163   7.280   2.547   0.568
 6074TIP3   OH218164   1.408   1.097   4.692
 6074TIP3    H118165   1.464   1.028   4.658
 6074TIP3    H218166   1.319   1.061   4.687
 6075TIP3   OH218167   4.844   7.766   4.482
 6075TIP3    H118168   4.801   7.688   4.517
 6075TIP3    H218169   4.820   7.767   4.389
 6076TIP3   OH218170   0.100   0.400   5.064
 6076TIP3    H118171   0.086   0.306   5.069
 6076TIP3    H218172   0.058   0.427   4.982
 6077TIP3   OH218173   6.322   2.166   3.233
 6077TIP3    H118174   6.270   2.246   3.246
 6077TIP3    H218175   6.413   2.198   3.231
 6078TIP3   OH218176   3.096   6.704   4.702
 6078TIP3    H118177   3.078   6.640   4.771
 6078TIP3    H218178   3.054   6.785   4.731
 6079TIP3   OH218179   6.257   1.811   5.368
 6079TIP3    H118180   6.178   1.780   5.411
 6079TIP3    H218181   6.239   1.804   5.274
 6080TIP3   OH218182   8.212   6.690   3.220
 6080TIP3    H118183   8.235   6.778   3.247
 6080TIP3    H218184   8.257   6.678   3.136
 6081TIP3   OH218185   0.670   2.808   4.623
 6081TIP3    H118186   0.742   2.770   4.674
 6081TIP3    H218187   0.601   2.742   4.626
 6082TIP3   OH218188   7.009   1.848   3.714
 6082TIP3    H118189   7.027   1.896   3.795
 6082TIP3    H218190   6.929   1.887   3.681
 6083TIP3   OH218191   2.678   1.353   0.654
 6083TIP3    H118192   2.729   1.276   0.629
 6083TIP3    H218193   2.688   1.360   0.749
 6084TIP3   OH218194   5.394   4.870   2.652
 6084TIP3    H118195   5.340   4.800   2.614
 6084TIP3    H218196   5.348   4.894   2.733
 6085TIP3   OH218197   5.844   3.869   1.139
 6085TIP3    H118198   5.766   3.913   1.105
 6085TIP3    H218199   5.890   3.937   1.188
 6086TIP3   OH218200   8.080   0.223   1.985
 6086TIP3    H118201   8.051   0.161   2.052
 6086TIP3    H218202   7.999   0.254   1.944
 6087TIP3   OH218203   5.431   4.345   1.058
 6087TIP3    H118204   5.453   4.435   1.079
 6087TIP3    H218205   5.478   4.293   1.122
 6088TIP3   OH218206   6.348   3.604   3.891
 6088TIP3    H118207   6.266   3.653   3.882
 6088TIP3    H218208   6.395   3.650   3.960
 6089TIP3   OH218209   5.985   0.639   0.913
 6089TIP3    H118210   6.022   0.712   0.962
 6089TIP3    H218211   6.032   0.639   0.830
 6090TIP3   OH218212   5.039   1.324   1.994
 6090TIP3    H118213   5.065   1.323   2.087
 6090TIP3    H218214   4.958   1.376   1.993
 6091TIP3   OH218215   5.586   5.372   4.023
 6091TIP3    H118216   5.518   5.305   4.024
 6091TIP3    H218217   5.572   5.420   3.941
 6092TIP3   OH218218   0.114   5.680   4.128
 6092TIP3    H118219   0.165   5.603   4.103
 6092TIP3    H218220   0.039   5.645   4.175
 6093TIP3   OH218221   5.528   0.495   3.035
 6093TIP3    H118222   5.555   0.404   3.024
 6093TIP3    H218223   5.585   0.529   3.105
 6094TIP3   OH218224   0.997   2.046   6.599
 6094TIP3    H118225   0.911   2.005   6.600
 6094TIP3    H218226   1.056   1.977   6.567
 6095TIP3   OH218227   3.642   2.006   2.692
 6095TIP3    H118228   3.565   2.046   2.654
 6095TIP3    H218229   3.625   2.007   2.787
 6096TIP3   OH218230   8.311   4.913   5.599
 6096TIP3    H118231   8.229   4.933   5.554
 6096TIP3    H218232   8.284   4.870   5.680
 6097TIP3   OH218233   6.792   1.221   0.518
 6097TIP3    H118234   6.846   1.201   0.594
 6097TIP3    H218235   6.855   1.241   0.448
 6098TIP3   OH218236   3.634   4.113   6.183
 6098TIP3    H118237   3.555   4.134   6.133
 6098TIP3    H218238   3.689   4.065   6.121
 6099TIP3   OH218239   4.061   3.242   0.240
 6099TIP3    H118240   3.986   3.270   0.291
 6099TIP3    H218241   4.129   3.308   0.258
 6100TIP3   OH218242   7.724   0.651   5.852
 6100TIP3    H118243   7.729   0.558   5.877
 6100TIP3    H218244   7.801   0.690   5.892
 6101TIP3   OH218245   2.249   1.055   6.012
 6101TIP3    H118246   2.157   1.058   6.037
 6101TIP3    H218247   2.258   1.121   5.943
 6102TIP3   OH218248   0.416   6.232   0.033
 6102TIP3    H118249   0.465   6.151   0.049
 6102TIP3    H218250   0.479   6.290  -0.011
 6103TIP3   OH218251   3.987   5.434   4.374
 6103TIP3    H118252   3.906   5.389   4.398
 6103TIP3    H218253   4.037   5.437   4.456
 6104TIP3   OH218254   5.078   6.399   1.397
 6104TIP3    H118255   5.132   6.465   1.439
 6104TIP3    H218256   5.132   6.365   1.326
 6105TIP3   OH218257   5.361   0.083   2.851
 6105TIP3    H118258   5.402   0.096   2.766
 6105TIP3    H218259   5.412   0.013   2.892
 6106TIP3   OH218260   7.892   6.680   5.351
 6106TIP3    H118261   7.887   6.585   5.354
 6106TIP3    H218262   7.809   6.710   5.390
 6107TIP3   OH218263   7.880   5.540   4.308
 6107TIP3    H118264   7.868   5.615   4.366
 6107TIP3    H218265   7.930   5.477   4.361
 6108TIP3   OH218266   2.370   3.167   0.399
 6108TIP3    H118267   2.457   3.146   0.433
 6108TIP3    H218268   2.367   3.263   0.399
 6109TIP3   OH218269   0.973   7.052   4.867
 6109TIP3    H118270   0.903   7.063   4.932
 6109TIP3    H218271   0.946   7.109   4.794
 6110TIP3   OH218272   2.083   7.415   3.436
 6110TIP3    H118273   2.175   7.438   3.443
 6110TIP3    H218274   2.042   7.454   3.513
 6111TIP3   OH218275   5.080   3.430   6.114
 6111TIP3    H118276   5.048   3.371   6.046
 6111TIP3    H218277   5.031   3.511   6.101
 6112TIP3   OH218278   2.332   7.230   4.633
 6112TIP3    H118279   2.343   7.232   4.538
 6112TIP3    H218280   2.238   7.244   4.646
 6113TIP3   OH218281   7.812   2.978   3.522
 6113TIP3    H118282   7.900   2.991   3.486
 6113TIP3    H218283   7.809   2.885   3.546
 6114TIP3   OH218284   4.236   1.872   0.476
 6114TIP3    H118285   4.265   1.875   0.568
 6114TIP3    H218286   4.202   1.959   0.459
 6115TIP3   OH218287   5.039   1.792   1.327
 6115TIP3    H118288   5.097   1.717   1.343
 6115TIP3    H218289   4.962   1.774   1.381
 6116TIP3   OH218290   2.866   4.153   5.431
 6116TIP3    H118291   2.901   4.075   5.388
 6116TIP3    H218292   2.777   4.128   5.456
 6117TIP3   OH218293   6.452   6.985   4.237
 6117TIP3    H118294   6.477   6.936   4.316
 6117TIP3    H218295   6.384   6.931   4.197
 6118TIP3   OH218296   5.397   5.341   1.372
 6118TIP3    H118297   5.437   5.366   1.289
 6118TIP3    H218298   5.463   5.289   1.417
 6119TIP3   OH218299   7.054   1.025   6.346
 6119TIP3    H118300   7.121   1.051   6.282
 6119TIP3    H218301   7.016   0.945   6.309
 6120TIP3   OH218302   5.926   1.524   2.790
 6120TIP3    H118303   5.937   1.615   2.816
 6120TIP3    H218304   5.944   1.473   2.869
 6121TIP3   OH218305   1.335   1.688   2.801
 6121TIP3    H118306   1.406   1.750   2.781
 6121TIP3    H218307   1.255   1.738   2.787
 6122TIP3   OH218308   3.804   1.431   0.915
 6122TIP3    H118309   3.803   1.404   0.824
 6122TIP3    H218310   3.725   1.391   0.953
 6123TIP3   OH218311   0.092   1.165   5.742
 6123TIP3    H118312   0.134   1.227   5.682
 6123TIP3    H218313   0.101   1.080   5.698
 6124TIP3   OH218314   6.415   5.437   1.751
 6124TIP3    H118315   6.321   5.438   1.731
 6124TIP3    H218316   6.426   5.358   1.805
 6125TIP3   OH218317   7.308   4.271   2.666
 6125TIP3    H118318   7.301   4.176   2.653
 6125TIP3    H218319   7.260   4.309   2.592
 6126TIP3   OH218320   0.491   2.850   3.197
 6126TIP3    H118321   0.540   2.847   3.279
 6126TIP3    H218322   0.402   2.825   3.221
 6127TIP3   OH218323   5.616   6.210   2.955
 6127TIP3    H118324   5.655   6.192   2.869
 6127TIP3    H218325   5.634   6.131   3.006
 6128TIP3   OH218326   0.103   2.666   3.758
 6128TIP3    H118327   0.140   2.594   3.809
 6128TIP3    H218328   0.159   2.672   3.680
 6129TIP3   OH218329   5.112   7.778   3.745
 6129TIP3    H118330   5.191   7.799   3.696
 6129TIP3    H218331   5.138   7.709   3.805
 6130TIP3   OH218332   1.407   2.982   2.267
 6130TIP3    H118333   1.479   3.040   2.292
 6130TIP3    H218334   1.360   3.030   2.199
 6131TIP3   OH218335   5.921   1.180   4.995
 6131TIP3    H118336   6.009   1.213   4.977
 6131TIP3    H218337   5.921   1.164   5.090
 6132TIP3   OH218338   5.802   4.587   3.008
 6132TIP3    H118339   5.732   4.546   3.059
 6132TIP3    H218340   5.762   4.607   2.924
 6133TIP3   OH218341   6.217   4.791  -0.007
 6133TIP3    H118342   6.239   4.743  -0.087
 6133TIP3    H218343   6.255   4.739   0.064
 6134TIP3   OH218344   5.554   6.905   4.563
 6134TIP3    H118345   5.542   6.820   4.605
 6134TIP3    H218346   5.468   6.948   4.571
 6135TIP3   OH218347   0.963   5.778   2.129
 6135TIP3    H118348   0.992   5.785   2.220
 6135TIP3    H218349   0.966   5.868   2.096
 6136TIP3   OH218350   2.800   0.973   2.335
 6136TIP3    H118351   2.738   0.924   2.282
 6136TIP3    H218352   2.748   1.044   2.373
 6137TIP3   OH218353   4.346   3.012   3.988
 6137TIP3    H118354   4.441   3.004   3.979
 6137TIP3    H218355   4.328   2.982   4.077
 6138TIP3   OH218356   5.774   4.641   1.025
 6138TIP3    H118357   5.833   4.573   0.993
 6138TIP3    H218358   5.687   4.601   1.020
 6139TIP3   OH218359   5.836   5.624   6.453
 6139TIP3    H118360   5.799   5.653   6.370
 6139TIP3    H218361   5.766   5.575   6.495
 6140TIP3   OH218362   7.277   0.578   1.096
 6140TIP3    H118363   7.203   0.530   1.133
 6140TIP3    H218364   7.236   0.640   1.035
 6141TIP3   OH218365   4.633   0.663   5.483
 6141TIP3    H118366   4.706   0.636   5.538
 6141TIP3    H218367   4.587   0.728   5.535
 6142TIP3   OH218368   7.969   6.204   2.249
 6142TIP3    H118369   7.906   6.275   2.258
 6142TIP3    H218370   8.043   6.230   2.305
 6143TIP3   OH218371   8.135   7.764   3.957
 6143TIP3    H118372   8.201   7.736   4.020
 6143TIP3    H218373   8.075   7.690   3.951
 6144TIP3   OH218374   2.429   7.193   4.362
 6144TIP3    H118375   2.413   7.221   4.272
 6144TIP3    H218376   2.437   7.098   4.356
 6145TIP3   OH218377   7.467   7.168   5.908
 6145TIP3    H118378   7.462   7.259   5.879
 6145TIP3    H218379   7.424   7.118   5.839
 6146TIP3   OH218380   3.489   6.674   1.877
 6146TIP3    H118381   3.450   6.749   1.922
 6146TIP3    H218382   3.542   6.631   1.944
 6147TIP3   OH218383   5.639   7.028   5.182
 6147TIP3    H118384   5.659   7.039   5.275
 6147TIP3    H218385   5.722   7.047   5.138
 6148TIP3   OH218386   4.400   1.320   4.550
 6148TIP3    H118387   4.408   1.225   4.543
 6148TIP3    H218388   4.473   1.354   4.498
 6149TIP3   OH218389   3.676   6.773   1.690
 6149TIP3    H118390   3.583   6.765   1.710
 6149TIP3    H218391   3.712   6.686   1.708
 6150TIP3   OH218392   1.888   0.380   1.460
 6150TIP3    H118393   1.820   0.376   1.393
 6150TIP3    H218394   1.901   0.474   1.474
 6151TIP3   OH218395   1.121   6.450   2.709
 6151TIP3    H118396   1.204   6.441   2.662
 6151TIP3    H218397   1.145   6.498   2.789
 6152TIP3   OH218398   0.709   2.682   4.136
 6152TIP3    H118399   0.798   2.685   4.103
 6152TIP3    H218400   0.682   2.773   4.142
 6153TIP3   OH218401   3.306   4.435   0.456
 6153TIP3    H118402   3.230   4.382   0.480
 6153TIP3    H218403   3.278   4.525   0.474
 6154TIP3   OH218404   7.856   4.037   2.654
 6154TIP3    H118405   7.842   3.944   2.637
 6154TIP3    H218406   7.772   4.068   2.690
 6155TIP3   OH218407   5.208   4.822   4.130
 6155TIP3    H118408   5.233   4.752   4.190
 6155TIP3    H218409   5.268   4.815   4.057
 6156TIP3   OH218410   0.420   0.747   5.025
 6156TIP3    H118411   0.455   0.732   5.113
 6156TIP3    H218412   0.374   0.831   5.032
 6157TIP3   OH218413   0.163   6.655   5.989
 6157TIP3    H118414   0.129   6.741   5.964
 6157TIP3    H218415   0.258   6.667   5.992
 6158TIP3   OH218416   7.529   7.312   4.298
 6158TIP3    H118417   7.524   7.289   4.390
 6158TIP3    H218418   7.538   7.407   4.296
 6159TIP3   OH218419   5.801   0.480   4.754
 6159TIP3    H118420   5.733   0.504   4.817
 6159TIP3    H218421   5.805   0.385   4.759
 6160TIP3   OH218422   4.215   7.369   6.680
 6160TIP3    H118423   4.132   7.322   6.672
 6160TIP3    H218424   4.199   7.453   6.638
 6161TIP3   OH218425   0.257   7.059   3.156
 6161TIP3    H118426   0.231   6.972   3.189
 6161TIP3    H218427   0.303   7.041   3.074
 6162TIP3   OH218428   5.717   3.215   0.456
 6162TIP3    H118429   5.657   3.228   0.382
 6162TIP3    H218430   5.798   3.257   0.428
 6163TIP3   OH218431   3.775   7.448   0.432
 6163TIP3    H118432   3.801   7.497   0.354
 6163TIP3    H218433   3.847   7.388   0.448
 6164TIP3   OH218434   6.007   6.137   4.377
 6164TIP3    H118435   5.939   6.071   4.365
 6164TIP3    H218436   6.016   6.145   4.472
 6165TIP3   OH218437   2.541   0.944   3.669
 6165TIP3    H118438   2.579   0.859   3.691
 6165TIP3    H218439   2.599   0.981   3.603
 6166TIP3   OH218440   6.805   2.607   5.602
 6166TIP3    H118441   6.837   2.517   5.595
 6166TIP3    H218442   6.859   2.646   5.671
 6167TIP3   OH218443   1.913   3.923   2.791
 6167TIP3    H118444   1.834   3.896   2.837
 6167TIP3    H218445   1.926   4.014   2.818
 6168TIP3   OH218446   4.329   7.315   2.863
 6168TIP3    H118447   4.254   7.371   2.842
 6168TIP3    H218448   4.363   7.350   2.945
 6169TIP3   OH218449   8.211   0.223   2.770
 6169TIP3    H118450   8.289   0.256   2.814
 6169TIP3    H218451   8.138   0.249   2.827
 6170TIP3   OH218452   6.967   1.754   4.024
 6170TIP3    H118453   6.927   1.740   3.938
 6170TIP3    H218454   7.057   1.779   4.004
 6171TIP3   OH218455   7.716   2.514   5.532
 6171TIP3    H118456   7.628   2.528   5.569
 6171TIP3    H218457   7.701   2.459   5.455
 6172TIP3   OH218458   0.375   7.046   2.321
 6172TIP3    H118459   0.342   6.958   2.338
 6172TIP3    H218460   0.353   7.095   2.401
 6173TIP3   OH218461   2.844   6.899   5.682
 6173TIP3    H118462   2.926   6.935   5.716
 6173TIP3    H218463   2.869   6.814   5.645
 6174TIP3   OH218464   3.444   3.160   4.062
 6174TIP3    H118465   3.454   3.255   4.070
 6174TIP3    H218466   3.530   3.130   4.033
 6175TIP3   OH218467   3.410   1.403   3.571
 6175TIP3    H118468   3.480   1.391   3.634
 6175TIP3    H218469   3.332   1.423   3.623
 6176TIP3   OH218470   6.520   7.228   5.056
 6176TIP3    H118471   6.573   7.268   4.987
 6176TIP3    H218472   6.554   7.139   5.065
 6177TIP3   OH218473   5.792   3.396   4.734
 6177TIP3    H118474   5.771   3.359   4.648
 6177TIP3    H218475   5.757   3.332   4.796
 6178TIP3   OH218476   6.275   3.221   1.641
 6178TIP3    H118477   6.232   3.196   1.723
 6178TIP3    H218478   6.364   3.186   1.649
 6179TIP3   OH218479   4.098   6.293   5.319
 6179TIP3    H118480   4.134   6.284   5.407
 6179TIP3    H218481   4.013   6.336   5.332
 6180TIP3   OH218482   5.013   5.756   1.629
 6180TIP3    H118483   5.043   5.670   1.660
 6180TIP3    H218484   5.047   5.818   1.694
 6181TIP3   OH218485   1.246   5.652   0.526
 6181TIP3    H118486   1.165   5.641   0.576
 6181TIP3    H218487   1.298   5.713   0.579
 6182TIP3   OH218488   3.764   4.786   3.013
 6182TIP3    H118489   3.697   4.847   2.984
 6182TIP3    H218490   3.800   4.826   3.093
 6183TIP3   OH218491   7.807   0.218   0.397
 6183TIP3    H118492   7.839   0.188   0.312
 6183TIP3    H218493   7.864   0.291   0.420
 6184TIP3   OH218494   1.693   0.741   3.542
 6184TIP3    H118495   1.719   0.720   3.453
 6184TIP3    H218496   1.759   0.804   3.572
 6185TIP3   OH218497   0.913   1.474   0.327
 6185TIP3    H118498   0.998   1.429   0.326
 6185TIP3    H218499   0.858   1.419   0.384
 6186TIP3   OH218500   2.320   5.095   4.656
 6186TIP3    H118501   2.253   5.147   4.613
 6186TIP3    H218502   2.297   5.098   4.749
 6187TIP3   OH218503   4.045   4.874   1.974
 6187TIP3    H118504   4.107   4.945   1.956
 6187TIP3    H218505   4.002   4.858   1.890
 6188TIP3   OH218506   6.141   1.721   4.804
 6188TIP3    H118507   6.092   1.786   4.754
 6188TIP3    H218508   6.121   1.741   4.896
 6189TIP3   OH218509   2.260   6.549   3.546
 6189TIP3    H118510   2.288   6.631   3.587
 6189TIP3    H218511   2.276   6.562   3.452
 6190TIP3   OH218512   6.955   0.266   6.619
 6190TIP3    H118513   6.909   0.258   6.703
 6190TIP3    H218514   7.015   0.192   6.617
 6191TIP3   OH218515   5.316   1.672   1.821
 6191TIP3    H118516   5.311   1.579   1.843
 6191TIP3    H218517   5.225   1.697   1.805
 6192TIP3   OH218518   1.786   3.031   3.707
 6192TIP3    H118519   1.810   2.995   3.622
 6192TIP3    H218520   1.776   3.125   3.692
 6193TIP3   OH218521   0.183   2.843   2.278
 6193TIP3    H118522   0.181   2.933   2.310
 6193TIP3    H218523   0.221   2.849   2.190
 6194TIP3   OH218524   6.204   7.366   3.927
 6194TIP3    H118525   6.152   7.286   3.920
 6194TIP3    H218526   6.203   7.403   3.838
 6195TIP3   OH218527   7.763   1.912   1.867
 6195TIP3    H118528   7.737   1.933   1.778
 6195TIP3    H218529   7.699   1.848   1.897
 6196TIP3   OH218530   8.007   0.612   1.107
 6196TIP3    H118531   8.040   0.569   1.028
 6196TIP3    H218532   7.994   0.703   1.080
 6197TIP3   OH218533   4.821   0.192   1.314
 6197TIP3    H118534   4.726   0.197   1.329
 6197TIP3    H218535   4.845   0.280   1.288
 6198TIP3   OH218536   7.376   0.405   0.564
 6198TIP3    H118537   7.333   0.375   0.644
 6198TIP3    H218538   7.420   0.327   0.530
 6199TIP3   OH218539   3.077   2.088   6.767
 6199TIP3    H118540   3.106   2.155   6.829
 6199TIP3    H218541   3.154   2.032   6.756
 6200TIP3   OH218542   0.680   0.012   1.038
 6200TIP3    H118543   0.607  -0.049   1.037
 6200TIP3    H218544   0.670   0.063   0.957
 6201TIP3   OH218545   1.705   6.345   0.089
 6201TIP3    H118546   1.697   6.265   0.037
 6201TIP3    H218547   1.663   6.412   0.035
 6202TIP3   OH218548   2.444   3.225   0.110
 6202TIP3    H118549   2.406   3.215   0.197
 6202TIP3    H218550   2.458   3.319   0.100
 6203TIP3   OH218551   2.212   5.578   5.550
 6203TIP3    H118552   2.298   5.610   5.526
 6203TIP3    H218553   2.168   5.655   5.588
 6204TIP3   OH218554   6.482   3.251   5.359
 6204TIP3    H118555   6.519   3.292   5.280
 6204TIP3    H218556   6.418   3.189   5.325
 6205TIP3   OH218557   5.338   1.045   3.349
 6205TIP3    H118558   5.262   1.098   3.324
 6205TIP3    H218559   5.300   0.967   3.389
 6206TIP3   OH218560   6.025   1.967   1.674
 6206TIP3    H118561   6.105   1.943   1.720
 6206TIP3    H218562   6.049   2.041   1.618
 6207TIP3   OH218563   2.242   3.632   5.141
 6207TIP3    H118564   2.204   3.665   5.059
 6207TIP3    H218565   2.173   3.646   5.206
 6208TIP3   OH218566   7.189   4.519   3.807
 6208TIP3    H118567   7.129   4.593   3.816
 6208TIP3    H218568   7.147   4.448   3.856
 6209TIP3   OH218569   7.856   6.412   3.115
 6209TIP3    H118570   7.776   6.462   3.101
 6209TIP3    H218571   7.888   6.442   3.200
 6210TIP3   OH218572   1.711   1.030   6.440
 6210TIP3    H118573   1.747   0.985   6.363
 6210TIP3    H218574   1.624   0.991   6.450
 6211TIP3   OH218575   5.846   4.891   3.697
 6211TIP3    H118576   5.910   4.821   3.713
 6211TIP3    H218577   5.821   4.920   3.785
 6212TIP3   OH218578   0.260   5.462   4.031
 6212TIP3    H118579   0.275   5.398   3.961
 6212TIP3    H218580   0.251   5.409   4.110
 6213TIP3   OH218581   3.983   0.413   5.260
 6213TIP3    H118582   3.952   0.503   5.261
 6213TIP3    H218583   4.069   0.416   5.301
 6214TIP3   OH218584   4.156   6.903   3.597
 6214TIP3    H118585   4.127   6.982   3.643
 6214TIP3    H218586   4.089   6.838   3.616
 6215TIP3   OH218587   3.963   7.344   5.522
 6215TIP3    H118588   3.895   7.405   5.494
 6215TIP3    H218589   3.927   7.301   5.600
 6216TIP3   OH218590   8.205   7.064   0.052
 6216TIP3    H118591   8.202   6.969   0.063
 6216TIP3    H218592   8.190   7.098   0.140
 6217TIP3   OH218593   4.874   5.542   1.328
 6217TIP3    H118594   4.965   5.556   1.301
 6217TIP3    H218595   4.826   5.533   1.246
 6218TIP3   OH218596   6.220   3.773   3.507
 6218TIP3    H118597   6.246   3.703   3.566
 6218TIP3    H218598   6.151   3.820   3.554
 6219TIP3   OH218599   2.944   5.567   5.508
 6219TIP3    H118600   2.978   5.627   5.442
 6219TIP3    H218601   2.897   5.500   5.458
 6220TIP3   OH218602   3.839   5.002   5.623
 6220TIP3    H118603   3.823   4.959   5.539
 6220TIP3    H218604   3.926   5.040   5.614
 6221TIP3   OH218605   7.445   1.737   4.056
 6221TIP3    H118606   7.521   1.728   3.999
 6221TIP3    H218607   7.482   1.751   4.143
 6222TIP3   OH218608   6.422   2.816   2.710
 6222TIP3    H118609   6.492   2.803   2.647
 6222TIP3    H218610   6.344   2.782   2.667
 6223TIP3   OH218611   4.962   0.145   0.064
 6223TIP3    H118612   5.029   0.157   0.131
 6223TIP3    H218613   5.008   0.104  -0.010
 6224TIP3   OH218614   5.974   2.629   4.919
 6224TIP3    H118615   5.925   2.552   4.947
 6224TIP3    H218616   5.907   2.693   4.897
 6225TIP3   OH218617   8.168   2.120   0.595
 6225TIP3    H118618   8.170   2.025   0.603
 6225TIP3    H218619   8.260   2.146   0.595
 6226TIP3   OH218620   4.286   4.363   5.241
 6226TIP3    H118621   4.217   4.308   5.203
 6226TIP3    H218622   4.239   4.426   5.296
 6227TIP3   OH218623   8.025   1.311   0.836
 6227TIP3    H118624   8.007   1.382   0.775
 6227TIP3    H218625   8.062   1.241   0.783
 6228TIP3   OH218626   6.110   2.212   4.751
 6228TIP3    H118627   6.032   2.194   4.698
 6228TIP3    H218628   6.180   2.165   4.706
 6229TIP3   OH218629   3.300   1.217   6.021
 6229TIP3    H118630   3.240   1.165   5.967
 6229TIP3    H218631   3.329   1.288   5.964
 6230TIP3   OH218632   7.101   4.860   5.418
 6230TIP3    H118633   7.077   4.948   5.388
 6230TIP3    H218634   7.138   4.818   5.340
 6231TIP3   OH218635   5.545   7.590   3.714
 6231TIP3    H118636   5.601   7.531   3.664
 6231TIP3    H218637   5.606   7.650   3.757
 6232TIP3   OH218638   1.459   6.287   5.788
 6232TIP3    H118639   1.381   6.316   5.834
 6232TIP3    H218640   1.466   6.347   5.714
 6233TIP3   OH218641   4.948   5.756   2.208
 6233TIP3    H118642   4.913   5.776   2.121
 6233TIP3    H218643   4.910   5.824   2.264
 6234TIP3   OH218644   0.368   1.356   5.644
 6234TIP3    H118645   0.279   1.386   5.663
 6234TIP3    H218646   0.360   1.307   5.563
 6235TIP3   OH218647   8.046   6.085   3.005
 6235TIP3    H118648   8.087   6.167   3.031
 6235TIP3    H218649   8.033   6.093   2.911
 6236TIP3   OH218650   7.175   5.017   3.456
 6236TIP3    H118651   7.106   5.040   3.394
 6236TIP3    H218652   7.254   5.058   3.420
 6237TIP3   OH218653   0.663   6.854   5.855
 6237TIP3    H118654   0.593   6.789   5.864
 6237TIP3    H218655   0.714   6.822   5.780
 6238TIP3   OH218656   8.184   1.066   2.418
 6238TIP3    H118657   8.109   1.110   2.459
 6238TIP3    H218658   8.146   1.020   2.343
 6239TIP3   OH218659   1.024   5.534   5.066
 6239TIP3    H118660   1.046   5.451   5.024
 6239TIP3    H218661   0.945   5.516   5.116
 6240TIP3   OH218662   0.308   3.398   1.001
 6240TIP3    H118663   0.281   3.327   1.059
 6240TIP3    H218664   0.388   3.366   0.959
 6241TIP3   OH218665   6.110   2.767   1.510
 6241TIP3    H118666   6.198   2.800   1.489
 6241TIP3    H218667   6.118   2.672   1.507
 6242TIP3   OH218668   3.992   3.303   6.325
 6242TIP3    H118669   3.914   3.357   6.341
 6242TIP3    H218670   3.980   3.269   6.236
 6243TIP3   OH218671   2.215   5.779   6.166
 6243TIP3    H118672   2.283   5.727   6.122
 6243TIP3    H218673   2.148   5.792   6.099
 6244TIP3   OH218674   6.521   7.517   5.107
 6244TIP3    H118675   6.495   7.507   5.016
 6244TIP3    H218676   6.498   7.433   5.148
 6245TIP3   OH218677   1.972   6.525   0.771
 6245TIP3    H118678   1.988   6.508   0.678
 6245TIP3    H218679   1.880   6.549   0.776
 6246TIP3   OH218680   6.620   6.166   2.273
 6246TIP3    H118681   6.631   6.192   2.181
 6246TIP3    H218682   6.608   6.071   2.270
 6247TIP3   OH218683   2.906   7.577   5.199
 6247TIP3    H118684   2.974   7.511   5.214
 6247TIP3    H218685   2.921   7.642   5.267
 6248TIP3   OH218686   8.168   5.904   1.685
 6248TIP3    H118687   8.219   5.867   1.613
 6248TIP3    H218688   8.214   5.875   1.764
 6249TIP3   OH218689   2.149   0.275   3.589
 6249TIP3    H118690   2.106   0.275   3.675
 6249TIP3    H218691   2.204   0.197   3.590
 6250TIP3   OH218692   5.879   2.312   3.010
 6250TIP3    H118693   5.806   2.346   3.061
 6250TIP3    H218694   5.892   2.223   3.043
 6251TIP3   OH218695   1.187   6.629   4.953
 6251TIP3    H118696   1.244   6.689   5.001
 6251TIP3    H218697   1.152   6.681   4.881
 6252TIP3   OH218698   0.669   5.727   0.938
 6252TIP3    H118699   0.759   5.731   0.970
 6252TIP3    H218700   0.678   5.724   0.842
 6253TIP3   OH218701   6.246  -0.014   0.614
 6253TIP3    H118702   6.314  -0.075   0.585
 6253TIP3    H218703   6.284   0.028   0.692
 6254TIP3   OH218704   4.281   1.752   2.649
 6254TIP3    H118705   4.313   1.672   2.689
 6254TIP3    H218706   4.330   1.760   2.568
 6255TIP3   OH218707   0.423   4.936   4.411
 6255TIP3    H118708   0.393   4.891   4.490
 6255TIP3    H218709   0.473   5.011   4.443
 6256TIP3   OH218710   0.621   3.089   5.986
 6256TIP3    H118711   0.681   3.031   5.940
 6256TIP3    H218712   0.676   3.161   6.017
 6257TIP3   OH218713   8.170   6.370   6.363
 6257TIP3    H118714   8.243   6.414   6.405
 6257TIP3    H218715   8.105   6.361   6.432
 6258TIP3   OH218716   1.612   0.536   0.960
 6258TIP3    H118717   1.522   0.504   0.960
 6258TIP3    H218718   1.658   0.477   1.021
 6259TIP3   OH218719   6.309   7.430   3.416
 6259TIP3    H118720   6.380   7.388   3.465
 6259TIP3    H218721   6.338   7.520   3.403
 6260TIP3   OH218722   5.082   4.834   0.501
 6260TIP3    H118723   5.144   4.788   0.557
 6260TIP3    H218724   5.078   4.783   0.421
 6261TIP3   OH218725   1.331   2.852   1.220
 6261TIP3    H118726   1.331   2.838   1.314
 6261TIP3    H218727   1.307   2.943   1.209
 6262TIP3   OH218728   1.692   1.410   0.076
 6262TIP3    H118729   1.663   1.470   0.007
 6262TIP3    H218730   1.615   1.399   0.131
 6263TIP3   OH218731   1.784   0.401   1.950
 6263TIP3    H118732   1.805   0.400   2.043
 6263TIP3    H218733   1.816   0.317   1.917
 6264TIP3   OH218734   4.604   2.172   0.284
 6264TIP3    H118735   4.552   2.202   0.358
 6264TIP3    H218736   4.680   2.231   0.284
 6265TIP3   OH218737   5.283   4.808   1.501
 6265TIP3    H118738   5.288   4.739   1.567
 6265TIP3    H218739   5.281   4.889   1.552
 6266TIP3   OH218740   4.941   6.561   0.215
 6266TIP3    H118741   4.918   6.651   0.190
 6266TIP3    H218742   4.884   6.506   0.161
 6267TIP3   OH218743   1.910   4.339   2.064
 6267TIP3    H118744   1.921   4.359   2.157
 6267TIP3    H218745   1.961   4.406   2.019
 6268TIP3   OH218746   6.588   2.279   2.460
 6268TIP3    H118747   6.624   2.338   2.394
 6268TIP3    H218748   6.498   2.264   2.432
 6269TIP3   OH218749   3.481   3.159   0.406
 6269TIP3    H118750   3.560   3.184   0.454
 6269TIP3    H218751   3.473   3.225   0.338
 6270TIP3   OH218752   0.412   2.247   3.776
 6270TIP3    H118753   0.322   2.215   3.789
 6270TIP3    H218754   0.468   2.174   3.800
 6271TIP3   OH218755   5.269   0.692   0.824
 6271TIP3    H118756   5.251   0.602   0.800
 6271TIP3    H218757   5.208   0.744   0.771
 6272TIP3   OH218758   8.065   4.538   5.833
 6272TIP3    H118759   8.039   4.584   5.913
 6272TIP3    H218760   8.042   4.598   5.763
 6273TIP3   OH218761   7.555   3.339   4.789
 6273TIP3    H118762   7.572   3.392   4.711
 6273TIP3    H218763   7.613   3.263   4.779
 6274TIP3   OH218764   7.218   6.373   1.634
 6274TIP3    H118765   7.276   6.399   1.563
 6274TIP3    H218766   7.165   6.452   1.652
 6275TIP3   OH218767   0.991   3.178   5.710
 6275TIP3    H118768   1.009   3.164   5.617
 6275TIP3    H218769   1.024   3.100   5.753
 6276TIP3   OH218770   6.849   2.568   3.054
 6276TIP3    H118771   6.813   2.648   3.093
 6276TIP3    H218772   6.815   2.568   2.964
 6277TIP3   OH218773   5.281   6.409   5.682
 6277TIP3    H118774   5.241   6.322   5.690
 6277TIP3    H218775   5.375   6.392   5.676
 6278TIP3   OH218776   6.134   1.310   6.456
 6278TIP3    H118777   6.199   1.340   6.392
 6278TIP3    H218778   6.068   1.379   6.458
 6279TIP3   OH218779   2.297   4.700   1.276
 6279TIP3    H118780   2.276   4.629   1.216
 6279TIP3    H218781   2.377   4.671   1.321
 6280TIP3   OH218782   3.024   5.287   4.203
 6280TIP3    H118783   2.929   5.291   4.215
 6280TIP3    H218784   3.060   5.338   4.276
 6281TIP3   OH218785   6.152   5.477   0.821
 6281TIP3    H118786   6.170   5.464   0.914
 6281TIP3    H218787   6.237   5.466   0.778
 6282TIP3   OH218788   4.990   4.634   0.797
 6282TIP3    H118789   4.937   4.584   0.859
 6282TIP3    H218790   5.032   4.568   0.742
 6283TIP3   OH218791   2.896   1.466   1.503
 6283TIP3    H118792   2.933   1.408   1.437
 6283TIP3    H218793   2.901   1.554   1.464
 6284TIP3   OH218794   4.384   5.529   1.351
 6284TIP3    H118795   4.343   5.454   1.394
 6284TIP3    H218796   4.381   5.507   1.257
 6285TIP3   OH218797   3.359   0.555   3.415
 6285TIP3    H118798   3.324   0.505   3.342
 6285TIP3    H218799   3.336   0.504   3.493
 6286TIP3   OH218800   2.101   2.650   6.290
 6286TIP3    H118801   2.183   2.668   6.335
 6286TIP3    H218802   2.034   2.690   6.346
 6287TIP3   OH218803   0.489   6.908   0.638
 6287TIP3    H118804   0.465   6.853   0.712
 6287TIP3    H218805   0.409   6.914   0.586
 6288TIP3   OH218806   2.189   3.183   5.200
 6288TIP3    H118807   2.247   3.150   5.269
 6288TIP3    H218808   2.113   3.125   5.203
 6289TIP3   OH218809   5.599   1.425   3.363
 6289TIP3    H118810   5.654   1.366   3.414
 6289TIP3    H218811   5.510   1.394   3.377
 6290TIP3   OH218812   1.177   1.699   2.501
 6290TIP3    H118813   1.251   1.758   2.517
 6290TIP3    H218814   1.107   1.731   2.558
 6291TIP3   OH218815   6.241   3.110   4.510
 6291TIP3    H118816   6.215   3.027   4.469
 6291TIP3    H218817   6.332   3.096   4.537
 6292TIP3   OH218818   7.658   4.745   1.722
 6292TIP3    H118819   7.672   4.665   1.773
 6292TIP3    H218820   7.745   4.781   1.709
 6293TIP3   OH218821   1.326   1.841   6.757
 6293TIP3    H118822   1.284   1.769   6.804
 6293TIP3    H218823   1.281   1.844   6.673
 6294TIP3   OH218824   4.657   3.301   5.149
 6294TIP3    H118825   4.657   3.315   5.244
 6294TIP3    H218826   4.679   3.208   5.139
 6295TIP3   OH218827   5.751  -0.066   5.438
 6295TIP3    H118828   5.709  -0.003   5.497
 6295TIP3    H218829   5.832  -0.090   5.483
 6296TIP3   OH218830   5.926   0.782   5.896
 6296TIP3    H118831   6.021   0.791   5.906
 6296TIP3    H218832   5.892   0.871   5.909
 6297TIP3   OH218833   2.606   0.185   2.871
 6297TIP3    H118834   2.675   0.170   2.806
 6297TIP3    H218835   2.653   0.220   2.947
 6298TIP3   OH218836   6.084   2.121   3.402
 6298TIP3    H118837   6.166   2.123   3.353
 6298TIP3    H218838   6.018   2.096   3.338
 6299TIP3   OH218839   4.801   6.613   6.284
 6299TIP3    H118840   4.808   6.539   6.343
 6299TIP3    H218841   4.890   6.624   6.249
 6300TIP3   OH218842   5.849   2.363   0.868
 6300TIP3    H118843   5.866   2.456   0.886
 6300TIP3    H218844   5.756   2.360   0.845
 6301TIP3   OH218845   8.144   3.329   6.613
 6301TIP3    H118846   8.229   3.372   6.629
 6301TIP3    H218847   8.166   3.252   6.560
 6302TIP3   OH218848   6.732   2.800   2.490
 6302TIP3    H118849   6.671   2.728   2.506
 6302TIP3    H218850   6.818   2.758   2.488
 6303TIP3   OH218851   7.379   6.494   5.021
 6303TIP3    H118852   7.391   6.409   4.978
 6303TIP3    H218853   7.348   6.552   4.951
 6304TIP3   OH218854   6.877   2.282   5.695
 6304TIP3    H118855   6.818   2.210   5.715
 6304TIP3    H218856   6.915   2.260   5.610
 6305TIP3   OH218857   0.675   6.676   1.010
 6305TIP3    H118858   0.687   6.623   1.089
 6305TIP3    H218859   0.632   6.756   1.042
 6306TIP3   OH218860   1.988   6.184  -0.005
 6306TIP3    H118861   2.002   6.097  -0.043
 6306TIP3    H218862   1.913   6.174   0.053
 6307TIP3   OH218863   1.179   7.128   5.468
 6307TIP3    H118864   1.253   7.174   5.508
 6307TIP3    H218865   1.106   7.142   5.529
 6308TIP3   OH218866   5.837   1.875   4.985
 6308TIP3    H118867   5.860   1.968   4.992
 6308TIP3    H218868   5.912   1.829   5.022
 6309TIP3   OH218869   0.083   7.294   5.342
 6309TIP3    H118870   0.175   7.270   5.333
 6309TIP3    H218871   0.049   7.237   5.411
 6310TIP3   OH218872   6.881   5.005   0.104
 6310TIP3    H118873   6.906   4.941   0.037
 6310TIP3    H218874   6.890   5.089   0.060
 6311TIP3   OH218875   1.249   3.216   0.439
 6311TIP3    H118876   1.228   3.144   0.380
 6311TIP3    H218877   1.165   3.240   0.478
 6312TIP3   OH218878   0.643   2.081   4.556
 6312TIP3    H118879   0.605   2.075   4.644
 6312TIP3    H218880   0.675   1.993   4.538
 6313TIP3   OH218881   2.262   7.548   4.344
 6313TIP3    H118882   2.320   7.607   4.296
 6313TIP3    H218883   2.240   7.596   4.424
 6314TIP3   OH218884   0.240   6.344   3.412
 6314TIP3    H118885   0.311   6.402   3.439
 6314TIP3    H218886   0.206   6.307   3.494
 6315TIP3   OH218887   4.083   4.358   2.017
 6315TIP3    H118888   4.056   4.437   1.970
 6315TIP3    H218889   4.002   4.322   2.052
 6316TIP3   OH218890   3.322   6.634   4.146
 6316TIP3    H118891   3.245   6.691   4.140
 6316TIP3    H218892   3.392   6.684   4.104
 6317TIP3   OH218893   3.672   1.097   0.619
 6317TIP3    H118894   3.721   1.032   0.670
 6317TIP3    H218895   3.688   1.180   0.664
 6318TIP3   OH218896   7.139   4.605   3.277
 6318TIP3    H118897   7.187   4.559   3.346
 6318TIP3    H218898   7.184   4.689   3.268
 6319TIP3   OH218899   2.201   4.943   4.274
 6319TIP3    H118900   2.153   4.868   4.238
 6319TIP3    H218901   2.139   5.016   4.268
 6320TIP3   OH218902   6.625   4.586   5.620
 6320TIP3    H118903   6.680   4.547   5.553
 6320TIP3    H218904   6.537   4.551   5.602
 6321TIP3   OH218905   6.416   3.053   6.365
 6321TIP3    H118906   6.423   2.973   6.312
 6321TIP3    H218907   6.435   3.124   6.304
 6322TIP3   OH218908   0.123   6.738   5.610
 6322TIP3    H118909   0.061   6.802   5.643
 6322TIP3    H218910   0.069   6.674   5.563
 6323TIP3   OH218911   4.011   1.685   6.826
 6323TIP3    H118912   3.992   1.774   6.858
 6323TIP3    H218913   4.026   1.696   6.732
 6324TIP3   OH218914   3.201   5.604   3.777
 6324TIP3    H118915   3.116   5.640   3.804
 6324TIP3    H218916   3.209   5.629   3.685
 6325TIP3   OH218917   4.045   5.315   1.085
 6325TIP3    H118918   3.995   5.396   1.099
 6325TIP3    H218919   3.994   5.267   1.020
 6326TIP3   OH218920   1.354   5.096   6.724
 6326TIP3    H118921   1.313   5.012   6.706
 6326TIP3    H218922   1.431   5.098   6.667
 6327TIP3   OH218923   7.865   0.772   3.344
 6327TIP3    H118924   7.790   0.777   3.403
 6327TIP3    H218925   7.938   0.809   3.393
 6328TIP3   OH218926   1.827   2.653   1.401
 6328TIP3    H118927   1.745   2.688   1.367
 6328TIP3    H218928   1.875   2.623   1.323
 6329TIP3   OH218929   0.795   6.759   5.618
 6329TIP3    H118930   0.799   6.674   5.575
 6329TIP3    H218931   0.886   6.789   5.620
 6330TIP3   OH218932   3.499   1.009   3.416
 6330TIP3    H118933   3.522   1.007   3.509
 6330TIP3    H218934   3.416   0.961   3.411
 6331TIP3   OH218935   7.213   1.022   3.057
 6331TIP3    H118936   7.175   0.934   3.054
 6331TIP3    H218937   7.238   1.035   3.148
 6332TIP3   OH218938   3.492   7.493   0.387
 6332TIP3    H118939   3.492   7.549   0.309
 6332TIP3    H218940   3.585   7.477   0.405
 6333TIP3   OH218941   5.164   0.246   0.516
 6333TIP3    H118942   5.158   0.264   0.422
 6333TIP3    H218943   5.248   0.202   0.527
 6334TIP3   OH218944   0.422   0.170   1.733
 6334TIP3    H118945   0.453   0.097   1.679
 6334TIP3    H218946   0.433   0.139   1.823
 6335TIP3   OH218947   7.894   7.538   4.723
 6335TIP3    H118948   7.921   7.551   4.814
 6335TIP3    H218949   7.907   7.623   4.682
 6336TIP3   OH218950   0.689   3.365   6.047
 6336TIP3    H118951   0.680   3.352   6.141
 6336TIP3    H218952   0.654   3.453   6.031
 6337TIP3   OH218953   1.561   2.507   2.534
 6337TIP3    H118954   1.510   2.445   2.483
 6337TIP3    H218955   1.650   2.499   2.500
 6338TIP3   OH218956   2.578   7.444   4.289
 6338TIP3    H118957   2.626   7.508   4.341
 6338TIP3    H218958   2.498   7.428   4.338
 6339TIP3   OH218959   0.515   5.117   5.294
 6339TIP3    H118960   0.493   5.203   5.329
 6339TIP3    H218961   0.555   5.136   5.209
 6340TIP3   OH218962   6.145   2.418   3.878
 6340TIP3    H118963   6.076   2.482   3.862
 6340TIP3    H218964   6.226   2.461   3.852
 6341TIP3   OH218965   2.981   5.083   0.378
 6341TIP3    H118966   3.006   4.995   0.409
 6341TIP3    H218967   2.991   5.078   0.283
 6342TIP3   OH218968   7.987   7.587   4.966
 6342TIP3    H118969   7.910   7.640   4.986
 6342TIP3    H218970   8.049   7.609   5.035
 6343TIP3   OH218971   5.792   5.852   0.608
 6343TIP3    H118972   5.718   5.875   0.664
 6343TIP3    H218973   5.869   5.867   0.662
 6344TIP3   OH218974   0.096   4.252   0.604
 6344TIP3    H118975   0.183   4.273   0.570
 6344TIP3    H218976   0.073   4.170   0.561
 6345TIP3   OH218977   7.737   0.844   4.235
 6345TIP3    H118978   7.698   0.861   4.321
 6345TIP3    H218979   7.778   0.758   4.243
 6346TIP3   OH218980   3.496   3.530   1.909
 6346TIP3    H118981   3.444   3.475   1.967
 6346TIP3    H218982   3.432   3.579   1.857
 6347TIP3   OH218983   7.836   5.316   3.784
 6347TIP3    H118984   7.914   5.358   3.821
 6347TIP3    H218985   7.821   5.240   3.840
 6348TIP3   OH218986   2.299   0.311   3.261
 6348TIP3    H118987   2.363   0.302   3.332
 6348TIP3    H218988   2.352   0.316   3.182
 6349TIP3   OH218989   0.197   1.854   4.499
 6349TIP3    H118990   0.147   1.890   4.427
 6349TIP3    H218991   0.275   1.909   4.505
 6350TIP3   OH218992   0.324   4.222   0.436
 6350TIP3    H118993   0.291   4.216   0.347
 6350TIP3    H218994   0.338   4.131   0.463
 6351TIP3   OH218995   4.643   1.000   1.689
 6351TIP3    H118996   4.634   0.907   1.707
 6351TIP3    H218997   4.581   1.042   1.748
 6352TIP3   OH218998   2.108   0.338   4.613
 6352TIP3    H118999   2.073   0.412   4.664
 6352TIP3    H219000   2.097   0.365   4.522
 6353TIP3   OH219001   3.555   6.928   6.012
 6353TIP3    H119002   3.567   6.874   6.090
 6353TIP3    H219003   3.482   6.985   6.033
 6354TIP3   OH219004   4.606   5.460   0.292
 6354TIP3    H119005   4.640   5.546   0.266
 6354TIP3    H219006   4.538   5.442   0.227
 6355TIP3   OH219007   1.560   6.479   3.582
 6355TIP3    H119008   1.626   6.413   3.560
 6355TIP3    H219009   1.505   6.436   3.648
 6356TIP3   OH219010   5.656   0.869   3.404
 6356TIP3    H119011   5.574   0.878   3.452
 6356TIP3    H219012   5.631   0.826   3.322
 6357TIP3   OH219013   5.286   6.970   3.456
 6357TIP3    H119014   5.336   7.031   3.510
 6357TIP3    H219015   5.311   6.992   3.366
 6358TIP3   OH219016   3.121   6.816   1.114
 6358TIP3    H119017   3.166   6.871   1.178
 6358TIP3    H219018   3.164   6.837   1.031
 6359TIP3   OH219019   2.961   1.681   2.820
 6359TIP3    H119020   3.018   1.609   2.847
 6359TIP3    H219021   2.982   1.693   2.727
 6360TIP3   OH219022   3.323   5.523   0.183
 6360TIP3    H119023   3.415   5.520   0.211
 6360TIP3    H219024   3.325   5.563   0.096
 6361TIP3   OH219025   5.331   2.159   6.599
 6361TIP3    H119026   5.389   2.227   6.634
 6361TIP3    H219027   5.243   2.189   6.622
 6362TIP3   OH219028   5.050   1.326   5.212
 6362TIP3    H119029   5.009   1.261   5.155
 6362TIP3    H219030   5.049   1.286   5.299
 6363TIP3   OH219031   1.735   6.010   3.479
 6363TIP3    H119032   1.697   6.032   3.394
 6363TIP3    H219033   1.717   6.086   3.534
 6364TIP3   OH219034   4.322   7.536   5.104
 6364TIP3    H119035   4.248   7.584   5.141
 6364TIP3    H219036   4.363   7.597   5.043
 6365TIP3   OH219037   3.592   2.838   4.731
 6365TIP3    H119038   3.525   2.898   4.764
 6365TIP3    H219039   3.542   2.771   4.684
 6366TIP3   OH219040   3.165   2.493   3.701
 6366TIP3    H119041   3.219   2.537   3.635
 6366TIP3    H219042   3.142   2.562   3.763
 6367TIP3   OH219043   2.083   6.618   2.038
 6367TIP3    H119044   2.070   6.561   2.114
 6367TIP3    H219045   2.080   6.558   1.963
 6368TIP3   OH219046   8.158   1.679   2.368
 6368TIP3    H119047   8.136   1.662   2.277
 6368TIP3    H219048   8.243   1.639   2.381
 6369TIP3   OH219049   1.853   7.855   3.970
 6369TIP3    H119050   1.875   7.775   4.018
 6369TIP3    H219051   1.917   7.919   4.001
 6370TIP3   OH219052   5.800   0.216   4.755
 6370TIP3    H119053   5.869   0.165   4.713
 6370TIP3    H219054   5.752   0.153   4.809
 6371TIP3   OH219055   8.141   2.794   1.759
 6371TIP3    H119056   8.071   2.763   1.817
 6371TIP3    H219057   8.113   2.768   1.672
 6372TIP3   OH219058   3.080   2.012   5.149
 6372TIP3    H119059   3.114   1.923   5.162
 6372TIP3    H219060   3.009   2.020   5.213
 6373TIP3   OH219061   7.603   4.958   6.018
 6373TIP3    H119062   7.573   5.025   5.957
 6373TIP3    H219063   7.574   4.875   5.980
 6374TIP3   OH219064   7.390   0.197   5.679
 6374TIP3    H119065   7.428   0.159   5.600
 6374TIP3    H219066   7.452   0.176   5.748
 6375TIP3   OH219067   6.428   4.941   5.088
 6375TIP3    H119068   6.408   4.856   5.128
 6375TIP3    H219069   6.369   5.002   5.133
 6376TIP3   OH219070   8.178   7.464   2.131
 6376TIP3    H119071   8.247   7.447   2.195
 6376TIP3    H219072   8.119   7.524   2.176
 6377TIP3   OH219073   4.377   6.958   4.917
 6377TIP3    H119074   4.309   7.024   4.934
 6377TIP3    H219075   4.444   6.975   4.982
 6378TIP3   OH219076   3.787   0.079   2.398
 6378TIP3    H119077   3.765  -0.003   2.354
 6378TIP3    H219078   3.816   0.053   2.486
 6379TIP3   OH219079   5.130   2.896   4.741
 6379TIP3    H119080   5.054   2.946   4.770
 6379TIP3    H219081   5.129   2.817   4.796
 6380TIP3   OH219082   5.045   3.061   4.177
 6380TIP3    H119083   4.975   3.046   4.113
 6380TIP3    H219084   5.123   3.024   4.136
 6381TIP3   OH219085   3.520   2.824   2.927
 6381TIP3    H119086   3.534   2.762   2.855
 6381TIP3    H219087   3.430   2.855   2.914
 6382TIP3   OH219088   3.288   2.571   1.251
 6382TIP3    H119089   3.238   2.639   1.296
 6382TIP3    H219090   3.246   2.562   1.166
 6383TIP3   OH219091   7.292   0.032   1.194
 6383TIP3    H119092   7.319   0.047   1.285
 6383TIP3    H219093   7.361  -0.023   1.157
 6384TIP3   OH219094   8.268   1.351   0.346
 6384TIP3    H119095   8.257   1.310   0.432
 6384TIP3    H219096   8.284   1.278   0.286
 6385TIP3   OH219097   2.205   4.504   1.107
 6385TIP3    H119098   2.145   4.467   1.171
 6385TIP3    H219099   2.205   4.440   1.035
 6386TIP3   OH219100   7.852   2.786   2.618
 6386TIP3    H119101   7.936   2.827   2.598
 6386TIP3    H219102   7.875   2.708   2.668
 6387TIP3   OH219103   3.298   0.345   0.639
 6387TIP3    H119104   3.348   0.403   0.696
 6387TIP3    H219105   3.328   0.257   0.661
 6388TIP3   OH219106   7.927   0.972   3.839
 6388TIP3    H119107   7.955   0.886   3.807
 6388TIP3    H219108   7.958   1.034   3.773
 6389TIP3   OH219109   4.617   0.244   0.983
 6389TIP3    H119110   4.703   0.240   0.942
 6389TIP3    H219111   4.556   0.221   0.913
 6390TIP3   OH219112   0.880   2.949   3.397
 6390TIP3    H119113   0.969   2.921   3.380
 6390TIP3    H219114   0.888   3.012   3.469
 6391TIP3   OH219115   4.188   5.847   5.614
 6391TIP3    H119116   4.253   5.811   5.674
 6391TIP3    H219117   4.213   5.813   5.528
 6392TIP3   OH219118   1.349   6.844   3.590
 6392TIP3    H119119   1.369   6.810   3.678
 6392TIP3    H219120   1.434   6.870   3.555
 6393TIP3   OH219121   3.906   3.694   1.365
 6393TIP3    H119122   3.867   3.748   1.297
 6393TIP3    H219123   3.847   3.704   1.440
 6394TIP3   OH219124   1.177   0.226   0.146
 6394TIP3    H119125   1.104   0.260   0.196
 6394TIP3    H219126   1.204   0.299   0.090
 6395TIP3   OH219127   7.558   5.544   2.433
 6395TIP3    H119128   7.494   5.599   2.388
 6395TIP3    H219129   7.632   5.537   2.373
 6396TIP3   OH219130   5.280   4.341   5.887
 6396TIP3    H119131   5.340   4.367   5.817
 6396TIP3    H219132   5.297   4.403   5.958
 6397TIP3   OH219133   1.849   6.227   4.843
 6397TIP3    H119134   1.879   6.258   4.929
 6397TIP3    H219135   1.840   6.133   4.854
 6398TIP3   OH219136   4.868   2.276   6.201
 6398TIP3    H119137   4.887   2.284   6.294
 6398TIP3    H219138   4.878   2.366   6.167
 6399TIP3   OH219139   1.662   2.787   0.737
 6399TIP3    H119140   1.709   2.858   0.781
 6399TIP3    H219141   1.680   2.801   0.644
 6400TIP3   OH219142   0.697   4.355   0.256
 6400TIP3    H119143   0.694   4.423   0.323
 6400TIP3    H219144   0.684   4.402   0.173
 6401TIP3   OH219145   6.758   3.228   3.861
 6401TIP3    H119146   6.827   3.188   3.809
 6401TIP3    H219147   6.786   3.214   3.952
 6402TIP3   OH219148   2.675   3.934   0.290
 6402TIP3    H119149   2.721   4.015   0.266
 6402TIP3    H219150   2.690   3.875   0.217
 6403TIP3   OH219151   7.190   1.832   0.403
 6403TIP3    H119152   7.227   1.784   0.329
 6403TIP3    H219153   7.209   1.778   0.480
 6404TIP3   OH219154   3.573   3.078   1.769
 6404TIP3    H119155   3.603   3.159   1.810
 6404TIP3    H219156   3.649   3.020   1.770
 6405TIP3   OH219157   1.418   4.098   2.524
 6405TIP3    H119158   1.390   4.134   2.608
 6405TIP3    H219159   1.499   4.051   2.544
 6406TIP3   OH219160   3.751   1.156   1.191
 6406TIP3    H119161   3.669   1.144   1.144
 6406TIP3    H219162   3.726   1.153   1.284
 6407TIP3   OH219163   0.408   1.158   4.127
 6407TIP3    H119164   0.364   1.219   4.186
 6407TIP3    H219165   0.365   1.074   4.141
 6408TIP3   OH219166   7.763   0.945   6.540
 6408TIP3    H119167   7.796   0.888   6.609
 6408TIP3    H219168   7.684   0.984   6.577
 6409TIP3   OH219169   2.600   4.827   0.172
 6409TIP3    H119170   2.607   4.790   0.261
 6409TIP3    H219171   2.509   4.809   0.147
 6410TIP3   OH219172   1.698   0.378   6.038
 6410TIP3    H119173   1.647   0.406   6.114
 6410TIP3    H219174   1.632   0.343   5.977
 6411TIP3   OH219175   4.453   0.699   0.958
 6411TIP3    H119176   4.476   0.776   1.011
 6411TIP3    H219177   4.493   0.625   1.004
 6412TIP3   OH219178   7.562   2.245   2.771
 6412TIP3    H119179   7.480   2.216   2.732
 6412TIP3    H219180   7.545   2.244   2.866
 6413TIP3   OH219181   0.434   3.141   6.379
 6413TIP3    H119182   0.510   3.183   6.420
 6413TIP3    H219183   0.386   3.102   6.452
 6414TIP3   OH219184   1.489   6.780   5.782
 6414TIP3    H119185   1.503   6.874   5.784
 6414TIP3    H219186   1.491   6.757   5.689
 6415TIP3   OH219187   2.321   1.430   1.280
 6415TIP3    H119188   2.371   1.409   1.359
 6415TIP3    H219189   2.313   1.525   1.281
 6416TIP3   OH219190   0.397   4.276   1.532
 6416TIP3    H119191   0.488   4.275   1.501
 6416TIP3    H219192   0.401   4.235   1.618
 6417TIP3   OH219193   4.066   3.796   2.112
 6417TIP3    H119194   4.010   3.834   2.180
 6417TIP3    H219195   4.041   3.704   2.108
 6418TIP3   OH219196   6.503   6.288   0.359
 6418TIP3    H119197   6.430   6.281   0.420
 6418TIP3    H219198   6.462   6.300   0.273
 6419TIP3   OH219199   1.681   5.835   6.627
 6419TIP3    H119200   1.764   5.808   6.589
 6419TIP3    H219201   1.697   5.924   6.659
 6420TIP3   OH219202   0.933   5.778   3.315
 6420TIP3    H119203   0.839   5.782   3.300
 6420TIP3    H219204   0.948   5.830   3.393
 6421TIP3   OH219205   2.163   4.897   2.067
 6421TIP3    H119206   2.163   4.801   2.074
 6421TIP3    H219207   2.247   4.918   2.027
 6422TIP3   OH219208   3.526   5.971   3.938
 6422TIP3    H119209   3.513   6.010   4.024
 6422TIP3    H219210   3.593   5.903   3.952
 6423TIP3   OH219211   6.624   5.294   0.522
 6423TIP3    H119212   6.556   5.321   0.460
 6423TIP3    H219213   6.607   5.201   0.538
 6424TIP3   OH219214   4.414   3.482   5.611
 6424TIP3    H119215   4.473   3.442   5.547
 6424TIP3    H219216   4.343   3.419   5.620
 6425TIP3   OH219217   8.040   0.161   6.200
 6425TIP3    H119218   8.069   0.219   6.271
 6425TIP3    H219219   7.986   0.095   6.245
 6426TIP3   OH219220   6.021   4.115   3.318
 6426TIP3    H119221   6.115   4.122   3.333
 6426TIP3    H219222   6.013   4.097   3.224
 6427TIP3   OH219223   8.127   5.214   6.481
 6427TIP3    H119224   8.055   5.274   6.495
 6427TIP3    H219225   8.176   5.216   6.563
 6428TIP3   OH219226   3.840   6.521   0.838
 6428TIP3    H119227   3.760   6.545   0.790
 6428TIP3    H219228   3.831   6.564   0.923
 6429TIP3   OH219229  -0.003   3.591   0.627
 6429TIP3    H119230   0.042   3.592   0.711
 6429TIP3    H219231   0.024   3.509   0.586
 6430TIP3   OH219232   0.487   3.600   5.251
 6430TIP3    H119233   0.535   3.629   5.173
 6430TIP3    H219234   0.403   3.645   5.245
 6431TIP3   OH219235   5.174   0.632   4.217
 6431TIP3    H119236   5.218   0.630   4.302
 6431TIP3    H219237   5.114   0.707   4.223
 6432TIP3   OH219238   3.974   2.472   4.923
 6432TIP3    H119239   3.944   2.534   4.857
 6432TIP3    H219240   4.068   2.490   4.932
 6433TIP3   OH219241   5.877   2.363   5.573
 6433TIP3    H119242   5.784   2.382   5.563
 6433TIP3    H219243   5.899   2.307   5.499
 6434TIP3   OH219244   6.305   4.885   6.539
 6434TIP3    H119245   6.264   4.971   6.545
 6434TIP3    H219246   6.234   4.823   6.558
 6435TIP3   OH219247   7.252   4.705   2.251
 6435TIP3    H119248   7.215   4.758   2.321
 6435TIP3    H219249   7.196   4.722   2.175
 6436TIP3   OH219250   2.671   0.310   3.121
 6436TIP3    H119251   2.756   0.352   3.127
 6436TIP3    H219252   2.608   0.376   3.151
 6437TIP3   OH219253   2.397   4.698   6.561
 6437TIP3    H119254   2.343   4.619   6.552
 6437TIP3    H219255   2.478   4.667   6.603
 6438TIP3   OH219256   2.505   0.390   5.353
 6438TIP3    H119257   2.461   0.391   5.268
 6438TIP3    H219258   2.581   0.334   5.340
 6439TIP3   OH219259   7.601   6.840   5.789
 6439TIP3    H119260   7.542   6.869   5.858
 6439TIP3    H219261   7.633   6.754   5.818
 6440TIP3   OH219262   6.385   6.560   1.794
 6440TIP3    H119263   6.348   6.648   1.795
 6440TIP3    H219264   6.479   6.573   1.810
 6441TIP3   OH219265   2.624   1.165   2.439
 6441TIP3    H119266   2.562   1.192   2.371
 6441TIP3    H219267   2.636   1.243   2.493
 6442TIP3   OH219268   6.208   6.398   1.973
 6442TIP3    H119269   6.162   6.331   1.923
 6442TIP3    H219270   6.261   6.444   1.907
 6443TIP3   OH219271   3.685   2.071   4.446
 6443TIP3    H119272   3.721   2.063   4.534
 6443TIP3    H219273   3.592   2.092   4.460
 6444TIP3   OH219274   7.822   2.280   2.983
 6444TIP3    H119275   7.836   2.192   2.947
 6444TIP3    H219276   7.732   2.277   3.017
 6445TIP3   OH219277   0.885   5.423   1.889
 6445TIP3    H119278   0.815   5.393   1.946
 6445TIP3    H219279   0.962   5.372   1.917
 6446TIP3   OH219280   4.917   1.332   3.412
 6446TIP3    H119281   4.851   1.263   3.420
 6446TIP3    H219282   4.881   1.392   3.347
 6447TIP3   OH219283   1.769   5.184   5.560
 6447TIP3    H119284   1.786   5.278   5.568
 6447TIP3    H219285   1.824   5.145   5.628
 6448TIP3   OH219286   2.736   3.834   0.962
 6448TIP3    H119287   2.828   3.823   0.987
 6448TIP3    H219288   2.719   3.760   0.903
 6449TIP3   OH219289   2.683   0.379   2.536
 6449TIP3    H119290   2.711   0.411   2.622
 6449TIP3    H219291   2.750   0.409   2.475
 6450TIP3   OH219292   6.511   7.131   6.174
 6450TIP3    H119293   6.450   7.087   6.234
 6450TIP3    H219294   6.486   7.097   6.088
 6451TIP3   OH219295   2.423   4.201   5.625
 6451TIP3    H119296   2.334   4.206   5.592
 6451TIP3    H219297   2.474   4.257   5.566
 6452TIP3   OH219298   1.823   4.328   5.916
 6452TIP3    H119299   1.841   4.419   5.892
 6452TIP3    H219300   1.906   4.296   5.950
 6453TIP3   OH219301   6.625   6.053   0.282
 6453TIP3    H119302   6.674   6.050   0.365
 6453TIP3    H219303   6.575   6.134   0.286
 6454TIP3   OH219304   1.111   6.932   5.286
 6454TIP3    H119305   1.121   6.996   5.356
 6454TIP3    H219306   1.138   6.849   5.325
 6455TIP3   OH219307   2.617   7.678   4.730
 6455TIP3    H119308   2.539   7.623   4.722
 6455TIP3    H219309   2.630   7.688   4.824
 6456TIP3   OH219310   3.595   1.396   2.318
 6456TIP3    H119311   3.626   1.455   2.249
 6456TIP3    H219312   3.611   1.308   2.283
 6457TIP3   OH219313   8.019   2.565   6.636
 6457TIP3    H119314   8.107   2.581   6.601
 6457TIP3    H219315   7.977   2.651   6.634
 6458TIP3   OH219316   1.988   2.351   4.885
 6458TIP3    H119317   1.936   2.274   4.863
 6458TIP3    H219318   2.014   2.336   4.976
 6459TIP3   OH219319   1.531   5.773   4.733
 6459TIP3    H119320   1.479   5.838   4.686
 6459TIP3    H219321   1.565   5.715   4.665
 6460TIP3   OH219322   6.421   6.864   2.565
 6460TIP3    H119323   6.448   6.871   2.656
 6460TIP3    H219324   6.504   6.857   2.516
 6461TIP3   OH219325   1.109   4.024   1.899
 6461TIP3    H119326   1.097   4.118   1.886
 6461TIP3    H219327   1.025   3.986   1.874
 6462TIP3   OH219328   7.792   4.455   6.136
 6462TIP3    H119329   7.772   4.446   6.229
 6462TIP3    H219330   7.826   4.369   6.110
 6463TIP3   OH219331   5.446   4.040   6.784
 6463TIP3    H119332   5.437   4.029   6.690
 6463TIP3    H219333   5.480   4.129   6.795
 6464TIP3   OH219334   6.085   5.758   2.780
 6464TIP3    H119335   6.128   5.707   2.711
 6464TIP3    H219336   6.002   5.785   2.742
 6465TIP3   OH219337   5.676   7.190   0.624
 6465TIP3    H119338   5.723   7.257   0.575
 6465TIP3    H219339   5.722   7.185   0.708
 6466TIP3   OH219340   3.714   1.625   3.197
 6466TIP3    H119341   3.794   1.658   3.238
 6466TIP3    H219342   3.715   1.664   3.109
 6467TIP3   OH219343   4.910   6.630   3.903
 6467TIP3    H119344   4.976   6.603   3.840
 6467TIP3    H219345   4.827   6.615   3.859
 6468TIP3   OH219346   8.286   5.519   6.282
 6468TIP3    H119347   8.238   5.596   6.312
 6468TIP3    H219348   8.298   5.534   6.188
 6469TIP3   OH219349   4.397   6.098   3.485
 6469TIP3    H119350   4.434   6.131   3.404
 6469TIP3    H219351   4.415   6.167   3.549
 6470TIP3   OH219352   6.975   0.482   3.858
 6470TIP3    H119353   7.013   0.400   3.826
 6470TIP3    H219354   7.026   0.503   3.936
 6471TIP3   OH219355   2.186   2.057   0.336
 6471TIP3    H119356   2.190   2.084   0.427
 6471TIP3    H219357   2.094   2.035   0.321
 6472TIP3   OH219358   1.884   2.494   6.127
 6472TIP3    H119359   1.813   2.439   6.161
 6472TIP3    H219360   1.841   2.576   6.103
 6473TIP3   OH219361   1.206   3.736   5.182
 6473TIP3    H119362   1.254   3.818   5.169
 6473TIP3    H219363   1.199   3.699   5.094
 6474TIP3   OH219364   2.995   3.363   2.612
 6474TIP3    H119365   2.933   3.371   2.539
 6474TIP3    H219366   2.995   3.449   2.654
 6475TIP3   OH219367   2.549   2.693   1.683
 6475TIP3    H119368   2.572   2.637   1.757
 6475TIP3    H219369   2.555   2.782   1.716
 6476TIP3   OH219370   5.163   7.502   0.256
 6476TIP3    H119371   5.216   7.538   0.185
 6476TIP3    H219372   5.225   7.487   0.327
 6477TIP3   OH219373   4.604   6.692   2.589
 6477TIP3    H119374   4.535   6.632   2.558
 6477TIP3    H219375   4.629   6.657   2.674
 6478TIP3   OH219376   6.616   0.266   0.096
 6478TIP3    H119377   6.550   0.278   0.165
 6478TIP3    H219378   6.651   0.354   0.081
 6479TIP3   OH219379   2.116   2.749   4.120
 6479TIP3    H119380   2.025   2.739   4.149
 6479TIP3    H219381   2.149   2.659   4.113
 6480TIP3   OH219382   1.403   0.772   5.296
 6480TIP3    H119383   1.469   0.747   5.361
 6480TIP3    H219384   1.452   0.781   5.214
 6481TIP3   OH219385   0.701   6.685   4.698
 6481TIP3    H119386   0.744   6.636   4.628
 6481TIP3    H219387   0.667   6.764   4.655
 6482TIP3   OH219388   4.278   5.018   0.027
 6482TIP3    H119389   4.236   4.976  -0.048
 6482TIP3    H219390   4.206   5.042   0.085
 6483TIP3   OH219391   1.276   4.659   4.818
 6483TIP3    H119392   1.234   4.733   4.774
 6483TIP3    H219393   1.330   4.699   4.886
 6484TIP3   OH219394   0.193   1.863   1.769
 6484TIP3    H119395   0.182   1.953   1.739
 6484TIP3    H219396   0.134   1.856   1.844
 6485TIP3   OH219397   0.557   6.515   0.671
 6485TIP3    H119398   0.566   6.564   0.590
 6485TIP3    H219399   0.515   6.433   0.645
 6486TIP3   OH219400   2.660   2.212   5.059
 6486TIP3    H119401   2.680   2.305   5.047
 6486TIP3    H219402   2.658   2.200   5.154
 6487TIP3   OH219403   3.844   4.601   3.333
 6487TIP3    H119404   3.902   4.674   3.311
 6487TIP3    H219405   3.833   4.607   3.428
 6488TIP3   OH219406   1.994   0.294   6.317
 6488TIP3    H119407   2.018   0.287   6.409
 6488TIP3    H219408   1.962   0.207   6.294
 6489TIP3   OH219409   4.061   2.875   1.480
 6489TIP3    H119410   4.063   2.964   1.517
 6489TIP3    H219411   4.064   2.888   1.385
 6490TIP3   OH219412   1.524   5.476   0.647
 6490TIP3    H119413   1.592   5.473   0.714
 6490TIP3    H219414   1.442   5.467   0.695
 6491TIP3   OH219415   3.240   2.961   6.023
 6491TIP3    H119416   3.209   2.892   5.965
 6491TIP3    H219417   3.304   2.919   6.080
 6492TIP3   OH219418   4.370   3.639   1.582
 6492TIP3    H119419   4.351   3.576   1.512
 6492TIP3    H219420   4.283   3.668   1.611
 6493TIP3   OH219421   4.861   6.130   0.637
 6493TIP3    H119422   4.903   6.060   0.687
 6493TIP3    H219423   4.931   6.165   0.582
 6494TIP3   OH219424   5.173   6.242   1.108
 6494TIP3    H119425   5.225   6.321   1.093
 6494TIP3    H219426   5.220   6.195   1.178
 6495TIP3   OH219427   2.729   1.732   5.400
 6495TIP3    H119428   2.714   1.637   5.399
 6495TIP3    H219429   2.712   1.758   5.490
 6496TIP3   OH219430   3.187   6.968   0.897
 6496TIP3    H119431   3.207   7.056   0.929
 6496TIP3    H219432   3.184   6.978   0.802
 6497TIP3   OH219433   5.497   0.500   6.351
 6497TIP3    H119434   5.481   0.549   6.271
 6497TIP3    H219435   5.475   0.561   6.422
 6498TIP3   OH219436   6.194   0.091   1.022
 6498TIP3    H119437   6.237   0.092   1.107
 6498TIP3    H219438   6.264   0.108   0.959
 6499TIP3   OH219439   3.435   6.781   4.394
 6499TIP3    H119440   3.477   6.726   4.460
 6499TIP3    H219441   3.465   6.746   4.310
 6500TIP3   OH219442   7.995   5.956   5.649
 6500TIP3    H119443   8.037   6.042   5.655
 6500TIP3    H219444   7.912   5.967   5.695
 6501TIP3   OH219445   3.990   0.663   4.286
 6501TIP3    H119446   4.072   0.664   4.237
 6501TIP3    H219447   3.937   0.732   4.245
 6502TIP3   OH219448   4.153   6.303   6.077
 6502TIP3    H119449   4.240   6.339   6.060
 6502TIP3    H219450   4.118   6.356   6.149
 6503TIP3   OH219451   7.064   2.507   4.515
 6503TIP3    H119452   6.973   2.537   4.513
 6503TIP3    H219453   7.060   2.420   4.555
 6504TIP3   OH219454   3.802   6.667   2.639
 6504TIP3    H119455   3.783   6.631   2.726
 6504TIP3    H219456   3.726   6.644   2.586
 6505TIP3   OH219457   5.594   0.633   0.577
 6505TIP3    H119458   5.637   0.636   0.663
 6505TIP3    H219459   5.526   0.566   0.586
 6506TIP3   OH219460   1.797   0.633   0.751
 6506TIP3    H119461   1.789   0.630   0.846
 6506TIP3    H219462   1.889   0.613   0.734
 6507TIP3   OH219463   4.347   6.107   6.223
 6507TIP3    H119464   4.343   6.187   6.276
 6507TIP3    H219465   4.279   6.119   6.157
 6508TIP3   OH219466   4.808   5.953   3.244
 6508TIP3    H119467   4.716   5.935   3.225
 6508TIP3    H219468   4.841   5.994   3.164
 6509TIP3   OH219469   1.913   5.191   5.331
 6509TIP3    H119470   1.956   5.115   5.293
 6509TIP3    H219471   1.866   5.158   5.407
 6510TIP3   OH219472   8.020   6.463   4.730
 6510TIP3    H119473   7.961   6.435   4.800
 6510TIP3    H219474   8.068   6.537   4.767
 6511TIP3   OH219475   3.721   7.330   6.726
 6511TIP3    H119476   3.646   7.333   6.666
 6511TIP3    H219477   3.770   7.410   6.706
 6512TIP3   OH219478   2.339   6.368   3.758
 6512TIP3    H119479   2.298   6.412   3.683
 6512TIP3    H219480   2.396   6.433   3.797
 6513TIP3   OH219481   5.138   7.106   1.512
 6513TIP3    H119482   5.155   7.188   1.466
 6513TIP3    H219483   5.109   7.132   1.599
 6514TIP3   OH219484   6.624  -0.021   6.650
 6514TIP3    H119485   6.705   0.014   6.612
 6514TIP3    H219486   6.593   0.048   6.707
 6515TIP3   OH219487   1.226   1.299   5.560
 6515TIP3    H119488   1.139   1.314   5.523
 6515TIP3    H219489   1.281   1.282   5.484
 6516TIP3   OH219490   3.216   6.983   1.398
 6516TIP3    H119491   3.270   7.061   1.411
 6516TIP3    H219492   3.266   6.928   1.337
 6517TIP3   OH219493   2.848   0.558   5.937
 6517TIP3    H119494   2.861   0.652   5.952
 6517TIP3    H219495   2.754   0.545   5.949
 6518TIP3   OH219496   3.346   2.052   5.248
 6518TIP3    H119497   3.317   2.117   5.312
 6518TIP3    H219498   3.280   2.056   5.178
 6519TIP3   OH219499   1.544   6.417   1.517
 6519TIP3    H119500   1.489   6.339   1.512
 6519TIP3    H219501   1.633   6.384   1.513
 6520TIP3   OH219502   1.443   6.308   3.776
 6520TIP3    H119503   1.415   6.240   3.714
 6520TIP3    H219504   1.515   6.267   3.824
 6521TIP3   OH219505   6.963   3.308   3.146
 6521TIP3    H119506   7.040   3.251   3.148
 6521TIP3    H219507   6.893   3.255   3.183
 6522TIP3   OH219508   2.605   4.494   2.024
 6522TIP3    H119509   2.676   4.516   1.964
 6522TIP3    H219510   2.543   4.567   2.015
 6523TIP3   OH219511   1.227   7.588   0.145
 6523TIP3    H119512   1.304   7.532   0.136
 6523TIP3    H219513   1.158   7.544   0.096
 6524TIP3   OH219514   6.714   6.443   3.589
 6524TIP3    H119515   6.755   6.526   3.566
 6524TIP3    H219516   6.648   6.428   3.522
 6525TIP3   OH219517   1.054   0.838   1.934
 6525TIP3    H119518   1.007   0.778   1.993
 6525TIP3    H219519   1.072   0.915   1.988
 6526TIP3   OH219520   0.914   7.044   1.508
 6526TIP3    H119521   0.969   6.983   1.459
 6526TIP3    H219522   0.861   7.088   1.442
 6527TIP3   OH219523   4.489   2.726   4.351
 6527TIP3    H119524   4.476   2.698   4.441
 6527TIP3    H219525   4.581   2.752   4.347
 6528TIP3   OH219526   1.560   4.376   5.453
 6528TIP3    H119527   1.527   4.287   5.465
 6528TIP3    H219528   1.639   4.380   5.506
 6529TIP3   OH219529   5.641   4.366   3.793
 6529TIP3    H119530   5.724   4.381   3.840
 6529TIP3    H219531   5.600   4.293   3.840
 6530TIP3   OH219532   7.620   2.412   1.305
 6530TIP3    H119533   7.570   2.342   1.263
 6530TIP3    H219534   7.558   2.485   1.312
 6531TIP3   OH219535   6.761   6.631   0.544
 6531TIP3    H119536   6.806   6.653   0.463
 6531TIP3    H219537   6.722   6.713   0.573
 6532TIP3   OH219538   6.002   3.388   5.753
 6532TIP3    H119539   5.922   3.423   5.791
 6532TIP3    H219540   5.978   3.364   5.663
 6533TIP3   OH219541   6.303   2.682   0.186
 6533TIP3    H119542   6.320   2.593   0.157
 6533TIP3    H219543   6.231   2.712   0.130
 6534TIP3   OH219544   3.209   5.791   2.699
 6534TIP3    H119545   3.141   5.792   2.766
 6534TIP3    H219546   3.180   5.726   2.636
 6535TIP3   OH219547   3.697   3.462   3.394
 6535TIP3    H119548   3.708   3.507   3.310
 6535TIP3    H219549   3.673   3.531   3.455
 6536TIP3   OH219550   1.884   2.238   5.522
 6536TIP3    H119551   1.973   2.218   5.549
 6536TIP3    H219552   1.834   2.159   5.543
 6537TIP3   OH219553   3.449   2.508   2.559
 6537TIP3    H119554   3.374   2.469   2.514
 6537TIP3    H219555   3.476   2.443   2.624
 6538TIP3   OH219556   2.570   7.494   1.744
 6538TIP3    H119557   2.555   7.571   1.799
 6538TIP3    H219558   2.536   7.421   1.796
 6539TIP3   OH219559   4.923   7.225   6.015
 6539TIP3    H119560   4.866   7.277   5.959
 6539TIP3    H219561   5.008   7.225   5.970
 6540TIP3   OH219562   3.883   7.658   4.397
 6540TIP3    H119563   3.937   7.654   4.318
 6540TIP3    H219564   3.817   7.590   4.384
 6541TIP3   OH219565   0.225   0.675   3.180
 6541TIP3    H119566   0.204   0.677   3.086
 6541TIP3    H219567   0.284   0.749   3.192
 6542TIP3   OH219568   7.233   1.057   6.127
 6542TIP3    H119569   7.257   0.968   6.100
 6542TIP3    H219570   7.223   1.105   6.045
 6543TIP3   OH219571   5.020   7.539   3.898
 6543TIP3    H119572   4.974   7.524   3.815
 6543TIP3    H219573   5.069   7.458   3.912
 6544TIP3   OH219574   6.814   6.293   1.146
 6544TIP3    H119575   6.753   6.318   1.077
 6544TIP3    H219576   6.804   6.360   1.213
 6545TIP3   OH219577   2.851   1.364   6.400
 6545TIP3    H119578   2.891   1.405   6.323
 6545TIP3    H219579   2.782   1.424   6.427
 6546TIP3   OH219580   0.633   1.765   0.109
 6546TIP3    H119581   0.621   1.677   0.072
 6546TIP3    H219582   0.668   1.816   0.036
 6547TIP3   OH219583   5.290   7.192   1.067
 6547TIP3    H119584   5.248   7.210   1.151
 6547TIP3    H219585   5.235   7.125   1.027
 6548TIP3   OH219586   6.718   4.425   2.001
 6548TIP3    H119587   6.655   4.372   2.049
 6548TIP3    H219588   6.777   4.459   2.069
 6549TIP3   OH219589   6.495   5.663   0.555
 6549TIP3    H119590   6.460   5.651   0.643
 6549TIP3    H219591   6.552   5.739   0.562
 6550TIP3   OH219592   1.708   0.125   2.784
 6550TIP3    H119593   1.745   0.115   2.872
 6550TIP3    H219594   1.735   0.045   2.738
 6551TIP3   OH219595   8.188   0.618   2.154
 6551TIP3    H119596   8.170   0.560   2.228
 6551TIP3    H219597   8.130   0.693   2.168
 6552TIP3   OH219598   0.593   0.782   0.268
 6552TIP3    H119599   0.563   0.699   0.305
 6552TIP3    H219600   0.672   0.804   0.319
 6553TIP3   OH219601   2.121   2.331   2.585
 6553TIP3    H119602   2.120   2.416   2.542
 6553TIP3    H219603   2.209   2.298   2.570
 6554TIP3   OH219604   1.363   0.672   6.376
 6554TIP3    H119605   1.323   0.622   6.304
 6554TIP3    H219606   1.344   0.620   6.454
 6555TIP3   OH219607   7.091   2.275   6.181
 6555TIP3    H119608   7.122   2.348   6.236
 6555TIP3    H219609   7.112   2.301   6.092
 6556TIP3   OH219610   2.323   4.824   0.053
 6556TIP3    H119611   2.258   4.788   0.113
 6556TIP3    H219612   2.334   4.915   0.081
 6557TIP3   OH219613   6.134   7.263   2.256
 6557TIP3    H119614   6.126   7.341   2.201
 6557TIP3    H219615   6.157   7.297   2.343
 6558TIP3   OH219616   5.167   4.734   5.336
 6558TIP3    H119617   5.079   4.772   5.338
 6558TIP3    H219618   5.202   4.750   5.424
 6559TIP3   OH219619   1.702   7.684   5.819
 6559TIP3    H119620   1.738   7.596   5.812
 6559TIP3    H219621   1.612   7.671   5.849
 6560TIP3   OH219622   7.783   6.953   2.071
 6560TIP3    H119623   7.695   6.937   2.037
 6560TIP3    H219624   7.837   6.961   1.993
 6561TIP3   OH219625   7.460   0.627   2.702
 6561TIP3    H119626   7.461   0.705   2.757
 6561TIP3    H219627   7.379   0.581   2.725
 6562TIP3   OH219628   4.381   4.103   6.449
 6562TIP3    H119629   4.337   4.187   6.443
 6562TIP3    H219630   4.317   4.047   6.494
 6563TIP3   OH219631   4.857   5.793   3.644
 6563TIP3    H119632   4.940   5.763   3.680
 6563TIP3    H219633   4.879   5.873   3.597
 6564TIP3   OH219634   2.668   3.344   2.983
 6564TIP3    H119635   2.721   3.421   2.960
 6564TIP3    H219636   2.684   3.331   3.076
 6565TIP3   OH219637   0.923   1.819   5.816
 6565TIP3    H119638   1.011   1.852   5.829
 6565TIP3    H219639   0.900   1.845   5.727
 6566TIP3   OH219640   7.408   5.925   3.978
 6566TIP3    H119641   7.395   6.019   3.984
 6566TIP3    H219642   7.345   5.888   4.041
 6567TIP3   OH219643   0.777   4.379   2.688
 6567TIP3    H119644   0.685   4.399   2.667
 6567TIP3    H219645   0.827   4.441   2.634
 6568TIP3   OH219646   2.635   6.634   2.698
 6568TIP3    H119647   2.708   6.639   2.759
 6568TIP3    H219648   2.562   6.677   2.743
 6569TIP3   OH219649   1.048   6.097   2.103
 6569TIP3    H119650   1.138   6.069   2.115
 6569TIP3    H219651   1.048   6.147   2.021
 6570TIP3   OH219652   5.348   6.846   3.062
 6570TIP3    H119653   5.441   6.861   3.074
 6570TIP3    H219654   5.341   6.757   3.027
 6571TIP3   OH219655   1.034   0.847   5.007
 6571TIP3    H119656   1.101   0.904   5.043
 6571TIP3    H219657   0.956   0.863   5.061
 6572TIP3   OH219658   7.048   7.112   5.039
 6572TIP3    H119659   6.962   7.095   5.002
 6572TIP3    H219660   7.049   7.207   5.055
 6573TIP3   OH219661   3.316   6.665   0.892
 6573TIP3    H119662   3.246   6.608   0.862
 6573TIP3    H219663   3.299   6.749   0.849
 6574TIP3   OH219664   2.889   4.653   6.452
 6574TIP3    H119665   2.917   4.561   6.459
 6574TIP3    H219666   2.802   4.647   6.413
 6575TIP3   OH219667   2.373   1.855   2.272
 6575TIP3    H119668   2.331   1.936   2.246
 6575TIP3    H219669   2.437   1.881   2.339
 6576TIP3   OH219670   2.268   4.235   4.228
 6576TIP3    H119671   2.358   4.267   4.216
 6576TIP3    H219672   2.217   4.283   4.163
 6577TIP3   OH219673   6.779   5.681   3.528
 6577TIP3    H119674   6.712   5.732   3.482
 6577TIP3    H219675   6.862   5.720   3.501
 6578TIP3   OH219676   3.494   4.109   5.374
 6578TIP3    H119677   3.410   4.154   5.378
 6578TIP3    H219678   3.558   4.180   5.368
 6579TIP3   OH219679   1.958   3.927   1.932
 6579TIP3    H119680   1.872   3.961   1.907
 6579TIP3    H219681   2.008   4.004   1.959
 6580TIP3   OH219682   4.408   6.197   2.052
 6580TIP3    H119683   4.417   6.217   1.959
 6580TIP3    H219684   4.486   6.145   2.072
 6581TIP3   OH219685   6.295   4.964   5.477
 6581TIP3    H119686   6.274   5.047   5.520
 6581TIP3    H219687   6.249   4.968   5.393
 6582TIP3   OH219688   2.546   2.775   0.584
 6582TIP3    H119689   2.598   2.724   0.648
 6582TIP3    H219690   2.496   2.709   0.537
 6583TIP3   OH219691   0.987   2.643   6.632
 6583TIP3    H119692   0.973   2.689   6.715
 6583TIP3    H219693   0.961   2.706   6.565
 6584TIP3   OH219694   1.125   1.870   6.094
 6584TIP3    H119695   1.156   1.884   6.005
 6584TIP3    H219696   1.118   1.958   6.132
 6585TIP3   OH219697   0.143   2.554   4.371
 6585TIP3    H119698   0.192   2.475   4.347
 6585TIP3    H219699   0.075   2.522   4.431
 6586TIP3   OH219700   5.160   4.054   2.539
 6586TIP3    H119701   5.115   4.059   2.623
 6586TIP3    H219702   5.181   3.962   2.529
 6587TIP3   OH219703   4.477   4.665   3.396
 6587TIP3    H119704   4.530   4.714   3.459
 6587TIP3    H219705   4.488   4.711   3.314
 6588TIP3   OH219706   5.026   5.145   4.775
 6588TIP3    H119707   4.972   5.189   4.709
 6588TIP3    H219708   4.966   5.129   4.848
 6589TIP3   OH219709   1.162   0.065   5.992
 6589TIP3    H119710   1.181   0.147   6.037
 6589TIP3    H219711   1.105   0.017   6.052
 6590TIP3   OH219712   3.516   1.818   4.699
 6590TIP3    H119713   3.425   1.841   4.721
 6590TIP3    H219714   3.510   1.779   4.612
 6591TIP3   OH219715   6.172   6.997   0.953
 6591TIP3    H119716   6.235   6.941   0.999
 6591TIP3    H219717   6.110   6.936   0.914
 6592TIP3   OH219718   5.437   5.086   1.105
 6592TIP3    H119719   5.398   5.057   1.023
 6592TIP3    H219720   5.426   5.181   1.105
 6593TIP3   OH219721   6.074   6.673   3.178
 6593TIP3    H119722   6.076   6.751   3.123
 6593TIP3    H219723   6.017   6.612   3.131
 6594TIP3   OH219724   3.114   4.351   4.315
 6594TIP3    H119725   3.077   4.303   4.389
 6594TIP3    H219726   3.126   4.285   4.247
 6595TIP3   OH219727   3.793   0.191   0.403
 6595TIP3    H119728   3.869   0.219   0.454
 6595TIP3    H219729   3.828   0.130   0.338
 6596TIP3   OH219730   4.281   3.553   1.968
 6596TIP3    H119731   4.375   3.565   1.982
 6596TIP3    H219732   4.275   3.501   1.888
 6597TIP3   OH219733   0.547   4.171   6.218
 6597TIP3    H119734   0.485   4.186   6.147
 6597TIP3    H219735   0.581   4.083   6.203
 6598TIP3   OH219736   7.030   0.876   1.304
 6598TIP3    H119737   6.982   0.892   1.386
 6598TIP3    H219738   7.047   0.964   1.269
 6599TIP3   OH219739   3.984   1.729   1.282
 6599TIP3    H119740   4.039   1.674   1.226
 6599TIP3    H219741   3.955   1.800   1.224
 6600TIP3   OH219742   3.960   7.586   4.147
 6600TIP3    H119743   3.900   7.536   4.092
 6600TIP3    H219744   4.042   7.537   4.144
 6601TIP3   OH219745   5.491   2.378   5.904
 6601TIP3    H119746   5.538   2.423   5.974
 6601TIP3    H219747   5.504   2.432   5.826
 6602TIP3   OH219748   2.518   4.328   3.119
 6602TIP3    H119749   2.525   4.407   3.172
 6602TIP3    H219750   2.564   4.350   3.038
 6603TIP3   OH219751   7.025   2.418   0.095
 6603TIP3    H119752   7.032   2.327   0.066
 6603TIP3    H219753   6.956   2.455   0.040
 6604TIP3   OH219754   7.204   3.020   5.556
 6604TIP3    H119755   7.247   2.971   5.486
 6604TIP3    H219756   7.198   2.958   5.628
 6605TIP3   OH219757   2.687   5.212   4.896
 6605TIP3    H119758   2.637   5.162   4.961
 6605TIP3    H219759   2.662   5.173   4.812
 6606TIP3   OH219760   3.964   0.721   0.186
 6606TIP3    H119761   3.953   0.781   0.260
 6606TIP3    H219762   3.959   0.634   0.224
 6607TIP3   OH219763   6.045   7.595   6.541
 6607TIP3    H119764   6.057   7.571   6.633
 6607TIP3    H219765   6.111   7.663   6.525
 6608TIP3   OH219766   1.611   5.604   1.809
 6608TIP3    H119767   1.653   5.578   1.891
 6608TIP3    H219768   1.583   5.694   1.823
 6609TIP3   OH219769   1.548   3.336   1.568
 6609TIP3    H119770   1.466   3.350   1.521
 6609TIP3    H219771   1.595   3.270   1.516
 6610TIP3   OH219772   5.798   2.136   4.826
 6610TIP3    H119773   5.860   2.144   4.898
 6610TIP3    H219774   5.848   2.159   4.748
 6611TIP3   OH219775   2.130   5.328   6.432
 6611TIP3    H119776   2.131   5.423   6.420
 6611TIP3    H219777   2.154   5.316   6.524
 6612TIP3   OH219778   7.925   4.077   4.889
 6612TIP3    H119779   7.858   4.145   4.900
 6612TIP3    H219780   7.938   4.043   4.978
 6613TIP3   OH219781   0.981   6.666   5.988
 6613TIP3    H119782   1.019   6.645   6.073
 6613TIP3    H219783   1.056   6.688   5.932
 6614TIP3   OH219784   6.784   5.526   3.776
 6614TIP3    H119785   6.742   5.571   3.703
 6614TIP3    H219786   6.777   5.433   3.754
 6615TIP3   OH219787   7.361   3.613   4.407
 6615TIP3    H119788   7.364   3.551   4.480
 6615TIP3    H219789   7.424   3.680   4.431
 6616TIP3   OH219790   5.947   6.950   0.471
 6616TIP3    H119791   5.872   6.983   0.421
 6616TIP3    H219792   5.994   6.895   0.409
 6617TIP3   OH219793   0.295   2.017   3.134
 6617TIP3    H119794   0.237   2.080   3.178
 6617TIP3    H219795   0.341   1.973   3.206
 6618TIP3   OH219796   6.663   0.696   3.807
 6618TIP3    H119797   6.597   0.723   3.871
 6618TIP3    H219798   6.613   0.652   3.738
 6619TIP3   OH219799   4.128   0.226   1.197
 6619TIP3    H119800   4.163   0.314   1.206
 6619TIP3    H219801   4.188   0.171   1.248
 6620TIP3   OH219802   7.263   6.703   4.011
 6620TIP3    H119803   7.245   6.612   3.987
 6620TIP3    H219804   7.254   6.752   3.929
 6621TIP3   OH219805   5.723   2.357   6.627
 6621TIP3    H119806   5.784   2.319   6.564
 6621TIP3    H219807   5.771   2.358   6.710
 6622TIP3   OH219808   4.900   6.473   1.742
 6622TIP3    H119809   4.811   6.460   1.708
 6622TIP3    H219810   4.926   6.559   1.709
 6623TIP3   OH219811   0.048   3.000   1.707
 6623TIP3    H119812  -0.007   2.925   1.730
 6623TIP3    H219813  -0.013   3.074   1.701
 6624TIP3   OH219814   6.421   0.969   6.412
 6624TIP3    H119815   6.444   1.040   6.472
 6624TIP3    H219816   6.450   1.001   6.326
 6625TIP3   OH219817   8.097   5.061   2.171
 6625TIP3    H119818   8.002   5.055   2.166
 6625TIP3    H219819   8.123   5.102   2.088
 6626TIP3   OH219820   1.287   3.202   4.632
 6626TIP3    H119821   1.295   3.160   4.547
 6626TIP3    H219822   1.215   3.265   4.621
 6627TIP3   OH219823   0.438   7.096   0.164
 6627TIP3    H119824   0.361   7.066   0.212
 6627TIP3    H219825   0.464   7.020   0.112
 6628TIP3   OH219826   3.446   7.519   5.307
 6628TIP3    H119827   3.427   7.506   5.214
 6628TIP3    H219828   3.379   7.469   5.353
 6629TIP3   OH219829   1.745   4.118   0.396
 6629TIP3    H119830   1.661   4.071   0.394
 6629TIP3    H219831   1.738   4.181   0.323
 6630TIP3   OH219832   1.074   3.248   1.591
 6630TIP3    H119833   1.070   3.175   1.653
 6630TIP3    H219834   1.094   3.324   1.644
 6631TIP3   OH219835   1.455   0.906   6.470
 6631TIP3    H119836   1.451   0.820   6.429
 6631TIP3    H219837   1.371   0.946   6.448
 6632TIP3   OH219838   2.184   4.617   2.111
 6632TIP3    H119839   2.164   4.566   2.032
 6632TIP3    H219840   2.170   4.556   2.183
 6633TIP3   OH219841   4.605   1.231   4.794
 6633TIP3    H119842   4.525   1.237   4.742
 6633TIP3    H219843   4.649   1.152   4.762
 6634TIP3   OH219844   4.518   7.015   6.381
 6634TIP3    H119845   4.551   7.089   6.331
 6634TIP3    H219846   4.531   6.940   6.324
 6635TIP3   OH219847   3.634   6.756   1.316
 6635TIP3    H119848   3.720   6.720   1.338
 6635TIP3    H219849   3.612   6.715   1.232
 6636TIP3   OH219850   1.848   1.236   2.864
 6636TIP3    H119851   1.922   1.228   2.803
 6636TIP3    H219852   1.859   1.323   2.903
 6637TIP3   OH219853   4.070   2.081   3.413
 6637TIP3    H119854   4.084   2.175   3.404
 6637TIP3    H219855   4.155   2.041   3.394
 6638TIP3   OH219856   2.562   6.093   3.501
 6638TIP3    H119857   2.540   6.126   3.414
 6638TIP3    H219858   2.538   6.000   3.499
 6639TIP3   OH219859   2.669   2.131   4.100
 6639TIP3    H119860   2.723   2.135   4.021
 6639TIP3    H219861   2.624   2.215   4.102
 6640TIP3   OH219862   5.235   3.093   3.922
 6640TIP3    H119863   5.261   3.095   3.830
 6640TIP3    H219864   5.307   3.051   3.968
 6641TIP3   OH219865   0.676   4.137   0.573
 6641TIP3    H119866   0.615   4.087   0.627
 6641TIP3    H219867   0.720   4.070   0.520
 6642TIP3   OH219868   3.322   3.089   4.325
 6642TIP3    H119869   3.370   3.105   4.244
 6642TIP3    H219870   3.385   3.109   4.394
 6643TIP3   OH219871   6.103   0.483   1.653
 6643TIP3    H119872   6.057   0.479   1.568
 6643TIP3    H219873   6.187   0.441   1.636
 6644TIP3   OH219874   7.016   5.983   5.737
 6644TIP3    H119875   6.979   6.071   5.741
 6644TIP3    H219876   7.110   5.996   5.746
 6645TIP3   OH219877   5.013   3.462   1.350
 6645TIP3    H119878   5.038   3.533   1.291
 6645TIP3    H219879   5.091   3.407   1.355
 6646TIP3   OH219880   6.919   1.826   1.352
 6646TIP3    H119881   6.872   1.759   1.402
 6646TIP3    H219882   6.930   1.787   1.265
 6647TIP3   OH219883   6.562   1.818   0.208
 6647TIP3    H119884   6.609   1.833   0.290
 6647TIP3    H219885   6.548   1.723   0.207
 6648TIP3   OH219886   7.260   4.036   2.546
 6648TIP3    H119887   7.177   4.004   2.512
 6648TIP3    H219888   7.318   4.038   2.470
 6649TIP3   OH219889   1.508   0.557   2.780
 6649TIP3    H119890   1.495   0.556   2.685
 6649TIP3    H219891   1.590   0.510   2.794
 6650TIP3   OH219892   2.574   3.085   5.266
 6650TIP3    H119893   2.643   3.137   5.226
 6650TIP3    H219894   2.535   3.037   5.193
 6651TIP3   OH219895   1.340   2.776   4.500
 6651TIP3    H119896   1.268   2.761   4.561
 6651TIP3    H219897   1.316   2.856   4.454
 6652TIP3   OH219898   2.874   7.133   3.362
 6652TIP3    H119899   2.928   7.206   3.333
 6652TIP3    H219900   2.810   7.121   3.292
 6653TIP3   OH219901   6.391   1.461   4.847
 6653TIP3    H119902   6.453   1.401   4.887
 6653TIP3    H219903   6.395   1.539   4.902
 6654TIP3   OH219904   2.908   6.577   2.409
 6654TIP3    H119905   2.923   6.671   2.415
 6654TIP3    H219906   2.972   6.546   2.345
 6655TIP3   OH219907   8.268   1.175   2.051
 6655TIP3    H119908   8.186   1.148   2.093
 6655TIP3    H219909   8.259   1.270   2.041
 6656TIP3   OH219910   6.442   1.933   2.766
 6656TIP3    H119911   6.365   1.891   2.727
 6656TIP3    H219912   6.501   1.948   2.692
 6657TIP3   OH219913   6.678   0.629   4.833
 6657TIP3    H119914   6.726   0.579   4.768
 6657TIP3    H219915   6.621   0.564   4.875
 6658TIP3   OH219916   3.447   4.939   6.760
 6658TIP3    H119917   3.443   4.986   6.677
 6658TIP3    H219918   3.360   4.949   6.797
 6659TIP3   OH219919   3.845   0.037   6.167
 6659TIP3    H119920   3.762   0.083   6.176
 6659TIP3    H219921   3.831  -0.047   6.211
 6660TIP3   OH219922   0.217   0.074   1.468
 6660TIP3    H119923   0.172   0.034   1.542
 6660TIP3    H219924   0.213   0.007   1.399
 6661TIP3   OH219925   5.271   2.275   5.508
 6661TIP3    H119926   5.339   2.248   5.570
 6661TIP3    H219927   5.289   2.367   5.490
 6662TIP3   OH219928   2.739   4.253   2.374
 6662TIP3    H119929   2.662   4.235   2.320
 6662TIP3    H219930   2.813   4.241   2.314
 6663TIP3   OH219931   3.155   3.481   3.975
 6663TIP3    H119932   3.100   3.488   3.897
 6663TIP3    H219933   3.093   3.476   4.047
 6664TIP3   OH219934   2.950   6.400   1.956
 6664TIP3    H119935   2.999   6.354   1.888
 6664TIP3    H219936   2.870   6.430   1.913
 6665TIP3   OH219937   2.755   7.316   3.929
 6665TIP3    H119938   2.767   7.301   4.023
 6665TIP3    H219939   2.745   7.411   3.922
 6666TIP3   OH219940   6.643   0.151   3.339
 6666TIP3    H119941   6.590   0.142   3.418
 6666TIP3    H219942   6.595   0.102   3.272
 6667TIP3   OH219943   3.066   2.146   0.576
 6667TIP3    H119944   3.153   2.186   0.577
 6667TIP3    H219945   3.021   2.183   0.652
 6668TIP3   OH219946   2.190   6.073   1.728
 6668TIP3    H119947   2.156   6.160   1.748
 6668TIP3    H219948   2.268   6.089   1.675
 6669TIP3   OH219949   5.217   1.700   6.377
 6669TIP3    H119950   5.272   1.737   6.307
 6669TIP3    H219951   5.273   1.635   6.419
 6670TIP3   OH219952   7.442   0.138   0.523
 6670TIP3    H119953   7.477   0.158   0.610
 6670TIP3    H219954   7.461   0.045   0.511
 6671TIP3   OH219955   7.983   6.561   1.657
 6671TIP3    H119956   7.931   6.506   1.715
 6671TIP3    H219957   8.063   6.510   1.642
 6672TIP3   OH219958   6.166   7.493   3.678
 6672TIP3    H119959   6.209   7.465   3.597
 6672TIP3    H219960   6.231   7.546   3.723
 6673TIP3   OH219961   7.112   2.407   2.902
 6673TIP3    H119962   7.101   2.502   2.895
 6673TIP3    H219963   7.070   2.384   2.984
 6674TIP3   OH219964   4.114   6.194   3.780
 6674TIP3    H119965   4.121   6.098   3.777
 6674TIP3    H219966   4.026   6.211   3.813
 6675TIP3   OH219967   1.898   6.772   5.536
 6675TIP3    H119968   1.919   6.760   5.444
 6675TIP3    H219969   1.847   6.694   5.559
 6676TIP3   OH219970   1.624   2.535   5.713
 6676TIP3    H119971   1.600   2.622   5.684
 6676TIP3    H219972   1.666   2.494   5.637
 6677TIP3   OH219973   3.058   7.270   3.915
 6677TIP3    H119974   2.971   7.310   3.909
 6677TIP3    H219975   3.118   7.344   3.919
 6678TIP3   OH219976   1.397   4.420   5.091
 6678TIP3    H119977   1.452   4.493   5.065
 6678TIP3    H219978   1.369   4.380   5.008
 6679TIP3   OH219979   3.773   0.866   4.628
 6679TIP3    H119980   3.679   0.884   4.631
 6679TIP3    H219981   3.798   0.881   4.537
 6680TIP3   OH219982   6.017   6.965   5.168
 6680TIP3    H119983   6.090   6.966   5.106
 6680TIP3    H219984   5.941   6.994   5.116
 6681TIP3   OH219985   5.181   1.762   4.593
 6681TIP3    H119986   5.163   1.676   4.629
 6681TIP3    H219987   5.242   1.802   4.656
 6682TIP3   OH219988   1.521   1.683   0.192
 6682TIP3    H119989   1.436   1.644   0.174
 6682TIP3    H219990   1.583   1.630   0.141
 6683TIP3   OH219991   7.966   5.701   5.343
 6683TIP3    H119992   7.897   5.636   5.358
 6683TIP3    H219993   7.927   5.784   5.371
 6684TIP3   OH219994   5.974   3.374   3.749
 6684TIP3    H119995   6.004   3.415   3.668
 6684TIP3    H219996   6.050   3.377   3.807
 6685TIP3   OH219997   2.443   5.486   6.318
 6685TIP3    H119998   2.349   5.486   6.336
 6685TIP3    H219999   2.459   5.403   6.273
 6686TIP3   OH220000   7.549   2.243   3.053
 6686TIP3    H120001   7.523   2.157   3.086
 6686TIP3    H220002   7.471   2.297   3.065
 6687TIP3   OH220003   4.093   5.771   5.977
 6687TIP3    H120004   4.070   5.710   5.906
 6687TIP3    H220005   4.163   5.825   5.940
 6688TIP3   OH220006   8.125   6.920   3.978
 6688TIP3    H120007   8.173   6.927   3.895
 6688TIP3    H220008   8.100   7.010   3.999
 6689TIP3   OH220009   2.198   5.307   0.039
 6689TIP3    H120010   2.231   5.218   0.051
 6689TIP3    H220011   2.244   5.359   0.105
 6690TIP3   OH220012   1.369   7.009   4.774
 6690TIP3    H120013   1.455   6.967   4.773
 6690TIP3    H220014   1.375   7.075   4.843
 6691TIP3   OH220015   0.178   4.332   2.474
 6691TIP3    H120016   0.236   4.300   2.543
 6691TIP3    H220017   0.160   4.255   2.421
 6692TIP3   OH220018   4.778   1.338   6.130
 6692TIP3    H120019   4.723   1.278   6.181
 6692TIP3    H220020   4.750   1.323   6.039
 6693TIP3   OH220021   0.266   7.375   4.765
 6693TIP3    H120022   0.172   7.389   4.769
 6693TIP3    H220023   0.293   7.411   4.680
 6694TIP3   OH220024   5.760   5.652   4.449
 6694TIP3    H120025   5.748   5.574   4.394
 6694TIP3    H220026   5.696   5.641   4.519
 6695TIP3   OH220027   8.148   2.891   5.122
 6695TIP3    H120028   8.063   2.864   5.089
 6695TIP3    H220029   8.190   2.935   5.048
 6696TIP3   OH220030   5.766   0.541   6.342
 6696TIP3    H120031   5.769   0.595   6.263
 6696TIP3    H220032   5.686   0.490   6.333
 6697TIP3   OH220033   1.957   2.556   4.362
 6697TIP3    H120034   1.948   2.651   4.370
 6697TIP3    H220035   1.970   2.525   4.452
 6698TIP3   OH220036   3.185   1.318   1.505
 6698TIP3    H120037   3.106   1.291   1.458
 6698TIP3    H220038   3.191   1.412   1.489
 6699TIP3   OH220039   0.812   3.539   0.743
 6699TIP3    H120040   0.770   3.618   0.779
 6699TIP3    H220041   0.809   3.476   0.815
 6700TIP3   OH220042   1.044   4.937   5.264
 6700TIP3    H120043   1.000   4.887   5.195
 6700TIP3    H220044   0.973   4.979   5.313
 6701TIP3   OH220045   1.929   2.860   5.530
 6701TIP3    H120046   1.863   2.918   5.492
 6701TIP3    H220047   1.974   2.823   5.454
 6702TIP3   OH220048   8.057   7.188   3.705
 6702TIP3    H120049   7.991   7.194   3.636
 6702TIP3    H220050   8.121   7.255   3.683
 6703TIP3   OH220051   1.644   3.161   4.522
 6703TIP3    H120052   1.586   3.170   4.447
 6703TIP3    H220053   1.650   3.249   4.559
 6704TIP3   OH220054   3.512   4.774   2.879
 6704TIP3    H120055   3.529   4.711   2.949
 6704TIP3    H220056   3.540   4.729   2.799
 6705TIP3   OH220057   1.200   4.319   5.277
 6705TIP3    H120058   1.272   4.368   5.238
 6705TIP3    H220059   1.131   4.322   5.211
 6706TIP3   OH220060   1.850   6.268   2.102
 6706TIP3    H120061   1.915   6.201   2.123
 6706TIP3    H220062   1.874   6.298   2.015
 6707TIP3   OH220063   5.010   2.696   1.457
 6707TIP3    H120064   5.023   2.680   1.550
 6707TIP3    H220065   5.077   2.760   1.434
 6708TIP3   OH220066   4.064   3.245   3.657
 6708TIP3    H120067   4.145   3.269   3.702
 6708TIP3    H220068   4.036   3.326   3.614
 6709TIP3   OH220069   1.446   5.607   5.163
 6709TIP3    H120070   1.422   5.521   5.198
 6709TIP3    H220071   1.524   5.632   5.213
 6710TIP3   OH220072   6.989   4.198   1.221
 6710TIP3    H120073   7.068   4.247   1.201
 6710TIP3    H220074   7.010   4.149   1.301
 6711TIP3   OH220075   4.398   3.965   2.819
 6711TIP3    H120076   4.320   4.017   2.802
 6711TIP3    H220077   4.447   3.966   2.737
 6712TIP3   OH220078   8.161   6.331   3.101
 6712TIP3    H120079   8.197   6.286   3.177
 6712TIP3    H220080   8.072   6.356   3.127
 6713TIP3   OH220081   6.278   2.413   2.928
 6713TIP3    H120082   6.270   2.406   3.023
 6713TIP3    H220083   6.294   2.323   2.898
 6714TIP3   OH220084   0.936   0.886   6.419
 6714TIP3    H120085   0.942   0.808   6.474
 6714TIP3    H220086   0.892   0.952   6.474
 6715TIP3   OH220087   5.895   6.379   1.004
 6715TIP3    H120088   5.976   6.418   1.036
 6715TIP3    H220089   5.835   6.384   1.079
 6716TIP3   OH220090   0.400   4.849   4.675
 6716TIP3    H120091   0.367   4.925   4.722
 6716TIP3    H220092   0.436   4.792   4.743
 6717TIP3   OH220093   6.267   5.229   5.832
 6717TIP3    H120094   6.283   5.252   5.923
 6717TIP3    H220095   6.347   5.185   5.803
 6718TIP3   OH220096   5.843   4.628   5.146
 6718TIP3    H120097   5.859   4.544   5.103
 6718TIP3    H220098   5.778   4.672   5.091
 6719TIP3   OH220099   4.370   2.234   6.375
 6719TIP3    H120100   4.450   2.186   6.356
 6719TIP3    H220101   4.369   2.243   6.471
 6720TIP3   OH220102   5.730   1.592   6.714
 6720TIP3    H120103   5.668   1.592   6.786
 6720TIP3    H220104   5.739   1.500   6.689
 6721TIP3   OH220105   1.162   4.338   3.463
 6721TIP3    H120106   1.098   4.330   3.393
 6721TIP3    H220107   1.246   4.321   3.421
 6722TIP3   OH220108   7.896   1.810   0.679
 6722TIP3    H120109   7.840   1.799   0.602
 6722TIP3    H220110   7.915   1.904   0.682
 6723TIP3   OH220111   3.109   5.321   0.564
 6723TIP3    H120112   3.128   5.304   0.656
 6723TIP3    H220113   3.081   5.237   0.529
 6724TIP3   OH220114   3.120   5.609   3.036
 6724TIP3    H120115   3.059   5.536   3.027
 6724TIP3    H220116   3.078   5.682   2.991
 6725TIP3   OH220117   7.382   1.004   2.435
 6725TIP3    H120118   7.404   0.912   2.453
 6725TIP3    H220119   7.353   1.004   2.344
 6726TIP3   OH220120   7.003   4.444   1.495
 6726TIP3    H120121   7.039   4.466   1.581
 6726TIP3    H220122   7.063   4.485   1.433
 6727TIP3   OH220123   7.858   1.799   0.313
 6727TIP3    H120124   7.884   1.710   0.290
 6727TIP3    H220125   7.808   1.829   0.237
 6728TIP3   OH220126   7.284   5.572   5.381
 6728TIP3    H120127   7.350   5.523   5.332
 6728TIP3    H220128   7.290   5.536   5.470
 6729TIP3   OH220129   7.269   0.834   0.121
 6729TIP3    H120130   7.196   0.814   0.062
 6729TIP3    H220131   7.266   0.764   0.187
 6730TIP3   OH220132   6.805   2.058   5.363
 6730TIP3    H120133   6.749   2.128   5.397
 6730TIP3    H220134   6.844   2.019   5.442
 6731TIP3   OH220135   1.229   4.612   2.967
 6731TIP3    H120136   1.240   4.634   3.060
 6731TIP3    H220137   1.309   4.566   2.944
 6732TIP3   OH220138   7.252   1.643   1.508
 6732TIP3    H120139   7.218   1.577   1.449
 6732TIP3    H220140   7.342   1.615   1.528
 6733TIP3   OH220141   6.742   0.723   5.800
 6733TIP3    H120142   6.732   0.683   5.887
 6733TIP3    H220143   6.657   0.710   5.758
 6734TIP3   OH220144   5.701   6.083   6.755
 6734TIP3    H120145   5.757   6.142   6.705
 6734TIP3    H220146   5.641   6.045   6.691
 6735TIP3   OH220147   2.247   0.036   6.514
 6735TIP3    H120148   2.270   0.067   6.602
 6735TIP3    H220149   2.302   0.088   6.455
 6736TIP3   OH220150   6.946   2.638   2.454
 6736TIP3    H120151   7.028   2.623   2.501
 6736TIP3    H220152   6.934   2.560   2.400
 6737TIP3   OH220153   6.782   1.147   2.774
 6737TIP3    H120154   6.830   1.215   2.726
 6737TIP3    H220155   6.692   1.180   2.778
 6738TIP3   OH220156   3.443   7.675   3.860
 6738TIP3    H120157   3.386   7.708   3.929
 6738TIP3    H220158   3.383   7.653   3.788
 6739TIP3   OH220159   7.927   3.630   1.585
 6739TIP3    H120160   7.833   3.651   1.580
 6739TIP3    H220161   7.965   3.679   1.512
 6740TIP3   OH220162   6.020   1.222   3.484
 6740TIP3    H120163   6.105   1.217   3.440
 6740TIP3    H220164   6.002   1.316   3.489
 6741TIP3   OH220165   6.047   6.230   4.987
 6741TIP3    H120166   6.020   6.159   5.045
 6741TIP3    H220167   5.970   6.287   4.981
 6742TIP3   OH220168   0.965   2.531   2.040
 6742TIP3    H120169   0.953   2.609   1.985
 6742TIP3    H220170   1.059   2.515   2.040
 6743TIP3   OH220171   6.207   7.409   1.602
 6743TIP3    H120172   6.115   7.394   1.578
 6743TIP3    H220173   6.211   7.388   1.695
 6744TIP3   OH220174   5.122   4.258   2.086
 6744TIP3    H120175   5.198   4.301   2.046
 6744TIP3    H220176   5.151   4.237   2.175
 6745TIP3   OH220177   5.229   4.923   2.914
 6745TIP3    H120178   5.178   5.003   2.901
 6745TIP3    H220179   5.185   4.878   2.986
 6746TIP3   OH220180   0.892   2.005   2.681
 6746TIP3    H120181   0.807   1.974   2.651
 6746TIP3    H220182   0.882   2.100   2.688
 6747TIP3   OH220183   6.390   0.352   0.258
 6747TIP3    H120184   6.305   0.333   0.298
 6747TIP3    H220185   6.427   0.422   0.311
 6748TIP3   OH220186   7.203   0.180   1.734
 6748TIP3    H120187   7.264   0.251   1.714
 6748TIP3    H220188   7.133   0.189   1.669
 6749TIP3   OH220189   5.790   0.602   5.613
 6749TIP3    H120190   5.884   0.621   5.614
 6749TIP3    H220191   5.774   0.570   5.524
 6750TIP3   OH220192   0.368   3.757   3.560
 6750TIP3    H120193   0.363   3.774   3.654
 6750TIP3    H220194   0.363   3.661   3.553
 6751TIP3   OH220195   5.743   4.597   2.727
 6751TIP3    H120196   5.657   4.557   2.737
 6751TIP3    H220197   5.733   4.658   2.655
 6752TIP3   OH220198   3.911   6.390   0.510
 6752TIP3    H120199   3.882   6.299   0.510
 6752TIP3    H220200   3.832   6.441   0.523
 6753TIP3   OH220201   4.787   2.512   3.453
 6753TIP3    H120202   4.709   2.495   3.400
 6753TIP3    H220203   4.752   2.546   3.536
 6754TIP3   OH220204   6.149   3.484   3.069
 6754TIP3    H120205   6.063   3.524   3.073
 6754TIP3    H220206   6.199   3.526   3.139
 6755TIP3   OH220207   1.283   4.517   4.128
 6755TIP3    H120208   1.255   4.584   4.066
 6755TIP3    H220209   1.372   4.495   4.102
 6756TIP3   OH220210   4.675   2.018   2.381
 6756TIP3    H120211   4.687   2.029   2.287
 6756TIP3    H220212   4.762   1.998   2.414
 6757TIP3   OH220213   0.002   7.656   1.647
 6757TIP3    H120214   0.063   7.588   1.618
 6757TIP3    H220215  -0.053   7.612   1.712
 6758TIP3   OH220216   5.436   1.436   5.318
 6758TIP3    H120217   5.407   1.420   5.229
 6758TIP3    H220218   5.382   1.509   5.348
 6759TIP3   OH220219   7.845   7.572   0.970
 6759TIP3    H120220   7.901   7.649   0.968
 6759TIP3    H220221   7.774   7.595   1.030
 6760TIP3   OH220222   4.219   2.749   2.128
 6760TIP3    H120223   4.199   2.835   2.165
 6760TIP3    H220224   4.168   2.688   2.181
 6761TIP3   OH220225   7.822   3.933   6.040
 6761TIP3    H120226   7.756   3.894   5.982
 6761TIP3    H220227   7.771   3.985   6.101
 6762TIP3   OH220228   7.245   7.867   4.057
 6762TIP3    H120229   7.306   7.861   4.131
 6762TIP3    H220230   7.161   7.889   4.098
 6763TIP3   OH220231   4.225   0.819   3.003
 6763TIP3    H120232   4.237   0.911   2.981
 6763TIP3    H220233   4.303   0.776   2.969
 6764TIP3   OH220234   2.394   2.868   2.881
 6764TIP3    H120235   2.372   2.859   2.789
 6764TIP3    H220236   2.398   2.778   2.914
 6765TIP3   OH220237   5.534   3.258   3.496
 6765TIP3    H120238   5.493   3.225   3.576
 6765TIP3    H220239   5.555   3.349   3.515
 6766TIP3   OH220240   7.349   0.067   5.117
 6766TIP3    H120241   7.298   0.146   5.132
 6766TIP3    H220242   7.342   0.051   5.023
 6767TIP3   OH220243   0.598   3.322   3.211
 6767TIP3    H120244   0.503   3.325   3.207
 6767TIP3    H220245   0.620   3.230   3.226
 6768TIP3   OH220246   2.384   0.234   6.348
 6768TIP3    H120247   2.397   0.175   6.273
 6768TIP3    H220248   2.450   0.303   6.336
 6769TIP3   OH220249   5.384   2.603   1.142
 6769TIP3    H120250   5.319   2.588   1.210
 6769TIP3    H220251   5.359   2.544   1.071
 6770TIP3   OH220252   2.156   1.739   2.145
 6770TIP3    H120253   2.237   1.753   2.193
 6770TIP3    H220254   2.182   1.693   2.065
 6771TIP3   OH220255   3.711   4.112   1.439
 6771TIP3    H120256   3.795   4.068   1.422
 6771TIP3    H220257   3.736   4.195   1.480
 6772TIP3   OH220258   7.267   6.082   0.194
 6772TIP3    H120259   7.315   6.159   0.163
 6772TIP3    H220260   7.325   6.008   0.176
 6773TIP3   OH220261   5.245   2.027   4.435
 6773TIP3    H120262   5.210   1.966   4.500
 6773TIP3    H220263   5.210   2.112   4.461
 6774TIP3   OH220264   2.194   6.551   0.327
 6774TIP3    H120265   2.152   6.518   0.247
 6774TIP3    H220266   2.273   6.498   0.335
 6775TIP3   OH220267   2.898   3.183   2.840
 6775TIP3    H120268   2.908   3.246   2.769
 6775TIP3    H220269   2.805   3.187   2.863
 6776TIP3   OH220270   5.513   7.073   2.703
 6776TIP3    H120271   5.551   6.995   2.662
 6776TIP3    H220272   5.550   7.074   2.791
 6777TIP3   OH220273   7.515   5.913   3.259
 6777TIP3    H120274   7.516   5.944   3.349
 6777TIP3    H220275   7.590   5.956   3.218
 6778TIP3   OH220276   4.625   2.891   1.702
 6778TIP3    H120277   4.653   2.965   1.649
 6778TIP3    H220278   4.576   2.930   1.774
 6779TIP3   OH220279   6.393   7.410   6.401
 6779TIP3    H120280   6.325   7.345   6.419
 6779TIP3    H220281   6.385   7.428   6.307
 6780TIP3   OH220282   7.898   1.846   6.171
 6780TIP3    H120283   7.850   1.888   6.099
 6780TIP3    H220284   7.830   1.805   6.224
 6781TIP3   OH220285   2.996   5.020   1.166
 6781TIP3    H120286   2.980   5.018   1.260
 6781TIP3    H220287   3.089   5.043   1.158
 6782TIP3   OH220288   0.945   4.263   1.877
 6782TIP3    H120289   0.897   4.238   1.957
 6782TIP3    H220290   0.880   4.307   1.823
 6783TIP3   OH220291   2.554   0.539   3.226
 6783TIP3    H120292   2.474   0.554   3.277
 6783TIP3    H220293   2.545   0.597   3.151
 6784TIP3   OH220294   2.598   0.409   6.302
 6784TIP3    H120295   2.608   0.405   6.207
 6784TIP3    H220296   2.658   0.343   6.336
 6785TIP3   OH220297   0.762   5.299   5.391
 6785TIP3    H120298   0.774   5.365   5.323
 6785TIP3    H220299   0.768   5.349   5.473
 6786TIP3   OH220300   4.361   5.898   4.048
 6786TIP3    H120301   4.362   5.990   4.073
 6786TIP3    H220302   4.453   5.871   4.053
 6787TIP3   OH220303   5.379   3.707   3.225
 6787TIP3    H120304   5.439   3.649   3.179
 6787TIP3    H220305   5.292   3.678   3.199
 6788TIP3   OH220306   6.052   6.850   1.365
 6788TIP3    H120307   5.957   6.858   1.361
 6788TIP3    H220308   6.080   6.923   1.420
 6789TIP3   OH220309   3.718   5.058   3.829
 6789TIP3    H120310   3.738   4.965   3.817
 6789TIP3    H220311   3.773   5.085   3.902
 6790TIP3   OH220312   5.754   6.560   2.489
 6790TIP3    H120313   5.770   6.473   2.453
 6790TIP3    H220314   5.839   6.604   2.486
 6791TIP3   OH220315   3.449   2.710   2.020
 6791TIP3    H120316   3.478   2.734   2.108
 6791TIP3    H220317   3.356   2.733   2.018
 6792TIP3   OH220318   6.106   2.503   6.675
 6792TIP3    H120319   6.144   2.591   6.685
 6792TIP3    H220320   6.147   2.469   6.596
 6793TIP3   OH220321   6.079   3.544   0.335
 6793TIP3    H120322   6.055   3.619   0.389
 6793TIP3    H220323   6.048   3.468   0.385
 6794TIP3   OH220324   6.860   0.557   2.423
 6794TIP3    H120325   6.944   0.579   2.382
 6794TIP3    H220326   6.813   0.640   2.430
 6795TIP3   OH220327   4.061   5.360   3.427
 6795TIP3    H120328   3.982   5.382   3.477
 6795TIP3    H220329   4.131   5.411   3.469
 6796TIP3   OH220330   4.604   0.522   0.638
 6796TIP3    H120331   4.641   0.587   0.697
 6796TIP3    H220332   4.602   0.564   0.552
 6797TIP3   OH220333   0.416   5.259   3.872
 6797TIP3    H120334   0.358   5.221   3.806
 6797TIP3    H220335   0.503   5.230   3.847
 6798TIP3   OH220336   4.652   1.096   0.520
 6798TIP3    H120337   4.681   1.176   0.563
 6798TIP3    H220338   4.670   1.109   0.427
 6799TIP3   OH220339   5.154   5.304   1.211
 6799TIP3    H120340   5.228   5.295   1.271
 6799TIP3    H220341   5.135   5.398   1.210
 6800TIP3   OH220342   0.734   6.828   3.272
 6800TIP3    H120343   0.783   6.910   3.264
 6800TIP3    H220344   0.786   6.775   3.332
 6801TIP3   OH220345   0.854   5.029   6.448
 6801TIP3    H120346   0.795   5.080   6.504
 6801TIP3    H220347   0.797   4.964   6.407
 6802TIP3   OH220348   5.350   3.669   6.592
 6802TIP3    H120349   5.349   3.753   6.546
 6802TIP3    H220350   5.384   3.607   6.527
 6803TIP3   OH220351   0.841   7.782   2.151
 6803TIP3    H120352   0.881   7.702   2.186
 6803TIP3    H220353   0.861   7.781   2.058
 6804TIP3   OH220354   2.474   7.030   3.190
 6804TIP3    H120355   2.392   7.030   3.239
 6804TIP3    H220356   2.522   6.954   3.224
 6805TIP3   OH220357   4.621   0.837   2.677
 6805TIP3    H120358   4.626   0.904   2.609
 6805TIP3    H220359   4.598   0.885   2.756
 6806TIP3   OH220360   2.800   5.190   6.115
 6806TIP3    H120361   2.786   5.233   6.031
 6806TIP3    H220362   2.836   5.259   6.171
 6807TIP3   OH220363   2.062   2.124   4.061
 6807TIP3    H120364   2.049   2.087   3.974
 6807TIP3    H220365   2.153   2.156   4.060
 6808TIP3   OH220366   4.969   5.500   2.758
 6808TIP3    H120367   5.040   5.480   2.819
 6808TIP3    H220368   4.990   5.587   2.724
 6809TIP3   OH220369   1.835   6.109   2.341
 6809TIP3    H120370   1.791   6.039   2.389
 6809TIP3    H220371   1.771   6.139   2.277
 6810TIP3   OH220372   6.856   3.923   3.839
 6810TIP3    H120373   6.812   3.973   3.907
 6810TIP3    H220374   6.876   3.839   3.880
 6811TIP3   OH220375   0.217   1.818   6.260
 6811TIP3    H120376   0.271   1.848   6.334
 6811TIP3    H220377   0.238   1.725   6.252
 6812TIP3   OH220378   5.299   4.114   5.683
 6812TIP3    H120379   5.330   4.173   5.752
 6812TIP3    H220380   5.355   4.134   5.608
 6813TIP3   OH220381   5.195   5.910   5.268
 6813TIP3    H120382   5.152   5.886   5.349
 6813TIP3    H220383   5.155   5.853   5.201
 6814TIP3   OH220384   7.885   0.460   0.539
 6814TIP3    H120385   7.914   0.416   0.619
 6814TIP3    H220386   7.811   0.514   0.566
 6815TIP3   OH220387   6.530   6.765   4.709
 6815TIP3    H120388   6.624   6.773   4.693
 6815TIP3    H220389   6.514   6.670   4.709
 6816TIP3   OH220390   3.370   6.279   5.770
 6816TIP3    H120391   3.429   6.235   5.709
 6816TIP3    H220392   3.358   6.367   5.734
 6817TIP3   OH220393   6.185   6.613   1.250
 6817TIP3    H120394   6.108   6.666   1.272
 6817TIP3    H220395   6.243   6.622   1.326
 6818TIP3   OH220396   6.895   0.485   6.489
 6818TIP3    H120397   6.899   0.415   6.554
 6818TIP3    H220398   6.954   0.456   6.419
 6819TIP3   OH220399   8.154   5.624   0.154
 6819TIP3    H120400   8.200   5.543   0.134
 6819TIP3    H220401   8.205   5.692   0.111
 6820TIP3   OH220402   1.105   2.700   3.741
 6820TIP3    H120403   1.034   2.636   3.748
 6820TIP3    H220404   1.172   2.669   3.802
 6821TIP3   OH220405   6.414   4.205   5.574
 6821TIP3    H120406   6.348   4.141   5.549
 6821TIP3    H220407   6.385   4.287   5.535
 6822TIP3   OH220408   3.634   1.187   4.532
 6822TIP3    H120409   3.542   1.163   4.528
 6822TIP3    H220410   3.650   1.207   4.625
 6823TIP3   OH220411   2.897   2.172   4.290
 6823TIP3    H120412   2.837   2.154   4.218
 6823TIP3    H220413   2.866   2.117   4.361
 6824TIP3   OH220414   1.156   5.113   5.479
 6824TIP3    H120415   1.236   5.089   5.525
 6824TIP3    H220416   1.162   5.068   5.395
 6825TIP3   OH220417   3.797   3.695   1.605
 6825TIP3    H120418   3.831   3.610   1.633
 6825TIP3    H220419   3.794   3.748   1.684
 6826TIP3   OH220420   1.638   2.354   6.566
 6826TIP3    H120421   1.680   2.340   6.651
 6826TIP3    H220422   1.573   2.423   6.583
 6827TIP3   OH220423   5.549   2.880   5.450
 6827TIP3    H120424   5.454   2.879   5.461
 6827TIP3    H220425   5.578   2.959   5.496
 6828TIP3   OH220426   1.824   2.035   0.672
 6828TIP3    H120427   1.841   1.968   0.738
 6828TIP3    H220428   1.815   2.117   0.721
 6829TIP3   OH220429   5.141   2.291   6.726
 6829TIP3    H120430   5.059   2.286   6.776
 6829TIP3    H220431   5.167   2.383   6.732
 6830TIP3   OH220432   3.275   4.211   6.590
 6830TIP3    H120433   3.315   4.202   6.676
 6830TIP3    H220434   3.291   4.126   6.548
 6831TIP3   OH220435   3.021   3.872   0.430
 6831TIP3    H120436   3.013   3.838   0.341
 6831TIP3    H220437   3.008   3.966   0.421
 6832TIP3   OH220438   3.953   2.910   3.470
 6832TIP3    H120439   3.910   2.917   3.385
 6832TIP3    H220440   3.883   2.885   3.530
 6833TIP3   OH220441   4.242   1.591   5.860
 6833TIP3    H120442   4.182   1.538   5.808
 6833TIP3    H220443   4.263   1.666   5.804
 6834TIP3   OH220444   1.946   0.138   5.131
 6834TIP3    H120445   1.907   0.220   5.160
 6834TIP3    H220446   1.931   0.077   5.203
 6835TIP3   OH220447   0.520   0.467   0.170
 6835TIP3    H120448   0.428   0.449   0.189
 6835TIP3    H220449   0.568   0.414   0.233
 6836TIP3   OH220450   1.997   4.736   2.283
 6836TIP3    H120451   2.005   4.760   2.190
 6836TIP3    H220452   2.087   4.725   2.312
 6837TIP3   OH220453   6.875   0.835   6.219
 6837TIP3    H120454   6.844   0.746   6.232
 6837TIP3    H220455   6.935   0.830   6.144
 6838TIP3   OH220456   5.370   2.105   2.178
 6838TIP3    H120457   5.310   2.039   2.144
 6838TIP3    H220458   5.318   2.154   2.241
 6839TIP3   OH220459   5.431   3.025   1.294
 6839TIP3    H120460   5.516   2.983   1.289
 6839TIP3    H220461   5.439   3.102   1.237
 6840TIP3   OH220462   4.913   4.718   1.852
 6840TIP3    H120463   4.851   4.711   1.779
 6840TIP3    H220464   4.970   4.641   1.842
 6841TIP3   OH220465   7.867   7.454   6.618
 6841TIP3    H120466   7.959   7.444   6.642
 6841TIP3    H220467   7.854   7.389   6.549
 6842TIP3   OH220468   0.501   5.822   1.940
 6842TIP3    H120469   0.558   5.785   2.008
 6842TIP3    H220470   0.471   5.905   1.976
 6843TIP3   OH220471   0.740   6.043   0.780
 6843TIP3    H120472   0.731   6.098   0.857
 6843TIP3    H220473   0.833   6.020   0.778
 6844TIP3   OH220474   8.219   2.308   2.832
 6844TIP3    H120475   8.135   2.274   2.800
 6844TIP3    H220476   8.204   2.323   2.925
 6845TIP3   OH220477   0.926   7.559   1.566
 6845TIP3    H120478   0.975   7.516   1.495
 6845TIP3    H220479   0.854   7.498   1.584
 6846TIP3   OH220480   6.353   5.687   6.726
 6846TIP3    H120481   6.332   5.735   6.806
 6846TIP3    H220482   6.319   5.741   6.656
 6847TIP3   OH220483   2.881   1.791   4.204
 6847TIP3    H120484   2.918   1.781   4.292
 6847TIP3    H220485   2.806   1.731   4.203
 6848TIP3   OH220486   2.172   4.601   1.511
 6848TIP3    H120487   2.102   4.624   1.451
 6848TIP3    H220488   2.252   4.622   1.464
 6849TIP3   OH220489   3.734   4.374   6.327
 6849TIP3    H120490   3.663   4.309   6.332
 6849TIP3    H220491   3.705   4.435   6.260
 6850TIP3   OH220492   6.071   7.754   2.242
 6850TIP3    H120493   6.048   7.795   2.326
 6850TIP3    H220494   6.162   7.778   2.229
 6851TIP3   OH220495   6.399   7.337   0.778
 6851TIP3    H120496   6.473   7.375   0.825
 6851TIP3    H220497   6.438   7.275   0.716
 6852TIP3   OH220498   5.050   0.871   6.518
 6852TIP3    H120499   5.001   0.903   6.594
 6852TIP3    H220500   5.060   0.947   6.461
 6853TIP3   OH220501   8.091   6.521   2.120
 6853TIP3    H120502   8.080   6.554   2.031
 6853TIP3    H220503   8.059   6.591   2.177
 6854TIP3   OH220504   4.999   2.138   3.212
 6854TIP3    H120505   5.064   2.070   3.232
 6854TIP3    H220506   4.967   2.166   3.298
 6855TIP3   OH220507   3.759   0.735   3.010
 6855TIP3    H120508   3.731   0.797   3.077
 6855TIP3    H220509   3.759   0.787   2.929
 6856TIP3   OH220510   7.410   5.134   6.658
 6856TIP3    H120511   7.326   5.156   6.697
 6856TIP3    H220512   7.471   5.200   6.691
 6857TIP3   OH220513   1.142   2.466   0.052
 6857TIP3    H120514   1.075   2.478   0.120
 6857TIP3    H220515   1.140   2.372   0.033
 6858TIP3   OH220516   2.481   0.188   4.013
 6858TIP3    H120517   2.525   0.104   3.999
 6858TIP3    H220518   2.447   0.182   4.102
 6859TIP3   OH220519   4.460   3.503   3.089
 6859TIP3    H120520   4.386   3.444   3.100
 6859TIP3    H220521   4.518   3.484   3.162
 6860TIP3   OH220522   8.236   2.718   6.331
 6860TIP3    H120523   8.300   2.670   6.279
 6860TIP3    H220524   8.228   2.802   6.287
 6861TIP3   OH220525   6.290   7.402   5.371
 6861TIP3    H120526   6.281   7.310   5.395
 6861TIP3    H220527   6.348   7.440   5.437
 6862TIP3   OH220528   4.848   3.057   5.499
 6862TIP3    H120529   4.786   3.000   5.544
 6862TIP3    H220530   4.840   3.142   5.543
 6863TIP3   OH220531   1.543   3.096   0.717
 6863TIP3    H120532   1.512   3.159   0.652
 6863TIP3    H220533   1.481   3.024   0.713
 6864TIP3   OH220534   4.138   7.304   5.176
 6864TIP3    H120535   4.189   7.385   5.168
 6864TIP3    H220536   4.047   7.333   5.170
 6865TIP3   OH220537   4.550   7.331   2.114
 6865TIP3    H120538   4.501   7.313   2.194
 6865TIP3    H220539   4.600   7.251   2.098
 6866TIP3   OH220540   3.633   3.171   6.167
 6866TIP3    H120541   3.549   3.161   6.212
 6866TIP3    H220542   3.696   3.129   6.226
 6867TIP3   OH220543   7.710   2.856   2.296
 6867TIP3    H120544   7.800   2.827   2.281
 6867TIP3    H220545   7.671   2.787   2.348
 6868TIP3   OH220546   2.916   3.100   4.717
 6868TIP3    H120547   2.960   3.185   4.723
 6868TIP3    H220548   2.975   3.039   4.761
 6869TIP3   OH220549   2.697   3.049   2.399
 6869TIP3    H120550   2.617   3.098   2.414
 6869TIP3    H220551   2.743   3.051   2.483
 6870TIP3   OH220552   5.292  -0.016   4.242
 6870TIP3    H120553   5.345   0.039   4.184
 6870TIP3    H220554   5.277   0.038   4.319
 6871TIP3   OH220555   5.003   4.193   5.372
 6871TIP3    H120556   5.052   4.112   5.386
 6871TIP3    H220557   5.067   4.263   5.386
 6872TIP3   OH220558   1.573   4.035   1.025
 6872TIP3    H120559   1.639   3.966   1.039
 6872TIP3    H220560   1.540   4.053   1.113
 6873TIP3   OH220561   3.120   1.981   0.944
 6873TIP3    H120562   3.045   1.974   0.886
 6873TIP3    H220563   3.082   1.985   1.032
 6874TIP3   OH220564   3.192   0.476   6.523
 6874TIP3    H120565   3.145   0.528   6.589
 6874TIP3    H220566   3.186   0.529   6.443
 6875TIP3   OH220567   3.816   7.854   1.193
 6875TIP3    H120568   3.784   7.929   1.144
 6875TIP3    H220569   3.885   7.889   1.249
 6876TIP3   OH220570   7.130   4.052   1.411
 6876TIP3    H120571   7.201   4.113   1.428
 6876TIP3    H220572   7.135   3.988   1.481
 6877TIP3   OH220573   5.828   2.714   1.449
 6877TIP3    H120574   5.922   2.709   1.430
 6877TIP3    H220575   5.797   2.625   1.434
 6878TIP3   OH220576   5.306   6.899   3.929
 6878TIP3    H120577   5.312   6.889   3.834
 6878TIP3    H220578   5.316   6.810   3.963
 6879TIP3   OH220579   4.317   4.669   0.942
 6879TIP3    H120580   4.399   4.635   0.907
 6879TIP3    H220581   4.281   4.597   0.993
 6880TIP3   OH220582   2.035   6.140   4.595
 6880TIP3    H120583   2.079   6.142   4.680
 6880TIP3    H220584   2.101   6.171   4.534
 6881TIP3   OH220585   0.620   1.759   5.306
 6881TIP3    H120586   0.559   1.816   5.258
 6881TIP3    H220587   0.572   1.735   5.385
 6882TIP3   OH220588   3.265   2.812   1.423
 6882TIP3    H120589   3.169   2.820   1.424
 6882TIP3    H220590   3.295   2.884   1.478
 6883TIP3   OH220591   4.275   5.203   6.561
 6883TIP3    H120592   4.223   5.280   6.583
 6883TIP3    H220593   4.364   5.236   6.550
 6884TIP3   OH220594   4.574   1.788   5.807
 6884TIP3    H120595   4.505   1.739   5.762
 6884TIP3    H220596   4.582   1.743   5.892
 6885TIP3   OH220597   6.655   1.253   6.168
 6885TIP3    H120598   6.695   1.170   6.143
 6885TIP3    H220599   6.561   1.236   6.166
 6886TIP3   OH220600   5.538   2.453   4.598
 6886TIP3    H120601   5.548   2.426   4.689
 6886TIP3    H220602   5.621   2.496   4.577
 6887TIP3   OH220603   4.200   5.012   6.386
 6887TIP3    H120604   4.224   5.077   6.453
 6887TIP3    H220605   4.280   4.962   6.371
 6888TIP3   OH220606   5.976   7.016   1.146
 6888TIP3    H120607   5.991   6.958   1.221
 6888TIP3    H220608   6.048   6.996   1.086
 6889TIP3   OH220609   2.837   4.568   3.158
 6889TIP3    H120610   2.774   4.599   3.223
 6889TIP3    H220611   2.863   4.482   3.189
 6890TIP3   OH220612   4.757   6.204   2.336
 6890TIP3    H120613   4.820   6.276   2.339
 6890TIP3    H220614   4.689   6.230   2.398
 6891TIP3   OH220615   0.310   5.918   3.949
 6891TIP3    H120616   0.273   5.897   3.863
 6891TIP3    H220617   0.362   5.842   3.972
 6892TIP3   OH220618   0.295   1.477   4.284
 6892TIP3    H120619   0.225   1.426   4.325
 6892TIP3    H220620   0.250   1.548   4.239
 6893TIP3   OH220621   6.864   4.009   1.835
 6893TIP3    H120622   6.849   4.023   1.742
 6893TIP3    H220623   6.935   3.944   1.838
 6894TIP3   OH220624   0.309   0.530   2.347
 6894TIP3    H120625   0.336   0.591   2.278
 6894TIP3    H220626   0.214   0.538   2.351
 6895TIP3   OH220627   4.425   2.723   4.643
 6895TIP3    H120628   4.502   2.779   4.649
 6895TIP3    H220629   4.440   2.654   4.708
 6896TIP3   OH220630   0.909   7.302   6.595
 6896TIP3    H120631   0.914   7.397   6.583
 6896TIP3    H220632   0.829   7.289   6.645
 6897TIP3   OH220633   5.563   7.411   0.198
 6897TIP3    H120634   5.576   7.353   0.123
 6897TIP3    H220635   5.495   7.369   0.250
 6898TIP3   OH220636   5.884   3.631   6.381
 6898TIP3    H120637   5.901   3.563   6.447
 6898TIP3    H220638   5.814   3.595   6.327
 6899TIP3   OH220639   6.893   0.632   1.577
 6899TIP3    H120640   6.940   0.652   1.658
 6899TIP3    H220641   6.820   0.577   1.605
 6900TIP3   OH220642   3.693   1.453   6.079
 6900TIP3    H120643   3.644   1.515   6.134
 6900TIP3    H220644   3.627   1.415   6.021
 6901TIP3   OH220645   5.840   4.643   0.374
 6901TIP3    H120646   5.898   4.719   0.367
 6901TIP3    H220647   5.804   4.648   0.462
 6902TIP3   OH220648   1.888   5.194   2.714
 6902TIP3    H120649   1.793   5.200   2.715
 6902TIP3    H220650   1.907   5.115   2.664
 6903TIP3   OH220651   3.342   6.147   1.639
 6903TIP3    H120652   3.415   6.154   1.701
 6903TIP3    H220653   3.322   6.054   1.636
 6904TIP3   OH220654   7.610   6.329   0.320
 6904TIP3    H120655   7.579   6.356   0.407
 6904TIP3    H220656   7.638   6.238   0.332
 6905TIP3   OH220657   5.664   2.916   1.310
 6905TIP3    H120658   5.715   2.843   1.344
 6905TIP3    H220659   5.721   2.993   1.321
 6906TIP3   OH220660   0.552   0.145   2.800
 6906TIP3    H120661   0.488   0.130   2.731
 6906TIP3    H220662   0.629   0.180   2.755
 6907TIP3   OH220663   6.069   3.504   2.099
 6907TIP3    H120664   6.135   3.542   2.157
 6907TIP3    H220665   6.013   3.452   2.157
 6908TIP3   OH220666   5.480   0.880   6.616
 6908TIP3    H120667   5.556   0.824   6.601
 6908TIP3    H220668   5.408   0.836   6.572
 6909TIP3   OH220669   7.465   4.903   1.598
 6909TIP3    H120670   7.435   4.973   1.655
 6909TIP3    H220671   7.548   4.874   1.636
 6910TIP3   OH220672   5.610   5.187   2.488
 6910TIP3    H120673   5.654   5.119   2.436
 6910TIP3    H220674   5.547   5.226   2.428
 6911TIP3   OH220675   7.098   4.096   0.796
 6911TIP3    H120676   7.160   4.168   0.779
 6911TIP3    H220677   7.093   4.049   0.714
 6912TIP3   OH220678   4.337   3.823   2.145
 6912TIP3    H120679   4.346   3.913   2.115
 6912TIP3    H220680   4.248   3.798   2.121
 6913TIP3   OH220681   2.940   1.597   0.220
 6913TIP3    H120682   2.846   1.579   0.224
 6913TIP3    H220683   2.977   1.519   0.178
 6914TIP3   OH220684   4.011   3.681   0.289
 6914TIP3    H120685   3.940   3.702   0.351
 6914TIP3    H220686   4.015   3.757   0.231
 6915TIP3   OH220687   4.439   6.741   2.922
 6915TIP3    H120688   4.396   6.760   2.838
 6915TIP3    H220689   4.440   6.825   2.968
 6916TIP3   OH220690   6.593   2.575   2.168
 6916TIP3    H120691   6.590   2.657   2.120
 6916TIP3    H220692   6.568   2.508   2.104
 6917TIP3   OH220693   7.791   4.229   3.891
 6917TIP3    H120694   7.755   4.147   3.859
 6917TIP3    H220695   7.797   4.285   3.813
 6918TIP3   OH220696   2.450   0.733   5.384
 6918TIP3    H120697   2.487   0.700   5.466
 6918TIP3    H220698   2.525   0.741   5.325
 6919TIP3   OH220699   2.555   0.982   0.480
 6919TIP3    H120700   2.485   0.992   0.546
 6919TIP3    H220701   2.635   0.970   0.532
 6920TIP3   OH220702   1.035   6.095   1.100
 6920TIP3    H120703   1.083   6.152   1.160
 6920TIP3    H220704   1.051   6.006   1.134
 6921TIP3   OH220705   0.552   3.495   2.110
 6921TIP3    H120706   0.622   3.493   2.045
 6921TIP3    H220707   0.473   3.518   2.060
 6922TIP3   OH220708   7.637   7.200   4.666
 6922TIP3    H120709   7.656   7.132   4.732
 6922TIP3    H220710   7.636   7.282   4.716
 6923TIP3   OH220711   2.795   2.637   1.866
 6923TIP3    H120712   2.804   2.717   1.814
 6923TIP3    H220713   2.857   2.648   1.938
 6924TIP3   OH220714   6.443   7.526   2.055
 6924TIP3    H120715   6.467   7.435   2.075
 6924TIP3    H220716   6.487   7.543   1.971
 6925TIP3   OH220717   7.514   5.377   3.441
 6925TIP3    H120718   7.512   5.361   3.347
 6925TIP3    H220719   7.604   5.403   3.459
 6926TIP3   OH220720   5.158   0.914   1.046
 6926TIP3    H120721   5.172   0.930   0.952
 6926TIP3    H220722   5.071   0.874   1.050
 6927TIP3   OH220723   3.281   7.164   6.418
 6927TIP3    H120724   3.189   7.145   6.402
 6927TIP3    H220725   3.324   7.079   6.417
 6928TIP3   OH220726   7.035   2.026   3.906
 6928TIP3    H120727   7.070   2.115   3.918
 6928TIP3    H220728   6.978   2.012   3.981
 6929TIP3   OH220729   4.971   3.335   1.574
 6929TIP3    H120730   4.987   3.390   1.497
 6929TIP3    H220731   4.954   3.248   1.537
 6930TIP3   OH220732   4.820   2.347   6.477
 6930TIP3    H120733   4.893   2.334   6.538
 6930TIP3    H220734   4.742   2.326   6.528
 6931TIP3   OH220735   7.996   7.646   4.352
 6931TIP3    H120736   8.087   7.618   4.365
 6931TIP3    H220737   7.967   7.677   4.438
 6932TIP3   OH220738   3.876   5.588   0.428
 6932TIP3    H120739   3.853   5.638   0.350
 6932TIP3    H220740   3.836   5.502   0.414
 6933TIP3   OH220741   7.134   0.982   5.191
 6933TIP3    H120742   7.178   0.999   5.275
 6933TIP3    H220743   7.186   0.913   5.150
 6934TIP3   OH220744   6.387   4.581   6.083
 6934TIP3    H120745   6.469   4.567   6.130
 6934TIP3    H220746   6.405   4.555   5.993
 6935TIP3   OH220747   4.801   6.452   2.929
 6935TIP3    H120748   4.813   6.545   2.950
 6935TIP3    H220749   4.736   6.422   2.993
 6936TIP3   OH220750   4.008   6.393   4.406
 6936TIP3    H120751   3.944   6.324   4.392
 6936TIP3    H220752   3.988   6.459   4.340
 6937TIP3   OH220753   4.587   7.653   0.948
 6937TIP3    H120754   4.557   7.714   0.881
 6937TIP3    H220755   4.534   7.575   0.935
 6938TIP3   OH220756   1.764   1.056   5.169
 6938TIP3    H120757   1.804   1.016   5.246
 6938TIP3    H220758   1.695   0.994   5.143
 6939TIP3   OH220759   1.235   2.650   0.670
 6939TIP3    H120760   1.296   2.703   0.720
 6939TIP3    H220761   1.287   2.577   0.637
 6940TIP3   OH220762   0.415   2.485   4.237
 6940TIP3    H120763   0.416   2.542   4.159
 6940TIP3    H220764   0.483   2.521   4.293
 6941TIP3   OH220765   1.440   0.264   3.789
 6941TIP3    H120766   1.484   0.285   3.706
 6941TIP3    H220767   1.506   0.216   3.839
 6942TIP3   OH220768   3.755   6.480   5.778
 6942TIP3    H120769   3.736   6.565   5.818
 6942TIP3    H220770   3.839   6.492   5.734
 6943TIP3   OH220771   5.974   2.618   6.180
 6943TIP3    H120772   6.013   2.537   6.147
 6943TIP3    H220773   5.913   2.589   6.248
 6944TIP3   OH220774   0.484   7.723   1.771
 6944TIP3    H120775   0.522   7.744   1.856
 6944TIP3    H220776   0.432   7.644   1.786
 6945TIP3   OH220777   3.565   4.703   3.228
 6945TIP3    H120778   3.492   4.646   3.252
 6945TIP3    H220779   3.619   4.650   3.170
 6946TIP3   OH220780   2.669   6.864   6.206
 6946TIP3    H120781   2.716   6.874   6.123
 6946TIP3    H220782   2.662   6.953   6.241
 6947TIP3   OH220783   4.144   7.611   6.581
 6947TIP3    H120784   4.139   7.683   6.518
 6947TIP3    H220785   4.153   7.655   6.666
 6948TIP3   OH220786   6.197   4.931   1.574
 6948TIP3    H120787   6.264   4.959   1.636
 6948TIP3    H220788   6.173   4.843   1.603
 6949TIP3   OH220789   2.108   4.474   1.886
 6949TIP3    H120790   2.100   4.550   1.829
 6949TIP3    H220791   2.069   4.402   1.836
 6950TIP3   OH220792   4.786   2.991   6.404
 6950TIP3    H120793   4.801   3.077   6.364
 6950TIP3    H220794   4.690   2.983   6.408
 6951TIP3   OH220795   3.129   5.131   1.489
 6951TIP3    H120796   3.116   5.209   1.543
 6951TIP3    H220797   3.044   5.087   1.489
 6952TIP3   OH220798   4.332   0.259   2.789
 6952TIP3    H120799   4.394   0.199   2.830
 6952TIP3    H220800   4.274   0.285   2.860
 6953TIP3   OH220801   1.322   3.783   4.566
 6953TIP3    H120802   1.303   3.877   4.555
 6953TIP3    H220803   1.258   3.739   4.509
 6954TIP3   OH220804   2.127   4.208   1.522
 6954TIP3    H120805   2.086   4.225   1.606
 6954TIP3    H220806   2.216   4.181   1.543
 6955TIP3   OH220807   4.597   4.339   1.465
 6955TIP3    H120808   4.687   4.335   1.432
 6955TIP3    H220809   4.581   4.253   1.504
 6956TIP3   OH220810   0.115   4.298   6.526
 6956TIP3    H120811   0.073   4.373   6.569
 6956TIP3    H220812   0.043   4.240   6.503
 6957TIP3   OH220813   5.660   6.560   2.967
 6957TIP3    H120814   5.754   6.542   2.971
 6957TIP3    H220815   5.635   6.538   2.877
 6958TIP3   OH220816   6.138   1.277   4.096
 6958TIP3    H120817   6.232   1.266   4.087
 6958TIP3    H220818   6.109   1.312   4.012
 6959TIP3   OH220819   7.730   6.140   5.436
 6959TIP3    H120820   7.758   6.204   5.502
 6959TIP3    H220821   7.809   6.125   5.384
 6960TIP3   OH220822   6.493   3.758   2.519
 6960TIP3    H120823   6.492   3.842   2.473
 6960TIP3    H220824   6.577   3.756   2.564
 6961TIP3   OH220825   8.244   0.690   2.442
 6961TIP3    H120826   8.155   0.689   2.477
 6961TIP3    H220827   8.241   0.758   2.373
 6962TIP3   OH220828   4.886   1.095   4.120
 6962TIP3    H120829   4.922   1.124   4.036
 6962TIP3    H220830   4.962   1.076   4.174
 6963TIP3   OH220831   3.555   1.301   0.934
 6963TIP3    H120832   3.523   1.357   0.863
 6963TIP3    H220833   3.525   1.213   0.910
 6964TIP3   OH220834   2.043   7.167   1.066
 6964TIP3    H120835   2.135   7.144   1.075
 6964TIP3    H220836   2.027   7.170   0.972
 6965TIP3   OH220837   7.147   7.792   1.999
 6965TIP3    H120838   7.231   7.763   2.035
 6965TIP3    H220839   7.082   7.741   2.046
 6966TIP3   OH220840   3.883   6.622   5.404
 6966TIP3    H120841   3.911   6.663   5.486
 6966TIP3    H220842   3.864   6.531   5.428
 6967TIP3   OH220843   6.518   5.558   0.168
 6967TIP3    H120844   6.468   5.490   0.123
 6967TIP3    H220845   6.593   5.575   0.112
 6968TIP3   OH220846   1.338   1.361   6.677
 6968TIP3    H120847   1.274   1.295   6.650
 6968TIP3    H220848   1.394   1.317   6.741
 6969TIP3   OH220849   3.371   2.274   6.233
 6969TIP3    H120850   3.443   2.229   6.277
 6969TIP3    H220851   3.317   2.308   6.305
 6970TIP3   OH220852   7.175   7.443   0.650
 6970TIP3    H120853   7.237   7.384   0.607
 6970TIP3    H220854   7.220   7.527   0.653
 6971TIP3   OH220855   7.379   7.221   3.581
 6971TIP3    H120856   7.465   7.235   3.621
 6971TIP3    H220857   7.319   7.267   3.639
 6972TIP3   OH220858   7.171   7.510   0.125
 6972TIP3    H120859   7.202   7.553   0.205
 6972TIP3    H220860   7.206   7.564   0.054
 6973TIP3   OH220861   1.820   1.871   4.787
 6973TIP3    H120862   1.783   1.806   4.728
 6973TIP3    H220863   1.748   1.893   4.846
 6974TIP3   OH220864   1.559   0.908   3.316
 6974TIP3    H120865   1.511   0.943   3.391
 6974TIP3    H220866   1.643   0.953   3.317
 6975TIP3   OH220867   7.547   4.793   4.264
 6975TIP3    H120868   7.602   4.714   4.263
 6975TIP3    H220869   7.466   4.767   4.222
 6976TIP3   OH220870   3.580   1.945   5.308
 6976TIP3    H120871   3.501   1.986   5.273
 6976TIP3    H220872   3.613   2.007   5.373
 6977TIP3   OH220873   3.438   5.221   2.872
 6977TIP3    H120874   3.423   5.311   2.843
 6977TIP3    H220875   3.352   5.189   2.898
 6978TIP3   OH220876   0.975   7.180   5.652
 6978TIP3    H120877   0.935   7.100   5.618
 6978TIP3    H220878   0.903   7.226   5.696
 6979TIP3   OH220879   6.390   1.663   4.617
 6979TIP3    H120880   6.306   1.709   4.624
 6979TIP3    H220881   6.376   1.581   4.665
 6980TIP3   OH220882   3.930   4.157   6.268
 6980TIP3    H120883   3.872   4.233   6.271
 6980TIP3    H220884   3.899   4.100   6.339
 6981TIP3   OH220885   3.703   6.912   3.905
 6981TIP3    H120886   3.719   7.001   3.936
 6981TIP3    H220887   3.788   6.881   3.874
 6982TIP3   OH220888   1.252   1.591   0.647
 6982TIP3    H120889   1.329   1.640   0.618
 6982TIP3    H220890   1.229   1.630   0.731
 6983TIP3   OH220891   5.928   4.823   0.872
 6983TIP3    H120892   5.894   4.908   0.844
 6983TIP3    H220893   5.857   4.784   0.922
 6984TIP3   OH220894   3.041   7.504   3.160
 6984TIP3    H120895   2.957   7.468   3.133
 6984TIP3    H220896   3.019   7.580   3.213
 6985TIP3   OH220897   6.338   0.187   2.142
 6985TIP3    H120898   6.379   0.194   2.228
 6985TIP3    H220899   6.247   0.163   2.160
 6986TIP3   OH220900   0.229   2.761   5.705
 6986TIP3    H120901   0.198   2.776   5.616
 6986TIP3    H220902   0.323   2.749   5.697
 6987TIP3   OH220903   0.167   4.048   3.311
 6987TIP3    H120904   0.092   4.085   3.358
 6987TIP3    H220905   0.238   4.051   3.375
 6988TIP3   OH220906   3.979   2.981   4.656
 6988TIP3    H120907   3.941   3.045   4.716
 6988TIP3    H220908   4.073   2.997   4.659
 6989TIP3   OH220909   3.451   4.133   3.986
 6989TIP3    H120910   3.390   4.146   4.059
 6989TIP3    H220911   3.493   4.049   4.005
 6990TIP3   OH220912   0.547   4.718   0.943
 6990TIP3    H120913   0.484   4.715   0.871
 6990TIP3    H220914   0.624   4.672   0.909
 6991TIP3   OH220915   5.222   2.009   1.324
 6991TIP3    H120916   5.168   1.930   1.328
 6991TIP3    H220917   5.225   2.041   1.414
 6992TIP3   OH220918   5.449   4.897   4.885
 6992TIP3    H120919   5.389   4.945   4.827
 6992TIP3    H220920   5.392   4.846   4.942
 6993TIP3   OH220921   2.463   2.661   5.982
 6993TIP3    H120922   2.519   2.673   6.059
 6993TIP3    H220923   2.420   2.745   5.971
 6994TIP3   OH220924   2.854   4.998   3.165
 6994TIP3    H120925   2.773   5.043   3.140
 6994TIP3    H220926   2.910   5.068   3.201
 6995TIP3   OH220927   5.641   7.775   4.475
 6995TIP3    H120928   5.607   7.692   4.509
 6995TIP3    H220929   5.624   7.771   4.381
 6996TIP3   OH220930   7.792   1.115   2.321
 6996TIP3    H120931   7.824   1.027   2.341
 6996TIP3    H220932   7.742   1.140   2.398
 6997TIP3   OH220933   7.276   1.003   4.095
 6997TIP3    H120934   7.322   1.071   4.045
 6997TIP3    H220935   7.251   0.937   4.030
 6998TIP3   OH220936   6.507   0.450   1.285
 6998TIP3    H120937   6.569   0.407   1.227
 6998TIP3    H220938   6.449   0.380   1.314
 6999TIP3   OH220939   5.008   0.661   5.337
 6999TIP3    H120940   4.936   0.680   5.276
 6999TIP3    H220941   4.989   0.573   5.370
 7000TIP3   OH220942   8.097   1.593   1.888
 7000TIP3    H120943   8.174   1.649   1.878
 7000TIP3    H220944   8.052   1.599   1.804
 7001TIP3   OH220945   2.074   0.599   2.452
 7001TIP3    H120946   2.002   0.616   2.391
 7001TIP3    H220947   2.077   0.504   2.459
 7002TIP3   OH220948   3.188   0.754   4.974
 7002TIP3    H120949   3.109   0.768   4.922
 7002TIP3    H220950   3.212   0.841   5.006
 7003TIP3   OH220951   7.814   2.635   0.806
 7003TIP3    H120952   7.782   2.596   0.887
 7003TIP3    H220953   7.864   2.711   0.833
 7004TIP3   OH220954   1.786   7.449   5.935
 7004TIP3    H120955   1.789   7.410   6.023
 7004TIP3    H220956   1.868   7.496   5.927
 7005TIP3   OH220957   7.015   6.325   6.138
 7005TIP3    H120958   6.932   6.301   6.097
 7005TIP3    H220959   7.068   6.246   6.134
 7006TIP3   OH220960   3.780   2.597   5.131
 7006TIP3    H120961   3.782   2.655   5.055
 7006TIP3    H220962   3.819   2.516   5.100
 7007TIP3   OH220963   6.795   5.072   4.351
 7007TIP3    H120964   6.754   5.118   4.424
 7007TIP3    H220965   6.833   5.142   4.297
 7008TIP3   OH220966   5.541   1.457   4.735
 7008TIP3    H120967   5.480   1.528   4.756
 7008TIP3    H220968   5.524   1.391   4.802
 7009TIP3   OH220969   1.576   4.371   0.083
 7009TIP3    H120970   1.636   4.392   0.011
 7009TIP3    H220971   1.563   4.276   0.076
 7010TIP3   OH220972   3.596   0.500   4.551
 7010TIP3    H120973   3.519   0.491   4.608
 7010TIP3    H220974   3.588   0.588   4.515
 7011TIP3   OH220975   5.904   0.369   4.145
 7011TIP3    H120976   5.926   0.368   4.052
 7011TIP3    H220977   5.871   0.457   4.162
 7012TIP3   OH220978   5.637   1.064   0.234
 7012TIP3    H120979   5.683   1.135   0.190
 7012TIP3    H220980   5.697   0.989   0.228
 7013TIP3   OH220981   7.397   5.436   2.097
 7013TIP3    H120982   7.315   5.431   2.047
 7013TIP3    H220983   7.453   5.495   2.046
 7014TIP3   OH220984   3.295   7.226   2.870
 7014TIP3    H120985   3.274   7.317   2.848
 7014TIP3    H220986   3.223   7.199   2.927
 7015TIP3   OH220987   1.104   6.487   1.447
 7015TIP3    H120988   1.010   6.508   1.443
 7015TIP3    H220989   1.111   6.424   1.518
 7016TIP3   OH220990   6.239   7.175   5.080
 7016TIP3    H120991   6.333   7.194   5.071
 7016TIP3    H220992   6.218   7.119   5.005
 7017TIP3   OH220993   6.800   5.607   4.063
 7017TIP3    H120994   6.810   5.538   3.997
 7017TIP3    H220995   6.717   5.649   4.041
 7018TIP3   OH220996   7.738  -0.021   5.105
 7018TIP3    H120997   7.750  -0.028   5.010
 7018TIP3    H220998   7.674   0.049   5.116
 7019TIP3   OH220999  -0.001   5.650   0.569
 7019TIP3    H121000   0.034   5.587   0.632
 7019TIP3    H221001   0.051   5.635   0.489
 7020TIP3   OH221002   1.323   4.966   1.471
 7020TIP3    H121003   1.375   4.886   1.473
 7020TIP3    H221004   1.355   5.018   1.544
 7021TIP3   OH221005   2.820   0.798   4.558
 7021TIP3    H121006   2.750   0.735   4.541
 7021TIP3    H221007   2.896   0.763   4.512
 7022TIP3   OH221008   6.496   5.462   6.716
 7022TIP3    H121009   6.456   5.549   6.720
 7022TIP3    H221010   6.471   5.420   6.798
 7023TIP3   OH221011   3.559   7.212   0.323
 7023TIP3    H121012   3.586   7.248   0.408
 7023TIP3    H221013   3.466   7.232   0.316
 7024TIP3   OH221014   8.041   5.750   0.376
 7024TIP3    H121015   7.981   5.688   0.417
 7024TIP3    H221016   8.087   5.699   0.309
 7025TIP3   OH221017   2.841   0.669   3.570
 7025TIP3    H121018   2.850   0.741   3.633
 7025TIP3    H221019   2.905   0.690   3.502
 7026TIP3   OH221020   7.691   5.882   3.933
 7026TIP3    H121021   7.735   5.964   3.909
 7026TIP3    H221022   7.599   5.906   3.943
 7027TIP3   OH221023   5.390   4.313   2.006
 7027TIP3    H121024   5.401   4.371   2.081
 7027TIP3    H221025   5.476   4.275   1.991
 7028TIP3   OH221026   6.141   4.466   2.836
 7028TIP3    H121027   6.105   4.434   2.919
 7028TIP3    H221028   6.200   4.397   2.806
 7029TIP3   OH221029   2.763   7.219   0.662
 7029TIP3    H121030   2.746   7.278   0.588
 7029TIP3    H221031   2.678   7.181   0.683
 7030TIP3   OH221032   2.885   4.544   1.357
 7030TIP3    H121033   2.852   4.497   1.281
 7030TIP3    H221034   2.847   4.496   1.432
 7031TIP3   OH221035   2.233   4.864   5.645
 7031TIP3    H121036   2.275   4.804   5.582
 7031TIP3    H221037   2.262   4.832   5.731
 7032TIP3   OH221038   6.079   6.356   5.645
 7032TIP3    H121039   6.097   6.371   5.552
 7032TIP3    H221040   6.082   6.260   5.655
 7033TIP3   OH221041   5.165   1.052   6.297
 7033TIP3    H121042   5.108   1.123   6.266
 7033TIP3    H221043   5.240   1.097   6.336
 7034TIP3   OH221044   1.244   7.531   6.015
 7034TIP3    H121045   1.195   7.506   6.093
 7034TIP3    H221046   1.214   7.471   5.947
 7035TIP3   OH221047   4.122   0.831   0.826
 7035TIP3    H121048   4.059   0.797   0.890
 7035TIP3    H221049   4.129   0.924   0.847
 7036TIP3   OH221050   2.618   2.275   6.744
 7036TIP3    H121051   2.646   2.231   6.824
 7036TIP3    H221052   2.681   2.346   6.732
 7037TIP3   OH221053   2.130   5.942   3.102
 7037TIP3    H121054   2.216   5.956   3.142
 7037TIP3    H221055   2.071   6.001   3.149
 7038TIP3   OH221056   5.254   0.826   5.924
 7038TIP3    H121057   5.256   0.830   6.020
 7038TIP3    H221058   5.320   0.889   5.896
 7039TIP3   OH221059   1.982   3.092   0.635
 7039TIP3    H121060   2.049   3.063   0.697
 7039TIP3    H221061   1.950   3.011   0.595
 7040TIP3   OH221062   0.926   3.398   2.625
 7040TIP3    H121063   0.922   3.457   2.701
 7040TIP3    H221064   0.951   3.313   2.661
 7041TIP3   OH221065   4.823   4.242   5.913
 7041TIP3    H121066   4.903   4.218   5.865
 7041TIP3    H221067   4.787   4.158   5.943
 7042TIP3   OH221068   8.273   4.729   3.003
 7042TIP3    H121069   8.196   4.674   3.015
 7042TIP3    H221070   8.304   4.747   3.092
 7043TIP3   OH221071   1.643   1.584   4.767
 7043TIP3    H121072   1.727   1.572   4.812
 7043TIP3    H221073   1.600   1.499   4.773
 7044TIP3   OH221074   4.630   2.566   3.663
 7044TIP3    H121075   4.602   2.657   3.668
 7044TIP3    H221076   4.572   2.520   3.724
 7045TIP3   OH221077   2.802   5.178   1.842
 7045TIP3    H121078   2.844   5.262   1.860
 7045TIP3    H221079   2.762   5.153   1.926
 7046TIP3   OH221080   3.557   3.549   3.772
 7046TIP3    H121081   3.504   3.533   3.850
 7046TIP3    H221082   3.623   3.480   3.773
 7047TIP3   OH221083   3.802   6.239   3.356
 7047TIP3    H121084   3.708   6.241   3.373
 7047TIP3    H221085   3.834   6.162   3.404
 7048TIP3   OH221086   4.122   1.401   6.474
 7048TIP3    H121087   4.178   1.401   6.397
 7048TIP3    H221088   4.072   1.482   6.467
 7049TIP3   OH221089   7.156   3.145   1.273
 7049TIP3    H121090   7.146   3.223   1.220
 7049TIP3    H221091   7.095   3.157   1.346
 7050TIP3   OH221092   8.191   2.993   4.313
 7050TIP3    H121093   8.152   3.080   4.300
 7050TIP3    H221094   8.240   2.977   4.233
 7051TIP3   OH221095   7.868   3.855   3.958
 7051TIP3    H121096   7.963   3.844   3.947
 7051TIP3    H221097   7.835   3.865   3.869
 7052TIP3   OH221098   2.497   6.431   3.047
 7052TIP3    H121099   2.535   6.351   3.011
 7052TIP3    H221100   2.441   6.466   2.978
 7053TIP3   OH221101   3.392   7.245   4.420
 7053TIP3    H121102   3.418   7.338   4.418
 7053TIP3    H221103   3.464   7.200   4.374
 7054TIP3   OH221104   7.879   1.887   1.467
 7054TIP3    H121105   7.897   1.918   1.378
 7054TIP3    H221106   7.798   1.837   1.459
 7055TIP3   OH221107   6.952   3.069   6.589
 7055TIP3    H121108   7.002   3.018   6.652
 7055TIP3    H221109   6.984   3.159   6.600
 7056TIP3   OH221110   6.999   1.696   4.958
 7056TIP3    H121111   7.025   1.713   5.049
 7056TIP3    H221112   6.905   1.678   4.963
 7057TIP3   OH221113   6.140   6.029   0.115
 7057TIP3    H121114   6.072   6.035   0.182
 7057TIP3    H221115   6.205   5.969   0.152
 7058TIP3   OH221116   5.610   7.545   5.859
 7058TIP3    H121117   5.559   7.477   5.905
 7058TIP3    H221118   5.580   7.627   5.898
 7059TIP3   OH221119   7.726   4.782   0.824
 7059TIP3    H121120   7.686   4.846   0.882
 7059TIP3    H221121   7.660   4.714   0.814
 7060TIP3   OH221122   2.735   2.802   6.542
 7060TIP3    H121123   2.676   2.738   6.581
 7060TIP3    H221124   2.778   2.755   6.471
 7061TIP3   OH221125   3.003   1.547   5.314
 7061TIP3    H121126   3.002   1.522   5.406
 7061TIP3    H221127   2.950   1.627   5.309
 7062TIP3   OH221128   6.394   5.071   0.181
 7062TIP3    H121129   6.328   5.045   0.118
 7062TIP3    H221130   6.387   5.167   0.186
 7063TIP3   OH221131   4.085   4.812   1.025
 7063TIP3    H121132   4.052   4.732   0.985
 7063TIP3    H221133   4.172   4.825   0.986
 7064TIP3   OH221134   3.385   0.378   4.301
 7064TIP3    H121135   3.464   0.402   4.350
 7064TIP3    H221136   3.405   0.404   4.211
 7065TIP3   OH221137   0.196   2.776   5.977
 7065TIP3    H121138   0.220   2.786   5.885
 7065TIP3    H221139   0.109   2.814   5.983
 7066TIP3   OH221140   4.517   2.822   5.166
 7066TIP3    H121141   4.426   2.791   5.164
 7066TIP3    H221142   4.569   2.744   5.184
 7067TIP3   OH221143   4.616   2.336   4.587
 7067TIP3    H121144   4.605   2.303   4.498
 7067TIP3    H221145   4.528   2.338   4.623
 7068TIP3   OH221146   6.896   1.468   4.582
 7068TIP3    H121147   6.860   1.392   4.536
 7068TIP3    H221148   6.820   1.520   4.607
 7069TIP3   OH221149   4.983   2.368   0.902
 7069TIP3    H121150   5.011   2.372   0.811
 7069TIP3    H221151   4.891   2.396   0.900
 7070TIP3   OH221152   3.693   2.422   4.503
 7070TIP3    H121153   3.758   2.354   4.481
 7070TIP3    H221154   3.624   2.412   4.437
 7071TIP3   OH221155   8.100   0.932   0.899
 7071TIP3    H121156   8.084   0.894   0.985
 7071TIP3    H221157   8.027   0.901   0.845
 7072TIP3   OH221158   4.714   0.713   0.818
 7072TIP3    H121159   4.645   0.736   0.880
 7072TIP3    H221160   4.732   0.793   0.770
 7073TIP3   OH221161   7.449   2.581   3.476
 7073TIP3    H121162   7.383   2.560   3.410
 7073TIP3    H221163   7.525   2.529   3.451
 7074TIP3   OH221164   7.824   0.587   6.242
 7074TIP3    H121165   7.770   0.612   6.316
 7074TIP3    H221166   7.767   0.533   6.188
 7075TIP3   OH221167   1.009   3.408   3.659
 7075TIP3    H121168   1.005   3.493   3.703
 7075TIP3    H221169   0.922   3.370   3.670
 7076TIP3   OH221170   3.706   0.506   5.864
 7076TIP3    H121171   3.656   0.521   5.945
 7076TIP3    H221172   3.643   0.520   5.794
 7077TIP3   OH221173   6.466   0.047   4.439
 7077TIP3    H121174   6.517   0.112   4.486
 7077TIP3    H221175   6.525  -0.028   4.429
 7078TIP3   OH221176   0.168   1.051   6.045
 7078TIP3    H121177   0.119   1.080   6.122
 7078TIP3    H221178   0.128   1.098   5.972
 7079TIP3   OH221179   5.090   0.822   1.305
 7079TIP3    H121180   5.114   0.910   1.277
 7079TIP3    H221181   5.123   0.765   1.236
 7080TIP3   OH221182   3.454   7.622   3.305
 7080TIP3    H121183   3.404   7.631   3.223
 7080TIP3    H221184   3.458   7.528   3.320
 7081TIP3   OH221185   4.277   6.546   5.596
 7081TIP3    H121186   4.242   6.588   5.518
 7081TIP3    H221187   4.201   6.534   5.653
 7082TIP3   OH221188   0.707   0.066   3.007
 7082TIP3    H121189   0.666   0.112   2.934
 7082TIP3    H221190   0.644   0.073   3.079
 7083TIP3   OH221191   5.121   6.800   2.311
 7083TIP3    H121192   5.143   6.860   2.382
 7083TIP3    H221193   5.197   6.802   2.253
 7084TIP3   OH221194   1.414   6.202   3.192
 7084TIP3    H121195   1.411   6.204   3.096
 7084TIP3    H221196   1.447   6.288   3.217
 7085TIP3   OH221197   1.354   4.842   4.025
 7085TIP3    H121198   1.435   4.869   4.067
 7085TIP3    H221199   1.285   4.870   4.085
 7086TIP3   OH221200   5.718   2.424   3.204
 7086TIP3    H121201   5.748   2.499   3.256
 7086TIP3    H221202   5.754   2.347   3.248
 7087TIP3   OH221203   2.890   7.231   5.381
 7087TIP3    H121204   2.810   7.273   5.352
 7087TIP3    H221205   2.866   7.139   5.392
 7088TIP3   OH221206   8.017   0.148   5.912
 7088TIP3    H121207   7.932   0.170   5.948
 7088TIP3    H221208   8.078   0.156   5.985
 7089TIP3   OH221209   6.619   5.868   3.740
 7089TIP3    H121210   6.539   5.851   3.691
 7089TIP3    H221211   6.688   5.827   3.688
 7090TIP3   OH221212   8.111   1.364   1.485
 7090TIP3    H121213   8.204   1.368   1.463
 7090TIP3    H221214   8.109   1.334   1.576
 7091TIP3   OH221215   1.664   6.902   1.181
 7091TIP3    H121216   1.623   6.822   1.149
 7091TIP3    H221217   1.618   6.921   1.263
 7092TIP3   OH221218   1.255   5.519   0.079
 7092TIP3    H121219   1.271   5.425   0.088
 7092TIP3    H221220   1.257   5.552   0.168
 7093TIP3   OH221221   6.780   2.195   6.193
 7093TIP3    H121222   6.710   2.217   6.132
 7093TIP3    H221223   6.813   2.279   6.223
 7094TIP3   OH221224   7.661   5.646   5.905
 7094TIP3    H121225   7.627   5.708   5.970
 7094TIP3    H221226   7.657   5.561   5.950
 7095TIP3   OH221227   3.127   1.844   3.616
 7095TIP3    H121228   3.196   1.864   3.679
 7095TIP3    H221229   3.048   1.832   3.669
 7096TIP3   OH221230   5.506   0.899   0.579
 7096TIP3    H121231   5.565   0.938   0.643
 7096TIP3    H221232   5.522   0.805   0.585
 7097TIP3   OH221233   1.645   6.130   5.896
 7097TIP3    H121234   1.699   6.114   5.819
 7097TIP3    H221235   1.574   6.186   5.864
 7098TIP3   OH221236   7.193   0.469   1.929
 7098TIP3    H121237   7.280   0.484   1.966
 7098TIP3    H221238   7.196   0.379   1.896
 7099TIP3   OH221239   6.359   5.560   1.309
 7099TIP3    H121240   6.324   5.621   1.374
 7099TIP3    H221241   6.424   5.611   1.261
 7100TIP3   OH221242   3.690   6.552   3.469
 7100TIP3    H121243   3.746   6.478   3.491
 7100TIP3    H221244   3.623   6.553   3.537
 7101TIP3   OH221245   3.598   7.094   2.255
 7101TIP3    H121246   3.662   7.089   2.325
 7101TIP3    H221247   3.562   7.006   2.249
 7102TIP3   OH221248   7.543   1.230   6.120
 7102TIP3    H121249   7.490   1.266   6.049
 7102TIP3    H221250   7.544   1.136   6.105
 7103TIP3   OH221251   2.619   2.230   2.160
 7103TIP3    H121252   2.649   2.218   2.250
 7103TIP3    H221253   2.609   2.325   2.152
 7104TIP3   OH221254   5.435   1.520   0.191
 7104TIP3    H121255   5.469   1.601   0.229
 7104TIP3    H221256   5.387   1.549   0.113
 7105TIP3   OH221257   2.297   1.649   4.917
 7105TIP3    H121258   2.292   1.733   4.870
 7105TIP3    H221259   2.375   1.657   4.971
 7106TIP3   OH221260   1.561   7.019   3.754
 7106TIP3    H121261   1.499   6.984   3.817
 7106TIP3    H221262   1.531   7.109   3.739
 7107TIP3   OH221263   7.489   3.042   1.212
 7107TIP3    H121264   7.442   3.004   1.286
 7107TIP3    H221265   7.423   3.050   1.143
 7108TIP3   OH221266   0.840   5.680   5.751
 7108TIP3    H121267   0.933   5.700   5.759
 7108TIP3    H221268   0.796   5.753   5.795
 7109TIP3   OH221269   3.199   4.283   3.753
 7109TIP3    H121270   3.292   4.272   3.732
 7109TIP3    H221271   3.196   4.365   3.802
 7110TIP3   OH221272   4.468   5.996   0.756
 7110TIP3    H121273   4.538   6.062   0.758
 7110TIP3    H221274   4.460   5.966   0.846
 7111TIP3   OH221275   1.725   3.786   2.985
 7111TIP3    H121276   1.726   3.694   3.010
 7111TIP3    H221277   1.778   3.831   3.052
 7112TIP3   OH221278   3.714   7.643   6.383
 7112TIP3    H121279   3.675   7.644   6.471
 7112TIP3    H221280   3.717   7.551   6.359
 7113TIP3   OH221281   2.497  -0.041   4.597
 7113TIP3    H121282   2.566  -0.058   4.662
 7113TIP3    H221283   2.462   0.044   4.621
 7114TIP3   OH221284   0.922   2.476   0.492
 7114TIP3    H121285   0.943   2.424   0.570
 7114TIP3    H221286   1.006   2.512   0.464
 7115TIP3   OH221287   5.346   0.157   4.677
 7115TIP3    H121288   5.322   0.190   4.764
 7115TIP3    H221289   5.376   0.068   4.692
 7116TIP3   OH221290   5.882   1.115   6.473
 7116TIP3    H121291   5.845   1.078   6.393
 7116TIP3    H221292   5.967   1.151   6.446
 7117TIP3   OH221293   4.814   0.866   0.178
 7117TIP3    H121294   4.756   0.941   0.189
 7117TIP3    H221295   4.775   0.815   0.107
 7118TIP3   OH221296   0.932   6.788   1.333
 7118TIP3    H121297   0.842   6.802   1.362
 7118TIP3    H221298   0.925   6.769   1.240
 7119TIP3   OH221299   0.050   3.334   0.549
 7119TIP3    H121300   0.101   3.273   0.495
 7119TIP3    H221301  -0.023   3.281   0.582
 7120TIP3   OH221302   4.504   1.693   6.562
 7120TIP3    H121303   4.588   1.729   6.589
 7120TIP3    H221304   4.524   1.638   6.486
 7121TIP3   OH221305   5.371   2.242   1.222
 7121TIP3    H121306   5.341   2.154   1.244
 7121TIP3    H221307   5.290   2.293   1.212
 7122TIP3   OH221308   6.673   3.692   5.224
 7122TIP3    H121309   6.675   3.709   5.130
 7122TIP3    H221310   6.582   3.672   5.243
 7123TIP3   OH221311   4.736   7.113   2.100
 7123TIP3    H121312   4.792   7.039   2.077
 7123TIP3    H221313   4.758   7.132   2.191
 7124TIP3   OH221314   8.265   6.522   0.250
 7124TIP3    H121315   8.315   6.442   0.238
 7124TIP3    H221316   8.316   6.590   0.205
 7125TIP3   OH221317   5.345   1.193   0.143
 7125TIP3    H121318   5.285   1.193   0.218
 7125TIP3    H221319   5.407   1.123   0.162
 7126TIP3   OH221320   7.482   1.652   3.499
 7126TIP3    H121321   7.536   1.723   3.535
 7126TIP3    H221322   7.503   1.576   3.553
 7127TIP3   OH221323   4.501   4.235   2.860
 7127TIP3    H121324   4.464   4.148   2.876
 7127TIP3    H221325   4.435   4.295   2.896
 7128TIP3   OH221326   3.433   1.944   4.410
 7128TIP3    H121327   3.484   1.869   4.381
 7128TIP3    H221328   3.407   1.922   4.500
 7129TIP3   OH221329   4.588   5.979   3.796
 7129TIP3    H121330   4.643   5.912   3.836
 7129TIP3    H221331   4.509   5.932   3.767
 7130TIP3   OH221332   2.296   0.539   1.439
 7130TIP3    H121333   2.284   0.445   1.437
 7130TIP3    H221334   2.259   0.567   1.523
 7131TIP3   OH221335   5.080   0.441   2.833
 7131TIP3    H121336   5.164   0.485   2.824
 7131TIP3    H221337   5.063   0.404   2.746
 7132TIP3   OH221338   3.066   7.424   1.024
 7132TIP3    H121339   2.993   7.383   0.977
 7132TIP3    H221340   3.027   7.501   1.066
 7133TIP3   OH221341   4.159   2.155   1.207
 7133TIP3    H121342   4.205   2.230   1.243
 7133TIP3    H221343   4.177   2.084   1.269
 7134TIP3   OH221344   3.197   3.450   5.016
 7134TIP3    H121345   3.260   3.433   5.085
 7134TIP3    H221346   3.140   3.373   5.015
 7135TIP3   OH221347   1.812   2.490   2.485
 7135TIP3    H121348   1.801   2.402   2.521
 7135TIP3    H221349   1.856   2.540   2.554
 7136TIP3   OH221350   0.350   4.062   1.260
 7136TIP3    H121351   0.306   4.020   1.333
 7136TIP3    H221352   0.282   4.113   1.217
 7137TIP3   OH221353   3.718   7.756   2.984
 7137TIP3    H121354   3.781   7.811   2.938
 7137TIP3    H221355   3.730   7.669   2.947
 7138TIP3   OH221356   7.390   5.132   1.964
 7138TIP3    H121357   7.420   5.188   2.036
 7138TIP3    H221358   7.435   5.166   1.887
 7139TIP3   OH221359   2.880   6.974   0.190
 7139TIP3    H121360   2.887   6.879   0.206
 7139TIP3    H221361   2.792   6.996   0.221
 7140TIP3   OH221362   0.469   5.220   1.549
 7140TIP3    H121363   0.443   5.136   1.511
 7140TIP3    H221364   0.496   5.273   1.475
 7141TIP3   OH221365   2.332   7.542   0.645
 7141TIP3    H121366   2.336   7.456   0.603
 7141TIP3    H221367   2.401   7.593   0.602
 7142TIP3   OH221368   0.346   0.554   3.552
 7142TIP3    H121369   0.364   0.643   3.581
 7142TIP3    H221370   0.290   0.517   3.620
 7143TIP3   OH221371   7.522   6.694   5.324
 7143TIP3    H121372   7.541   6.728   5.236
 7143TIP3    H221373   7.585   6.738   5.381
 7144TIP3   OH221374   2.251   5.535   2.058
 7144TIP3    H121375   2.313   5.599   2.093
 7144TIP3    H221376   2.207   5.499   2.135
 7145TIP3   OH221377   3.661   3.104   4.239
 7145TIP3    H121378   3.726   3.079   4.304
 7145TIP3    H221379   3.601   3.029   4.236
 7146TIP3   OH221380   1.571   6.273   2.443
 7146TIP3    H121381   1.584   6.179   2.454
 7146TIP3    H221382   1.646   6.312   2.487
 7147TIP3   OH221383   6.638   7.371   6.552
 7147TIP3    H121384   6.708   7.364   6.488
 7147TIP3    H221385   6.567   7.416   6.505
 7148TIP3   OH221386   6.838   2.721   4.458
 7148TIP3    H121387   6.840   2.685   4.369
 7148TIP3    H221388   6.847   2.815   4.446
 7149TIP3   OH221389   8.250   4.993   4.942
 7149TIP3    H121390   8.224   4.901   4.938
 7149TIP3    H221391   8.239   5.018   5.034
 7150TIP3   OH221392   0.433   3.774   2.270
 7150TIP3    H121393   0.376   3.705   2.236
 7150TIP3    H221394   0.405   3.785   2.361
 7151TIP3   OH221395   8.015   1.256   2.531
 7151TIP3    H121396   8.020   1.304   2.449
 7151TIP3    H221397   7.922   1.251   2.551
 7152TIP3   OH221398   4.906   1.407   5.532
 7152TIP3    H121399   4.972   1.477   5.538
 7152TIP3    H221400   4.823   1.453   5.525
 7153TIP3   OH221401   1.292   2.627   2.597
 7153TIP3    H121402   1.341   2.685   2.538
 7153TIP3    H221403   1.203   2.663   2.597
 7154TIP3   OH221404   6.936   3.855   4.778
 7154TIP3    H121405   6.948   3.933   4.724
 7154TIP3    H221406   7.014   3.803   4.762
 7155TIP3   OH221407   6.509   1.405   5.387
 7155TIP3    H121408   6.476   1.327   5.343
 7155TIP3    H221409   6.566   1.447   5.323
 7156TIP3   OH221410   7.342   3.513   3.130
 7156TIP3    H121411   7.432   3.507   3.099
 7156TIP3    H221412   7.340   3.591   3.185
 7157TIP3   OH221413   4.781   0.337   2.279
 7157TIP3    H121414   4.765   0.245   2.299
 7157TIP3    H221415   4.836   0.368   2.350
 7158TIP3   OH221416   3.975   1.198   2.408
 7158TIP3    H121417   4.007   1.114   2.375
 7158TIP3    H221418   3.890   1.178   2.448
 7159TIP3   OH221419   5.560   3.115   5.960
 7159TIP3    H121420   5.471   3.081   5.952
 7159TIP3    H221421   5.549   3.203   5.998
 7160TIP3   OH221422   4.216   6.918   5.849
 7160TIP3    H121423   4.188   6.835   5.886
 7160TIP3    H221424   4.273   6.957   5.915
 7161TIP3   OH221425   7.003   2.595   3.280
 7161TIP3    H121426   6.953   2.546   3.215
 7161TIP3    H221427   6.996   2.686   3.253
 7162TIP3   OH221428   6.113   1.563   1.711
 7162TIP3    H121429   6.165   1.501   1.660
 7162TIP3    H221430   6.072   1.620   1.645
 7163TIP3   OH221431   2.315   2.126   6.765
 7163TIP3    H121432   2.246   2.059   6.768
 7163TIP3    H221433   2.379   2.092   6.703
 7164TIP3   OH221434   1.405   1.753   4.727
 7164TIP3    H121435   1.407   1.758   4.631
 7164TIP3    H221436   1.477   1.694   4.749
 7165TIP3   OH221437   7.734   0.610   1.877
 7165TIP3    H121438   7.769   0.522   1.892
 7165TIP3    H221439   7.798   0.669   1.916
 7166TIP3   OH221440   4.200   6.882   1.032
 7166TIP3    H121441   4.215   6.790   1.054
 7166TIP3    H221442   4.106   6.889   1.020
 7167TIP3   OH221443   6.601   7.549   2.305
 7167TIP3    H121444   6.510   7.520   2.307
 7167TIP3    H221445   6.600   7.634   2.349
 7168TIP3   OH221446   7.715   4.213   3.175
 7168TIP3    H121447   7.735   4.209   3.269
 7168TIP3    H221448   7.683   4.303   3.162
 7169TIP3   OH221449   2.660   1.873   0.320
 7169TIP3    H121450   2.568   1.888   0.295
 7169TIP3    H221451   2.658   1.863   0.415
 7170TIP3   OH221452   6.092   2.068   0.416
 7170TIP3    H121453   6.151   2.070   0.491
 7170TIP3    H221454   6.035   1.993   0.432
 7171TIP3   OH221455   4.962   7.119   3.498
 7171TIP3    H121456   5.021   7.185   3.462
 7171TIP3    H221457   4.977   7.042   3.444
 7172TIP3   OH221458   8.098   1.898   3.772
 7172TIP3    H121459   8.187   1.907   3.740
 7172TIP3    H221460   8.055   1.842   3.707
 7173TIP3   OH221461   4.262   6.612   1.083
 7173TIP3    H121462   4.192   6.585   1.142
 7173TIP3    H221463   4.342   6.577   1.122
 7174TIP3   OH221464   4.260   6.191   0.957
 7174TIP3    H121465   4.186   6.249   0.977
 7174TIP3    H221466   4.223   6.102   0.967
 7175TIP3   OH221467   0.428   6.090   1.987
 7175TIP3    H121468   0.477   6.141   1.922
 7175TIP3    H221469   0.449   6.131   2.070
 7176TIP3   OH221470   1.338   4.319   1.854
 7176TIP3    H121471   1.299   4.293   1.770
 7176TIP3    H221472   1.397   4.247   1.877
 7177TIP3   OH221473   5.169   3.399   0.234
 7177TIP3    H121474   5.093   3.405   0.291
 7177TIP3    H221475   5.156   3.318   0.185
 7178TIP3   OH221476   2.262   1.581   2.576
 7178TIP3    H121477   2.320   1.578   2.500
 7178TIP3    H221478   2.300   1.648   2.633
 7179TIP3   OH221479   5.394   4.128   6.513
 7179TIP3    H121480   5.332   4.200   6.497
 7179TIP3    H221481   5.343   4.049   6.496
 7180TIP3   OH221482   0.493   5.175   3.227
 7180TIP3    H121483   0.432   5.214   3.165
 7180TIP3    H221484   0.576   5.221   3.211
 7181TIP3   OH221485   7.602   2.732   2.541
 7181TIP3    H121486   7.696   2.740   2.559
 7181TIP3    H221487   7.578   2.646   2.576
 7182TIP3   OH221488   2.804   3.412   2.408
 7182TIP3    H121489   2.747   3.406   2.332
 7182TIP3    H221490   2.852   3.494   2.395
 7183TIP3   OH221491   6.783   1.794   2.103
 7183TIP3    H121492   6.762   1.731   2.034
 7183TIP3    H221493   6.868   1.830   2.077
 7184TIP3   OH221494   5.148   1.550   1.313
 7184TIP3    H121495   5.218   1.507   1.263
 7184TIP3    H221496   5.166   1.526   1.404
 7185TIP3   OH221497   1.006   6.085   0.824
 7185TIP3    H121498   1.017   6.064   0.917
 7185TIP3    H221499   1.042   6.173   0.815
 7186TIP3   OH221500   2.269   3.479   1.772
 7186TIP3    H121501   2.205   3.488   1.843
 7186TIP3    H221502   2.238   3.538   1.704
 7187TIP3   OH221503   5.617   0.126   4.572
 7187TIP3    H121504   5.691   0.174   4.608
 7187TIP3    H221505   5.542   0.183   4.588
 7188TIP3   OH221506   1.647   7.529   1.627
 7188TIP3    H121507   1.593   7.606   1.642
 7188TIP3    H221508   1.737   7.560   1.638
 7189TIP3   OH221509   5.929   0.308   3.397
 7189TIP3    H121510   5.939   0.214   3.378
 7189TIP3    H221511   6.008   0.331   3.445
 7190TIP3   OH221512   1.826   1.895   0.222
 7190TIP3    H121513   1.779   1.865   0.299
 7190TIP3    H221514   1.853   1.984   0.243
 7191TIP3   OH221515   4.696   1.777   3.069
 7191TIP3    H121516   4.690   1.753   3.161
 7191TIP3    H221517   4.758   1.850   3.067
 7192TIP3   OH221518   0.459   6.895   1.553
 7192TIP3    H121519   0.490   6.926   1.467
 7192TIP3    H221520   0.448   6.975   1.605
 7193TIP3   OH221521   1.532   2.338   4.489
 7193TIP3    H121522   1.532   2.259   4.435
 7193TIP3    H221523   1.597   2.395   4.448
 7194TIP3   OH221524   7.322   1.496   3.293
 7194TIP3    H121525   7.366   1.421   3.332
 7194TIP3    H221526   7.374   1.572   3.322
 7195TIP3   OH221527   1.807   0.272   4.862
 7195TIP3    H121528   1.821   0.324   4.941
 7195TIP3    H221529   1.765   0.332   4.800
 7196TIP3   OH221530   2.158   6.828   6.809
 7196TIP3    H121531   2.098   6.759   6.837
 7196TIP3    H221532   2.162   6.819   6.714
 7197TIP3   OH221533   6.631   4.128   1.488
 7197TIP3    H121534   6.631   4.042   1.530
 7197TIP3    H221535   6.706   4.173   1.526
 7198TIP3   OH221536   7.104   7.783   1.659
 7198TIP3    H121537   7.038   7.716   1.643
 7198TIP3    H221538   7.170   7.739   1.713
 7199TIP3   OH221539   4.931   4.518   5.288
 7199TIP3    H121540   4.979   4.473   5.219
 7199TIP3    H221541   4.886   4.589   5.244
 7200TIP3   OH221542   1.167   5.494   1.042
 7200TIP3    H121543   1.156   5.451   1.127
 7200TIP3    H221544   1.206   5.579   1.063
 7201TIP3   OH221545   5.009   6.312   4.478
 7201TIP3    H121546   5.011   6.313   4.383
 7201TIP3    H221547   5.068   6.383   4.505
 7202TIP3   OH221548   3.631   4.247   2.848
 7202TIP3    H121549   3.700   4.287   2.795
 7202TIP3    H221550   3.589   4.185   2.788
 7203TIP3   OH221551   5.325   7.653   0.080
 7203TIP3    H121552   5.400   7.694   0.124
 7203TIP3    H221553   5.309   7.708   0.004
 7204TIP3   OH221554   6.472   2.982   4.598
 7204TIP3    H121555   6.496   2.897   4.636
 7204TIP3    H221556   6.552   3.012   4.555
 7205TIP3   OH221557   6.033   3.515   4.788
 7205TIP3    H121558   5.976   3.440   4.808
 7205TIP3    H221559   6.116   3.495   4.831
 7206TIP3   OH221560   6.538   5.835   4.282
 7206TIP3    H121561   6.456   5.879   4.261
 7206TIP3    H221562   6.569   5.801   4.198
 7207TIP3   OH221563   6.547   2.820   0.198
 7207TIP3    H121564   6.585   2.816   0.286
 7207TIP3    H221565   6.475   2.757   0.199
 7208TIP3   OH221566   4.144   4.377   1.368
 7208TIP3    H121567   4.191   4.320   1.429
 7208TIP3    H221568   4.118   4.452   1.422
 7209TIP3   OH221569   0.156   3.008   3.368
 7209TIP3    H121570   0.106   3.027   3.448
 7209TIP3    H221571   0.103   2.943   3.322
 7210TIP3   OH221572   1.348   5.230   4.030
 7210TIP3    H121573   1.383   5.319   4.041
 7210TIP3    H221574   1.253   5.242   4.028
 7211TIP3   OH221575   0.642   3.535   4.786
 7211TIP3    H121576   0.631   3.586   4.867
 7211TIP3    H221577   0.677   3.451   4.816
 7212TIP3   OH221578   3.949   1.606   2.222
 7212TIP3    H121579   4.008   1.549   2.172
 7212TIP3    H221580   3.942   1.563   2.307
 7213TIP3   OH221581   6.177   3.649   6.505
 7213TIP3    H121582   6.180   3.670   6.598
 7213TIP3    H221583   6.085   3.657   6.482
 7214TIP3   OH221584   3.616   5.198   4.652
 7214TIP3    H121585   3.581   5.257   4.718
 7214TIP3    H221586   3.586   5.111   4.678
 7215TIP3   OH221587   1.371   5.729   2.218
 7215TIP3    H121588   1.342   5.672   2.147
 7215TIP3    H221589   1.348   5.682   2.298
 7216TIP3   OH221590   1.707   7.754   0.271
 7216TIP3    H121591   1.681   7.696   0.199
 7216TIP3    H221592   1.767   7.817   0.231
 7217TIP3   OH221593   5.738   0.337   0.774
 7217TIP3    H121594   5.795   0.391   0.719
 7217TIP3    H221595   5.788   0.326   0.855
 7218TIP3   OH221596   3.317   7.488   4.145
 7218TIP3    H121597   3.374   7.421   4.108
 7218TIP3    H221598   3.270   7.524   4.069
 7219TIP3   OH221599   0.517   2.214   6.223
 7219TIP3    H121600   0.610   2.217   6.203
 7219TIP3    H221601   0.496   2.121   6.226
 7220TIP3   OH221602   6.536   2.323   3.355
 7220TIP3    H121603   6.511   2.333   3.447
 7220TIP3    H221604   6.509   2.404   3.314
 7221TIP3   OH221605   8.258   1.803   4.059
 7221TIP3    H121606   8.225   1.814   4.148
 7221TIP3    H221607   8.256   1.891   4.021
 7222TIP3   OH221608   1.538   0.388  -0.008
 7222TIP3    H121609   1.595   0.318  -0.039
 7222TIP3    H221610   1.451   0.364  -0.040
 7223TIP3   OH221611   3.848   5.149   0.406
 7223TIP3    H121612   3.786   5.219   0.388
 7223TIP3    H221613   3.932   5.193   0.419
 7224TIP3   OH221614   3.675   5.456   4.554
 7224TIP3    H121615   3.581   5.472   4.551
 7224TIP3    H221616   3.682   5.362   4.575
 7225TIP3   OH221617   1.354   5.086   1.170
 7225TIP3    H121618   1.345   5.079   1.075
 7225TIP3    H221619   1.274   5.130   1.199
 7226TIP3   OH221620   6.326   2.141   0.265
 7226TIP3    H121621   6.304   2.071   0.203
 7226TIP3    H221622   6.280   2.117   0.346
 7227TIP3   OH221623   3.404   1.889   5.853
 7227TIP3    H121624   3.400   1.945   5.931
 7227TIP3    H221625   3.323   1.839   5.855
 7228TIP3   OH221626   3.114   2.395   1.976
 7228TIP3    H121627   3.097   2.451   1.900
 7228TIP3    H221628   3.209   2.385   1.979
 7229TIP3   OH221629   4.260   2.912   0.738
 7229TIP3    H121630   4.295   2.960   0.813
 7229TIP3    H221631   4.333   2.858   0.709
 7230TIP3   OH221632   0.414   2.366   1.615
 7230TIP3    H121633   0.401   2.450   1.570
 7230TIP3    H221634   0.471   2.388   1.688
 7231TIP3   OH221635   6.986   1.590   6.240
 7231TIP3    H121636   6.927   1.524   6.278
 7231TIP3    H221637   6.967   1.588   6.147
 7232TIP3   OH221638   4.913   0.948   1.654
 7232TIP3    H121639   4.967   0.982   1.726
 7232TIP3    H221640   4.825   0.979   1.673
 7233TIP3   OH221641   2.429   2.196   4.536
 7233TIP3    H121642   2.403   2.174   4.625
 7233TIP3    H221643   2.480   2.277   4.545
 7234TIP3   OH221644   3.022   2.695   0.270
 7234TIP3    H121645   2.927   2.705   0.283
 7234TIP3    H221646   3.052   2.781   0.243
 7235TIP3   OH221647   6.874   4.868   2.211
 7235TIP3    H121648   6.831   4.902   2.133
 7235TIP3    H221649   6.926   4.942   2.243
 7236TIP3   OH221650   6.145   0.377   2.758
 7236TIP3    H121651   6.168   0.303   2.703
 7236TIP3    H221652   6.121   0.338   2.842
 7237TIP3   OH221653   0.238   4.740   3.467
 7237TIP3    H121654   0.179   4.773   3.535
 7237TIP3    H221655   0.296   4.813   3.447
 7238TIP3   OH221656   5.696   3.111   5.573
 7238TIP3    H121657   5.760   3.115   5.645
 7238TIP3    H221658   5.748   3.127   5.494
 7239TIP3   OH221659   5.902   1.801   5.320
 7239TIP3    H121660   5.816   1.761   5.328
 7239TIP3    H221661   5.885   1.889   5.287
 7240TIP3   OH221662   2.004   5.398   3.622
 7240TIP3    H121663   2.063   5.391   3.547
 7240TIP3    H221664   1.927   5.445   3.587
 7241TIP3   OH221665   2.824   3.470   0.170
 7241TIP3    H121666   2.742   3.436   0.132
 7241TIP3    H221667   2.805   3.479   0.263
 7242TIP3   OH221668   0.137   5.961   0.898
 7242TIP3    H121669   0.222   6.005   0.903
 7242TIP3    H221670   0.149   5.881   0.949
 7243TIP3   OH221671   1.119   3.618   1.056
 7243TIP3    H121672   1.037   3.662   1.033
 7243TIP3    H221673   1.185   3.687   1.053
 7244TIP3   OH221674   7.830   7.481   1.469
 7244TIP3    H121675   7.737   7.475   1.488
 7244TIP3    H221676   7.873   7.470   1.554
 7245TIP3   OH221677   4.444   3.297   2.640
 7245TIP3    H121678   4.432   3.392   2.636
 7245TIP3    H221679   4.383   3.263   2.574
 7246TIP3   OH221680   7.564   5.473   1.721
 7246TIP3    H121681   7.483   5.507   1.683
 7246TIP3    H221682   7.577   5.527   1.800
 7247TIP3   OH221683   6.909   3.450   6.767
 7247TIP3    H121684   6.978   3.387   6.743
 7247TIP3    H221685   6.832   3.421   6.717
 7248TIP3   OH221686   8.232   4.983   4.395
 7248TIP3    H121687   8.268   4.897   4.417
 7248TIP3    H221688   8.256   4.997   4.303
 7249TIP3   OH221689   0.530   5.892   3.551
 7249TIP3    H121690   0.467   5.821   3.536
 7249TIP3    H221691   0.543   5.892   3.646
 7250TIP3   OH221692   0.749   5.524   0.235
 7250TIP3    H121693   0.824   5.558   0.285
 7250TIP3    H221694   0.789   5.469   0.167
 7251TIP3   OH221695   2.001   1.822   5.831
 7251TIP3    H121696   1.977   1.789   5.918
 7251TIP3    H221697   1.922   1.811   5.779
 7252TIP3   OH221698   4.146   0.121   2.575
 7252TIP3    H121699   4.114   0.211   2.580
 7252TIP3    H221700   4.073   0.068   2.607
 7253TIP3   OH221701   6.885   0.504   4.624
 7253TIP3    H121702   6.941   0.578   4.600
 7253TIP3    H221703   6.808   0.514   4.569
 7254TIP3   OH221704   5.125   1.895   6.131
 7254TIP3    H121705   5.180   1.892   6.209
 7254TIP3    H221706   5.181   1.932   6.063
 7255TIP3   OH221707   1.049   7.468   5.528
 7255TIP3    H121708   1.030   7.465   5.622
 7255TIP3    H221709   0.967   7.443   5.487
 7256TIP3   OH221710   2.194   2.194   0.089
 7256TIP3    H121711   2.203   2.138   0.167
 7256TIP3    H221712   2.248   2.271   0.108
 7257TIP3   OH221713   0.423   4.484   4.944
 7257TIP3    H121714   0.440   4.524   5.029
 7257TIP3    H221715   0.357   4.416   4.963
 7258TIP3   OH221716   3.921   5.985   0.288
 7258TIP3    H121717   3.887   6.030   0.211
 7258TIP3    H221718   3.880   5.899   0.286
 7259TIP3   OH221719   3.964   0.882   3.743
 7259TIP3    H121720   4.052   0.878   3.780
 7259TIP3    H221721   3.977   0.860   3.650
 7260TIP3   OH221722   2.128   2.107   5.559
 7260TIP3    H121723   2.221   2.128   5.565
 7260TIP3    H221724   2.109   2.058   5.639
 7261TIP3   OH221725   3.797   5.757   0.188
 7261TIP3    H121726   3.826   5.710   0.110
 7261TIP3    H221727   3.702   5.749   0.186
 7262TIP3   OH221728   2.126   2.114   0.629
 7262TIP3    H121729   2.033   2.121   0.608
 7262TIP3    H221730   2.141   2.020   0.638
 7263TIP3   OH221731   6.456   5.868   4.661
 7263TIP3    H121732   6.423   5.923   4.732
 7263TIP3    H221733   6.468   5.929   4.588
 7264TIP3   OH221734   6.315   0.941   4.352
 7264TIP3    H121735   6.239   0.901   4.394
 7264TIP3    H221736   6.293   1.034   4.345
 7265TIP3   OH221737   3.962   4.398   2.381
 7265TIP3    H121738   3.976   4.450   2.460
 7265TIP3    H221739   3.893   4.444   2.334
 7266TIP3   OH221740   2.990   0.722   3.346
 7266TIP3    H121741   2.966   0.655   3.283
 7266TIP3    H221742   2.941   0.799   3.319
 7267TIP3   OH221743   2.298   0.019   5.690
 7267TIP3    H121744   2.350   0.068   5.755
 7267TIP3    H221745   2.364  -0.023   5.635
 7268TIP3   OH221746   2.207   1.319   3.134
 7268TIP3    H121747   2.213   1.414   3.124
 7268TIP3    H221748   2.249   1.301   3.219
 7269TIP3   OH221749   0.593   4.226   3.755
 7269TIP3    H121750   0.520   4.286   3.770
 7269TIP3    H221751   0.637   4.261   3.677
 7270TIP3   OH221752   7.928   5.012   0.907
 7270TIP3    H121753   7.971   4.992   0.824
 7270TIP3    H221754   7.857   4.947   0.913
 7271TIP3   OH221755   4.440   1.391   1.713
 7271TIP3    H121756   4.452   1.359   1.803
 7271TIP3    H221757   4.504   1.342   1.662
 7272TIP3   OH221758   7.136   2.036   5.273
 7272TIP3    H121759   7.098   2.004   5.191
 7272TIP3    H221760   7.063   2.078   5.319
 7273TIP3   OH221761   7.207   4.033   0.075
 7273TIP3    H121762   7.242   4.118   0.102
 7273TIP3    H221763   7.226   4.028  -0.019
 7274TIP3   OH221764   1.353   1.903   2.557
 7274TIP3    H121765   1.355   1.981   2.502
 7274TIP3    H221766   1.355   1.936   2.647
 7275TIP3   OH221767   7.601   5.847   1.487
 7275TIP3    H121768   7.565   5.787   1.422
 7275TIP3    H221769   7.692   5.818   1.499
 7276TIP3   OH221770   4.950   7.659   1.318
 7276TIP3    H121771   5.010   7.628   1.387
 7276TIP3    H221772   4.991   7.739   1.285
 7277TIP3   OH221773   1.794   6.729   5.217
 7277TIP3    H121774   1.796   6.640   5.184
 7277TIP3    H221775   1.710   6.764   5.187
 7278TIP3   OH221776   1.799   3.132   0.005
 7278TIP3    H121777   1.888   3.159  -0.019
 7278TIP3    H221778   1.810   3.086   0.088
 7279TIP3   OH221779   0.211   3.597   1.222
 7279TIP3    H121780   0.291   3.640   1.253
 7279TIP3    H221781   0.240   3.541   1.150
 7280TIP3   OH221782   3.288   0.112   3.443
 7280TIP3    H121783   3.260   0.189   3.393
 7280TIP3    H221784   3.376   0.133   3.472
 7281TIP3   OH221785   1.649   4.217   4.522
 7281TIP3    H121786   1.654   4.164   4.602
 7281TIP3    H221787   1.717   4.284   4.533
 7282TIP3   OH221788   4.254   0.233   4.206
 7282TIP3    H121789   4.251   0.224   4.301
 7282TIP3    H221790   4.235   0.326   4.191
 7283TIP3   OH221791   2.919   6.042   6.271
 7283TIP3    H121792   3.010   6.026   6.297
 7283TIP3    H221793   2.922   6.046   6.175
 7284TIP3   OH221794   2.146   5.609   6.400
 7284TIP3    H121795   2.119   5.658   6.478
 7284TIP3    H221796   2.165   5.677   6.335
 7285TIP3   OH221797   0.049   3.639   6.401
 7285TIP3    H121798   0.044   3.699   6.326
 7285TIP3    H221799   0.075   3.695   6.474
 7286TIP3   OH221800   6.366   4.667   1.798
 7286TIP3    H121801   6.355   4.573   1.784
 7286TIP3    H221802   6.299   4.689   1.862
 7287TIP3   OH221803   1.760   5.094   3.502
 7287TIP3    H121804   1.737   5.013   3.456
 7287TIP3    H221805   1.832   5.131   3.451
 7288TIP3   OH221806   1.461   2.210   2.165
 7288TIP3    H121807   1.514   2.288   2.147
 7288TIP3    H221808   1.496   2.143   2.106
 7289TIP3   OH221809   3.708   1.674   0.636
 7289TIP3    H121810   3.674   1.760   0.612
 7289TIP3    H221811   3.631   1.624   0.662
 7290TIP3   OH221812   5.343   1.618   2.574
 7290TIP3    H121813   5.386   1.637   2.657
 7290TIP3    H221814   5.325   1.524   2.577
 7291TIP3   OH221815   0.381   6.191   5.962
 7291TIP3    H121816   0.349   6.277   5.989
 7291TIP3    H221817   0.302   6.136   5.960
 7292TIP3   OH221818   1.080   4.822   4.663
 7292TIP3    H121819   0.985   4.815   4.673
 7292TIP3    H221820   1.099   4.914   4.679
 7293TIP3   OH221821   5.952   0.422   3.876
 7293TIP3    H121822   5.916   0.503   3.840
 7293TIP3    H221823   6.034   0.448   3.917
 7294TIP3   OH221824   6.668   4.856   0.623
 7294TIP3    H121825   6.638   4.922   0.561
 7294TIP3    H221826   6.606   4.783   0.612
 7295TIP3   OH221827   3.003   5.775   5.695
 7295TIP3    H121828   3.018   5.722   5.617
 7295TIP3    H221829   3.001   5.865   5.662
 7296TIP3   OH221830   0.937   0.686   4.360
 7296TIP3    H121831   1.005   0.619   4.351
 7296TIP3    H221832   0.918   0.713   4.270
 7297TIP3   OH221833   4.333   1.377   5.415
 7297TIP3    H121834   4.316   1.399   5.323
 7297TIP3    H221835   4.424   1.346   5.415
 7298TIP3   OH221836   5.816   2.074   3.893
 7298TIP3    H121837   5.898   2.124   3.899
 7298TIP3    H221838   5.814   2.021   3.972
 7299TIP3   OH221839   7.193   6.456   0.399
 7299TIP3    H121840   7.103   6.441   0.370
 7299TIP3    H221841   7.211   6.385   0.460
 7300TIP3   OH221842   5.834   7.356   4.983
 7300TIP3    H121843   5.844   7.414   4.908
 7300TIP3    H221844   5.913   7.370   5.035
 7301TIP3   OH221845   2.819   2.877   3.380
 7301TIP3    H121846   2.724   2.876   3.392
 7301TIP3    H221847   2.855   2.854   3.466
 7302TIP3   OH221848   8.102   5.552   2.038
 7302TIP3    H121849   8.116   5.535   1.945
 7302TIP3    H221850   8.057   5.636   2.041
 7303TIP3   OH221851   7.723   7.458   1.894
 7303TIP3    H121852   7.645   7.410   1.865
 7303TIP3    H221853   7.729   7.439   1.988
 7304TIP3   OH221854   5.615   5.046   3.390
 7304TIP3    H121855   5.685   5.110   3.394
 7304TIP3    H221856   5.648   4.979   3.330
 7305TIP3   OH221857   0.386   0.733   5.342
 7305TIP3    H121858   0.316   0.774   5.291
 7305TIP3    H221859   0.370   0.639   5.334
 7306TIP3   OH221860   6.104   3.226   6.591
 7306TIP3    H121861   6.073   3.189   6.508
 7306TIP3    H221862   6.198   3.206   6.592
 7307TIP3   OH221863   0.472   3.436   6.348
 7307TIP3    H121864   0.384   3.413   6.317
 7307TIP3    H221865   0.474   3.532   6.345
 7308TIP3   OH221866   5.456   5.697   6.156
 7308TIP3    H121867   5.454   5.655   6.070
 7308TIP3    H221868   5.411   5.635   6.214
 7309TIP3   OH221869   4.180   2.962   0.224
 7309TIP3    H121870   4.275   2.957   0.232
 7309TIP3    H221871   4.162   3.055   0.209
 7310TIP3   OH221872   3.825   0.139   3.017
 7310TIP3    H121873   3.832   0.171   2.928
 7310TIP3    H221874   3.736   0.162   3.045
 7311TIP3   OH221875   0.237   7.615   5.572
 7311TIP3    H121876   0.147   7.648   5.579
 7311TIP3    H221877   0.275   7.664   5.499
 7312TIP3   OH221878   2.935   4.391   0.326
 7312TIP3    H121879   2.891   4.466   0.367
 7312TIP3    H221880   2.982   4.429   0.251
 7313TIP3   OH221881   2.345   7.194   5.740
 7313TIP3    H121882   2.394   7.155   5.813
 7313TIP3    H221883   2.401   7.180   5.664
 7314TIP3   OH221884   1.344   6.327   1.778
 7314TIP3    H121885   1.370   6.361   1.864
 7314TIP3    H221886   1.408   6.258   1.760
 7315TIP3   OH221887   2.757   3.556   4.090
 7315TIP3    H121888   2.678   3.514   4.123
 7315TIP3    H221889   2.746   3.558   3.995
 7316TIP3   OH221890   7.302   7.675   0.304
 7316TIP3    H121891   7.296   7.667   0.399
 7316TIP3    H221892   7.386   7.717   0.289
 7317TIP3   OH221893   4.013   7.665   4.734
 7317TIP3    H121894   3.996   7.609   4.809
 7317TIP3    H221895   3.956   7.631   4.665
 7318TIP3   OH221896   5.818   1.579   4.917
 7318TIP3    H121897   5.779   1.587   5.004
 7318TIP3    H221898   5.786   1.655   4.869
 7319TIP3   OH221899   5.149   0.222   5.172
 7319TIP3    H121900   5.069   0.169   5.167
 7319TIP3    H221901   5.217   0.162   5.201
 7320TIP3   OH221902   4.648   0.345   6.253
 7320TIP3    H121903   4.659   0.351   6.158
 7320TIP3    H221904   4.697   0.267   6.278
 7321TIP3   OH221905   5.204   2.379   2.048
 7321TIP3    H121906   5.170   2.465   2.026
 7321TIP3    H221907   5.130   2.333   2.088
 7322TIP3   OH221908   1.867   3.216   3.330
 7322TIP3    H121909   1.866   3.121   3.324
 7322TIP3    H221910   1.864   3.246   3.239
 7323TIP3   OH221911   2.923   2.955   3.985
 7323TIP3    H121912   2.929   3.049   4.001
 7323TIP3    H221913   3.003   2.919   4.023
 7324TIP3   OH221914   7.029   1.825   1.980
 7324TIP3    H121915   7.051   1.902   1.928
 7324TIP3    H221916   7.044   1.751   1.922
 7325TIP3   OH221917   1.541   2.488   1.490
 7325TIP3    H121918   1.574   2.577   1.475
 7325TIP3    H221919   1.460   2.500   1.539
 7326TIP3   OH221920   3.520   4.978   0.113
 7326TIP3    H121921   3.490   5.019   0.194
 7326TIP3    H221922   3.611   5.007   0.103
 7327TIP3   OH221923   2.381   5.520   2.653
 7327TIP3    H121924   2.363   5.544   2.744
 7327TIP3    H221925   2.352   5.596   2.602
 7328TIP3   OH221926   4.211   2.186   5.035
 7328TIP3    H121927   4.210   2.160   4.942
 7328TIP3    H221928   4.137   2.140   5.074
 7329TIP3   OH221929   8.113   2.378   2.183
 7329TIP3    H121930   8.046   2.343   2.124
 7329TIP3    H221931   8.105   2.324   2.262
 7330TIP3   OH221932   4.660   1.453   4.560
 7330TIP3    H121933   4.709   1.371   4.553
 7330TIP3    H221934   4.723   1.514   4.600
 7331TIP3   OH221935   2.594   0.684   3.793
 7331TIP3    H121936   2.511   0.657   3.832
 7331TIP3    H221937   2.627   0.606   3.750
 7332TIP3   OH221938   1.966   4.718   1.051
 7332TIP3    H121939   2.002   4.727   1.139
 7332TIP3    H221940   1.915   4.797   1.037
 7333TIP3   OH221941   3.768   1.547   3.876
 7333TIP3    H121942   3.860   1.569   3.858
 7333TIP3    H221943   3.720   1.628   3.858
 7334TIP3   OH221944   5.588   2.206   1.067
 7334TIP3    H121945   5.568   2.254   0.987
 7334TIP3    H221946   5.511   2.218   1.123
 7335TIP3   OH221947   0.939   4.382   4.388
 7335TIP3    H121948   0.881   4.365   4.462
 7335TIP3    H221949   0.943   4.477   4.382
 7336TIP3   OH221950   5.465   6.882   0.936
 7336TIP3    H121951   5.506   6.835   1.008
 7336TIP3    H221952   5.494   6.973   0.947
 7337TIP3   OH221953   0.409   5.945   3.111
 7337TIP3    H121954   0.351   5.996   3.168
 7337TIP3    H221955   0.351   5.879   3.072
 7338TIP3   OH221956   4.757   5.513   2.538
 7338TIP3    H121957   4.748   5.419   2.553
 7338TIP3    H221958   4.820   5.541   2.603
 7339TIP3   OH221959   6.127   2.114   2.669
 7339TIP3    H121960   6.172   2.123   2.754
 7339TIP3    H221961   6.057   2.178   2.672
 7340TIP3   OH221962   4.915   0.643   6.434
 7340TIP3    H121963   4.955   0.724   6.467
 7340TIP3    H221964   4.825   0.667   6.414
 7341TIP3   OH221965   3.109   2.117   4.900
 7341TIP3    H121966   3.099   2.052   4.970
 7341TIP3    H221967   3.203   2.123   4.886
 7342TIP3   OH221968   5.880   2.681   6.627
 7342TIP3    H121969   5.930   2.754   6.590
 7342TIP3    H221970   5.946   2.622   6.662
 7343TIP3   OH221971   6.191   4.052   1.361
 7343TIP3    H121972   6.205   3.976   1.304
 7343TIP3    H221973   6.252   4.118   1.329
 7344TIP3   OH221974   2.150   6.688   6.564
 7344TIP3    H121975   2.143   6.618   6.629
 7344TIP3    H221976   2.103   6.655   6.488
 7345TIP3   OH221977   5.984   7.754   0.377
 7345TIP3    H121978   5.987   7.666   0.339
 7345TIP3    H221979   6.053   7.802   0.332
 7346TIP3   OH221980   6.951   1.284   0.299
 7346TIP3    H121981   7.039   1.314   0.274
 7346TIP3    H221982   6.943   1.198   0.258
 7347TIP3   OH221983   2.754   0.771   1.724
 7347TIP3    H121984   2.671   0.791   1.680
 7347TIP3    H221985   2.733   0.703   1.787
 7348TIP3   OH221986   0.562   2.782   2.042
 7348TIP3    H121987   0.588   2.784   2.134
 7348TIP3    H221988   0.471   2.810   2.043
 7349TIP3   OH221989   0.448   0.381   4.476
 7349TIP3    H121990   0.450   0.452   4.412
 7349TIP3    H221991   0.386   0.317   4.439
 7350TIP3   OH221992   1.055   1.760   0.193
 7350TIP3    H121993   0.961   1.755   0.211
 7350TIP3    H221994   1.097   1.721   0.269
 7351TIP3   OH221995   3.599   6.778   5.341
 7351TIP3    H121996   3.666   6.806   5.278
 7351TIP3    H221997   3.561   6.699   5.303
 7352TIP3   OH221998   6.366   2.087   1.631
 7352TIP3    H121999   6.284   2.124   1.598
 7352TIP3    H222000   6.434   2.138   1.587
 7353TIP3   OH222001   7.334   4.402   6.094
 7353TIP3    H122002   7.320   4.312   6.123
 7353TIP3    H222003   7.366   4.394   6.004
 7354TIP3   OH222004   2.441   5.238   5.977
 7354TIP3    H122005   2.416   5.165   6.035
 7354TIP3    H222006   2.419   5.207   5.889
 7355TIP3   OH222007   6.144   7.062   1.493
 7355TIP3    H122008   6.213   7.114   1.533
 7355TIP3    H222009   6.080   7.127   1.462
 7356TIP3   OH222010   1.300   7.371   5.572
 7356TIP3    H122011   1.357   7.439   5.535
 7356TIP3    H222012   1.211   7.400   5.549
 7357TIP3   OH222013   4.654   4.649   4.562
 7357TIP3    H122014   4.561   4.671   4.562
 7357TIP3    H222015   4.681   4.664   4.471
 7358TIP3   OH222016   5.504   0.730   0.970
 7358TIP3    H122017   5.575   0.729   0.905
 7358TIP3    H222018   5.424   0.729   0.918
 7359TIP3   OH222019   6.422   4.635   4.867
 7359TIP3    H122020   6.502   4.684   4.846
 7359TIP3    H222021   6.444   4.587   4.947
 7360TIP3   OH222022   0.409   7.499   6.195
 7360TIP3    H122023   0.321   7.485   6.231
 7360TIP3    H222024   0.461   7.427   6.232
 7361TIP3   OH222025   4.481   0.622   0.294
 7361TIP3    H122026   4.497   0.674   0.373
 7361TIP3    H222027   4.453   0.537   0.327
 7362TIP3   OH222028   0.678   7.598   4.787
 7362TIP3    H122029   0.718   7.682   4.809
 7362TIP3    H222030   0.609   7.586   4.853
 7363TIP3   OH222031   8.122   4.436   6.790
 7363TIP3    H122032   8.156   4.525   6.795
 7363TIP3    H222033   8.087   4.428   6.702
 7364TIP3   OH222034   3.547   5.421   5.588
 7364TIP3    H122035   3.474   5.424   5.649
 7364TIP3    H222036   3.617   5.470   5.631
 7365TIP3   OH222037   7.752   1.951   5.628
 7365TIP3    H122038   7.752   1.969   5.722
 7365TIP3    H222039   7.838   1.914   5.610
 7366TIP3   OH222040   5.091   5.352   0.736
 7366TIP3    H122041   5.007   5.320   0.704
 7366TIP3    H222042   5.109   5.299   0.814
 7367TIP3   OH222043   4.681   5.714   0.244
 7367TIP3    H122044   4.593   5.750   0.227
 7367TIP3    H222045   4.729   5.785   0.285
 7368TIP3   OH222046   3.235   3.649   4.836
 7368TIP3    H122047   3.270   3.700   4.908
 7368TIP3    H222048   3.216   3.563   4.873
 7369TIP3   OH222049   0.074   1.239   5.121
 7369TIP3    H122050   0.113   1.320   5.153
 7369TIP3    H222051   0.121   1.219   5.041
 7370TIP3   OH222052   1.852   7.310   4.373
 7370TIP3    H122053   1.930   7.317   4.318
 7370TIP3    H222054   1.780   7.295   4.311
 7371TIP3   OH222055   6.478   0.121   3.934
 7371TIP3    H122056   6.426   0.068   3.995
 7371TIP3    H222057   6.551   0.064   3.910
 7372TIP3   OH222058   2.966   1.296   3.024
 7372TIP3    H122059   3.037   1.332   2.970
 7372TIP3    H222060   2.983   1.202   3.027
 7373TIP3   OH222061   4.285   0.964   1.496
 7373TIP3    H122062   4.311   0.948   1.405
 7373TIP3    H222063   4.341   0.905   1.547
 7374TIP3   OH222064   0.211   4.630   1.740
 7374TIP3    H122065   0.287   4.619   1.797
 7374TIP3    H222066   0.175   4.715   1.765
 7375TIP3   OH222067   4.847   7.134   1.010
 7375TIP3    H122068   4.793   7.109   0.935
 7375TIP3    H222069   4.930   7.089   0.995
 7376TIP3   OH222070   8.094   0.409   6.086
 7376TIP3    H122071   8.179   0.379   6.119
 7376TIP3    H222072   8.033   0.339   6.109
 7377TIP3   OH222073   3.954   4.567   2.609
 7377TIP3    H122074   3.912   4.489   2.644
 7377TIP3    H222075   3.988   4.613   2.686
 7378TIP3   OH222076   4.475   2.989   0.195
 7378TIP3    H122077   4.540   3.058   0.208
 7378TIP3    H222078   4.526   2.914   0.165
 7379TIP3   OH222079   0.315   7.029   5.582
 7379TIP3    H122080   0.286   6.959   5.640
 7379TIP3    H222081   0.359   6.984   5.510
 7380TIP3   OH222082   4.928   1.405   6.652
 7380TIP3    H122083   4.914   1.397   6.746
 7380TIP3    H222084   4.954   1.496   6.639
 7381TIP3   OH222085   6.524   0.383   6.073
 7381TIP3    H122086   6.526   0.297   6.030
 7381TIP3    H222087   6.432   0.395   6.098
 7382TIP3   OH222088   2.284   6.209   3.298
 7382TIP3    H122089   2.284   6.183   3.390
 7382TIP3    H222090   2.376   6.206   3.272
 7383TIP3   OH222091   2.528   6.259   4.812
 7383TIP3    H122092   2.521   6.315   4.890
 7383TIP3    H222093   2.598   6.299   4.760
 7384TIP3   OH222094   6.030   6.982   3.142
 7384TIP3    H122095   6.094   6.991   3.071
 7384TIP3    H222096   6.084   6.974   3.221
 7385TIP3   OH222097   3.946   5.954   2.296
 7385TIP3    H122098   3.923   5.864   2.272
 7385TIP3    H222099   4.040   5.960   2.280
 7386TIP3   OH222100   0.105   4.408   0.283
 7386TIP3    H122101   0.099   4.474   0.214
 7386TIP3    H222102   0.130   4.327   0.238
 7387TIP3   OH222103   5.739   5.678   6.211
 7387TIP3    H122104   5.660   5.680   6.158
 7387TIP3    H222105   5.778   5.592   6.193
 7388TIP3   OH222106   1.534   7.197   1.208
 7388TIP3    H122107   1.452   7.196   1.160
 7388TIP3    H222108   1.585   7.126   1.170
 7389TIP3   OH222109   6.237   0.631   6.376
 7389TIP3    H122110   6.234   0.661   6.286
 7389TIP3    H222111   6.154   0.585   6.390
 7390TIP3   OH222112   7.791   5.975   6.252
 7390TIP3    H122113   7.868   6.024   6.282
 7390TIP3    H222114   7.827   5.896   6.212
 7391TIP3   OH222115   3.435   2.735   6.695
 7391TIP3    H122116   3.416   2.702   6.783
 7391TIP3    H222117   3.356   2.782   6.670
 7392TIP3   OH222118   4.781   3.617   3.529
 7392TIP3    H122119   4.842   3.653   3.464
 7392TIP3    H222120   4.838   3.573   3.592
 7393TIP3   OH222121   7.954   3.569   5.490
 7393TIP3    H122122   7.900   3.570   5.569
 7393TIP3    H222123   7.957   3.660   5.462
 7394TIP3   OH222124   7.543   2.452   6.558
 7394TIP3    H122125   7.541   2.387   6.628
 7394TIP3    H222126   7.636   2.464   6.539
 7395TIP3   OH222127   7.050   3.786   1.886
 7395TIP3    H122128   7.141   3.760   1.901
 7395TIP3    H222129   7.007   3.774   1.971
 7396TIP3   OH222130   7.106   5.136   0.223
 7396TIP3    H122131   7.025   5.094   0.192
 7396TIP3    H222132   7.083   5.169   0.310
 7397TIP3   OH222133   7.459   4.482   3.861
 7397TIP3    H122134   7.521   4.532   3.808
 7397TIP3    H222135   7.373   4.508   3.828
 7398TIP3   OH222136   2.881   6.747   4.464
 7398TIP3    H122137   2.949   6.712   4.522
 7398TIP3    H222138   2.880   6.841   4.482
 7399TIP3   OH222139   6.087   5.576   6.071
 7399TIP3    H122140   6.182   5.580   6.082
 7399TIP3    H222141   6.074   5.537   5.984
 7400TIP3   OH222142   5.716   1.268   4.509
 7400TIP3    H122143   5.653   1.314   4.565
 7400TIP3    H222144   5.801   1.287   4.549
 7401TIP3   OH222145   5.603   4.221   4.873
 7401TIP3    H122146   5.565   4.175   4.948
 7401TIP3    H222147   5.695   4.193   4.872
 7402TIP3   OH222148   3.786   5.214   5.913
 7402TIP3    H122149   3.851   5.280   5.935
 7402TIP3    H222150   3.814   5.181   5.828
 7403TIP3   OH222151   6.350   0.400   3.731
 7403TIP3    H122152   6.401   0.410   3.812
 7403TIP3    H222153   6.294   0.325   3.747
 7404TIP3   OH222154   2.473   3.429   5.459
 7404TIP3    H122155   2.418   3.352   5.476
 7404TIP3    H222156   2.509   3.414   5.371
 7405TIP3   OH222157   2.580   7.174   4.714
 7405TIP3    H122158   2.583   7.203   4.805
 7405TIP3    H222159   2.487   7.174   4.691
 7406TIP3   OH222160   7.605   1.016   3.409
 7406TIP3    H122161   7.642   1.096   3.447
 7406TIP3    H222162   7.583   1.040   3.319
 7407TIP3   OH222163   4.995   1.268   1.549
 7407TIP3    H122164   4.956   1.284   1.463
 7407TIP3    H222165   5.086   1.296   1.539
 7408TIP3   OH222166   6.728   5.585   6.754
 7408TIP3    H122167   6.649   5.533   6.764
 7408TIP3    H222168   6.799   5.527   6.781
 7409TIP3   OH222169   7.012   7.327   6.110
 7409TIP3    H122170   6.937   7.380   6.084
 7409TIP3    H222171   6.979   7.237   6.110
 7410TIP3   OH222172   3.423   0.382   5.612
 7410TIP3    H122173   3.510   0.367   5.648
 7410TIP3    H222174   3.407   0.476   5.627
 7411TIP3   OH222175   8.063   2.457   0.468
 7411TIP3    H122176   7.992   2.424   0.523
 7411TIP3    H222177   8.084   2.543   0.504
 7412TIP3   OH222178   6.573   6.538   2.517
 7412TIP3    H122179   6.480   6.544   2.541
 7412TIP3    H222180   6.589   6.445   2.503
 7413TIP3   OH222181   0.306   3.659   0.300
 7413TIP3    H122182   0.305   3.708   0.218
 7413TIP3    H222183   0.223   3.610   0.299
 7414TIP3   OH222184   7.925   4.754   3.678
 7414TIP3    H122185   7.902   4.708   3.597
 7414TIP3    H222186   7.969   4.833   3.649
 7415TIP3   OH222187   0.558   5.869   2.888
 7415TIP3    H122188   0.648   5.857   2.917
 7415TIP3    H222189   0.506   5.870   2.969
 7416TIP3   OH222190   2.727   4.586   5.410
 7416TIP3    H122191   2.648   4.578   5.355
 7416TIP3    H222192   2.787   4.639   5.358
 7417TIP3   OH222193   6.900   5.466   0.263
 7417TIP3    H122194   6.832   5.504   0.318
 7417TIP3    H222195   6.872   5.486   0.173
 7418TIP3   OH222196   8.161   3.266   6.038
 7418TIP3    H122197   8.253   3.291   6.023
 7418TIP3    H222198   8.147   3.283   6.131
 7419TIP3   OH222199   3.183   5.165   6.178
 7419TIP3    H122200   3.133   5.198   6.252
 7419TIP3    H222201   3.230   5.089   6.212
 7420TIP3   OH222202   0.912   1.481   5.745
 7420TIP3    H122203   0.904   1.488   5.840
 7420TIP3    H222204   1.005   1.496   5.727
 7421TIP3   OH222205   0.845   6.126   5.477
 7421TIP3    H122206   0.932   6.122   5.517
 7421TIP3    H222207   0.846   6.059   5.409
 7422TIP3   OH222208   6.076   4.667   1.639
 7422TIP3    H122209   5.998   4.663   1.695
 7422TIP3    H222210   6.095   4.576   1.617
 7423TIP3   OH222211   7.224   0.018   0.762
 7423TIP3    H122212   7.314  -0.009   0.741
 7423TIP3    H222213   7.229   0.113   0.769
 7424TIP3   OH222214   2.025   5.099   0.463
 7424TIP3    H122215   1.956   5.084   0.527
 7424TIP3    H222216   1.990   5.063   0.381
 7425TIP3   OH222217   5.108   1.827   1.031
 7425TIP3    H122218   5.080   1.825   1.122
 7425TIP3    H222219   5.062   1.902   0.994
 7426TIP3   OH222220   2.927   2.358   0.714
 7426TIP3    H122221   2.946   2.452   0.724
 7426TIP3    H222222   2.873   2.354   0.635
 7427TIP3   OH222223   2.217   4.165   0.645
 7427TIP3    H122224   2.133   4.118   0.639
 7427TIP3    H222225   2.257   4.152   0.559
 7428TIP3   OH222226   7.703   5.642   3.222
 7428TIP3    H122227   7.624   5.684   3.189
 7428TIP3    H222228   7.683   5.621   3.313
 7429TIP3   OH222229   3.966   5.862   5.391
 7429TIP3    H122230   4.051   5.880   5.432
 7429TIP3    H222231   3.982   5.787   5.335
 7430TIP3   OH222232   7.802   4.710   5.485
 7430TIP3    H122233   7.816   4.717   5.579
 7430TIP3    H222234   7.716   4.749   5.470
 7431TIP3   OH222235   5.469   0.114   0.877
 7431TIP3    H122236   5.453   0.204   0.907
 7431TIP3    H222237   5.560   0.098   0.900
 7432TIP3   OH222238   3.975   7.307   2.572
 7432TIP3    H122239   3.976   7.302   2.668
 7432TIP3    H222240   3.894   7.353   2.551
 7433TIP3   OH222241   6.719   6.124   3.790
 7433TIP3    H122242   6.711   6.189   3.721
 7433TIP3    H222243   6.689   6.042   3.750
 7434TIP3   OH222244   2.917   2.087   0.339
 7434TIP3    H122245   2.829   2.121   0.331
 7434TIP3    H222246   2.951   2.127   0.419
 7435TIP3   OH222247   5.235   3.154   4.434
 7435TIP3    H122248   5.142   3.157   4.410
 7435TIP3    H222249   5.247   3.065   4.468
 7436TIP3   OH222250   6.079   0.793   4.414
 7436TIP3    H122251   6.089   0.737   4.492
 7436TIP3    H222252   5.994   0.768   4.378
 7437TIP3   OH222253   4.076   7.619   5.224
 7437TIP3    H122254   4.081   7.601   5.318
 7437TIP3    H222255   4.076   7.714   5.218
 7438TIP3   OH222256   7.574   6.277   3.119
 7438TIP3    H122257   7.606   6.310   3.203
 7438TIP3    H222258   7.625   6.197   3.104
 7439TIP3   OH222259   5.045   7.300   5.424
 7439TIP3    H122260   4.950   7.288   5.428
 7439TIP3    H222261   5.057   7.392   5.401
 7440TIP3   OH222262   5.351   7.324   3.638
 7440TIP3    H122263   5.258   7.335   3.619
 7440TIP3    H222264   5.386   7.413   3.641
 7441TIP3   OH222265   1.632   2.659   1.123
 7441TIP3    H122266   1.600   2.745   1.150
 7441TIP3    H222267   1.553   2.610   1.101
 7442TIP3   OH222268   5.467   7.772   4.234
 7442TIP3    H122269   5.487   7.797   4.144
 7442TIP3    H222270   5.371   7.767   4.236
 7443TIP3   OH222271   5.083   6.479   1.025
 7443TIP3    H122272   5.112   6.529   1.102
 7443TIP3    H222273   4.991   6.458   1.043
 7444TIP3   OH222274   4.527   6.668   0.878
 7444TIP3    H122275   4.528   6.593   0.819
 7444TIP3    H222276   4.587   6.644   0.948
 7445TIP3   OH222277   4.978   1.881   2.289
 7445TIP3    H122278   5.026   1.819   2.344
 7445TIP3    H222279   4.972   1.960   2.342
 7446TIP3   OH222280   3.136   0.225   6.613
 7446TIP3    H122281   3.137   0.172   6.533
 7446TIP3    H222282   3.173   0.310   6.586
 7447TIP3   OH222283   4.223   6.488   1.677
 7447TIP3    H122284   4.284   6.502   1.749
 7447TIP3    H222285   4.230   6.568   1.624
 7448TIP3   OH222286   6.246   6.755   2.214
 7448TIP3    H122287   6.257   6.848   2.191
 7448TIP3    H222288   6.328   6.731   2.257
 7449TIP3   OH222289   7.260   7.030   3.248
 7449TIP3    H122290   7.176   7.024   3.201
 7449TIP3    H222291   7.326   7.035   3.179
 7450TIP3   OH222292   0.584   7.238   6.047
 7450TIP3    H122293   0.517   7.181   6.010
 7450TIP3    H222294   0.596   7.207   6.137
 7451TIP3   OH222295   5.708   2.648   2.039
 7451TIP3    H122296   5.764   2.723   2.019
 7451TIP3    H222297   5.770   2.577   2.059
 7452TIP3   OH222298   3.468   4.037   0.515
 7452TIP3    H122299   3.428   3.985   0.585
 7452TIP3    H222300   3.401   4.039   0.446
 7453TIP3   OH222301   0.598   5.480   0.664
 7453TIP3    H122302   0.641   5.419   0.724
 7453TIP3    H222303   0.607   5.439   0.577
 7454TIP3   OH222304   7.136   6.892   6.655
 7454TIP3    H122305   7.207   6.834   6.683
 7454TIP3    H222306   7.156   6.976   6.697
 7455TIP3   OH222307   4.163   3.947   1.513
 7455TIP3    H122308   4.157   4.018   1.577
 7455TIP3    H222309   4.140   3.868   1.563
 7456TIP3   OH222310   8.160   1.753   6.095
 7456TIP3    H122311   8.068   1.773   6.107
 7456TIP3    H222312   8.175   1.675   6.150
 7457TIP3   OH222313   1.148   1.518   6.020
 7457TIP3    H122314   1.223   1.550   6.071
 7457TIP3    H222315   1.171   1.535   5.929
 7458TIP3   OH222316   4.890   4.702   5.103
 7458TIP3    H122317   4.921   4.684   5.015
 7458TIP3    H222318   4.804   4.741   5.091
 7459TIP3   OH222319   7.349   6.936   0.725
 7459TIP3    H122320   7.426   6.904   0.678
 7459TIP3    H222321   7.275   6.904   0.673
 7460TIP3   OH222322   3.000   0.828   5.240
 7460TIP3    H122323   3.064   0.798   5.305
 7460TIP3    H222324   3.052   0.876   5.176
 7461TIP3   OH222325   2.519   6.020   2.176
 7461TIP3    H122326   2.542   5.970   2.097
 7461TIP3    H222327   2.598   6.016   2.230
 7462TIP3   OH222328   2.282   2.519   4.451
 7462TIP3    H122329   2.190   2.537   4.470
 7462TIP3    H222330   2.281   2.469   4.370
 7463TIP3   OH222331   1.694   3.863   0.172
 7463TIP3    H122332   1.626   3.835   0.233
 7463TIP3    H222333   1.775   3.827   0.208
 7464TIP3   OH222334   6.501   7.605   0.629
 7464TIP3    H122335   6.417   7.559   0.632
 7464TIP3    H222336   6.555   7.560   0.694
 7465TIP3   OH222337   7.678   2.199   4.176
 7465TIP3    H122338   7.652   2.282   4.135
 7465TIP3    H222339   7.772   2.208   4.188
 7466TIP3   OH222340   5.804   1.817   0.723
 7466TIP3    H122341   5.886   1.863   0.739
 7466TIP3    H222342   5.788   1.829   0.629
 7467TIP3   OH222343   4.610   3.473   3.347
 7467TIP3    H122344   4.667   3.544   3.376
 7467TIP3    H222345   4.547   3.462   3.419
 7468TIP3   OH222346   5.773   2.406   4.335
 7468TIP3    H122347   5.845   2.359   4.295
 7468TIP3    H222348   5.729   2.450   4.262
 7469TIP3   OH222349   4.039   1.644   3.251
 7469TIP3    H122350   4.016   1.633   3.344
 7469TIP3    H222351   4.050   1.555   3.218
 7470TIP3   OH222352   4.670   5.580   5.522
 7470TIP3    H122353   4.712   5.609   5.441
 7470TIP3    H222354   4.710   5.496   5.541
 7471TIP3   OH222355   1.581   4.483   1.393
 7471TIP3    H122356   1.626   4.556   1.351
 7471TIP3    H222357   1.491   4.490   1.362
 7472TIP3   OH222358   2.545   6.216   0.912
 7472TIP3    H122359   2.464   6.176   0.880
 7472TIP3    H222360   2.592   6.241   0.832
 7473TIP3   OH222361   0.639   6.607   3.591
 7473TIP3    H122362   0.663   6.610   3.683
 7473TIP3    H222363   0.630   6.699   3.566
 7474TIP3   OH222364   0.689   5.418   2.406
 7474TIP3    H122365   0.626   5.422   2.334
 7474TIP3    H222366   0.771   5.448   2.367
 7475TIP3   OH222367   7.577   6.218   1.787
 7475TIP3    H122368   7.591   6.187   1.697
 7475TIP3    H222369   7.535   6.303   1.777
 7476TIP3   OH222370   3.810   4.997   0.181
 7476TIP3    H122371   3.836   4.905   0.176
 7476TIP3    H222372   3.812   5.018   0.274
 7477TIP3   OH222373   3.800   4.515   4.631
 7477TIP3    H122374   3.848   4.557   4.559
 7477TIP3    H222375   3.729   4.468   4.588
 7478TIP3   OH222376   0.614   0.054   6.032
 7478TIP3    H122377   0.698   0.055   5.985
 7478TIP3    H222378   0.583  -0.036   6.022
 7479TIP3   OH222379   1.893   7.427   2.026
 7479TIP3    H122380   1.978   7.385   2.020
 7479TIP3    H222381   1.912   7.514   2.061
 7480TIP3   OH222382   5.113   2.544   5.650
 7480TIP3    H122383   5.162   2.462   5.659
 7480TIP3    H222384   5.162   2.607   5.703
 7481TIP3   OH222385   6.679   6.521   2.921
 7481TIP3    H122386   6.719   6.509   2.834
 7481TIP3    H222387   6.720   6.602   2.954
 7482TIP3   OH222388   4.638   0.917   1.016
 7482TIP3    H122389   4.598   0.977   0.954
 7482TIP3    H222390   4.667   0.972   1.089
 7483TIP3   OH222391   1.248   3.213   0.138
 7483TIP3    H122392   1.272   3.297   0.177
 7483TIP3    H222393   1.320   3.155   0.163
 7484TIP3   OH222394   2.316   1.266   5.845
 7484TIP3    H122395   2.314   1.324   5.768
 7484TIP3    H222396   2.276   1.318   5.915
 7485TIP3   OH222397   0.804   2.676   0.856
 7485TIP3    H122398   0.744   2.744   0.889
 7485TIP3    H222399   0.843   2.638   0.935
 7486TIP3   OH222400   1.567   6.789   5.518
 7486TIP3    H122401   1.633   6.720   5.518
 7486TIP3    H222402   1.566   6.822   5.428
 7487TIP3   OH222403   0.484   1.257   1.038
 7487TIP3    H122404   0.483   1.296   1.126
 7487TIP3    H222405   0.464   1.330   0.979
 7488TIP3   OH222406   5.421   4.444   5.665
 7488TIP3    H122407   5.431   4.493   5.584
 7488TIP3    H222408   5.493   4.380   5.663
 7489TIP3   OH222409   3.860   2.223   1.246
 7489TIP3    H122410   3.943   2.180   1.265
 7489TIP3    H222411   3.878   2.278   1.169
 7490TIP3   OH222412   1.946   4.518   2.864
 7490TIP3    H122413   1.886   4.576   2.816
 7490TIP3    H222414   1.991   4.577   2.925
 7491TIP3   OH222415   7.933   5.480   3.219
 7491TIP3    H122416   7.886   5.402   3.190
 7491TIP3    H222417   7.887   5.552   3.176
 7492TIP3   OH222418   1.495   6.654   2.300
 7492TIP3    H122419   1.573   6.654   2.245
 7492TIP3    H222420   1.510   6.723   2.365
 7493TIP3   OH222421   3.413   2.781   0.847
 7493TIP3    H122422   3.433   2.871   0.822
 7493TIP3    H222423   3.478   2.728   0.801
 7494TIP3   OH222424   7.104   5.168   2.254
 7494TIP3    H122425   7.174   5.219   2.295
 7494TIP3    H222426   7.071   5.224   2.184
 7495TIP3   OH222427   2.263   3.198   1.820
 7495TIP3    H122428   2.307   3.167   1.899
 7495TIP3    H222429   2.298   3.287   1.807
 7496TIP3   OH222430   8.205   6.330   3.998
 7496TIP3    H122431   8.256   6.252   4.020
 7496TIP3    H222432   8.150   6.303   3.926
 7497TIP3   OH222433   3.268   5.956   1.227
 7497TIP3    H122434   3.362   5.972   1.216
 7497TIP3    H222435   3.262   5.877   1.280
 7498TIP3   OH222436   2.422   6.960   5.578
 7498TIP3    H122437   2.465   6.939   5.661
 7498TIP3    H222438   2.451   6.891   5.518
 7499TIP3   OH222439   4.143   2.512   2.543
 7499TIP3    H122440   4.062   2.461   2.536
 7499TIP3    H222441   4.208   2.448   2.573
 7500TIP3   OH222442   4.701   3.335   5.890
 7500TIP3    H122443   4.653   3.371   5.964
 7500TIP3    H222444   4.637   3.281   5.844
 7501TIP3   OH222445   0.542   0.106   5.545
 7501TIP3    H122446   0.510   0.191   5.575
 7501TIP3    H222447   0.463   0.052   5.536
 7502TIP3   OH222448   2.755   5.384   0.640
 7502TIP3    H122449   2.803   5.365   0.720
 7502TIP3    H222450   2.803   5.456   0.599
 7503TIP3   OH222451   4.053   6.553   5.792
 7503TIP3    H122452   4.089   6.609   5.861
 7503TIP3    H222453   4.021   6.476   5.839
 7504TIP3   OH222454   7.437   1.773   0.637
 7504TIP3    H122455   7.467   1.774   0.546
 7504TIP3    H222456   7.517   1.765   0.689
 7505TIP3   OH222457   7.025   4.618   5.944
 7505TIP3    H122458   6.999   4.526   5.939
 7505TIP3    H222459   7.016   4.641   6.036
 7506TIP3   OH222460   3.910   3.925   2.751
 7506TIP3    H122461   3.985   3.865   2.747
 7506TIP3    H222462   3.948   4.010   2.772
 7507TIP3   OH222463   7.711   1.424   6.185
 7507TIP3    H122464   7.657   1.345   6.180
 7507TIP3    H222465   7.748   1.423   6.273
 7508TIP3   OH222466   7.008   7.078   0.272
 7508TIP3    H122467   6.933   7.022   0.252
 7508TIP3    H222468   6.970   7.157   0.309
 7509TIP3   OH222469   0.282   6.826   4.548
 7509TIP3    H122470   0.263   6.909   4.504
 7509TIP3    H222471   0.308   6.852   4.637
 7510TIP3   OH222472   7.479   5.568   5.127
 7510TIP3    H122473   7.566   5.545   5.095
 7510TIP3    H222474   7.426   5.579   5.048
 7511TIP3   OH222475   1.419   6.021   3.611
 7511TIP3    H122476   1.417   5.990   3.520
 7511TIP3    H222477   1.327   6.030   3.635
 7512TIP3   OH222478   0.048   7.021   4.174
 7512TIP3    H122479   0.081   7.087   4.113
 7512TIP3    H222480  -0.043   7.047   4.190
 7513TIP3   OH222481   1.224   1.591   0.385
 7513TIP3    H122482   1.221   1.616   0.478
 7513TIP3    H222483   1.205   1.497   0.385
 7514TIP3   OH222484   2.651   3.077   0.019
 7514TIP3    H122485   2.575   3.135   0.033
 7514TIP3    H222486   2.614   2.989   0.015
 7515TIP3   OH222487   3.087   6.150   4.397
 7515TIP3    H122488   3.159   6.168   4.458
 7515TIP3    H222489   3.011   6.136   4.453
 7516TIP3   OH222490   7.816   2.616   6.019
 7516TIP3    H122491   7.767   2.613   6.101
 7516TIP3    H222492   7.840   2.524   6.002
 7517TIP3   OH222493   3.127   5.311   2.560
 7517TIP3    H122494   3.167   5.236   2.604
 7517TIP3    H222495   3.167   5.312   2.473
 7518TIP3   OH222496   0.098   5.927   1.860
 7518TIP3    H122497   0.052   6.004   1.894
 7518TIP3    H222498   0.087   5.861   1.928
 7519TIP3   OH222499   3.439   5.927   2.533
 7519TIP3    H122500   3.393   5.863   2.587
 7519TIP3    H222501   3.498   5.971   2.593
 7520TIP3   OH222502   4.970   3.450   3.613
 7520TIP3    H122503   5.048   3.445   3.556
 7520TIP3    H222504   4.997   3.405   3.693
 7521TIP3   OH222505   5.720   4.925   4.943
 7521TIP3    H122506   5.751   4.900   4.856
 7521TIP3    H222507   5.625   4.928   4.934
 7522TIP3   OH222508   0.092   1.140   2.610
 7522TIP3    H122509   0.184   1.136   2.583
 7522TIP3    H222510   0.043   1.139   2.528
 7523TIP3   OH222511   7.811   3.562   0.639
 7523TIP3    H122512   7.804   3.580   0.732
 7523TIP3    H222513   7.721   3.553   0.609
 7524TIP3   OH222514   4.118   1.356   3.687
 7524TIP3    H122515   4.084   1.281   3.638
 7524TIP3    H222516   4.062   1.429   3.659
 7525TIP3   OH222517   0.470   1.002   2.022
 7525TIP3    H122518   0.376   0.987   2.024
 7525TIP3    H222519   0.483   1.068   1.955
 7526TIP3   OH222520   3.364   1.391   0.459
 7526TIP3    H122521   3.290   1.354   0.509
 7526TIP3    H222522   3.338   1.481   0.442
 7527TIP3   OH222523   7.985   4.869   3.218
 7527TIP3    H122524   7.948   4.828   3.297
 7527TIP3    H222525   8.075   4.837   3.214
 7528TIP3   OH222526   6.004   4.589   5.696
 7528TIP3    H122527   5.945   4.640   5.752
 7528TIP3    H222528   6.042   4.653   5.636
 7529TIP3   OH222529   1.841   6.990   6.110
 7529TIP3    H122530   1.901   7.062   6.090
 7529TIP3    H222531   1.781   6.986   6.036
 7530TIP3   OH222532   2.325   1.950   6.331
 7530TIP3    H122533   2.322   1.889   6.257
 7530TIP3    H222534   2.248   1.929   6.383
 7531TIP3   OH222535   8.143   0.338   6.399
 7531TIP3    H122536   8.148   0.407   6.464
 7531TIP3    H222537   8.209   0.362   6.333
 7532TIP3   OH222538   6.901   4.967   5.933
 7532TIP3    H122539   6.991   4.951   5.960
 7532TIP3    H222540   6.906   4.979   5.838
 7533TIP3   OH222541   7.101   6.303   3.209
 7533TIP3    H122542   7.091   6.238   3.139
 7533TIP3    H222543   7.181   6.350   3.186
 7534TIP3   OH222544   8.232   2.907   0.734
 7534TIP3    H122545   8.259   2.859   0.812
 7534TIP3    H222546   8.313   2.944   0.699
 7535TIP3   OH222547   5.030   4.408   6.207
 7535TIP3    H122548   4.957   4.354   6.238
 7535TIP3    H222549   5.074   4.355   6.141
 7536TIP3   OH222550   2.821   4.348   4.522
 7536TIP3    H122551   2.746   4.294   4.498
 7536TIP3    H222552   2.837   4.327   4.614
 7537TIP3   OH222553   6.288   2.486   2.085
 7537TIP3    H122554   6.255   2.575   2.098
 7537TIP3    H222555   6.241   2.433   2.148
 7538TIP3   OH222556   3.648   0.397   2.165
 7538TIP3    H122557   3.677   0.466   2.105
 7538TIP3    H222558   3.693   0.417   2.247
 7539TIP3   OH222559   3.009   6.386   4.729
 7539TIP3    H122560   3.004   6.443   4.806
 7539TIP3    H222561   2.920   6.354   4.716
 7540TIP3   OH222562   4.100   4.911   4.071
 7540TIP3    H122563   4.183   4.955   4.051
 7540TIP3    H222564   4.084   4.854   3.995
 7541TIP3   OH222565   4.360   5.416   5.120
 7541TIP3    H122566   4.341   5.469   5.042
 7541TIP3    H222567   4.377   5.329   5.086
 7542TIP3   OH222568   0.147   6.124   2.777
 7542TIP3    H122569   0.131   6.210   2.738
 7542TIP3    H222570   0.242   6.120   2.786
 7543TIP3   OH222571   3.293   7.319   0.115
 7543TIP3    H122572   3.198   7.323   0.125
 7543TIP3    H222573   3.325   7.399   0.157
 7544TIP3   OH222574   8.098   6.260   4.583
 7544TIP3    H122575   8.075   6.344   4.623
 7544TIP3    H222576   8.071   6.268   4.492
 7545TIP3   OH222577   8.262   3.227   0.868
 7545TIP3    H122578   8.212   3.241   0.787
 7545TIP3    H222579   8.199   3.244   0.938
 7546TIP3   OH222580   0.549   7.143   0.507
 7546TIP3    H122581   0.532   7.075   0.573
 7546TIP3    H222582   0.496   7.217   0.536
 7547TIP3   OH222583   6.640   7.269   5.940
 7547TIP3    H122584   6.686   7.352   5.928
 7547TIP3    H222585   6.683   7.228   6.015
 7548TIP3   OH222586   7.950   2.707   0.086
 7548TIP3    H122587   7.947   2.635   0.148
 7548TIP3    H222588   7.892   2.774   0.124
 7549TIP3   OH222589   0.583   5.472   4.264
 7549TIP3    H122590   0.496   5.452   4.299
 7549TIP3    H222591   0.566   5.502   4.174
 7550TIP3   OH222592   6.585   6.280   3.301
 7550TIP3    H122593   6.649   6.308   3.236
 7550TIP3    H222594   6.616   6.194   3.331
 7551TIP3   OH222595   1.172   2.160   6.192
 7551TIP3    H122596   1.262   2.127   6.190
 7551TIP3    H222597   1.168   2.213   6.272
 7552TIP3   OH222598   1.125   7.057   0.806
 7552TIP3    H122599   1.112   7.066   0.712
 7552TIP3    H222600   1.085   7.136   0.844
 7553TIP3   OH222601   2.168   5.206   5.539
 7553TIP3    H122602   2.150   5.121   5.498
 7553TIP3    H222603   2.090   5.258   5.522
 7554TIP3   OH222604   3.136   0.248   4.445
 7554TIP3    H122605   3.219   0.276   4.484
 7554TIP3    H222606   3.124   0.305   4.370
 7555TIP3   OH222607   5.838   7.171   5.773
 7555TIP3    H122608   5.931   7.151   5.781
 7555TIP3    H222609   5.836   7.257   5.729
 7556TIP3   OH222610   7.403   0.392   6.487
 7556TIP3    H122611   7.370   0.312   6.447
 7556TIP3    H222612   7.382   0.461   6.424
 7557TIP3   OH222613   0.703   4.922   0.093
 7557TIP3    H122614   0.798   4.919   0.084
 7557TIP3    H222615   0.676   5.001   0.046
 7558TIP3   OH222616   3.531   1.439   5.524
 7558TIP3    H122617   3.604   1.458   5.465
 7558TIP3    H222618   3.480   1.520   5.526
 7559TIP3   OH222619   4.748   6.030   1.517
 7559TIP3    H122620   4.652   6.030   1.524
 7559TIP3    H222621   4.771   5.940   1.495
 7560TIP3   OH222622   1.248   3.039   2.696
 7560TIP3    H122623   1.231   2.949   2.724
 7560TIP3    H222624   1.342   3.051   2.705
 7561TIP3   OH222625   4.470   4.893   2.157
 7561TIP3    H122626   4.476   4.908   2.251
 7561TIP3    H222627   4.401   4.828   2.147
 7562TIP3   OH222628   7.099   4.522   2.751
 7562TIP3    H122629   7.114   4.534   2.657
 7562TIP3    H222630   7.183   4.540   2.791
 7563TIP3   OH222631   3.784   5.602   5.557
 7563TIP3    H122632   3.806   5.579   5.466
 7563TIP3    H222633   3.724   5.675   5.550
 7564TIP3   OH222634   2.247   5.204   5.242
 7564TIP3    H122635   2.251   5.298   5.262
 7564TIP3    H222636   2.165   5.174   5.282
 7565TIP3   OH222637   5.849   3.202   3.465
 7565TIP3    H122638   5.860   3.260   3.390
 7565TIP3    H222639   5.773   3.236   3.511
 7566TIP3   OH222640   7.284   5.597   4.918
 7566TIP3    H122641   7.199   5.639   4.902
 7566TIP3    H222642   7.337   5.621   4.842
 7567TIP3   OH222643   7.894   7.204   6.515
 7567TIP3    H122644   7.838   7.186   6.590
 7567TIP3    H222645   7.899   7.121   6.468
 7568TIP3   OH222646   4.008   1.973   1.622
 7568TIP3    H122647   3.925   1.938   1.653
 7568TIP3    H222648   4.066   1.969   1.698
 7569TIP3   OH222649   6.657   4.047   0.506
 7569TIP3    H122650   6.708   4.001   0.440
 7569TIP3    H222651   6.659   3.989   0.582
 7570TIP3   OH222652   3.845   6.368   5.432
 7570TIP3    H122653   3.865   6.305   5.502
 7570TIP3    H222654   3.791   6.319   5.370
 7571TIP3   OH222655   2.348   6.747   3.726
 7571TIP3    H122656   2.281   6.811   3.751
 7571TIP3    H222657   2.430   6.796   3.724
 7572TIP3   OH222658   3.003   4.986   4.807
 7572TIP3    H122659   3.056   5.047   4.756
 7572TIP3    H222660   2.942   4.948   4.743
 7573TIP3   OH222661   5.862   2.290   6.401
 7573TIP3    H122662   5.853   2.290   6.305
 7573TIP3    H222663   5.948   2.251   6.417
 7574TIP3   OH222664   5.083   5.910   5.567
 7574TIP3    H122665   5.010   5.943   5.515
 7574TIP3    H222666   5.104   5.982   5.627
 7575TIP3   OH222667   7.959   6.320   6.582
 7575TIP3    H122668   7.880   6.289   6.538
 7575TIP3    H222669   7.997   6.241   6.621
 7576TIP3   OH222670   8.078   6.259   0.773
 7576TIP3    H122671   8.073   6.330   0.837
 7576TIP3    H222672   7.991   6.219   0.775
 7577TIP3   OH222673   1.834   5.786   3.719
 7577TIP3    H122674   1.880   5.705   3.697
 7577TIP3    H222675   1.883   5.822   3.793
 7578TIP3   OH222676   3.478   5.765   0.944
 7578TIP3    H122677   3.562   5.720   0.946
 7578TIP3    H222678   3.413   5.695   0.948
 7579TIP3   OH222679   6.069   0.102   5.512
 7579TIP3    H122680   6.048   0.008   5.515
 7579TIP3    H222681   6.156   0.106   5.471
 7580TIP3   OH222682   5.213   6.254   6.709
 7580TIP3    H122683   5.272   6.192   6.754
 7580TIP3    H222684   5.149   6.198   6.665
 7581TIP3   OH222685   1.806   1.805   0.835
 7581TIP3    H122686   1.806   1.714   0.805
 7581TIP3    H222687   1.713   1.827   0.844
 7582TIP3   OH222688   6.105   2.354   1.250
 7582TIP3    H122689   6.021   2.327   1.214
 7582TIP3    H222690   6.170   2.303   1.202
 7583TIP3   OH222691   0.621   1.697   3.114
 7583TIP3    H122692   0.613   1.784   3.075
 7583TIP3    H222693   0.715   1.680   3.116
 7584TIP3   OH222694   4.282   2.810   1.879
 7584TIP3    H122695   4.204   2.822   1.825
 7584TIP3    H222696   4.248   2.779   1.963
 7585TIP3   OH222697   0.123   2.527   1.252
 7585TIP3    H122698   0.148   2.562   1.338
 7585TIP3    H222699   0.049   2.469   1.271
 7586TIP3   OH222700   6.343   0.412   0.908
 7586TIP3    H122701   6.301   0.418   0.823
 7586TIP3    H222702   6.412   0.479   0.906
 7587TIP3   OH222703   2.531   5.862   6.276
 7587TIP3    H122704   2.451   5.850   6.225
 7587TIP3    H222705   2.600   5.876   6.211
 7588TIP3   OH222706   5.279   1.397   1.828
 7588TIP3    H122707   5.342   1.326   1.816
 7588TIP3    H222708   5.206   1.357   1.876
 7589TIP3   OH222709   6.629   1.007   1.227
 7589TIP3    H122710   6.628   0.943   1.157
 7589TIP3    H222711   6.637   0.955   1.307
 7590TIP3   OH222712   4.856   7.529   0.965
 7590TIP3    H122713   4.901   7.612   0.949
 7590TIP3    H222714   4.766   7.544   0.934
 7591TIP3   OH222715   4.496   4.326   0.801
 7591TIP3    H122716   4.496   4.380   0.722
 7591TIP3    H222717   4.548   4.375   0.864
 7592TIP3   OH222718   2.591   4.533   1.704
 7592TIP3    H122719   2.674   4.503   1.741
 7592TIP3    H222720   2.607   4.624   1.677
 7593TIP3   OH222721   1.035   5.692   6.020
 7593TIP3    H122722   1.082   5.715   5.940
 7593TIP3    H222723   0.951   5.658   5.990
 7594TIP3   OH222724   2.979   0.647   6.630
 7594TIP3    H122725   2.912   0.582   6.611
 7594TIP3    H222726   2.981   0.652   6.726
 7595TIP3   OH222727   7.382   0.103   1.951
 7595TIP3    H122728   7.299   0.129   1.911
 7595TIP3    H222729   7.357   0.037   2.015
 7596TIP3   OH222730   2.165   3.844   0.114
 7596TIP3    H122731   2.261   3.844   0.118
 7596TIP3    H222732   2.138   3.894   0.191
 7597TIP3   OH222733   2.003   3.116   1.809
 7597TIP3    H122734   2.028   3.025   1.825
 7597TIP3    H222735   2.086   3.164   1.809
 7598TIP3   OH222736   6.432   0.821   0.816
 7598TIP3    H122737   6.424   0.784   0.903
 7598TIP3    H222738   6.525   0.822   0.797
 7599TIP3   OH222739   2.576   1.691   4.983
 7599TIP3    H122740   2.667   1.705   5.009
 7599TIP3    H222741   2.557   1.762   4.922
 7600TIP3   OH222742   7.184   7.429   2.627
 7600TIP3    H122743   7.197   7.357   2.565
 7600TIP3    H222744   7.096   7.414   2.662
 7601TIP3   OH222745   1.984   0.426   1.127
 7601TIP3    H122746   1.901   0.439   1.173
 7601TIP3    H222747   1.960   0.387   1.044
 7602TIP3   OH222748   5.698   3.748   2.475
 7602TIP3    H122749   5.793   3.735   2.469
 7602TIP3    H222750   5.661   3.669   2.436
 7603TIP3   OH222751   3.662   2.953   2.673
 7603TIP3    H122752   3.632   2.864   2.694
 7603TIP3    H222753   3.601   3.010   2.719
 7604TIP3   OH222754   5.368   0.179   1.477
 7604TIP3    H122755   5.291   0.211   1.526
 7604TIP3    H222756   5.346   0.090   1.452
 7605TIP3   OH222757   0.391   0.746   1.379
 7605TIP3    H122758   0.437   0.722   1.299
 7605TIP3    H222759   0.459   0.780   1.437
 7606TIP3   OH222760   6.577   1.419   2.229
 7606TIP3    H122761   6.666   1.455   2.229
 7606TIP3    H222762   6.579   1.351   2.296
 7607TIP3   OH222763   2.508   2.588   4.098
 7607TIP3    H122764   2.420   2.554   4.117
 7607TIP3    H222765   2.539   2.621   4.183
 7608TIP3   OH222766   3.893   5.672   3.902
 7608TIP3    H122767   3.981   5.691   3.934
 7608TIP3    H222768   3.836   5.697   3.974
 7609TIP3   OH222769   7.669   0.558   0.675
 7609TIP3    H122770   7.604   0.626   0.698
 7609TIP3    H222771   7.673   0.503   0.753
 7610TIP3   OH222772   4.361   0.668   6.360
 7610TIP3    H122773   4.334   0.618   6.283
 7610TIP3    H222774   4.452   0.690   6.343
 7611TIP3   OH222775   7.477   7.413   5.750
 7611TIP3    H122776   7.498   7.355   5.677
 7611TIP3    H222777   7.483   7.501   5.713
 7612TIP3   OH222778   6.740   7.347   0.636
 7612TIP3    H122779   6.676   7.389   0.693
 7612TIP3    H222780   6.688   7.290   0.579
 7613TIP3   OH222781   3.912   0.133   5.296
 7613TIP3    H122782   3.822   0.138   5.262
 7613TIP3    H222783   3.935   0.224   5.315
 7614TIP3   OH222784   6.468   5.554   4.414
 7614TIP3    H122785   6.533   5.511   4.358
 7614TIP3    H222786   6.481   5.648   4.397
 7615TIP3   OH222787   0.517   5.486   6.156
 7615TIP3    H122788   0.502   5.474   6.249
 7615TIP3    H222789   0.447   5.545   6.127
 7616TIP3   OH222790   0.012   2.607   0.831
 7616TIP3    H122791   0.035   2.514   0.834
 7616TIP3    H222792   0.072   2.649   0.893
 7617TIP3   OH222793   5.775   3.294   5.269
 7617TIP3    H122794   5.742   3.222   5.216
 7617TIP3    H222795   5.697   3.346   5.291
 7618TIP3   OH222796   4.159   5.707   3.990
 7618TIP3    H122797   4.165   5.632   4.050
 7618TIP3    H222798   4.228   5.766   4.019
 7619TIP3   OH222799   0.909   1.628   5.989
 7619TIP3    H122800   0.992   1.636   6.037
 7619TIP3    H222801   0.907   1.705   5.932
 7620TIP3   OH222802   1.612   7.254   6.672
 7620TIP3    H122803   1.597   7.160   6.679
 7620TIP3    H222804   1.619   7.284   6.762
 7621TIP3   OH222805   8.239   2.168   4.327
 7621TIP3    H122806   8.323   2.148   4.286
 7621TIP3    H222807   8.257   2.244   4.383
 7622TIP3   OH222808   7.885   4.695   4.348
 7622TIP3    H122809   7.906   4.760   4.415
 7622TIP3    H222810   7.913   4.612   4.384
 7623TIP3   OH222811   8.175   7.359   2.456
 7623TIP3    H122812   8.151   7.305   2.531
 7623TIP3    H222813   8.130   7.318   2.382
 7624TIP3   OH222814   7.741   4.190   4.272
 7624TIP3    H122815   7.794   4.268   4.254
 7624TIP3    H222816   7.656   4.209   4.232
 7625TIP3   OH222817   0.365   2.330   0.315
 7625TIP3    H122818   0.379   2.311   0.222
 7625TIP3    H222819   0.285   2.282   0.337
 7626TIP3   OH222820   6.231   3.669   2.841
 7626TIP3    H122821   6.321   3.686   2.814
 7626TIP3    H222822   6.230   3.578   2.869
 7627TIP3   OH222823   7.410   0.848   1.165
 7627TIP3    H122824   7.353   0.790   1.216
 7627TIP3    H222825   7.489   0.796   1.149
 7628TIP3   OH222826   5.161   7.038   5.472
 7628TIP3    H122827   5.167   7.023   5.377
 7628TIP3    H222828   5.144   7.132   5.480
 7629TIP3   OH222829   3.533   0.892   5.004
 7629TIP3    H122830   3.566   0.879   5.093
 7629TIP3    H222831   3.453   0.840   5.001
 7630TIP3   OH222832   1.434   2.143   5.289
 7630TIP3    H122833   1.494   2.141   5.214
 7630TIP3    H222834   1.385   2.061   5.282
 7631TIP3   OH222835   4.050   7.265   4.384
 7631TIP3    H122836   4.103   7.186   4.394
 7631TIP3    H222837   4.073   7.319   4.460
 7632TIP3   OH222838   3.735   5.630   0.922
 7632TIP3    H122839   3.758   5.691   0.991
 7632TIP3    H222840   3.816   5.618   0.872
 7633TIP3   OH222841   1.693   2.195   2.512
 7633TIP3    H122842   1.602   2.193   2.483
 7633TIP3    H222843   1.730   2.113   2.481
 7634TIP3   OH222844   0.452   1.297   6.678
 7634TIP3    H122845   0.429   1.204   6.674
 7634TIP3    H222846   0.379   1.341   6.634
 7635TIP3   OH222847   0.596   1.967   6.641
 7635TIP3    H122848   0.640   2.044   6.604
 7635TIP3    H222849   0.574   1.992   6.730
 7636TIP3   OH222850   1.254   3.161   3.347
 7636TIP3    H122851   1.322   3.101   3.318
 7636TIP3    H222852   1.237   3.217   3.271
 7637TIP3   OH222853   1.390   7.642   4.394
 7637TIP3    H122854   1.395   7.671   4.485
 7637TIP3    H222855   1.462   7.688   4.351
 7638TIP3   OH222856   1.524   1.224   2.193
 7638TIP3    H122857   1.607   1.272   2.186
 7638TIP3    H222858   1.495   1.238   2.283
 7639TIP3   OH222859   0.770   4.560   0.418
 7639TIP3    H122860   0.813   4.645   0.410
 7639TIP3    H222861   0.826   4.510   0.477
 7640TIP3   OH222862   4.156   3.828   3.792
 7640TIP3    H122863   4.063   3.807   3.778
 7640TIP3    H222864   4.203   3.766   3.737
 7641TIP3   OH222865   6.037   7.654   4.385
 7641TIP3    H122866   6.036   7.590   4.456
 7641TIP3    H222867   6.012   7.736   4.427
 7642TIP3   OH222868   5.464   0.510   2.091
 7642TIP3    H122869   5.557   0.495   2.110
 7642TIP3    H222870   5.450   0.471   2.005
 7643TIP3   OH222871   0.326   5.724   1.587
 7643TIP3    H122872   0.419   5.715   1.608
 7643TIP3    H222873   0.303   5.813   1.613
 7644TIP3   OH222874   1.007   2.759   5.637
 7644TIP3    H122875   1.020   2.730   5.728
 7644TIP3    H222876   1.094   2.785   5.607
 7645TIP3   OH222877   6.961   3.998   0.414
 7645TIP3    H122878   6.994   4.066   0.354
 7645TIP3    H222879   6.923   4.047   0.487
 7646TIP3   OH222880   3.002   4.041   3.239
 7646TIP3    H122881   3.023   4.013   3.328
 7646TIP3    H222882   3.033   3.969   3.184
 7647TIP3   OH222883   3.236   7.758   1.646
 7647TIP3    H122884   3.287   7.678   1.665
 7647TIP3    H222885   3.290   7.807   1.584
 7648TIP3   OH222886   4.019   0.622   2.957
 7648TIP3    H122887   3.925   0.634   2.946
 7648TIP3    H222888   4.057   0.709   2.940
 7649TIP3   OH222889   7.286   0.826   6.469
 7649TIP3    H122890   7.317   0.807   6.558
 7649TIP3    H222891   7.205   0.876   6.482
 7650TIP3   OH222892   5.083   0.418   4.407
 7650TIP3    H122893   5.156   0.381   4.358
 7650TIP3    H222894   5.083   0.371   4.490
 7651TIP3   OH222895   8.210   6.700   4.794
 7651TIP3    H122896   8.186   6.774   4.739
 7651TIP3    H222897   8.305   6.698   4.793
 7652TIP3   OH222898   4.119   6.849   2.852
 7652TIP3    H122899   4.102   6.937   2.885
 7652TIP3    H222900   4.109   6.792   2.928
 7653TIP3   OH222901   0.577   5.515   4.555
 7653TIP3    H122902   0.578   5.453   4.481
 7653TIP3    H222903   0.542   5.596   4.517
 7654TIP3   OH222904   7.842   5.450   6.213
 7654TIP3    H122905   7.920   5.425   6.262
 7654TIP3    H222906   7.831   5.380   6.148
 7655TIP3   OH222907   5.439   7.175   6.503
 7655TIP3    H122908   5.417   7.268   6.500
 7655TIP3    H222909   5.454   7.157   6.596
 7656TIP3   OH222910   6.863   4.065   6.516
 7656TIP3    H122911   6.937   4.122   6.497
 7656TIP3    H222912   6.896   4.007   6.585
 7657TIP3   OH222913   1.050   1.378   5.041
 7657TIP3    H122914   1.097   1.308   4.996
 7657TIP3    H222915   1.033   1.443   4.974
 7658TIP3   OH222916   7.636   1.996   4.394
 7658TIP3    H122917   7.576   1.929   4.359
 7658TIP3    H222918   7.588   2.078   4.386
 7659TIP3   OH222919   6.050   6.764   0.897
 7659TIP3    H122920   5.972   6.802   0.856
 7659TIP3    H222921   6.015   6.708   0.967
 7660TIP3   OH222922   5.355   5.420   5.164
 7660TIP3    H122923   5.431   5.477   5.152
 7660TIP3    H222924   5.364   5.387   5.254
 7661TIP3   OH222925   2.681   5.580   0.177
 7661TIP3    H122926   2.639   5.502   0.140
 7661TIP3    H222927   2.718   5.626   0.101
 7662TIP3   OH222928   0.100   3.904   3.007
 7662TIP3    H122929   0.091   3.950   3.090
 7662TIP3    H222930   0.012   3.874   2.986
 7663TIP3   OH222931   0.957   6.183   1.379
 7663TIP3    H122932   0.922   6.215   1.462
 7663TIP3    H222933   1.031   6.240   1.360
 7664TIP3   OH222934   3.819   2.541   5.392
 7664TIP3    H122935   3.827   2.575   5.303
 7664TIP3    H222936   3.877   2.465   5.393
 7665TIP3   OH222937   3.245   4.758   0.312
 7665TIP3    H122938   3.227   4.735   0.403
 7665TIP3    H222939   3.340   4.754   0.304
 7666TIP3   OH222940   8.025   3.492   4.098
 7666TIP3    H122941   7.979   3.408   4.105
 7666TIP3    H222942   8.004   3.538   4.179
 7667TIP3   OH222943   2.248   7.040   3.361
 7667TIP3    H122944   2.179   6.974   3.350
 7667TIP3    H222945   2.205   7.123   3.340
 7668TIP3   OH222946   1.798   3.504   2.472
 7668TIP3    H122947   1.796   3.519   2.378
 7668TIP3    H222948   1.848   3.578   2.508
 7669TIP3   OH222949   4.688   7.408   0.741
 7669TIP3    H122950   4.637   7.372   0.669
 7669TIP3    H222951   4.672   7.503   0.737
 7670TIP3   OH222952   5.730   6.191   2.690
 7670TIP3    H122953   5.820   6.191   2.722
 7670TIP3    H222954   5.725   6.117   2.630
 7671TIP3   OH222955   0.593   6.688   1.699
 7671TIP3    H122956   0.566   6.769   1.656
 7671TIP3    H222957   0.512   6.638   1.708
 7672TIP3   OH222958   2.035   7.592   2.702
 7672TIP3    H122959   2.074   7.676   2.728
 7672TIP3    H222960   1.949   7.615   2.668
 7673TIP3   OH222961   4.122   1.769   4.135
 7673TIP3    H122962   4.059   1.697   4.129
 7673TIP3    H222963   4.089   1.835   4.074
 7674TIP3   OH222964   7.664   3.637   1.496
 7674TIP3    H122965   7.628   3.719   1.462
 7674TIP3    H222966   7.638   3.571   1.432
 7675TIP3   OH222967   7.226   2.579   5.817
 7675TIP3    H122968   7.145   2.538   5.848
 7675TIP3    H222969   7.296   2.527   5.856
 7676TIP3   OH222970   1.202   0.892   0.541
 7676TIP3    H122971   1.145   0.896   0.618
 7676TIP3    H222972   1.141   0.884   0.467
 7677TIP3   OH222973   4.470   5.963   1.586
 7677TIP3    H122974   4.442   5.925   1.670
 7677TIP3    H222975   4.421   5.915   1.520
 7678TIP3   OH222976   8.209   4.392   4.700
 7678TIP3    H122977   8.170   4.305   4.704
 7678TIP3    H222978   8.213   4.421   4.791
 7679TIP3   OH222979   3.671   1.849   6.307
 7679TIP3    H122980   3.584   1.864   6.269
 7679TIP3    H222981   3.728   1.911   6.263
 7680TIP3   OH222982   0.850   5.933   3.566
 7680TIP3    H122983   0.760   5.945   3.599
 7680TIP3    H222984   0.899   5.903   3.643
 7681TIP3   OH222985   7.652   4.752   6.276
 7681TIP3    H122986   7.601   4.736   6.356
 7681TIP3    H222987   7.604   4.822   6.231
 7682TIP3   OH222988   7.998   5.031   3.658
 7682TIP3    H122989   8.089   5.058   3.663
 7682TIP3    H222990   7.949   5.113   3.651
 7683TIP3   OH222991   1.522   1.620   4.146
 7683TIP3    H122992   1.483   1.557   4.207
 7683TIP3    H222993   1.515   1.704   4.192
 7684TIP3   OH222994   8.183   0.845   0.382
 7684TIP3    H122995   8.192   0.876   0.292
 7684TIP3    H222996   8.257   0.785   0.395
 7685TIP3   OH222997   5.349   3.983   2.866
 7685TIP3    H122998   5.429   3.969   2.916
 7685TIP3    H222999   5.377   3.985   2.775
 7686TIP3   OH223000   3.317   3.937   2.460
 7686TIP3    H123001   3.271   3.922   2.542
 7686TIP3    H223002   3.358   3.852   2.440
 7687TIP3   OH223003   5.432   7.770   5.457
 7687TIP3    H123004   5.362   7.828   5.487
 7687TIP3    H223005   5.500   7.777   5.524
 7688TIP3   OH223006   3.154   4.653   2.695
 7688TIP3    H123007   3.177   4.677   2.606
 7688TIP3    H223008   3.226   4.597   2.725
 7689TIP3   OH223009   6.874   3.715   1.494
 7689TIP3    H123010   6.957   3.675   1.469
 7689TIP3    H223011   6.811   3.678   1.432
 7690TIP3   OH223012   3.575   5.587   3.460
 7690TIP3    H123013   3.667   5.562   3.453
 7690TIP3    H223014   3.574   5.657   3.524
 7691TIP3   OH223015   7.023   2.942   6.133
 7691TIP3    H123016   7.073   3.009   6.179
 7691TIP3    H223017   6.943   2.986   6.104
 7692TIP3   OH223018   3.014   7.046   6.057
 7692TIP3    H123019   2.963   6.969   6.029
 7692TIP3    H223020   3.010   7.106   5.983
 7693TIP3   OH223021   2.761   2.773   1.548
 7693TIP3    H123022   2.790   2.685   1.573
 7693TIP3    H223023   2.666   2.769   1.550
 7694TIP3   OH223024   5.065   4.510   1.835
 7694TIP3    H123025   5.038   4.463   1.915
 7694TIP3    H223026   5.121   4.447   1.789
 7695TIP3   OH223027   5.223   7.158   6.285
 7695TIP3    H123028   5.288   7.142   6.354
 7695TIP3    H223029   5.148   7.103   6.309
 7696TIP3   OH223030   2.251   0.566   0.951
 7696TIP3    H123031   2.258   0.510   1.028
 7696TIP3    H223032   2.292   0.648   0.977
 7697TIP3   OH223033   2.010   6.168   0.997
 7697TIP3    H123034   1.918   6.142   1.004
 7697TIP3    H223035   2.032   6.202   1.083
 7698TIP3   OH223036   4.300   6.554   4.561
 7698TIP3    H123037   4.264   6.484   4.615
 7698TIP3    H223038   4.306   6.516   4.473
 7699TIP3   OH223039   7.816   5.978   4.497
 7699TIP3    H123040   7.823   5.940   4.409
 7699TIP3    H223041   7.817   6.073   4.483
 7700TIP3   OH223042   0.743   2.064   2.284
 7700TIP3    H123043   0.654   2.063   2.249
 7700TIP3    H223044   0.779   2.148   2.255
 7701TIP3   OH223045   7.999   7.518   5.745
 7701TIP3    H123046   7.992   7.537   5.651
 7701TIP3    H223047   8.000   7.422   5.750
 7702TIP3   OH223048   2.313   6.337   5.157
 7702TIP3    H123049   2.321   6.397   5.083
 7702TIP3    H223050   2.338   6.251   5.122
 7703TIP3   OH223051   0.112   2.731   1.598
 7703TIP3    H123052   0.195   2.771   1.621
 7703TIP3    H223053   0.078   2.786   1.526
 7704TIP3   OH223054   7.711   7.665   5.915
 7704TIP3    H123055   7.717   7.691   5.823
 7704TIP3    H223056   7.727   7.571   5.914
 7705TIP3   OH223057   7.958   1.379   3.786
 7705TIP3    H123058   7.910   1.441   3.841
 7705TIP3    H223059   7.994   1.432   3.715
 7706TIP3   OH223060   0.343   4.541   2.382
 7706TIP3    H123061   0.310   4.455   2.410
 7706TIP3    H223062   0.265   4.587   2.350
 7707TIP3   OH223063   3.614   5.487   1.518
 7707TIP3    H123064   3.593   5.435   1.595
 7707TIP3    H223065   3.532   5.494   1.470
 7708TIP3   OH223066   1.504   3.365   1.866
 7708TIP3    H123067   1.568   3.323   1.808
 7708TIP3    H223068   1.500   3.456   1.834
 7709TIP3   OH223069   4.988   6.600   5.036
 7709TIP3    H123070   4.974   6.534   4.968
 7709TIP3    H223071   5.037   6.554   5.105
 7710TIP3   OH223072   7.593   6.783   0.091
 7710TIP3    H123073   7.680   6.745   0.082
 7710TIP3    H223074   7.545   6.753   0.014
 7711TIP3   OH223075   7.317   4.727   4.104
 7711TIP3    H123076   7.332   4.632   4.103
 7711TIP3    H223077   7.317   4.752   4.012
 7712TIP3   OH223078   3.984   5.939   2.874
 7712TIP3    H123079   4.073   5.973   2.880
 7712TIP3    H223080   3.962   5.946   2.781
 7713TIP3   OH223081   5.656   6.096   6.126
 7713TIP3    H123082   5.668   6.017   6.073
 7713TIP3    H223083   5.637   6.165   6.062
 7714TIP3   OH223084   5.739   7.624   2.233
 7714TIP3    H123085   5.809   7.656   2.177
 7714TIP3    H223086   5.745   7.529   2.227
 7715TIP3   OH223087   7.894   3.978   5.770
 7715TIP3    H123088   7.982   4.017   5.771
 7715TIP3    H223089   7.900   3.905   5.831
 7716TIP3   OH223090   4.590   0.315   4.988
 7716TIP3    H123091   4.541   0.252   4.936
 7716TIP3    H223092   4.682   0.294   4.971
 7717TIP3   OH223093   6.794   2.138   5.103
 7717TIP3    H123094   6.811   2.111   5.194
 7717TIP3    H223095   6.872   2.112   5.055
 7718TIP3   OH223096   4.178   0.930   5.182
 7718TIP3    H123097   4.087   0.941   5.154
 7718TIP3    H223098   4.209   1.018   5.202
 7719TIP3   OH223099   7.608   1.247   0.996
 7719TIP3    H123100   7.646   1.320   1.045
 7719TIP3    H223101   7.681   1.210   0.947
 7720TIP3   OH223102   3.585   7.584   4.682
 7720TIP3    H123103   3.594   7.547   4.594
 7720TIP3    H223104   3.636   7.526   4.738
 7721TIP3   OH223105   7.724   6.812   0.895
 7721TIP3    H123106   7.726   6.891   0.950
 7721TIP3    H223107   7.722   6.846   0.806
 7722TIP3   OH223108   7.497   6.941   1.986
 7722TIP3    H123109   7.434   7.012   2.000
 7722TIP3    H223110   7.506   6.935   1.891
 7723TIP3   OH223111   2.044   3.776   1.377
 7723TIP3    H123112   1.975   3.728   1.422
 7723TIP3    H223113   2.009   3.865   1.367
 7724TIP3   OH223114   2.702   5.046   4.308
 7724TIP3    H123115   2.608   5.033   4.312
 7724TIP3    H223116   2.713   5.142   4.308
 7725TIP3   OH223117   0.930   7.567   2.842
 7725TIP3    H123118   0.902   7.611   2.762
 7725TIP3    H223119   1.021   7.542   2.824
 7726TIP3   OH223120   0.575   3.684   5.492
 7726TIP3    H123121   0.628   3.763   5.479
 7726TIP3    H223122   0.558   3.652   5.403
 7727TIP3   OH223123   5.098   2.684   4.920
 7727TIP3    H123124   5.101   2.681   5.015
 7727TIP3    H223125   5.076   2.595   4.893
 7728TIP3   OH223126   5.319   6.337   3.639
 7728TIP3    H123127   5.283   6.340   3.550
 7728TIP3    H223128   5.371   6.256   3.641
 7729TIP3   OH223129   0.163   7.164   0.480
 7729TIP3    H123130   0.204   7.091   0.527
 7729TIP3    H223131   0.224   7.237   0.490
 7730TIP3   OH223132   7.808   1.243   0.546
 7730TIP3    H123133   7.823   1.262   0.453
 7730TIP3    H223134   7.882   1.188   0.571
 7731TIP3   OH223135   1.143   5.252   3.327
 7731TIP3    H123136   1.096   5.336   3.328
 7731TIP3    H223137   1.082   5.191   3.368
 7732TIP3   OH223138   0.689   4.038   2.488
 7732TIP3    H123139   0.700   4.016   2.581
 7732TIP3    H223140   0.776   4.066   2.459
 7733TIP3   OH223141   2.802   2.567   3.833
 7733TIP3    H123142   2.884   2.595   3.874
 7733TIP3    H223143   2.827   2.492   3.780
 7734TIP3   OH223144   8.028   3.813   4.317
 7734TIP3    H123145   8.004   3.731   4.361
 7734TIP3    H223146   8.119   3.801   4.291
 7735TIP3   OH223147   2.015   3.662   6.545
 7735TIP3    H123148   2.005   3.719   6.621
 7735TIP3    H223149   1.959   3.586   6.564
 7736TIP3   OH223150   5.341   7.049   2.267
 7736TIP3    H123151   5.276   7.075   2.333
 7736TIP3    H223152   5.422   7.090   2.296
 7737TIP3   OH223153   0.267   4.879   0.127
 7737TIP3    H123154   0.295   4.814   0.063
 7737TIP3    H223155   0.173   4.866   0.134
 7738TIP3   OH223156   7.786   5.501   5.355
 7738TIP3    H123157   7.698   5.525   5.382
 7738TIP3    H223158   7.775   5.416   5.310
 7739TIP3   OH223159   0.795   0.056   5.401
 7739TIP3    H123160   0.737  -0.001   5.351
 7739TIP3    H223161   0.737   0.121   5.441
 7740TIP3   OH223162   2.432   3.701   0.556
 7740TIP3    H123163   2.341   3.692   0.528
 7740TIP3    H223164   2.427   3.756   0.635
 7741TIP3   OH223165   3.977   4.323   3.793
 7741TIP3    H123166   4.008   4.380   3.864
 7741TIP3    H223167   4.052   4.317   3.734
 7742TIP3   OH223168   1.168   3.612   2.588
 7742TIP3    H123169   1.074   3.625   2.603
 7742TIP3    H223170   1.188   3.528   2.629
 7743TIP3   OH223171   3.349   7.041   4.113
 7743TIP3    H123172   3.282   7.086   4.165
 7743TIP3    H223173   3.430   7.053   4.162
 7744TIP3   OH223174   6.722   1.737   6.194
 7744TIP3    H123175   6.736   1.771   6.106
 7744TIP3    H223176   6.810   1.726   6.231
 7745TIP3   OH223177   2.482   7.296   1.956
 7745TIP3    H123178   2.410   7.349   1.990
 7745TIP3    H223179   2.485   7.219   2.013
 7746TIP3   OH223180   0.854   6.654   2.979
 7746TIP3    H123181   0.785   6.713   2.948
 7746TIP3    H223182   0.811   6.599   3.043
 7747TIP3   OH223183   1.803   6.918   3.699
 7747TIP3    H123184   1.716   6.942   3.729
 7747TIP3    H223185   1.833   6.994   3.649
 7748TIP3   OH223186   2.359   1.527   6.341
 7748TIP3    H123187   2.339   1.555   6.252
 7748TIP3    H223188   2.282   1.476   6.368
 7749TIP3   OH223189   1.600   5.768   3.073
 7749TIP3    H123190   1.548   5.767   2.992
 7749TIP3    H223191   1.542   5.729   3.138
 7750TIP3   OH223192   5.957   3.968   0.103
 7750TIP3    H123193   6.038   3.920   0.085
 7750TIP3    H223194   5.943   4.021   0.025
 7751TIP3   OH223195   3.169   7.425   2.341
 7751TIP3    H123196   3.236   7.357   2.329
 7751TIP3    H223197   3.092   7.392   2.295
 7752TIP3   OH223198   3.623   5.430   0.651
 7752TIP3    H123199   3.656   5.353   0.697
 7752TIP3    H223200   3.678   5.502   0.681
 7753TIP3   OH223201   6.238   4.230   3.993
 7753TIP3    H123202   6.291   4.253   4.068
 7753TIP3    H223203   6.279   4.150   3.958
 7754TIP3   OH223204   3.448   1.584   6.100
 7754TIP3    H123205   3.459   1.675   6.127
 7754TIP3    H223206   3.469   1.584   6.006
 7755TIP3   OH223207   4.955   5.940   3.961
 7755TIP3    H123208   4.859   5.947   3.962
 7755TIP3    H223209   4.979   5.925   4.052
 7756TIP3   OH223210   3.731   6.550   2.871
 7756TIP3    H123211   3.647   6.596   2.864
 7756TIP3    H223212   3.713   6.474   2.926
 7757TIP3   OH223213   6.567   0.770   2.715
 7757TIP3    H123214   6.495   0.832   2.717
 7757TIP3    H223215   6.623   0.799   2.642
 7758TIP3   OH223216   2.375   1.190   2.087
 7758TIP3    H123217   2.470   1.191   2.079
 7758TIP3    H223218   2.355   1.101   2.116
 7759TIP3   OH223219   3.198   5.617   0.411
 7759TIP3    H123220   3.269   5.582   0.356
 7759TIP3    H223221   3.240   5.631   0.496
 7760TIP3   OH223222   6.240   7.321   1.871
 7760TIP3    H123223   6.250   7.390   1.936
 7760TIP3    H223224   6.325   7.277   1.869
 7761TIP3   OH223225   7.319   4.646   6.196
 7761TIP3    H123226   7.333   4.653   6.290
 7761TIP3    H223227   7.321   4.552   6.178
 7762TIP3   OH223228   5.010   5.858   4.205
 7762TIP3    H123229   4.988   5.775   4.162
 7762TIP3    H223230   4.973   5.850   4.293
 7763TIP3   OH223231   2.872   1.733   4.517
 7763TIP3    H123232   2.966   1.749   4.528
 7763TIP3    H223233   2.853   1.662   4.578
 7764TIP3   OH223234   0.954   2.460   6.076
 7764TIP3    H123235   0.950   2.472   5.981
 7764TIP3    H223236   0.969   2.366   6.087
 7765TIP3   OH223237   6.423   7.633   5.501
 7765TIP3    H123238   6.413   7.722   5.467
 7765TIP3    H223239   6.381   7.636   5.587
 7766TIP3   OH223240   0.155   3.656   2.880
 7766TIP3    H123241   0.158   3.708   2.961
 7766TIP3    H223242   0.237   3.677   2.835
 7767TIP3   OH223243   4.443   5.501   4.601
 7767TIP3    H123244   4.494   5.525   4.524
 7767TIP3    H223245   4.352   5.513   4.576
 7768TIP3   OH223246   0.174   5.273   0.441
 7768TIP3    H123247   0.211   5.191   0.408
 7768TIP3    H223248   0.240   5.305   0.504
 7769TIP3   OH223249   4.135   2.176   3.041
 7769TIP3    H123250   4.137   2.213   3.129
 7769TIP3    H223251   4.226   2.153   3.023
 7770TIP3   OH223252   6.835   3.982   5.783
 7770TIP3    H123253   6.760   4.019   5.735
 7770TIP3    H223254   6.896   3.954   5.715
 7771TIP3   OH223255   7.913   0.506   4.663
 7771TIP3    H123256   7.906   0.576   4.727
 7771TIP3    H223257   8.006   0.501   4.641
 7772TIP3   OH223258   2.416   3.375   2.623
 7772TIP3    H123259   2.486   3.437   2.641
 7772TIP3    H223260   2.358   3.421   2.562
 7773TIP3   OH223261   7.806   1.358   5.332
 7773TIP3    H123262   7.867   1.350   5.259
 7773TIP3    H223263   7.790   1.268   5.360
 7774TIP3   OH223264   2.063   4.343   4.075
 7774TIP3    H123265   1.980   4.352   4.122
 7774TIP3    H223266   2.067   4.419   4.018
 7775TIP3   OH223267   4.410   1.989   2.414
 7775TIP3    H123268   4.407   2.004   2.509
 7775TIP3    H223269   4.500   2.011   2.389
 7776TIP3   OH223270   2.605   5.969   4.506
 7776TIP3    H123271   2.669   5.919   4.455
 7776TIP3    H223272   2.545   6.005   4.441
 7777TIP3   OH223273   5.615   1.869   4.339
 7777TIP3    H123274   5.597   1.820   4.419
 7777TIP3    H223275   5.702   1.907   4.353
 7778TIP3   OH223276   6.617   5.024   4.891
 7778TIP3    H123277   6.595   5.028   4.798
 7778TIP3    H223278   6.532   5.017   4.935
 7779TIP3   OH223279   6.044   1.770   2.201
 7779TIP3    H123280   6.064   1.681   2.172
 7779TIP3    H223281   6.055   1.824   2.122
 7780TIP3   OH223282   1.402   2.903   2.944
 7780TIP3    H123283   1.332   2.948   2.991
 7780TIP3    H223284   1.458   2.975   2.912
 7781TIP3   OH223285   1.776   5.748   1.472
 7781TIP3    H123286   1.785   5.752   1.567
 7781TIP3    H223287   1.866   5.754   1.439
 7782TIP3   OH223288   0.579   6.251   3.168
 7782TIP3    H123289   0.560   6.191   3.240
 7782TIP3    H223290   0.647   6.206   3.117
 7783TIP3   OH223291   6.509   0.140   0.459
 7783TIP3    H123292   6.467   0.127   0.374
 7783TIP3    H223293   6.497   0.056   0.504
 7784TIP3   OH223294   0.364   1.591   6.298
 7784TIP3    H123295   0.352   1.511   6.348
 7784TIP3    H223296   0.458   1.611   6.306
 7785TIP3   OH223297   6.671   1.219   2.418
 7785TIP3    H123298   6.706   1.246   2.503
 7785TIP3    H223299   6.745   1.222   2.358
 7786TIP3   OH223300   3.939   2.386   2.981
 7786TIP3    H123301   4.031   2.378   2.956
 7786TIP3    H223302   3.938   2.364   3.074
 7787TIP3   OH223303   0.406   2.119   1.212
 7787TIP3    H123304   0.377   2.210   1.206
 7787TIP3    H223305   0.453   2.115   1.295
 7788TIP3   OH223306   4.125   2.091   2.078
 7788TIP3    H123307   4.098   2.006   2.114
 7788TIP3    H223308   4.171   2.133   2.151
 7789TIP3   OH223309   4.909   0.509   6.116
 7789TIP3    H123310   4.935   0.538   6.204
 7789TIP3    H223311   4.916   0.587   6.062
 7790TIP3   OH223312   1.668   3.837   1.685
 7790TIP3    H123313   1.682   3.746   1.661
 7790TIP3    H223314   1.590   3.863   1.638
 7791TIP3   OH223315   7.360   6.149   2.971
 7791TIP3    H123316   7.392   6.159   2.881
 7791TIP3    H223317   7.415   6.206   3.023
 7792TIP3   OH223318   3.163   2.628   4.354
 7792TIP3    H123319   3.166   2.637   4.449
 7792TIP3    H223320   3.117   2.546   4.338
 7793TIP3   OH223321   7.728   6.677   6.140
 7793TIP3    H123322   7.698   6.758   6.181
 7793TIP3    H223323   7.822   6.688   6.132
 7794TIP3   OH223324   5.652   5.055   0.615
 7794TIP3    H123325   5.679   5.083   0.703
 7794TIP3    H223326   5.735   5.042   0.568
 7795TIP3   OH223327   2.797   6.613   0.427
 7795TIP3    H123328   2.825   6.522   0.425
 7795TIP3    H223329   2.857   6.656   0.489
 7796TIP3   OH223330   5.690   2.874   0.286
 7796TIP3    H123331   5.654   2.850   0.371
 7796TIP3    H223332   5.778   2.906   0.306
 7797TIP3   OH223333   6.432   3.394   2.731
 7797TIP3    H123334   6.512   3.410   2.781
 7797TIP3    H223335   6.427   3.298   2.724
 7798TIP3   OH223336   0.414   7.165   1.665
 7798TIP3    H123337   0.319   7.173   1.670
 7798TIP3    H223338   0.445   7.191   1.752
 7799TIP3   OH223339   2.106   2.374   5.156
 7799TIP3    H123340   2.192   2.401   5.188
 7799TIP3    H223341   2.101   2.280   5.176
 7800TIP3   OH223342   0.686   7.436   0.640
 7800TIP3    H123343   0.738   7.360   0.662
 7800TIP3    H223344   0.746   7.510   0.647
 7801TIP3   OH223345   4.520   7.811   3.612
 7801TIP3    H123346   4.457   7.861   3.665
 7801TIP3    H223347   4.592   7.792   3.671
 7802TIP3   OH223348   2.525   7.190   2.618
 7802TIP3    H123349   2.545   7.283   2.613
 7802TIP3    H223350   2.434   7.186   2.648
 7803TIP3   OH223351   0.470   6.146   2.870
 7803TIP3    H123352   0.542   6.165   2.931
 7803TIP3    H223353   0.475   6.051   2.856
 7804TIP3   OH223354   1.521   5.372   4.682
 7804TIP3    H123355   1.456   5.335   4.622
 7804TIP3    H223356   1.489   5.349   4.769
 7805TIP3   OH223357   2.985   1.516   6.199
 7805TIP3    H123358   2.944   1.600   6.178
 7805TIP3    H223359   2.949   1.455   6.134
 7806TIP3   OH223360   7.281   5.468   1.319
 7806TIP3    H123361   7.203   5.499   1.365
 7806TIP3    H223362   7.247   5.428   1.239
 7807TIP3   OH223363   3.953   5.757   4.659
 7807TIP3    H123364   4.029   5.766   4.716
 7807TIP3    H223365   3.905   5.683   4.695
 7808TIP3   OH223366   4.676   4.434   2.162
 7808TIP3    H123367   4.601   4.428   2.222
 7808TIP3    H223368   4.687   4.345   2.129
 7809TIP3   OH223369   3.914   4.883   5.970
 7809TIP3    H123370   3.870   4.846   5.893
 7809TIP3    H223371   3.869   4.966   5.986
 7810TIP3   OH223372   0.755   3.259   0.132
 7810TIP3    H123373   0.837   3.282   0.089
 7810TIP3    H223374   0.760   3.165   0.147
 7811TIP3   OH223375   6.297   0.342   6.280
 7811TIP3    H123376   6.262   0.353   6.192
 7811TIP3    H223377   6.220   0.344   6.337
 7812TIP3   OH223378   2.255   7.133   2.633
 7812TIP3    H123379   2.238   7.042   2.610
 7812TIP3    H223380   2.176   7.180   2.608
 7813TIP3   OH223381   0.738   7.484   6.086
 7813TIP3    H123382   0.718   7.551   6.020
 7813TIP3    H223383   0.685   7.409   6.062
 7814TIP3   OH223384   1.724   4.332   4.046
 7814TIP3    H123385   1.724   4.349   4.140
 7814TIP3    H223386   1.781   4.399   4.009
 7815TIP3   OH223387   3.839   0.163   5.798
 7815TIP3    H123388   3.863   0.192   5.887
 7815TIP3    H223389   3.841   0.068   5.803
 7816TIP3   OH223390   0.634   4.885   4.092
 7816TIP3    H123391   0.591   4.948   4.149
 7816TIP3    H223392   0.565   4.853   4.035
 7817TIP3   OH223393  -0.018   1.080   3.920
 7817TIP3    H123394   0.023   1.001   3.956
 7817TIP3    H223395  -0.086   1.102   3.984
 7818TIP3   OH223396   0.951   2.764   1.801
 7818TIP3    H123397   1.004   2.824   1.854
 7818TIP3    H223398   0.861   2.776   1.833
 7819TIP3   OH223399   1.946   2.985   2.158
 7819TIP3    H123400   2.022   2.963   2.104
 7819TIP3    H223401   1.870   2.958   2.106
 7820TIP3   OH223402   1.573   1.803   2.464
 7820TIP3    H123403   1.502   1.864   2.485
 7820TIP3    H223404   1.637   1.857   2.417
 7821TIP3   OH223405   4.761   5.565   1.831
 7821TIP3    H123406   4.846   5.607   1.847
 7821TIP3    H223407   4.783   5.484   1.785
 7822TIP3   OH223408   6.432   3.499   5.001
 7822TIP3    H123409   6.357   3.476   5.055
 7822TIP3    H223410   6.503   3.443   5.032
 7823TIP3   OH223411   5.927   5.327   0.923
 7823TIP3    H123412   5.951   5.411   0.883
 7823TIP3    H223413   5.986   5.319   0.998
 7824TIP3   OH223414   6.616   5.357   5.757
 7824TIP3    H123415   6.577   5.271   5.740
 7824TIP3    H223416   6.622   5.362   5.853
 7825TIP3   OH223417   4.143   4.493   4.508
 7825TIP3    H123418   4.078   4.480   4.439
 7825TIP3    H223419   4.143   4.411   4.557
 7826TIP3   OH223420   0.224   5.885   6.207
 7826TIP3    H123421   0.153   5.948   6.216
 7826TIP3    H223422   0.303   5.936   6.221
 7827TIP3   OH223423   6.972   2.849   2.685
 7827TIP3    H123424   6.998   2.865   2.594
 7827TIP3    H223425   6.983   2.933   2.729
 7828TIP3   OH223426   5.500   6.333   5.105
 7828TIP3    H123427   5.442   6.410   5.110
 7828TIP3    H223428   5.490   6.291   5.190
 7829TIP3   OH223429   2.020   2.107   6.456
 7829TIP3    H123430   1.960   2.045   6.498
 7829TIP3    H223431   2.042   2.170   6.525
 7830TIP3   OH223432   5.762   2.917   2.831
 7830TIP3    H123433   5.752   2.866   2.911
 7830TIP3    H223434   5.750   2.853   2.760
 7831TIP3   OH223435   5.243   4.216   1.487
 7831TIP3    H123436   5.276   4.284   1.428
 7831TIP3    H223437   5.188   4.161   1.432
 7832TIP3   OH223438   5.803   6.116   3.415
 7832TIP3    H123439   5.859   6.193   3.400
 7832TIP3    H223440   5.720   6.152   3.447
 7833TIP3   OH223441   7.350   0.330   3.843
 7833TIP3    H123442   7.299   0.379   3.779
 7833TIP3    H223443   7.372   0.393   3.911
 7834TIP3   OH223444   5.533   7.151   0.968
 7834TIP3    H123445   5.578   7.223   0.924
 7834TIP3    H223446   5.457   7.191   1.010
 7835TIP3   OH223447   6.128   7.435   3.195
 7835TIP3    H123448   6.052   7.437   3.253
 7835TIP3    H223449   6.202   7.414   3.252
 7836TIP3   OH223450   5.557   6.697   6.646
 7836TIP3    H123451   5.505   6.693   6.566
 7836TIP3    H223452   5.537   6.616   6.692
 7837TIP3   OH223453   2.633   6.839   1.756
 7837TIP3    H123454   2.660   6.776   1.824
 7837TIP3    H223455   2.558   6.885   1.795
 7838TIP3   OH223456   5.539   7.016   0.123
 7838TIP3    H123457   5.521   7.060   0.206
 7838TIP3    H223458   5.466   6.955   0.112
 7839TIP3   OH223459   1.743   6.124   0.935
 7839TIP3    H123460   1.651   6.119   0.962
 7839TIP3    H223461   1.742   6.182   0.858
 7840TIP3   OH223462   3.749   6.227   6.485
 7840TIP3    H123463   3.658   6.251   6.468
 7840TIP3    H223464   3.779   6.185   6.404
 7841TIP3   OH223465   2.437   1.830   4.541
 7841TIP3    H123466   2.450   1.894   4.471
 7841TIP3    H223467   2.452   1.745   4.499
 7842TIP3   OH223468   7.057   6.157   2.979
 7842TIP3    H123469   7.151   6.147   2.967
 7842TIP3    H223470   7.021   6.159   2.891
 7843TIP3   OH223471   7.965   0.715   3.727
 7843TIP3    H123472   7.985   0.670   3.644
 7843TIP3    H223473   7.938   0.644   3.786
 7844TIP3   OH223474   6.945   5.534   4.360
 7844TIP3    H123475   6.869   5.592   4.360
 7844TIP3    H223476   7.021   5.592   4.351
 7845TIP3   OH223477   6.745   0.948   5.597
 7845TIP3    H123478   6.806   0.908   5.535
 7845TIP3    H223479   6.743   0.888   5.671
 7846TIP3   OH223480   4.494   5.102   1.459
 7846TIP3    H123481   4.542   5.111   1.378
 7846TIP3    H223482   4.447   5.019   1.451
 7847TIP3   OH223483   7.748   1.198   3.707
 7847TIP3    H123484   7.772   1.226   3.795
 7847TIP3    H223485   7.832   1.180   3.664
 7848TIP3   OH223486   2.121   2.409   5.807
 7848TIP3    H123487   2.044   2.440   5.760
 7848TIP3    H223488   2.195   2.437   5.753
 7849TIP3   OH223489   0.538   3.460   2.782
 7849TIP3    H123490   0.599   3.388   2.794
 7849TIP3    H223491   0.453   3.418   2.765
 7850TIP3   OH223492   3.444   2.204   2.251
 7850TIP3    H123493   3.526   2.252   2.242
 7850TIP3    H223494   3.403   2.209   2.164
 7851TIP3   OH223495   5.070   2.452   4.611
 7851TIP3    H123496   5.144   2.512   4.602
 7851TIP3    H223497   5.061   2.438   4.705
 7852TIP3   OH223498   3.204   6.550   4.490
 7852TIP3    H123499   3.170   6.579   4.405
 7852TIP3    H223500   3.168   6.612   4.553
 7853TIP3   OH223501   7.132   0.546   3.372
 7853TIP3    H123502   7.218   0.588   3.373
 7853TIP3    H223503   7.135   0.485   3.299
 7854TIP3   OH223504   7.153   4.350   2.130
 7854TIP3    H123505   7.160   4.271   2.075
 7854TIP3    H223506   7.229   4.403   2.105
 7855TIP3   OH223507   6.920   2.380   0.353
 7855TIP3    H123508   6.827   2.355   0.357
 7855TIP3    H223509   6.943   2.371   0.261
 7856TIP3   OH223510   2.775   6.365   6.069
 7856TIP3    H123511   2.759   6.332   6.157
 7856TIP3    H223512   2.716   6.314   6.013
 7857TIP3   OH223513   2.397   5.560   3.974
 7857TIP3    H123514   2.320   5.607   4.007
 7857TIP3    H223515   2.452   5.628   3.935
 7858TIP3   OH223516   4.937   2.126   5.547
 7858TIP3    H123517   5.027   2.100   5.532
 7858TIP3    H223518   4.930   2.134   5.643
 7859TIP3   OH223519   3.592   3.680   2.472
 7859TIP3    H123520   3.515   3.625   2.468
 7859TIP3    H223521   3.615   3.696   2.381
 7860TIP3   OH223522   5.020   3.849   5.030
 7860TIP3    H123523   5.065   3.785   5.085
 7860TIP3    H223524   5.083   3.919   5.018
 7861TIP3   OH223525   2.909   0.425   3.678
 7861TIP3    H123526   2.836   0.479   3.647
 7861TIP3    H223527   2.972   0.425   3.605
 7862TIP3   OH223528   7.295   5.777   6.307
 7862TIP3    H123529   7.240   5.706   6.273
 7862TIP3    H223530   7.249   5.857   6.283
 7863TIP3   OH223531   1.868   4.980   1.025
 7863TIP3    H123532   1.842   5.052   1.083
 7863TIP3    H223533   1.914   5.023   0.953
 7864TIP3   OH223534   7.104   3.229   2.589
 7864TIP3    H123535   7.182   3.175   2.577
 7864TIP3    H223536   7.132   3.317   2.563
 7865TIP3   OH223537   6.795   5.555   1.359
 7865TIP3    H123538   6.721   5.495   1.346
 7865TIP3    H223539   6.754   5.639   1.382
 7866TIP3   OH223540   5.412   7.360   6.251
 7866TIP3    H123541   5.337   7.301   6.247
 7866TIP3    H223542   5.487   7.303   6.232
 7867TIP3   OH223543   3.463   4.175   3.722
 7867TIP3    H123544   3.462   4.135   3.809
 7867TIP3    H223545   3.556   4.185   3.702
 7868TIP3   OH223546   5.896   5.258   6.126
 7868TIP3    H123547   5.868   5.171   6.156
 7868TIP3    H223548   5.955   5.289   6.195
 7869TIP3   OH223549   0.321   2.568   0.842
 7869TIP3    H123550   0.384   2.591   0.774
 7869TIP3    H223551   0.270   2.496   0.804
 7870TIP3   OH223552   3.464   5.258   4.012
 7870TIP3    H123553   3.544   5.294   3.973
 7870TIP3    H223554   3.468   5.165   3.993
 7871TIP3   OH223555   3.849   5.353   0.054
 7871TIP3    H123556   3.820   5.282  -0.004
 7871TIP3    H223557   3.943   5.361   0.037
 7872TIP3   OH223558   6.869   1.671   2.726
 7872TIP3    H123559   6.778   1.687   2.751
 7872TIP3    H223560   6.921   1.720   2.790
 7873TIP3   OH223561   7.092   4.072   3.728
 7873TIP3    H123562   7.080   4.140   3.794
 7873TIP3    H223563   7.004   4.039   3.710
 7874TIP3   OH223564   0.052   7.765   4.197
 7874TIP3    H123565   0.038   7.816   4.276
 7874TIP3    H223566   0.077   7.678   4.228
 7875TIP3   OH223567   2.797   1.054   1.469
 7875TIP3    H123568   2.851   1.112   1.521
 7875TIP3    H223569   2.713   1.051   1.516
 7876TIP3   OH223570   2.772   6.975   4.563
 7876TIP3    H123571   2.698   7.026   4.598
 7876TIP3    H223572   2.826   6.956   4.640
 7877TIP3   OH223573   0.661   0.871   1.272
 7877TIP3    H123574   0.646   0.945   1.214
 7877TIP3    H223575   0.612   0.799   1.233
 7878TIP3   OH223576   4.109   1.363   4.261
 7878TIP3    H123577   4.129   1.402   4.176
 7878TIP3    H223578   4.181   1.391   4.318
 7879TIP3   OH223579   4.112   4.638   1.514
 7879TIP3    H123580   4.179   4.703   1.534
 7879TIP3    H223581   4.116   4.576   1.587
 7880TIP3   OH223582   4.361   5.542   4.860
 7880TIP3    H123583   4.386   5.512   4.772
 7880TIP3    H223584   4.412   5.621   4.874
 7881TIP3   OH223585   3.912   0.951   5.117
 7881TIP3    H123586   3.876   0.928   5.031
 7881TIP3    H223587   3.865   1.032   5.141
 7882TIP3   OH223588   6.001   1.401   2.393
 7882TIP3    H123589   5.905   1.407   2.385
 7882TIP3    H223590   6.015   1.319   2.441
 7883TIP3   OH223591   6.544   4.989   4.604
 7883TIP3    H123592   6.546   5.076   4.563
 7883TIP3    H223593   6.464   4.949   4.570
 7884TIP3   OH223594   0.563   2.594   0.713
 7884TIP3    H123595   0.584   2.527   0.647
 7884TIP3    H223596   0.645   2.612   0.757
 7885TIP3   OH223597   8.201   3.738   5.071
 7885TIP3    H123598   8.113   3.701   5.086
 7885TIP3    H223599   8.224   3.709   4.982
 7886TIP3   OH223600   5.571   2.029   4.681
 7886TIP3    H123601   5.651   2.042   4.732
 7886TIP3    H223602   5.586   2.077   4.600
 7887TIP3   OH223603   6.302   0.369   3.283
 7887TIP3    H123604   6.249   0.400   3.210
 7887TIP3    H223605   6.337   0.285   3.252
 7888TIP3   OH223606   6.224   0.712   6.105
 7888TIP3    H123607   6.270   0.790   6.075
 7888TIP3    H223608   6.244   0.645   6.039
 7889TIP3   OH223609   2.800   3.262   5.302
 7889TIP3    H123610   2.714   3.276   5.342
 7889TIP3    H223611   2.831   3.349   5.279
 7890TIP3   OH223612   5.622   6.192   4.114
 7890TIP3    H123613   5.603   6.132   4.042
 7890TIP3    H223614   5.683   6.256   4.076
 7891TIP3   OH223615   2.839   5.405   6.602
 7891TIP3    H123616   2.774   5.468   6.570
 7891TIP3    H223617   2.791   5.322   6.609
 7892TIP3   OH223618   4.106   3.746   4.545
 7892TIP3    H123619   4.152   3.826   4.572
 7892TIP3    H223620   4.144   3.724   4.460
 7893TIP3   OH223621   3.002   7.114   0.552
 7893TIP3    H123622   2.934   7.155   0.605
 7893TIP3    H223623   2.983   7.143   0.463
 7894TIP3   OH223624   4.300   6.881   3.366
 7894TIP3    H123625   4.267   6.919   3.447
 7894TIP3    H223626   4.241   6.808   3.347
 7895TIP3   OH223627   7.797   0.864   3.099
 7895TIP3    H123628   7.843   0.948   3.092
 7895TIP3    H223629   7.824   0.830   3.185
 7896TIP3   OH223630   6.743   1.800   0.440
 7896TIP3    H123631   6.811   1.866   0.454
 7896TIP3    H223632   6.788   1.716   0.450
 7897TIP3   OH223633   4.216   2.313   3.777
 7897TIP3    H123634   4.298   2.361   3.770
 7897TIP3    H223635   4.148   2.378   3.762
 7898TIP3   OH223636   4.090   5.349   4.118
 7898TIP3    H123637   4.173   5.338   4.165
 7898TIP3    H223638   4.028   5.377   4.184
 7899TIP3   OH223639   8.200   5.457   1.336
 7899TIP3    H123640   8.221   5.401   1.262
 7899TIP3    H223641   8.285   5.481   1.373
 7900TIP3   OH223642   1.562   3.997   1.324
 7900TIP3    H123643   1.637   4.036   1.371
 7900TIP3    H223644   1.499   3.976   1.393
 7901TIP3   OH223645   0.642   6.825   3.905
 7901TIP3    H123646   0.556   6.801   3.940
 7901TIP3    H223647   0.684   6.742   3.884
 7902TIP3   OH223648   0.326   6.501   0.381
 7902TIP3    H123649   0.361   6.582   0.344
 7902TIP3    H223650   0.276   6.461   0.311
 7903TIP3   OH223651   7.968   2.281   4.359
 7903TIP3    H123652   7.976   2.376   4.358
 7903TIP3    H223653   8.008   2.252   4.277
 7904TIP3   OH223654   7.850   7.647   2.767
 7904TIP3    H123655   7.888   7.662   2.853
 7904TIP3    H223656   7.760   7.619   2.784
 7905TIP3   OH223657   4.706   4.026   6.026
 7905TIP3    H123658   4.705   3.932   6.013
 7905TIP3    H223659   4.680   4.038   6.118
 7906TIP3   OH223660   3.120   6.505   1.187
 7906TIP3    H123661   3.129   6.564   1.112
 7906TIP3    H223662   3.171   6.546   1.257
 7907TIP3   OH223663   2.838   6.598   2.873
 7907TIP3    H123664   2.869   6.511   2.897
 7907TIP3    H223665   2.897   6.659   2.917
 7908TIP3   OH223666   2.416   4.324   0.781
 7908TIP3    H123667   2.377   4.412   0.782
 7908TIP3    H223668   2.354   4.271   0.731
 7909TIP3   OH223669   6.228   6.685   4.828
 7909TIP3    H123670   6.288   6.645   4.765
 7909TIP3    H223671   6.153   6.626   4.831
 7910TIP3   OH223672   3.921   3.677   3.745
 7910TIP3    H123673   3.885   3.731   3.674
 7910TIP3    H223674   3.873   3.704   3.823
 7911TIP3   OH223675   0.653   1.302   4.240
 7911TIP3    H123676   0.687   1.386   4.271
 7911TIP3    H223677   0.580   1.325   4.183
 7912TIP3   OH223678   0.196   5.139   5.671
 7912TIP3    H123679   0.279   5.155   5.627
 7912TIP3    H223680   0.149   5.078   5.613
 7913TIP3   OH223681   7.573   5.326   6.764
 7913TIP3    H123682   7.526   5.389   6.820
 7913TIP3    H223683   7.663   5.328   6.797
 7914TIP3   OH223684   5.446   5.372   5.451
 7914TIP3    H123685   5.414   5.284   5.472
 7914TIP3    H223686   5.511   5.391   5.519
 7915TIP3   OH223687   6.804   4.677   2.673
 7915TIP3    H123688   6.805   4.660   2.579
 7915TIP3    H223689   6.894   4.701   2.694
 7916TIP3   OH223690   4.266   5.857   3.197
 7916TIP3    H123691   4.265   5.765   3.223
 7916TIP3    H223692   4.203   5.863   3.126
 7917TIP3   OH223693   4.443   7.144   0.556
 7917TIP3    H123694   4.487   7.062   0.534
 7917TIP3    H223695   4.378   7.156   0.488
 7918TIP3   OH223696   0.289   4.301   2.843
 7918TIP3    H123697   0.222   4.369   2.840
 7918TIP3    H223698   0.288   4.271   2.934
 7919TIP3   OH223699   6.273   0.417   0.006
 7919TIP3    H123700   6.195   0.371   0.037
 7919TIP3    H223701   6.328   0.426   0.084
 7920TIP3   OH223702   3.746   3.897   1.834
 7920TIP3    H123703   3.818   3.959   1.843
 7920TIP3    H223704   3.756   3.836   1.907
 7921TIP3   OH223705   2.953   0.123   2.733
 7921TIP3    H123706   2.885   0.098   2.670
 7921TIP3    H223707   2.910   0.187   2.790
 7922TIP3   OH223708   6.098   7.403   5.065
 7922TIP3    H123709   6.129   7.312   5.056
 7922TIP3    H223710   6.158   7.443   5.127
 7923TIP3   OH223711   1.549   5.845   5.584
 7923TIP3    H123712   1.490   5.901   5.634
 7923TIP3    H223713   1.617   5.905   5.551
 7924TIP3   OH223714   3.685   0.317   2.561
 7924TIP3    H123715   3.716   0.247   2.504
 7924TIP3    H223716   3.632   0.273   2.627
 7925TIP3   OH223717   5.042   5.204   1.491
 7925TIP3    H123718   5.056   5.296   1.515
 7925TIP3    H223719   4.978   5.207   1.420
 7926TIP3   OH223720   5.585   1.692   2.229
 7926TIP3    H123721   5.646   1.754   2.269
 7926TIP3    H223722   5.573   1.725   2.139
 7927TIP3   OH223723   0.489   3.110   2.140
 7927TIP3    H123724   0.577   3.132   2.108
 7927TIP3    H223725   0.430   3.141   2.071
 7928TIP3   OH223726   6.460   4.031   4.007
 7928TIP3    H123727   6.550   4.021   4.037
 7928TIP3    H223728   6.408   3.981   4.069
 7929TIP3   OH223729   0.119   4.799   1.079
 7929TIP3    H123730   0.085   4.727   1.132
 7929TIP3    H223731   0.119   4.765   0.989
 7930TIP3   OH223732   4.662   7.130   3.264
 7930TIP3    H123733   4.613   7.136   3.346
 7930TIP3    H223734   4.639   7.210   3.216
 7931TIP3   OH223735   4.778   7.333   3.449
 7931TIP3    H123736   4.839   7.259   3.457
 7931TIP3    H223737   4.787   7.362   3.358
 7932TIP3   OH223738   7.717   3.631   1.949
 7932TIP3    H123739   7.656   3.594   2.012
 7932TIP3    H223740   7.804   3.607   1.981
 7933TIP3   OH223741   5.832   4.601   6.746
 7933TIP3    H123742   5.891   4.670   6.714
 7933TIP3    H223743   5.784   4.642   6.818
 7934TIP3   OH223744   2.415   0.701   2.691
 7934TIP3    H123745   2.328   0.660   2.684
 7934TIP3    H223746   2.463   0.666   2.616
 7935TIP3   OH223747   2.655   6.893   3.487
 7935TIP3    H123748   2.595   6.840   3.435
 7935TIP3    H223749   2.741   6.878   3.449
 7936TIP3   OH223750   7.434   2.702   1.369
 7936TIP3    H123751   7.383   2.637   1.320
 7936TIP3    H223752   7.378   2.780   1.369
 7937TIP3   OH223753   0.598   5.858   5.548
 7937TIP3    H123754   0.606   5.897   5.635
 7937TIP3    H223755   0.568   5.768   5.565
 7938TIP3   OH223756   0.726   3.303   3.652
 7938TIP3    H123757   0.763   3.220   3.682
 7938TIP3    H223758   0.696   3.347   3.732
 7939TIP3   OH223759   7.847   4.745   5.782
 7939TIP3    H123760   7.790   4.678   5.820
 7939TIP3    H223761   7.802   4.828   5.800
 7940TIP3   OH223762   0.404   7.720   5.279
 7940TIP3    H123763   0.334   7.777   5.311
 7940TIP3    H223764   0.474   7.780   5.253
 7941TIP3   OH223765   0.377   4.348   5.697
 7941TIP3    H123766   0.415   4.264   5.672
 7941TIP3    H223767   0.452   4.403   5.719
 7942TIP3   OH223768   1.631   0.828   2.562
 7942TIP3    H123769   1.631   0.787   2.475
 7942TIP3    H223770   1.710   0.882   2.563
 7943TIP3   OH223771   6.673   3.581   5.645
 7943TIP3    H123772   6.604   3.516   5.632
 7943TIP3    H223773   6.755   3.532   5.634
 7944TIP3   OH223774   5.723   3.952   2.649
 7944TIP3    H123775   5.710   3.887   2.580
 7944TIP3    H223776   5.646   4.009   2.643
 7945TIP3   OH223777   2.278   7.668   1.241
 7945TIP3    H123778   2.209   7.693   1.179
 7945TIP3    H223779   2.283   7.572   1.233
 7946TIP3   OH223780   6.663   6.608   1.840
 7946TIP3    H123781   6.682   6.697   1.872
 7946TIP3    H223782   6.726   6.552   1.886
 7947TIP3   OH223783   0.236   1.754   4.746
 7947TIP3    H123784   0.284   1.674   4.727
 7947TIP3    H223785   0.225   1.798   4.662
 7948TIP3   OH223786   6.749   0.938   1.690
 7948TIP3    H123787   6.764   1.011   1.750
 7948TIP3    H223788   6.730   0.863   1.748
 7949TIP3   OH223789   8.313   7.480   0.281
 7949TIP3    H123790   8.265   7.515   0.356
 7949TIP3    H223791   8.258   7.409   0.248
 7950TIP3   OH223792   7.777   0.215   1.655
 7950TIP3    H123793   7.759   0.121   1.648
 7950TIP3    H223794   7.864   0.225   1.617
 7951TIP3   OH223795   3.944   6.030   1.789
 7951TIP3    H123796   3.906   6.031   1.877
 7951TIP3    H223797   3.939   6.121   1.760
 7952TIP3   OH223798   7.080   5.744   3.032
 7952TIP3    H123799   7.164   5.775   3.065
 7952TIP3    H223800   7.095   5.730   2.939
 7953TIP3   OH223801   6.858   3.690   4.973
 7953TIP3    H123802   6.944   3.715   5.007
 7953TIP3    H223803   6.851   3.734   4.889
 7954TIP3   OH223804   0.843   4.728   1.771
 7954TIP3    H123805   0.757   4.765   1.791
 7954TIP3    H223806   0.887   4.721   1.855
 7955TIP3   OH223807   5.990   0.091   0.275
 7955TIP3    H123808   5.919   0.153   0.289
 7955TIP3    H223809   5.972   0.020   0.337
 7956TIP3   OH223810   8.041   7.412   5.451
 7956TIP3    H123811   7.948   7.432   5.438
 7956TIP3    H223812   8.069   7.371   5.370
 7957TIP3   OH223813   5.539   0.983   5.032
 7957TIP3    H123814   5.451   1.014   5.012
 7957TIP3    H223815   5.595   1.025   4.967
 7958TIP3   OH223816   6.197   6.186   4.181
 7958TIP3    H123817   6.228   6.276   4.181
 7958TIP3    H223818   6.143   6.179   4.260
 7959TIP3   OH223819   2.198   3.754   1.639
 7959TIP3    H123820   2.217   3.847   1.631
 7959TIP3    H223821   2.185   3.724   1.549
 7960TIP3   OH223822   5.095   4.888   0.859
 7960TIP3    H123823   5.055   4.900   0.945
 7960TIP3    H223824   5.061   4.804   0.828
 7961TIP3   OH223825   5.427   2.319   0.502
 7961TIP3    H123826   5.390   2.385   0.443
 7961TIP3    H223827   5.499   2.364   0.546
 7962TIP3   OH223828   0.492   2.823   1.279
 7962TIP3    H123829   0.461   2.836   1.190
 7962TIP3    H223830   0.420   2.853   1.335
 7963TIP3   OH223831   7.779   2.011   3.329
 7963TIP3    H123832   7.791   2.040   3.419
 7963TIP3    H223833   7.701   1.954   3.332
 7964TIP3   OH223834   0.389   0.651   0.769
 7964TIP3    H123835   0.293   0.651   0.773
 7964TIP3    H223836   0.411   0.731   0.722
 7965TIP3   OH223837   3.302   3.304   5.630
 7965TIP3    H123838   3.302   3.348   5.715
 7965TIP3    H223839   3.217   3.326   5.593
 7966TIP3   OH223840   3.909   7.038   5.482
 7966TIP3    H123841   3.915   6.956   5.531
 7966TIP3    H223842   3.982   7.091   5.515
 7967TIP3   OH223843   3.822   1.721   1.506
 7967TIP3    H123844   3.874   1.731   1.427
 7967TIP3    H223845   3.748   1.781   1.494
 7968TIP3   OH223846   1.682   3.674   1.387
 7968TIP3    H123847   1.672   3.654   1.480
 7968TIP3    H223848   1.724   3.597   1.350
 7969TIP3   OH223849   2.365   2.493   1.903
 7969TIP3    H123850   2.317   2.568   1.866
 7969TIP3    H223851   2.324   2.417   1.863
 7970TIP3   OH223852   0.303   4.814   1.982
 7970TIP3    H123853   0.358   4.853   2.049
 7970TIP3    H223854   0.294   4.883   1.915
 7971TIP3   OH223855   2.714   0.168   6.373
 7971TIP3    H123856   2.788   0.142   6.426
 7971TIP3    H223857   2.637   0.143   6.424
 7972TIP3   OH223858   1.326   5.173   1.667
 7972TIP3    H123859   1.391   5.242   1.653
 7972TIP3    H223860   1.242   5.219   1.669
 7973TIP3   OH223861   6.424   2.740   3.459
 7973TIP3    H123862   6.337   2.712   3.429
 7973TIP3    H223863   6.405   2.804   3.528
 7974TIP3   OH223864   5.805   3.122   3.160
 7974TIP3    H123865   5.736   3.156   3.103
 7974TIP3    H223866   5.759   3.091   3.238
 7975TIP3   OH223867   3.144   1.711   4.417
 7975TIP3    H123868   3.215   1.659   4.456
 7975TIP3    H223869   3.158   1.705   4.323
 7976TIP3   OH223870   7.673   2.585   6.239
 7976TIP3    H123871   7.606   2.517   6.233
 7976TIP3    H223872   7.731   2.556   6.310
 7977TIP3   OH223873   2.766   3.726   5.409
 7977TIP3    H123874   2.705   3.692   5.474
 7977TIP3    H223875   2.711   3.779   5.350
 7978TIP3   OH223876   0.920   6.813   5.086
 7978TIP3    H123877   0.990   6.848   5.141
 7978TIP3    H223878   0.850   6.878   5.092
 7979TIP3   OH223879   3.408   5.227   1.483
 7979TIP3    H123880   3.408   5.151   1.425
 7979TIP3    H223881   3.374   5.194   1.566
 7980TIP3   OH223882   7.007   1.018   6.679
 7980TIP3    H123883   7.012   0.964   6.757
 7980TIP3    H223884   7.010   0.956   6.606
 7981TIP3   OH223885   5.837   7.147   0.856
 7981TIP3    H123886   5.854   7.060   0.820
 7981TIP3    H223887   5.819   7.132   0.948
 7982TIP3   OH223888   5.316   2.563   0.686
 7982TIP3    H123889   5.374   2.597   0.754
 7982TIP3    H223890   5.297   2.639   0.631
 7983TIP3   OH223891   1.667   4.525   4.989
 7983TIP3    H123892   1.743   4.474   5.015
 7983TIP3    H223893   1.662   4.514   4.894
 7984TIP3   OH223894   1.420   6.425   5.532
 7984TIP3    H123895   1.440   6.436   5.439
 7984TIP3    H223896   1.404   6.514   5.564
 7985TIP3   OH223897   8.125   4.028   2.120
 7985TIP3    H123898   8.127   4.094   2.189
 7985TIP3    H223899   8.211   4.032   2.080
 7986TIP3   OH223900   7.600   5.230   2.863
 7986TIP3    H123901   7.522   5.227   2.808
 7986TIP3    H223902   7.597   5.147   2.912
 7987TIP3   OH223903   7.984   5.681   5.725
 7987TIP3    H123904   7.960   5.766   5.690
 7987TIP3    H223905   7.900   5.638   5.743
 7988TIP3   OH223906   0.285   2.874   2.023
 7988TIP3    H123907   0.235   2.955   2.032
 7988TIP3    H223908   0.227   2.816   1.973
 7989TIP3   OH223909   0.882   2.205   3.359
 7989TIP3    H123910   0.804   2.189   3.306
 7989TIP3    H223911   0.918   2.287   3.325
 7990TIP3   OH223912   1.214   7.608   3.042
 7990TIP3    H123913   1.268   7.554   3.100
 7990TIP3    H223914   1.271   7.681   3.019
 7991TIP3   OH223915   1.980   1.734   2.362
 7991TIP3    H123916   1.906   1.675   2.346
 7991TIP3    H223917   2.027   1.736   2.279
 7992TIP3   OH223918   1.145   2.888   3.077
 7992TIP3    H123919   1.145   2.818   3.012
 7992TIP3    H223920   1.106   2.849   3.155
 7993TIP3   OH223921   7.755   7.419   5.445
 7993TIP3    H123922   7.750   7.324   5.448
 7993TIP3    H223923   7.694   7.449   5.513
 7994TIP3   OH223924   7.137   4.171   5.702
 7994TIP3    H123925   7.047   4.196   5.680
 7994TIP3    H223926   7.128   4.115   5.779
 7995TIP3   OH223927   7.580   4.061   2.630
 7995TIP3    H123928   7.552   3.991   2.689
 7995TIP3    H223929   7.545   4.036   2.545
 7996TIP3   OH223930   5.250   2.625   3.371
 7996TIP3    H123931   5.168   2.618   3.320
 7996TIP3    H223932   5.263   2.537   3.406
 7997TIP3   OH223933   0.971   3.986   6.081
 7997TIP3    H123934   0.890   4.034   6.060
 7997TIP3    H223935   0.976   3.989   6.176
 7998TIP3   OH223936   5.949   2.980   0.617
 7998TIP3    H123937   6.023   2.997   0.559
 7998TIP3    H223938   5.914   3.067   0.637
 7999TIP3   OH223939   7.641   3.217   2.052
 7999TIP3    H123940   7.551   3.230   2.083
 7999TIP3    H223941   7.658   3.293   1.996
 8000TIP3   OH223942   0.808   3.067   5.108
 8000TIP3    H123943   0.806   3.146   5.053
 8000TIP3    H223944   0.735   3.078   5.169
 8001TIP3   OH223945   4.898   4.941   2.485
 8001TIP3    H123946   4.870   5.031   2.472
 8001TIP3    H223947   4.842   4.908   2.556
 8002TIP3   OH223948   0.763   5.787   2.546
 8002TIP3    H123949   0.689   5.731   2.567
 8002TIP3    H223950   0.730   5.876   2.555
 8003TIP3   OH223951   0.093   4.242   1.380
 8003TIP3    H123952   0.155   4.290   1.324
 8003TIP3    H223953   0.118   4.150   1.371
 8004TIP3   OH223954   6.422   7.758   4.846
 8004TIP3    H123955   6.349   7.706   4.879
 8004TIP3    H223956   6.415   7.752   4.750
 8005TIP3   OH223957   7.271   1.351   4.102
 8005TIP3    H123958   7.366   1.344   4.093
 8005TIP3    H223959   7.257   1.352   4.197
 8006TIP3   OH223960   0.652   3.072   1.269
 8006TIP3    H123961   0.576   3.031   1.228
 8006TIP3    H223962   0.650   3.041   1.360
 8007TIP3   OH223963   1.351   1.950   5.602
 8007TIP3    H123964   1.367   1.915   5.514
 8007TIP3    H223965   1.399   2.032   5.604
 8008TIP3   OH223966   2.561   3.342   2.262
 8008TIP3    H123967   2.476   3.369   2.229
 8008TIP3    H223968   2.547   3.253   2.296
 8009TIP3   OH223969   5.739   1.483   6.296
 8009TIP3    H123970   5.663   1.429   6.279
 8009TIP3    H223971   5.707   1.573   6.287
 8010TIP3   OH223972   6.465   2.534   2.743
 8010TIP3    H123973   6.454   2.512   2.651
 8010TIP3    H223974   6.394   2.487   2.787
 8011TIP3   OH223975   4.491   3.330   4.051
 8011TIP3    H123976   4.527   3.332   3.962
 8011TIP3    H223977   4.567   3.333   4.108
 8012TIP3   OH223978   4.359   0.779   4.371
 8012TIP3    H123979   4.433   0.828   4.335
 8012TIP3    H223980   4.299   0.846   4.403
 8013TIP3   OH223981   6.628   2.363   0.422
 8013TIP3    H123982   6.626   2.272   0.393
 8013TIP3    H223983   6.642   2.413   0.342
 8014TIP3   OH223984   5.436   4.098   1.656
 8014TIP3    H123985   5.489   4.178   1.658
 8014TIP3    H223986   5.384   4.105   1.576
 8015TIP3   OH223987   1.926   2.738   5.767
 8015TIP3    H123988   1.926   2.799   5.694
 8015TIP3    H223989   1.922   2.651   5.726
 8016TIP3   OH223990   4.992   3.672   0.557
 8016TIP3    H123991   4.943   3.724   0.621
 8016TIP3    H223992   4.993   3.583   0.594
 8017TIP3   OH223993   0.195   6.551   1.383
 8017TIP3    H123994   0.188   6.646   1.377
 8017TIP3    H223995   0.284   6.535   1.415
 8018TIP3   OH223996   5.928   7.166   3.493
 8018TIP3    H123997   5.924   7.181   3.588
 8018TIP3    H223998   5.999   7.102   3.483
 8019TIP3   OH223999   7.642   3.906   5.013
 8019TIP3    H124000   7.654   3.990   5.058
 8019TIP3    H224001   7.700   3.846   5.061
 8020TIP3   OH224002   1.950   4.669   4.654
 8020TIP3    H124003   2.017   4.736   4.648
 8020TIP3    H224004   1.911   4.681   4.740
 8021TIP3   OH224005   7.935   2.718   5.659
 8021TIP3    H124006   7.906   2.794   5.710
 8021TIP3    H224007   8.025   2.702   5.689
 8022TIP3   OH224008   6.876   6.187   3.525
 8022TIP3    H124009   6.969   6.170   3.512
 8022TIP3    H224010   6.868   6.282   3.514
 8023TIP3   OH224011   0.573   3.989   0.335
 8023TIP3    H124012   0.640   4.057   0.343
 8023TIP3    H224013   0.563   3.977   0.240
 8024TIP3   OH224014   5.716   7.417   5.623
 8024TIP3    H124015   5.699   7.458   5.708
 8024TIP3    H224016   5.756   7.486   5.571
 8025TIP3   OH224017   5.833   5.401   0.107
 8025TIP3    H124018   5.744   5.382   0.077
 8025TIP3    H224019   5.830   5.493   0.132
 8026TIP3   OH224020   1.484   2.109   4.985
 8026TIP3    H124021   1.391   2.127   5.001
 8026TIP3    H224022   1.497   2.133   4.894
 8027TIP3   OH224023   5.231   0.018   6.100
 8027TIP3    H124024   5.295  -0.053   6.099
 8027TIP3    H224025   5.148  -0.024   6.076
 8028TIP3   OH224026   4.695   4.200   6.524
 8028TIP3    H124027   4.617   4.148   6.547
 8028TIP3    H224028   4.691   4.276   6.582
 8029TIP3   OH224029   3.202   1.437   3.740
 8029TIP3    H124030   3.127   1.480   3.697
 8029TIP3    H224031   3.176   1.345   3.746
 8030TIP3   OH224032   4.467   1.081   2.535
 8030TIP3    H124033   4.412   1.129   2.473
 8030TIP3    H224034   4.404   1.042   2.596
 8031TIP3   OH224035   3.662   3.304   6.584
 8031TIP3    H124036   3.730   3.313   6.651
 8031TIP3    H224037   3.648   3.210   6.577
 8032TIP3   OH224038   8.056   7.247   5.700
 8032TIP3    H124039   8.072   7.274   5.610
 8032TIP3    H224040   8.002   7.168   5.692
 8033TIP3   OH224041   2.375   0.571   2.082
 8033TIP3    H124042   2.327   0.636   2.134
 8033TIP3    H224043   2.385   0.496   2.141
 8034TIP3   OH224044   6.048   4.440   6.479
 8034TIP3    H124045   6.051   4.492   6.399
 8034TIP3    H224046   6.036   4.350   6.448
 8035TIP3   OH224047   8.282   3.658   5.384
 8035TIP3    H124048   8.275   3.655   5.479
 8035TIP3    H224049   8.195   3.686   5.355
 8036TIP3   OH224050   6.613   5.413   4.199
 8036TIP3    H124051   6.553   5.415   4.124
 8036TIP3    H224052   6.693   5.453   4.167
 8037TIP3   OH224053   1.829   6.311   3.030
 8037TIP3    H124054   1.914   6.317   2.987
 8037TIP3    H224055   1.844   6.254   3.106
 8038TIP3   OH224056   5.516   2.423   3.963
 8038TIP3    H124057   5.422   2.432   3.978
 8038TIP3    H224058   5.526   2.336   3.924
 8039TIP3   OH224059   6.785   0.863   4.905
 8039TIP3    H124060   6.782   0.850   4.999
 8039TIP3    H224061   6.733   0.791   4.869
 8040TIP3   OH224062   1.689   3.974   4.073
 8040TIP3    H124063   1.770   4.004   4.031
 8040TIP3    H224064   1.672   4.039   4.141
 8041TIP3   OH224065   3.409   1.263   3.341
 8041TIP3    H124066   3.419   1.321   3.416
 8041TIP3    H224067   3.463   1.187   3.362
 8042TIP3   OH224068   5.763   6.420   0.683
 8042TIP3    H124069   5.692   6.364   0.715
 8042TIP3    H224070   5.831   6.413   0.750
 8043TIP3   OH224071   2.782   5.576   2.752
 8043TIP3    H124072   2.771   5.671   2.755
 8043TIP3    H224073   2.740   5.550   2.670
 8044TIP3   OH224074   2.703   4.961   2.783
 8044TIP3    H124075   2.677   4.920   2.701
 8044TIP3    H224076   2.795   4.938   2.793
 8045TIP3   OH224077   0.598   0.463   0.830
 8045TIP3    H124078   0.655   0.516   0.775
 8045TIP3    H224079   0.520   0.517   0.843
 8046TIP3   OH224080   6.463   6.193   5.481
 8046TIP3    H124081   6.453   6.254   5.554
 8046TIP3    H224082   6.550   6.213   5.445
 8047TIP3   OH224083   1.136   6.512   3.525
 8047TIP3    H124084   1.153   6.506   3.619
 8047TIP3    H224085   1.092   6.597   3.514
 8048TIP3   OH224086   7.977   4.288   6.459
 8048TIP3    H124087   7.890   4.309   6.424
 8048TIP3    H224088   8.028   4.368   6.445
 8049TIP3   OH224089   2.794   1.934   3.458
 8049TIP3    H124090   2.835   1.848   3.460
 8049TIP3    H224091   2.771   1.948   3.366
 8050TIP3   OH224092   4.388   4.610   6.267
 8050TIP3    H124093   4.421   4.690   6.307
 8050TIP3    H224094   4.304   4.635   6.228
 8051TIP3   OH224095   2.172   4.521   0.427
 8051TIP3    H124096   2.241   4.524   0.493
 8051TIP3    H224097   2.122   4.442   0.448
 8052TIP3   OH224098   4.588   1.381   0.293
 8052TIP3    H124099   4.505   1.372   0.339
 8052TIP3    H224100   4.600   1.475   0.283
 8053TIP3   OH224101   1.621   5.950   0.376
 8053TIP3    H124102   1.716   5.953   0.383
 8053TIP3    H224103   1.603   5.866   0.334
 8054TIP3   OH224104   0.170   3.877   1.084
 8054TIP3    H124105   0.175   3.794   1.131
 8054TIP3    H224106   0.229   3.866   1.010
 8055TIP3   OH224107   6.073   3.985   5.351
 8055TIP3    H124108   6.028   3.902   5.333
 8055TIP3    H224109   6.139   3.993   5.282
 8056TIP3   OH224110   6.501   5.442   3.927
 8056TIP3    H124111   6.489   5.476   3.838
 8056TIP3    H224112   6.487   5.347   3.918
 8057TIP3   OH224113   3.428   4.845   4.432
 8057TIP3    H124114   3.359   4.911   4.420
 8057TIP3    H224115   3.401   4.772   4.377
 8058TIP3   OH224116   6.143   2.677   4.318
 8058TIP3    H124117   6.182   2.763   4.332
 8058TIP3    H224118   6.075   2.671   4.385
 8059TIP3   OH224119   2.101   0.999   1.148
 8059TIP3    H124120   2.059   1.083   1.163
 8059TIP3    H224121   2.095   0.985   1.054
 8060TIP3   OH224122   2.753   6.418   1.568
 8060TIP3    H124123   2.679   6.360   1.550
 8060TIP3    H224124   2.751   6.482   1.497
 8061TIP3   OH224125   6.763   0.329   3.161
 8061TIP3    H124126   6.742   0.414   3.200
 8061TIP3    H224127   6.749   0.266   3.231
 8062TIP3   OH224128   6.893   4.601   3.204
 8062TIP3    H124129   6.857   4.545   3.273
 8062TIP3    H224130   6.988   4.591   3.212
 8063TIP3   OH224131   3.488   0.116   5.442
 8063TIP3    H124132   3.495   0.184   5.509
 8063TIP3    H224133   3.524   0.156   5.363
 8064TIP3   OH224134   3.477   6.252   3.900
 8064TIP3    H124135   3.455   6.166   3.936
 8064TIP3    H224136   3.408   6.270   3.837
 8065TIP3   OH224137   4.722   4.178   3.766
 8065TIP3    H124138   4.641   4.181   3.715
 8065TIP3    H224139   4.754   4.088   3.755
 8066TIP3   OH224140   3.865   3.717   6.262
 8066TIP3    H124141   3.819   3.774   6.200
 8066TIP3    H224142   3.800   3.654   6.290
 8067TIP3   OH224143   7.509   7.217   5.553
 8067TIP3    H124144   7.454   7.142   5.573
 8067TIP3    H224145   7.558   7.190   5.475
 8068TIP3   OH224146   2.281   6.233   3.980
 8068TIP3    H124147   2.296   6.281   3.898
 8068TIP3    H224148   2.352   6.262   4.038
 8069TIP3   OH224149   5.710   2.021   5.597
 8069TIP3    H124150   5.793   2.037   5.552
 8069TIP3    H224151   5.714   1.929   5.623
 8070TIP3   OH224152   0.312   5.140   2.452
 8070TIP3    H124153   0.373   5.132   2.378
 8070TIP3    H224154   0.275   5.053   2.462
 8071TIP3   OH224155   2.933   6.133  -0.021
 8071TIP3    H124156   2.946   6.048   0.022
 8071TIP3    H224157   2.913   6.193   0.051
 8072TIP3   OH224158   2.925   6.407   0.941
 8072TIP3    H124159   2.884   6.355   0.873
 8072TIP3    H224160   2.853   6.448   0.988
 8073TIP3   OH224161   2.768   5.763   0.785
 8073TIP3    H124162   2.677   5.759   0.756
 8073TIP3    H224163   2.783   5.855   0.808
 8074TIP3   OH224164   5.771   1.309   0.839
 8074TIP3    H124165   5.783   1.275   0.927
 8074TIP3    H224166   5.832   1.259   0.785
 8075TIP3   OH224167   4.964   7.830   3.268
 8075TIP3    H124168   5.035   7.852   3.208
 8075TIP3    H224169   4.885   7.865   3.226
 8076TIP3   OH224170   0.884   6.417   2.420
 8076TIP3    H124171   0.971   6.394   2.386
 8076TIP3    H224172   0.845   6.333   2.444
 8077TIP3   OH224173   4.584   3.734   2.055
 8077TIP3    H124174   4.510   3.736   2.117
 8077TIP3    H224175   4.639   3.808   2.082
 8078TIP3   OH224176   3.032   5.430   1.882
 8078TIP3    H124177   3.063   5.520   1.882
 8078TIP3    H224178   3.097   5.382   1.935
 8079TIP3   OH224179   7.742   1.788   2.931
 8079TIP3    H124180   7.739   1.775   3.025
 8079TIP3    H224181   7.800   1.720   2.898
 8080TIP3   OH224182   3.476   3.993   2.092
 8080TIP3    H124183   3.426   3.969   2.013
 8080TIP3    H224184   3.475   4.088   2.092
 8081TIP3   OH224185   4.447   0.248   0.774
 8081TIP3    H124186   4.451   0.336   0.736
 8081TIP3    H224187   4.375   0.205   0.728
 8082TIP3   OH224188   8.117   3.173   1.740
 8082TIP3    H124189   8.063   3.228   1.685
 8082TIP3    H224190   8.055   3.119   1.789
 8083TIP3   OH224191   3.075   6.508   6.433
 8083TIP3    H124192   3.138   6.540   6.497
 8083TIP3    H224193   2.991   6.506   6.480
 8084TIP3   OH224194   2.150   6.216   5.963
 8084TIP3    H124195   2.088   6.145   5.980
 8084TIP3    H224196   2.128   6.246   5.875
 8085TIP3   OH224197   2.457   0.859   6.000
 8085TIP3    H124198   2.386   0.921   6.016
 8085TIP3    H224199   2.414   0.774   5.993
 8086TIP3   OH224200   7.559   0.123   5.914
 8086TIP3    H124201   7.607   0.041   5.906
 8086TIP3    H224202   7.627   0.189   5.931
 8087TIP3   OH224203   7.565   5.447   3.969
 8087TIP3    H124204   7.647   5.483   3.934
 8087TIP3    H224205   7.592   5.399   4.047
 8088TIP3   OH224206   3.857   2.428   1.087
 8088TIP3    H124207   3.830   2.419   0.996
 8088TIP3    H224208   3.874   2.522   1.098
 8089TIP3   OH224209   7.178   4.962   3.730
 8089TIP3    H124210   7.261   4.916   3.715
 8089TIP3    H224211   7.160   5.005   3.646
 8090TIP3   OH224212   2.224   4.480   2.956
 8090TIP3    H124213   2.295   4.543   2.970
 8090TIP3    H224214   2.190   4.502   2.869
 8091TIP3   OH224215   7.062   4.866   1.556
 8091TIP3    H124216   7.087   4.936   1.616
 8091TIP3    H224217   7.084   4.785   1.603
 8092TIP3   OH224218   0.771   2.122   5.646
 8092TIP3    H124219   0.837   2.059   5.617
 8092TIP3    H224220   0.736   2.085   5.727
 8093TIP3   OH224221   1.354   3.432   6.395
 8093TIP3    H124222   1.352   3.422   6.300
 8093TIP3    H224223   1.295   3.364   6.427
 8094TIP3   OH224224   8.130   7.223   5.994
 8094TIP3    H124225   8.135   7.216   5.899
 8094TIP3    H224226   8.036   7.231   6.013
 8095TIP3   OH224227   5.650   5.567   4.697
 8095TIP3    H124228   5.639   5.560   4.792
 8095TIP3    H224229   5.605   5.490   4.662
 8096TIP3   OH224230   6.962   0.774   3.440
 8096TIP3    H124231   7.011   0.697   3.414
 8096TIP3    H224232   6.938   0.758   3.532
 8097TIP3   OH224233   3.399   7.606   3.026
 8097TIP3    H124234   3.374   7.622   2.935
 8097TIP3    H224235   3.488   7.640   3.033
 8098TIP3   OH224236   3.818   5.240   6.544
 8098TIP3    H124237   3.787   5.259   6.455
 8098TIP3    H224238   3.741   5.252   6.599
 8099TIP3   OH224239   1.032   3.864   1.499
 8099TIP3    H124240   1.057   3.793   1.559
 8099TIP3    H224241   1.094   3.857   1.426
 8100TIP3   OH224242   1.618   2.524   0.793
 8100TIP3    H124243   1.640   2.616   0.783
 8100TIP3    H224244   1.564   2.520   0.873
 8101TIP3   OH224245   1.506   6.951   6.536
 8101TIP3    H124246   1.438   6.962   6.470
 8101TIP3    H224247   1.586   6.981   6.492
 8102TIP3   OH224248   2.452   4.715   5.548
 8102TIP3    H124249   2.441   4.637   5.494
 8102TIP3    H224250   2.516   4.688   5.615
 8103TIP3   OH224251   7.651   4.605   5.934
 8103TIP3    H124252   7.567   4.648   5.947
 8103TIP3    H224253   7.668   4.560   6.017
 8104TIP3   OH224254   7.971   4.078   5.179
 8104TIP3    H124255   8.019   4.136   5.239
 8104TIP3    H224256   7.882   4.075   5.215
 8105TIP3   OH224257   3.292   7.570   3.666
 8105TIP3    H124258   3.259   7.600   3.582
 8105TIP3    H224259   3.330   7.484   3.648
 8106TIP3   OH224260   6.738   4.401   0.408
 8106TIP3    H124261   6.735   4.493   0.384
 8106TIP3    H224262   6.738   4.355   0.324
 8107TIP3   OH224263   0.649   2.473   1.443
 8107TIP3    H124264   0.678   2.416   1.514
 8107TIP3    H224265   0.663   2.421   1.363
 8108TIP3   OH224266   6.184   1.317   4.999
 8108TIP3    H124267   6.128   1.394   5.012
 8108TIP3    H224268   6.232   1.337   4.918
 8109TIP3   OH224269   0.068   0.641   6.717
 8109TIP3    H124270   0.097   0.554   6.746
 8109TIP3    H224271   0.145   0.678   6.673
 8110TIP3   OH224272   2.897   2.003   2.500
 8110TIP3    H124273   2.845   2.003   2.580
 8110TIP3    H224274   2.983   1.972   2.526
 8111TIP3   OH224275   6.136   2.591   0.746
 8111TIP3    H124276   6.180   2.668   0.710
 8111TIP3    H224277   6.131   2.609   0.841
 8112TIP3   OH224278   0.729   3.376   0.932
 8112TIP3    H124279   0.740   3.345   1.022
 8112TIP3    H224280   0.641   3.345   0.908
 8113TIP3   OH224281   4.345   5.675   5.792
 8113TIP3    H124282   4.335   5.580   5.802
 8113TIP3    H224283   4.439   5.690   5.799
 8114TIP3   OH224284   6.042   1.845   2.828
 8114TIP3    H124285   6.111   1.809   2.884
 8114TIP3    H224286   6.064   1.937   2.819
 8115TIP3   OH224287   6.572   5.644   3.256
 8115TIP3    H124288   6.641   5.600   3.305
 8115TIP3    H224289   6.546   5.717   3.312
 8116TIP3   OH224290   7.821   6.897   4.574
 8116TIP3    H124291   7.843   6.897   4.667
 8116TIP3    H224292   7.853   6.813   4.541
 8117TIP3   OH224293   0.940   0.670   0.328
 8117TIP3    H124294   0.999   0.728   0.279
 8117TIP3    H224295   0.911   0.605   0.264
 8118TIP3   OH224296   0.948   1.867   0.984
 8118TIP3    H124297   0.969   1.778   1.010
 8118TIP3    H224298   1.022   1.895   0.930
 8119TIP3   OH224299   0.382   0.403   1.611
 8119TIP3    H124300   0.403   0.322   1.658
 8119TIP3    H224301   0.465   0.450   1.604
 8120TIP3   OH224302   4.737   4.277   0.190
 8120TIP3    H124303   4.745   4.238   0.102
 8120TIP3    H224304   4.681   4.215   0.238
 8121TIP3   OH224305   4.580   4.935   4.491
 8121TIP3    H124306   4.495   4.940   4.447
 8121TIP3    H224307   4.559   4.934   4.584
 8122TIP3   OH224308   2.505   7.567   4.026
 8122TIP3    H124309   2.506   7.640   4.088
 8122TIP3    H224310   2.592   7.528   4.033
 8123TIP3   OH224311   7.572   5.827   1.971
 8123TIP3    H124312   7.643   5.875   1.928
 8123TIP3    H224313   7.492   5.866   1.936
 8124TIP3   OH224314   4.144   7.758   4.501
 8124TIP3    H124315   4.134   7.853   4.489
 8124TIP3    H224316   4.078   7.736   4.567
 8125TIP3   OH224317   4.147   4.999   2.764
 8125TIP3    H124318   4.120   5.073   2.817
 8125TIP3    H224319   4.086   4.929   2.788
 8126TIP3   OH224320   2.278   4.813   5.938
 8126TIP3    H124321   2.366   4.834   5.969
 8126TIP3    H224322   2.229   4.895   5.948
 8127TIP3   OH224323   7.142   3.457   4.988
 8127TIP3    H124324   7.216   3.455   5.049
 8127TIP3    H224325   7.115   3.549   4.986
 8128TIP3   OH224326   7.607   7.202   3.768
 8128TIP3    H124327   7.578   7.137   3.832
 8128TIP3    H224328   7.625   7.280   3.820
 8129TIP3   OH224329   5.517   6.393   3.828
 8129TIP3    H124330   5.427   6.403   3.796
 8129TIP3    H224331   5.572   6.416   3.753
 8130TIP3   OH224332   0.298   5.213   2.836
 8130TIP3    H124333   0.346   5.295   2.847
 8130TIP3    H224334   0.256   5.198   2.920
 8131TIP3   OH224335   3.080   7.333   5.207
 8131TIP3    H124336   3.006   7.296   5.255
 8131TIP3    H224337   3.070   7.299   5.118
 8132TIP3   OH224338   4.279   4.975   1.702
 8132TIP3    H124339   4.190   4.940   1.701
 8132TIP3    H224340   4.323   4.928   1.631
 8133TIP3   OH224341   1.213   5.751   1.181
 8133TIP3    H124342   1.306   5.736   1.196
 8133TIP3    H224343   1.196   5.838   1.216
 8134TIP3   OH224344   0.731   3.082   6.631
 8134TIP3    H124345   0.695   3.169   6.643
 8134TIP3    H224346   0.741   3.048   6.720
 8135TIP3   OH224347   0.617   3.713   2.711
 8135TIP3    H124348   0.641   3.759   2.792
 8135TIP3    H224349   0.605   3.622   2.738
 8136TIP3   OH224350   6.507   1.920   3.047
 8136TIP3    H124351   6.492   2.011   3.074
 8136TIP3    H224352   6.488   1.919   2.954
 8137TIP3   OH224353   8.263   1.825   5.403
 8137TIP3    H124354   8.267   1.917   5.426
 8137TIP3    H224355   8.178   1.814   5.360
 8138TIP3   OH224356   2.210   4.766   0.927
 8138TIP3    H124357   2.257   4.691   0.963
 8138TIP3    H224358   2.125   4.764   0.971
 8139TIP3   OH224359   1.200   5.723   5.157
 8139TIP3    H124360   1.285   5.681   5.171
 8139TIP3    H224361   1.141   5.651   5.134
 8140TIP3   OH224362   7.696   7.405   0.605
 8140TIP3    H124363   7.712   7.420   0.512
 8140TIP3    H224364   7.714   7.489   0.647
 8141TIP3   OH224365   0.893   5.365   5.930
 8141TIP3    H124366   0.833   5.299   5.896
 8141TIP3    H224367   0.836   5.430   5.972
 8142TIP3   OH224368   0.966   5.591   4.301
 8142TIP3    H124369   1.002   5.585   4.212
 8142TIP3    H224370   0.957   5.685   4.318
 8143TIP3   OH224371   6.443   2.450   0.597
 8143TIP3    H124372   6.445   2.386   0.669
 8143TIP3    H224373   6.477   2.402   0.521
 8144TIP3   OH224374   0.122   0.605   0.883
 8144TIP3    H124375   0.030   0.601   0.858
 8144TIP3    H224376   0.131   0.692   0.923
 8145TIP3   OH224377   7.992   6.425   0.952
 8145TIP3    H124378   7.910   6.457   0.914
 8145TIP3    H224379   7.987   6.450   1.044
 8146TIP3   OH224380   4.561   5.087   6.184
 8146TIP3    H124381   4.628   5.065   6.119
 8146TIP3    H224382   4.608   5.138   6.251
 8147TIP3   OH224383   6.535   7.504   1.109
 8147TIP3    H124384   6.471   7.435   1.130
 8147TIP3    H224385   6.523   7.569   1.179
 8148TIP3   OH224386   2.868   2.774   2.329
 8148TIP3    H124387   2.843   2.823   2.407
 8148TIP3    H224388   2.853   2.682   2.353
 8149TIP3   OH224389   7.198   3.931   0.587
 8149TIP3    H124390   7.231   4.021   0.586
 8149TIP3    H224391   7.148   3.923   0.506
 8150TIP3   OH224392   2.215   3.500   1.445
 8150TIP3    H124393   2.262   3.516   1.363
 8150TIP3    H224394   2.221   3.406   1.459
 8151TIP3   OH224395   3.957   7.371   3.549
 8151TIP3    H124396   3.961   7.346   3.641
 8151TIP3    H224397   4.032   7.326   3.509
 8152TIP3   OH224398   0.166   5.791   2.971
 8152TIP3    H124399   0.100   5.851   3.007
 8152TIP3    H224400   0.125   5.705   2.978
 8153TIP3   OH224401   2.796   3.210   4.407
 8153TIP3    H124402   2.767   3.287   4.456
 8153TIP3    H224403   2.890   3.204   4.425
 8154TIP3   OH224404   1.997   6.425   3.442
 8154TIP3    H124405   2.068   6.374   3.480
 8154TIP3    H224406   2.005   6.512   3.482
 8155TIP3   OH224407   5.254   4.466   2.268
 8155TIP3    H124408   5.327   4.461   2.330
 8155TIP3    H224409   5.175   4.469   2.324
 8156TIP3   OH224410   4.551   0.994   0.763
 8156TIP3    H124411   4.595   1.020   0.682
 8156TIP3    H224412   4.458   0.993   0.741
 8157TIP3   OH224413   0.862   5.892   4.475
 8157TIP3    H124414   0.795   5.874   4.541
 8157TIP3    H224415   0.944   5.868   4.518
 8158TIP3   OH224416   7.328   6.616   0.243
 8158TIP3    H124417   7.423   6.616   0.258
 8158TIP3    H224418   7.294   6.550   0.304
 8159TIP3   OH224419   0.071   3.542   6.707
 8159TIP3    H124420   0.055   3.635   6.696
 8159TIP3    H224421   0.052   3.526   6.800
 8160TIP3   OH224422   4.878   2.001   6.740
 8160TIP3    H124423   4.917   2.003   6.652
 8160TIP3    H224424   4.863   2.093   6.762
 8161TIP3   OH224425   0.966   1.035   5.916
 8161TIP3    H124426   0.921   0.974   5.974
 8161TIP3    H224427   0.897   1.095   5.886
 8162TIP3   OH224428   1.568   5.723   4.036
 8162TIP3    H124429   1.658   5.690   4.032
 8162TIP3    H224430   1.572   5.806   3.987
 8163TIP3   OH224431   4.313   4.827   1.253
 8163TIP3    H124432   4.235   4.772   1.246
 8163TIP3    H224433   4.286   4.911   1.216
 8164TIP3   OH224434   2.051   7.163   5.596
 8164TIP3    H124435   2.093   7.247   5.613
 8164TIP3    H224436   2.071   7.110   5.672
 8165TIP3   OH224437   7.041   7.832   3.352
 8165TIP3    H124438   7.005   7.791   3.431
 8165TIP3    H224439   6.966   7.875   3.312
 8166TIP3   OH224440   7.425   2.100   4.604
 8166TIP3    H124441   7.479   2.146   4.541
 8166TIP3    H224442   7.344   2.080   4.557
 8167TIP3   OH224443   1.692   1.988   5.426
 8167TIP3    H124444   1.707   2.015   5.335
 8167TIP3    H224445   1.637   2.057   5.463
 8168TIP3   OH224446   4.094   5.291   0.743
 8168TIP3    H124447   4.045   5.258   0.819
 8168TIP3    H224448   4.065   5.236   0.670
 8169TIP3   OH224449   6.746   1.631   4.897
 8169TIP3    H124450   6.725   1.627   4.804
 8169TIP3    H224451   6.730   1.542   4.929
 8170TIP3   OH224452   4.216   5.106   1.985
 8170TIP3    H124453   4.293   5.082   1.934
 8170TIP3    H224454   4.243   5.095   2.076
 8171TIP3   OH224455   5.561   7.645   2.031
 8171TIP3    H124456   5.557   7.728   1.984
 8171TIP3    H224457   5.614   7.664   2.109
 8172TIP3   OH224458   7.657   4.270   0.503
 8172TIP3    H124459   7.604   4.208   0.552
 8172TIP3    H224460   7.645   4.353   0.548
 8173TIP3   OH224461   0.746   6.292   6.631
 8173TIP3    H124462   0.823   6.237   6.641
 8173TIP3    H224463   0.731   6.329   6.718
 8174TIP3   OH224464   5.907   1.924   4.339
 8174TIP3    H124465   5.962   1.872   4.281
 8174TIP3    H224466   5.915   2.013   4.305
 8175TIP3   OH224467   6.041   6.845   3.926
 8175TIP3    H124468   5.947   6.849   3.911
 8175TIP3    H224469   6.077   6.807   3.846
 8176TIP3   OH224470   7.155   7.099   2.164
 8176TIP3    H124471   7.137   7.005   2.161
 8176TIP3    H224472   7.202   7.112   2.247
 8177TIP3   OH224473   5.896   3.372   6.126
 8177TIP3    H124474   5.860   3.293   6.166
 8177TIP3    H224475   5.991   3.359   6.129
 8178TIP3   OH224476   0.428   0.678   6.063
 8178TIP3    H124477   0.373   0.720   5.997
 8178TIP3    H224478   0.468   0.604   6.017
 8179TIP3   OH224479   5.482   5.318   2.005
 8179TIP3    H124480   5.516   5.253   2.067
 8179TIP3    H224481   5.412   5.271   1.959
 8180TIP3   OH224482   4.007   1.179   1.136
 8180TIP3    H124483   3.912   1.189   1.134
 8180TIP3    H224484   4.041   1.267   1.117
 8181TIP3   OH224485   3.078   5.266   2.273
 8181TIP3    H124486   2.993   5.246   2.235
 8181TIP3    H224487   3.128   5.184   2.266
 8182TIP3   OH224488   3.766   1.728   0.355
 8182TIP3    H124489   3.860   1.713   0.341
 8182TIP3    H224490   3.732   1.642   0.379
 8183TIP3   OH224491   3.183   7.128   2.386
 8183TIP3    H124492   3.101   7.155   2.428
 8183TIP3    H224493   3.157   7.102   2.297
 8184TIP3   OH224494   2.251   1.791   5.469
 8184TIP3    H124495   2.212   1.847   5.403
 8184TIP3    H224496   2.181   1.732   5.496
 8185TIP3   OH224497   0.300   0.511   1.078
 8185TIP3    H124498   0.223   0.502   1.133
 8185TIP3    H224499   0.266   0.534   0.992
 8186TIP3   OH224500   7.191   3.435   1.753
 8186TIP3    H124501   7.239   3.510   1.787
 8186TIP3    H224502   7.223   3.424   1.663
 8187TIP3   OH224503   1.364   0.178   0.326
 8187TIP3    H124504   1.375   0.272   0.339
 8187TIP3    H224505   1.302   0.171   0.254
 8188TIP3   OH224506   2.655   7.349   5.268
 8188TIP3    H124507   2.647   7.345   5.173
 8188TIP3    H224508   2.647   7.442   5.289
 8189TIP3   OH224509   4.947   4.053   3.524
 8189TIP3    H124510   5.025   4.006   3.494
 8189TIP3    H224511   4.914   4.000   3.597
 8190TIP3   OH224512   3.480   6.169   6.032
 8190TIP3    H124513   3.448   6.090   5.989
 8190TIP3    H224514   3.425   6.239   5.995
 8191TIP3   OH224515   7.846   5.267   3.513
 8191TIP3    H124516   7.831   5.293   3.604
 8191TIP3    H224517   7.939   5.285   3.498
 8192TIP3   OH224518   4.586   3.745   6.351
 8192TIP3    H124519   4.614   3.660   6.318
 8192TIP3    H224520   4.496   3.731   6.381
 8193TIP3   OH224521   6.730   6.343   0.540
 8193TIP3    H124522   6.634   6.341   0.549
 8193TIP3    H224523   6.753   6.434   0.563
 8194TIP3   OH224524   0.119   4.084   4.350
 8194TIP3    H124525   0.191   4.041   4.397
 8194TIP3    H224526   0.161   4.125   4.274
 8195TIP3   OH224527   5.629   2.547   3.449
 8195TIP3    H124528   5.610   2.458   3.421
 8195TIP3    H224529   5.603   2.550   3.541
 8196TIP3   OH224530   0.953   1.927   0.449
 8196TIP3    H124531   0.884   1.987   0.476
 8196TIP3    H224532   0.907   1.852   0.412
 8197TIP3   OH224533   3.019   0.726   2.878
 8197TIP3    H124534   3.108   0.738   2.912
 8197TIP3    H224535   3.029   0.726   2.783
 8198TIP3   OH224536   2.057   4.536   3.819
 8198TIP3    H124537   2.028   4.466   3.761
 8198TIP3    H224538   2.016   4.615   3.784
 8199TIP3   OH224539   4.522   0.081   4.439
 8199TIP3    H124540   4.609   0.098   4.404
 8199TIP3    H224541   4.472   0.050   4.363
 8200TIP3   OH224542   6.316   6.717   6.465
 8200TIP3    H124543   6.236   6.665   6.476
 8200TIP3    H224544   6.323   6.766   6.547
 8201TIP3   OH224545   0.812   7.081   0.797
 8201TIP3    H124546   0.806   6.990   0.767
 8201TIP3    H224547   0.801   7.075   0.892
 8202TIP3   OH224548   5.915   2.199   4.565
 8202TIP3    H124549   5.836   2.217   4.514
 8202TIP3    H224550   5.985   2.191   4.500
 8203TIP3   OH224551   5.538   1.275   1.860
 8203TIP3    H124552   5.589   1.349   1.828
 8203TIP3    H224553   5.527   1.291   1.953
 8204TIP3   OH224554   4.106   3.135   2.676
 8204TIP3    H124555   4.122   3.168   2.588
 8204TIP3    H224556   4.023   3.088   2.670
 8205TIP3   OH224557   0.109   4.217   1.682
 8205TIP3    H124558   0.182   4.160   1.706
 8205TIP3    H224559   0.137   4.260   1.601
 8206TIP3   OH224560   3.496   3.087   6.746
 8206TIP3    H124561   3.512   3.173   6.784
 8206TIP3    H224562   3.404   3.090   6.719
 8207TIP3   OH224563   5.945   4.815   3.023
 8207TIP3    H124564   5.972   4.820   2.931
 8207TIP3    H224565   5.877   4.748   3.024
 8208TIP3   OH224566   5.293   3.992   4.273
 8208TIP3    H124567   5.208   3.978   4.232
 8208TIP3    H224568   5.275   3.994   4.367
 8209TIP3   OH224569   6.362   6.863   5.284
 8209TIP3    H124570   6.428   6.828   5.344
 8209TIP3    H224571   6.347   6.952   5.313
 8210TIP3   OH224572   3.449   1.041   2.971
 8210TIP3    H124573   3.533   1.038   2.926
 8210TIP3    H224574   3.403   1.114   2.932
 8211TIP3   OH224575   1.005   7.730   3.182
 8211TIP3    H124576   1.050   7.653   3.145
 8211TIP3    H224577   1.036   7.803   3.128
 8212TIP3   OH224578   1.588   7.812   6.170
 8212TIP3    H124579   1.501   7.814   6.131
 8212TIP3    H224580   1.586   7.737   6.230
 8213TIP3   OH224581   6.077   0.626   0.640
 8213TIP3    H124582   5.997   0.617   0.588
 8213TIP3    H224583   6.142   0.572   0.595
 8214TIP3   OH224584   3.977   2.431   3.727
 8214TIP3    H124585   3.976   2.471   3.640
 8214TIP3    H224586   3.885   2.420   3.749
 8215TIP3   OH224587   6.772   0.110   2.468
 8215TIP3    H124588   6.780   0.176   2.537
 8215TIP3    H224589   6.710   0.149   2.405
 8216TIP3   OH224590   0.947   3.169   3.934
 8216TIP3    H124591   0.997   3.108   3.881
 8216TIP3    H224592   0.963   3.142   4.024
 8217TIP3   OH224593   2.275   3.118   6.124
 8217TIP3    H124594   2.270   3.203   6.081
 8217TIP3    H224595   2.185   3.099   6.151
 8218TIP3   OH224596   2.006   2.129   1.361
 8218TIP3    H124597   2.020   2.224   1.360
 8218TIP3    H224598   2.033   2.100   1.274
 8219TIP3   OH224599   6.848   3.306   0.966
 8219TIP3    H124600   6.803   3.291   1.049
 8219TIP3    H224601   6.782   3.347   0.909
 8220TIP3   OH224602   4.003   7.513   6.322
 8220TIP3    H124603   4.015   7.429   6.366
 8220TIP3    H224604   3.928   7.553   6.367
 8221TIP3   OH224605   7.021   4.678   6.445
 8221TIP3    H124606   7.056   4.731   6.374
 8221TIP3    H224607   6.946   4.632   6.407
 8222TIP3   OH224608   1.589   1.845   4.984
 8222TIP3    H124609   1.527   1.772   4.975
 8222TIP3    H224610   1.533   1.922   4.991
 8223TIP3   OH224611   5.512   3.520   5.852
 8223TIP3    H124612   5.459   3.597   5.832
 8223TIP3    H224613   5.499   3.461   5.778
 8224TIP3   OH224614   7.108   3.271   6.658
 8224TIP3    H124615   7.173   3.202   6.646
 8224TIP3    H224616   7.123   3.332   6.586
 8225TIP3   OH224617   5.853   3.121   1.555
 8225TIP3    H124618   5.903   3.201   1.572
 8225TIP3    H224619   5.893   3.084   1.476
 8226TIP3   OH224620   2.904   2.973   1.640
 8226TIP3    H124621   2.963   2.902   1.665
 8226TIP3    H224622   2.823   2.929   1.615
 8227TIP3   OH224623   1.352   5.928   4.607
 8227TIP3    H124624   1.311   5.971   4.682
 8227TIP3    H224625   1.281   5.885   4.561
 8228TIP3   OH224626   5.295   0.818   2.351
 8228TIP3    H124627   5.234   0.750   2.380
 8228TIP3    H224628   5.274   0.830   2.258
 8229TIP3   OH224629   6.598   3.417   4.114
 8229TIP3    H124630   6.623   3.458   4.031
 8229TIP3    H224631   6.561   3.333   4.089
 8230TIP3   OH224632   1.885   3.779   2.566
 8230TIP3    H124633   1.798   3.812   2.542
 8230TIP3    H224634   1.917   3.842   2.631
 8231TIP3   OH224635   4.931   3.448   0.352
 8231TIP3    H124636   4.971   3.449   0.439
 8231TIP3    H224637   4.839   3.468   0.369
 8232TIP3   OH224638   3.132   7.763   3.021
 8232TIP3    H124639   3.168   7.675   3.007
 8232TIP3    H224640   3.039   7.754   2.998
 8233TIP3   OH224641   3.721   7.147   4.966
 8233TIP3    H124642   3.653   7.089   4.932
 8233TIP3    H224643   3.770   7.094   5.029
 8234TIP3   OH224644   3.874   2.716   3.916
 8234TIP3    H124645   3.822   2.683   3.843
 8234TIP3    H224646   3.857   2.810   3.918
 8235TIP3   OH224647   7.127   7.397   5.776
 8235TIP3    H124648   7.177   7.361   5.703
 8235TIP3    H224649   7.054   7.336   5.788
 8236TIP3   OH224650   3.203   3.958   4.304
 8236TIP3    H124651   3.298   3.959   4.318
 8236TIP3    H224652   3.188   4.024   4.236
 8237TIP3   OH224653   5.647   3.875   5.620
 8237TIP3    H124654   5.735   3.838   5.629
 8237TIP3    H224655   5.596   3.806   5.577
 8238TIP3   OH224656   6.491   0.477   4.976
 8238TIP3    H124657   6.449   0.544   5.029
 8238TIP3    H224658   6.420   0.419   4.948
 8239TIP3   OH224659   2.877   6.027   4.675
 8239TIP3    H124660   2.823   5.955   4.707
 8239TIP3    H224661   2.829   6.060   4.599
 8240TIP3   OH224662   3.809   6.176   1.345
 8240TIP3    H124663   3.879   6.239   1.360
 8240TIP3    H224664   3.728   6.228   1.347
 8241TIP3   OH224665   3.982   6.000   6.036
 8241TIP3    H124666   4.013   5.910   6.027
 8241TIP3    H224667   4.055   6.054   6.008
 8242TIP3   OH224668   8.202   6.150   5.125
 8242TIP3    H124669   8.250   6.119   5.049
 8242TIP3    H224670   8.221   6.244   5.129
 8243TIP3   OH224671   5.148   6.489   5.220
 8243TIP3    H124672   5.108   6.409   5.255
 8243TIP3    H224673   5.224   6.504   5.276
 8244TIP3   OH224674   2.041   2.949   6.218
 8244TIP3    H124675   2.033   2.886   6.147
 8244TIP3    H224676   2.054   2.896   6.297
 8245TIP3   OH224677   3.844   3.017   5.661
 8245TIP3    H124678   3.834   2.968   5.579
 8245TIP3    H224679   3.774   2.984   5.717
 8246TIP3   OH224680   4.781   3.889   1.435
 8246TIP3    H124681   4.743   3.937   1.362
 8246TIP3    H224682   4.712   3.830   1.464
 8247TIP3   OH224683   1.883   7.537   1.354
 8247TIP3    H124684   1.907   7.471   1.288
 8247TIP3    H224685   1.788   7.528   1.363
 8248TIP3   OH224686   3.931   5.428   6.066
 8248TIP3    H124687   4.000   5.381   6.020
 8248TIP3    H224688   3.972   5.461   6.146
 8249TIP3   OH224689   4.385   0.218   6.343
 8249TIP3    H124690   4.479   0.234   6.348
 8249TIP3    H224691   4.376   0.148   6.278
 8250TIP3   OH224692   8.080   7.534   2.733
 8250TIP3    H124693   8.072   7.447   2.693
 8250TIP3    H224694   7.991   7.569   2.731
 8251TIP3   OH224695   3.481   1.825   2.424
 8251TIP3    H124696   3.485   1.847   2.331
 8251TIP3    H224697   3.571   1.804   2.448
 8252TIP3   OH224698   6.088   0.861   2.867
 8252TIP3    H124699   6.097   0.941   2.917
 8252TIP3    H224700   6.001   0.827   2.889
 8253TIP3   OH224701   7.904   2.316   1.647
 8253TIP3    H124702   7.898   2.236   1.596
 8253TIP3    H224703   7.818   2.357   1.638
 8254TIP3   OH224704   7.468   5.590   6.561
 8254TIP3    H124705   7.488   5.505   6.522
 8254TIP3    H224706   7.525   5.652   6.514
 8255TIP3   OH224707   6.364   2.932   3.680
 8255TIP3    H124708   6.302   2.995   3.718
 8255TIP3    H224709   6.448   2.954   3.719
 8256TIP3   OH224710   5.999   3.371   1.617
 8256TIP3    H124711   6.075   3.321   1.588
 8256TIP3    H224712   6.030   3.420   1.693
 8257TIP3   OH224713   7.931   0.450   3.212
 8257TIP3    H124714   7.917   0.466   3.306
 8257TIP3    H224715   7.980   0.526   3.182
 8258TIP3   OH224716   1.143   7.558   4.203
 8258TIP3    H124717   1.207   7.624   4.174
 8258TIP3    H224718   1.097   7.600   4.276
 8259TIP3   OH224719   4.168   1.312   6.722
 8259TIP3    H124720   4.204   1.394   6.756
 8259TIP3    H224721   4.142   1.333   6.632
 8260TIP3   OH224722   7.216   2.028   6.214
 8260TIP3    H124723   7.154   1.964   6.178
 8260TIP3    H224724   7.167   2.110   6.217
 8261TIP3   OH224725   5.584   5.582   5.220
 8261TIP3    H124726   5.535   5.663   5.205
 8261TIP3    H224727   5.658   5.610   5.275
 8262TIP3   OH224728   6.798   1.802   3.071
 8262TIP3    H124729   6.719   1.810   3.124
 8262TIP3    H224730   6.781   1.857   2.994
 8263TIP3   OH224731   3.532   5.612   2.224
 8263TIP3    H124732   3.574   5.588   2.307
 8263TIP3    H224733   3.504   5.703   2.237
 8264TIP3   OH224734   4.742   5.277   6.289
 8264TIP3    H124735   4.771   5.340   6.223
 8264TIP3    H224736   4.823   5.248   6.331
 8265TIP3   OH224737   7.692   1.705   6.262
 8265TIP3    H124738   7.688   1.619   6.220
 8265TIP3    H224739   7.604   1.740   6.254
 8266TIP3   OH224740   8.089   7.163   4.173
 8266TIP3    H124741   8.057   7.190   4.087
 8266TIP3    H224742   8.055   7.229   4.234
 8267TIP3   OH224743   0.495   2.027   4.788
 8267TIP3    H124744   0.482   1.934   4.806
 8267TIP3    H224745   0.425   2.071   4.836
 8268TIP3   OH224746   4.570   3.391   1.149
 8268TIP3    H124747   4.659   3.366   1.177
 8268TIP3    H224748   4.582   3.476   1.106
 8269TIP3   OH224749   4.939   6.420   6.002
 8269TIP3    H124750   4.980   6.355   6.060
 8269TIP3    H224751   4.846   6.418   6.025
 8270TIP3   OH224752   1.233   6.069   6.357
 8270TIP3    H124753   1.178   5.994   6.335
 8270TIP3    H224754   1.311   6.058   6.303
 8271TIP3   OH224755   7.415   0.023   2.201
 8271TIP3    H124756   7.505   0.051   2.221
 8271TIP3    H224757   7.420  -0.072   2.193
 8272TIP3   OH224758   0.773   3.821   1.767
 8272TIP3    H124759   0.824   3.772   1.703
 8272TIP3    H224760   0.753   3.904   1.724
 8273TIP3   OH224761   7.025   6.129   0.331
 8273TIP3    H124762   7.075   6.137   0.412
 8273TIP3    H224763   7.090   6.105   0.265
 8274TIP3   OH224764   5.036   6.960   4.298
 8274TIP3    H124765   5.052   6.898   4.227
 8274TIP3    H224766   4.942   6.952   4.317
 8275TIP3   OH224767   1.705   6.976   1.706
 8275TIP3    H124768   1.799   6.982   1.690
 8275TIP3    H224769   1.667   7.052   1.661
 8276TIP3   OH224770   4.134   6.699   6.006
 8276TIP3    H124771   4.169   6.734   6.088
 8276TIP3    H224772   4.040   6.717   6.010
 8277TIP3   OH224773   5.075   0.728   0.165
 8277TIP3    H124774   5.005   0.788   0.191
 8277TIP3    H224775   5.124   0.775   0.098
 8278TIP3   OH224776   2.106   7.050   5.841
 8278TIP3    H124777   2.178   7.110   5.822
 8278TIP3    H224778   2.137   6.965   5.810
 8279TIP3   OH224779   4.350   4.949   3.688
 8279TIP3    H124780   4.345   4.858   3.659
 8279TIP3    H224781   4.313   5.000   3.615
 8280TIP3   OH224782   7.438   3.346   3.399
 8280TIP3    H124783   7.481   3.431   3.390
 8280TIP3    H224784   7.486   3.288   3.340
 8281TIP3   OH224785   3.067   3.393   1.997
 8281TIP3    H124786   2.997   3.444   2.040
 8281TIP3    H224787   3.064   3.308   2.041
 8282TIP3   OH224788   3.344   0.864   5.397
 8282TIP3    H124789   3.402   0.910   5.458
 8282TIP3    H224790   3.289   0.933   5.360
 8283TIP3   OH224791   0.562   3.718   6.750
 8283TIP3    H124792   0.581   3.781   6.680
 8283TIP3    H224793   0.602   3.757   6.828
 8284TIP3   OH224794   7.589   4.509   0.625
 8284TIP3    H124795   7.640   4.546   0.697
 8284TIP3    H224796   7.557   4.586   0.577
 8285TIP3   OH224797   5.221   2.358   5.867
 8285TIP3    H124798   5.310   2.329   5.890
 8285TIP3    H224799   5.198   2.419   5.937
 8286TIP3   OH224800   4.304   2.352   0.140
 8286TIP3    H124801   4.243   2.385   0.074
 8286TIP3    H224802   4.261   2.275   0.178
 8287TIP3   OH224803   3.671   0.731   3.423
 8287TIP3    H124804   3.631   0.705   3.506
 8287TIP3    H224805   3.755   0.769   3.449
 8288TIP3   OH224806   6.176   0.815   6.685
 8288TIP3    H124807   6.191   0.870   6.608
 8288TIP3    H224808   6.175   0.877   6.758
 8289TIP3   OH224809   1.529   2.009   5.895
 8289TIP3    H124810   1.556   1.968   5.977
 8289TIP3    H224811   1.507   1.935   5.838
 8290TIP3   OH224812   1.955   1.582   4.265
 8290TIP3    H124813   1.987   1.646   4.328
 8290TIP3    H224814   1.877   1.545   4.305
 8291TIP3   OH224815   4.487   4.507   2.374
 8291TIP3    H124816   4.560   4.566   2.353
 8291TIP3    H224817   4.521   4.452   2.445
 8292TIP3   OH224818   6.199   7.194   2.968
 8292TIP3    H124819   6.202   7.270   3.026
 8292TIP3    H224820   6.254   7.219   2.893
 8293TIP3   OH224821   7.368   6.972   2.737
 8293TIP3    H124822   7.278   6.967   2.770
 8293TIP3    H224823   7.362   6.940   2.646
 8294TIP3   OH224824   2.947   5.180   2.948
 8294TIP3    H124825   2.936   5.101   3.001
 8294TIP3    H224826   3.041   5.183   2.928
 8295TIP3   OH224827   5.037   2.082   5.827
 8295TIP3    H124828   4.965   2.143   5.839
 8295TIP3    H224829   5.099   2.105   5.896
 8296TIP3   OH224830   7.726   1.465   2.203
 8296TIP3    H124831   7.662   1.531   2.179
 8296TIP3    H224832   7.683   1.381   2.183
 8297TIP3   OH224833   6.657   4.112   4.560
 8297TIP3    H124834   6.695   4.200   4.565
 8297TIP3    H224835   6.611   4.101   4.642
 8298TIP3   OH224836   5.401   7.523   5.086
 8298TIP3    H124837   5.373   7.498   4.998
 8298TIP3    H224838   5.438   7.443   5.124
 8299TIP3   OH224839   1.790   1.168   0.346
 8299TIP3    H124840   1.714   1.170   0.404
 8299TIP3    H224841   1.858   1.215   0.395
 8300TIP3   OH224842   4.639   2.585   2.938
 8300TIP3    H124843   4.700   2.514   2.961
 8300TIP3    H224844   4.552   2.547   2.950
 8301TIP3   OH224845   2.365   7.713   4.932
 8301TIP3    H124846   2.370   7.693   4.839
 8301TIP3    H224847   2.430   7.783   4.945
 8302TIP3   OH224848   4.470   6.211   4.498
 8302TIP3    H124849   4.530   6.274   4.459
 8302TIP3    H224850   4.397   6.264   4.531
 8303TIP3   OH224851   2.284   6.876   0.222
 8303TIP3    H124852   2.303   6.952   0.276
 8303TIP3    H224853   2.189   6.876   0.211
 8304TIP3   OH224854   8.208   7.179   0.294
 8304TIP3    H124855   8.121   7.188   0.332
 8304TIP3    H224856   8.267   7.216   0.361
 8305TIP3   OH224857   3.467   7.349   3.978
 8305TIP3    H124858   3.463   7.265   3.932
 8305TIP3    H224859   3.533   7.400   3.932
 8306TIP3   OH224860   1.205   7.416   2.126
 8306TIP3    H124861   1.206   7.327   2.091
 8306TIP3    H224862   1.137   7.461   2.075
 8307TIP3   OH224863   4.908   1.526   2.439
 8307TIP3    H124864   4.972   1.597   2.435
 8307TIP3    H224865   4.825   1.569   2.456
 8308TIP3   OH224866   5.568   3.927   3.027
 8308TIP3    H124867   5.594   3.882   3.108
 8308TIP3    H224868   5.650   3.945   2.982
 8309TIP3   OH224869   6.724   3.373   1.228
 8309TIP3    H124870   6.727   3.466   1.205
 8309TIP3    H224871   6.754   3.371   1.319
 8310TIP3   OH224872   4.029   4.205   0.636
 8310TIP3    H124873   4.015   4.196   0.731
 8310TIP3    H224874   3.955   4.258   0.606
 8311TIP3   OH224875   3.036   1.081   2.256
 8311TIP3    H124876   2.960   1.047   2.303
 8311TIP3    H224877   3.088   1.004   2.233
 8312TIP3   OH224878   1.291   6.854   2.092
 8312TIP3    H124879   1.367   6.801   2.114
 8312TIP3    H224880   1.300   6.872   1.998
 8313TIP3   OH224881   5.990   7.389   1.773
 8313TIP3    H124882   5.980   7.476   1.812
 8313TIP3    H224883   6.070   7.355   1.812
 8314TIP3   OH224884   1.032   5.078   2.466
 8314TIP3    H124885   0.951   5.119   2.495
 8314TIP3    H224886   1.011   5.042   2.379
 8315TIP3   OH224887   4.272   3.060   2.971
 8315TIP3    H124888   4.258   2.967   2.985
 8315TIP3    H224889   4.184   3.097   2.964
 8316TIP3   OH224890   1.323   5.725   6.057
 8316TIP3    H124891   1.394   5.759   6.112
 8316TIP3    H224892   1.247   5.778   6.080
 8317TIP3   OH224893   4.088   6.479   6.276
 8317TIP3    H124894   4.048   6.425   6.344
 8317TIP3    H224895   4.042   6.562   6.282
 8318TIP3   OH224896   5.849   2.657   0.893
 8318TIP3    H124897   5.894   2.671   0.810
 8318TIP3    H224898   5.818   2.743   0.920
 8319TIP3   OH224899   7.841   5.014   1.406
 8319TIP3    H124900   7.907   5.079   1.383
 8319TIP3    H224901   7.870   4.981   1.491
 8320TIP3   OH224902  -0.013   0.034   0.195
 8320TIP3    H124903   0.010   0.082   0.274
 8320TIP3    H224904   0.056   0.056   0.132
 8321TIP3   OH224905   4.815   4.314   1.269
 8321TIP3    H124906   4.822   4.219   1.263
 8321TIP3    H224907   4.896   4.347   1.231
 8322TIP3   OH224908   7.246   3.887   3.198
 8322TIP3    H124909   7.305   3.947   3.243
 8322TIP3    H224910   7.250   3.806   3.249
 8323TIP3   OH224911   2.802   4.511   1.077
 8323TIP3    H124912   2.804   4.424   1.037
 8323TIP3    H224913   2.894   4.538   1.083
 8324TIP3   OH224914   3.793   3.528   4.188
 8324TIP3    H124915   3.753   3.476   4.119
 8324TIP3    H224916   3.877   3.485   4.206
 8325TIP3   OH224917   1.679   4.648   4.318
 8325TIP3    H124918   1.611   4.715   4.313
 8325TIP3    H224919   1.640   4.578   4.370
 8326TIP3   OH224920   2.195   2.374   3.461
 8326TIP3    H124921   2.260   2.444   3.460
 8326TIP3    H224922   2.235   2.304   3.513
 8327TIP3   OH224923   7.727   4.815   3.854
 8327TIP3    H124924   7.810   4.810   3.806
 8327TIP3    H224925   7.743   4.765   3.935
 8328TIP3   OH224926   0.957   6.545   5.468
 8328TIP3    H124927   0.895   6.492   5.418
 8328TIP3    H224928   1.024   6.569   5.404
 8329TIP3   OH224929   3.632   4.821   3.482
 8329TIP3    H124930   3.634   4.770   3.400
 8329TIP3    H224931   3.712   4.873   3.479
 8330TIP3   OH224932   6.887   6.369   6.732
 8330TIP3    H124933   6.929   6.427   6.668
 8330TIP3    H224934   6.834   6.310   6.678
 8331TIP3   OH224935   5.251   6.995   4.499
 8331TIP3    H124936   5.178   6.983   4.437
 8331TIP3    H224937   5.214   6.970   4.584
 8332TIP3   OH224938   0.782   6.444   0.803
 8332TIP3    H124939   0.715   6.492   0.755
 8332TIP3    H224940   0.736   6.407   0.879
 8333TIP3   OH224941   0.421   7.381   0.554
 8333TIP3    H124942   0.355   7.424   0.607
 8333TIP3    H224943   0.504   7.419   0.582
 8334TIP3   OH224944   3.006   3.537   3.734
 8334TIP3    H124945   3.070   3.539   3.663
 8334TIP3    H224946   2.925   3.509   3.692
 8335TIP3   OH224947   7.048   4.596   4.165
 8335TIP3    H124948   7.096   4.668   4.207
 8335TIP3    H224949   7.116   4.531   4.146
 8336TIP3   OH224950   5.842   4.095   4.905
 8336TIP3    H124951   5.844   4.048   4.988
 8336TIP3    H224952   5.927   4.139   4.900
 8337TIP3   OH224953   6.438   1.673   5.756
 8337TIP3    H124954   6.366   1.687   5.695
 8337TIP3    H224955   6.512   1.719   5.716
 8338TIP3   OH224956   3.050   0.417   4.236
 8338TIP3    H124957   3.025   0.396   4.146
 8338TIP3    H224958   3.076   0.509   4.232
 8339TIP3   OH224959   6.734   2.134   2.266
 8339TIP3    H124960   6.789   2.200   2.223
 8339TIP3    H224961   6.676   2.185   2.323
 8340TIP3   OH224962   5.899   2.626   2.940
 8340TIP3    H124963   5.982   2.646   2.895
 8340TIP3    H224964   5.869   2.544   2.900
 8341TIP3   OH224965   4.724   7.626   3.221
 8341TIP3    H124966   4.776   7.553   3.187
 8341TIP3    H224967   4.707   7.680   3.144
 8342TIP3   OH224968   6.875   7.859   1.908
 8342TIP3    H124969   6.848   7.773   1.940
 8342TIP3    H224970   6.969   7.852   1.894
 8343TIP3   OH224971   3.391   3.575   2.988
 8343TIP3    H124972   3.366   3.614   3.072
 8343TIP3    H224973   3.434   3.493   3.013
 8344TIP3   OH224974   5.165   1.287   3.044
 8344TIP3    H124975   5.185   1.252   3.131
 8344TIP3    H224976   5.227   1.359   3.033
 8345TIP3   OH224977   2.045   1.198   2.604
 8345TIP3    H124978   2.133   1.171   2.578
 8345TIP3    H224979   2.049   1.293   2.605
 8346TIP3   OH224980   7.533   3.617   3.435
 8346TIP3    H124981   7.572   3.702   3.414
 8346TIP3    H224982   7.571   3.594   3.521
 8347TIP3   OH224983   5.016   4.796   4.455
 8347TIP3    H124984   4.969   4.832   4.530
 8347TIP3    H224985   5.005   4.701   4.464
 8348TIP3   OH224986   5.791   0.961   2.799
 8348TIP3    H124987   5.788   1.012   2.718
 8348TIP3    H224988   5.780   0.871   2.772
 8349TIP3   OH224989   4.917   5.549   5.013
 8349TIP3    H124990   4.822   5.538   5.008
 8349TIP3    H224991   4.953   5.467   4.980
 8350TIP3   OH224992   3.094   1.779   4.793
 8350TIP3    H124993   3.012   1.822   4.817
 8350TIP3    H224994   3.156   1.850   4.776
 8351TIP3   OH224995   3.139   2.560   1.748
 8351TIP3    H124996   3.139   2.648   1.787
 8351TIP3    H224997   3.216   2.559   1.691
 8352TIP3   OH224998   3.075   4.561   4.663
 8352TIP3    H124999   3.017   4.504   4.713
 8352TIP3    H225000   3.130   4.603   4.729
 8353TIP3   OH225001   8.107   3.550   3.406
 8353TIP3    H125002   8.195   3.512   3.408
 8353TIP3    H225003   8.119   3.635   3.364
 8354TIP3   OH225004   3.708   1.815   2.068
 8354TIP3    H125005   3.621   1.847   2.092
 8354TIP3    H225006   3.769   1.867   2.121
 8355TIP3   OH225007   2.040   0.231   1.661
 8355TIP3    H125008   1.986   0.181   1.722
 8355TIP3    H225009   1.980   0.257   1.591
 8356TIP3   OH225010   5.902   7.534   5.902
 8356TIP3    H125011   5.943   7.566   5.822
 8356TIP3    H225012   5.810   7.561   5.894
 8357TIP3   OH225013   5.765   6.966   1.434
 8357TIP3    H125014   5.727   6.995   1.351
 8357TIP3    H225015   5.739   6.874   1.441
 8358TIP3   OH225016   3.987   3.502   3.238
 8358TIP3    H125017   4.024   3.417   3.215
 8358TIP3    H225018   4.054   3.565   3.214
 8359TIP3   OH225019   0.553   1.970   0.727
 8359TIP3    H125020   0.526   2.056   0.761
 8359TIP3    H225021   0.604   1.931   0.797
 8360TIP3   OH225022   5.141   2.952   5.227
 8360TIP3    H125023   5.194   2.940   5.148
 8360TIP3    H225024   5.106   2.866   5.247
 8361TIP3   OH225025   2.811   3.405   1.625
 8361TIP3    H125026   2.850   3.458   1.695
 8361TIP3    H225027   2.717   3.406   1.644
 8362TIP3   OH225028   4.693   0.803   3.538
 8362TIP3    H125029   4.750   0.760   3.474
 8362TIP3    H225030   4.740   0.794   3.621
 8363TIP3   OH225031   8.041   1.620   2.617
 8363TIP3    H125032   8.050   1.642   2.710
 8363TIP3    H225033   8.127   1.586   2.592
 8364TIP3   OH225034   2.291   5.380   4.327
 8364TIP3    H125035   2.216   5.323   4.313
 8364TIP3    H225036   2.264   5.465   4.291
 8365TIP3   OH225037   5.408   2.220   2.758
 8365TIP3    H125038   5.455   2.169   2.824
 8365TIP3    H225039   5.383   2.300   2.803
 8366TIP3   OH225040   7.654   2.754   4.903
 8366TIP3    H125041   7.572   2.705   4.896
 8366TIP3    H225042   7.626   2.846   4.895
 8367TIP3   OH225043   2.402   0.081   2.660
 8367TIP3    H125044   2.451   0.102   2.739
 8367TIP3    H225045   2.358  -0.002   2.679
 8368TIP3   OH225046   5.649   7.763   5.613
 8368TIP3    H125047   5.707   7.703   5.566
 8368TIP3    H225048   5.704   7.802   5.681
 8369TIP3   OH225049   4.138   4.770   5.555
 8369TIP3    H125050   4.103   4.762   5.644
 8369TIP3    H225051   4.166   4.861   5.549
 8370TIP3   OH225052   6.664   4.841   5.701
 8370TIP3    H125053   6.661   4.757   5.655
 8370TIP3    H225054   6.689   4.818   5.791
 8371TIP3   OH225055   6.652   1.413   5.609
 8371TIP3    H125056   6.705   1.334   5.598
 8371TIP3    H225057   6.604   1.422   5.527
 8372TIP3   OH225058   5.452   2.201   2.502
 8372TIP3    H125059   5.455   2.292   2.474
 8372TIP3    H225060   5.436   2.205   2.596
 8373TIP3   OH225061   5.573   0.724   2.855
 8373TIP3    H125062   5.630   0.698   2.927
 8373TIP3    H225063   5.516   0.648   2.842
 8374TIP3   OH225064   7.952   0.336   1.167
 8374TIP3    H125065   7.919   0.424   1.150
 8374TIP3    H225066   8.012   0.318   1.095
 8375TIP3   OH225067   4.663   1.171   3.410
 8375TIP3    H125068   4.591   1.117   3.379
 8375TIP3    H225069   4.652   1.176   3.505
 8376TIP3   OH225070   1.380   3.508   0.335
 8376TIP3    H125071   1.373   3.542   0.424
 8376TIP3    H225072   1.296   3.530   0.294
 8377TIP3   OH225073   7.403   3.473   0.198
 8377TIP3    H125074   7.323   3.473   0.146
 8377TIP3    H225075   7.423   3.381   0.212
 8378TIP3   OH225076   1.863   2.945   3.413
 8378TIP3    H125077   1.779   2.910   3.382
 8378TIP3    H225078   1.924   2.871   3.404
 8379TIP3   OH225079   3.953   7.007   1.538
 8379TIP3    H125080   3.878   7.020   1.596
 8379TIP3    H225081   3.941   7.072   1.469
 8380TIP3   OH225082   2.927   6.811   5.957
 8380TIP3    H125083   3.019   6.785   5.965
 8380TIP3    H225084   2.879   6.729   5.952
 8381TIP3   OH225085   4.858   5.906   0.306
 8381TIP3    H125086   4.876   5.998   0.322
 8381TIP3    H225087   4.930   5.859   0.349
 8382TIP3   OH225088   0.470   3.419   4.628
 8382TIP3    H125089   0.384   3.453   4.652
 8382TIP3    H225090   0.532   3.478   4.671
 8383TIP3   OH225091   1.595   6.866   0.827
 8383TIP3    H125092   1.538   6.832   0.758
 8383TIP3    H225093   1.666   6.803   0.834
 8384TIP3   OH225094   0.609   0.977   4.844
 8384TIP3    H125095   0.603   1.056   4.790
 8384TIP3    H225096   0.550   0.915   4.803
 8385TIP3   OH225097   7.590   1.239   2.154
 8385TIP3    H125098   7.496   1.221   2.156
 8385TIP3    H225099   7.629   1.169   2.206
 8386TIP3   OH225100   1.710   5.322   5.158
 8386TIP3    H125101   1.633   5.303   5.211
 8386TIP3    H225102   1.776   5.259   5.187
 8387TIP3   OH225103   1.195   5.464   4.537
 8387TIP3    H125104   1.206   5.530   4.469
 8387TIP3    H225105   1.249   5.496   4.610
 8388TIP3   OH225106   8.181   2.193   5.982
 8388TIP3    H125107   8.135   2.149   5.910
 8388TIP3    H225108   8.253   2.134   6.003
 8389TIP3   OH225109   0.638   2.659   6.605
 8389TIP3    H125110   0.600   2.665   6.517
 8389TIP3    H225111   0.716   2.604   6.594
 8390TIP3   OH225112   6.679   4.727   4.000
 8390TIP3    H125113   6.657   4.767   4.084
 8390TIP3    H225114   6.710   4.800   3.946
 8391TIP3   OH225115   4.621   2.877   0.788
 8391TIP3    H125116   4.625   2.787   0.822
 8391TIP3    H225117   4.652   2.931   0.860
 8392TIP3   OH225118   5.927   1.595   0.868
 8392TIP3    H125119   5.834   1.611   0.854
 8392TIP3    H225120   5.971   1.672   0.832
 8393TIP3   OH225121   1.823   4.164   4.728
 8393TIP3    H125122   1.839   4.258   4.736
 8393TIP3    H225123   1.887   4.124   4.787
 8394TIP3   OH225124   6.462   4.368   3.679
 8394TIP3    H125125   6.400   4.300   3.703
 8394TIP3    H225126   6.547   4.335   3.709
 8395TIP3   OH225127   5.983   6.572   4.776
 8395TIP3    H125128   5.963   6.498   4.719
 8395TIP3    H225129   5.926   6.560   4.852
 8396TIP3   OH225130   2.902   2.915   6.078
 8396TIP3    H125131   2.955   2.969   6.020
 8396TIP3    H225132   2.861   2.850   6.021
 8397TIP3   OH225133   0.088   4.250   5.174
 8397TIP3    H125134   0.049   4.162   5.177
 8397TIP3    H225135   0.156   4.248   5.241
 8398TIP3   OH225136   1.478   1.017   3.050
 8398TIP3    H125137   1.485   0.993   3.142
 8398TIP3    H225138   1.500   0.937   3.002
 8399TIP3   OH225139   2.600   7.703   1.024
 8399TIP3    H125140   2.657   7.728   0.951
 8399TIP3    H225141   2.521   7.670   0.982
 8400TIP3   OH225142   3.529   4.449   4.140
 8400TIP3    H125143   3.531   4.370   4.087
 8400TIP3    H225144   3.601   4.502   4.108
 8401TIP3   OH225145   1.165   3.507   1.356
 8401TIP3    H125146   1.232   3.507   1.288
 8401TIP3    H225147   1.144   3.599   1.368
 8402TIP3   OH225148   6.715   6.086   0.931
 8402TIP3    H125149   6.746   6.175   0.947
 8402TIP3    H225150   6.680   6.089   0.842
 8403TIP3   OH225151   3.944   3.603   1.857
 8403TIP3    H125152   3.967   3.527   1.910
 8403TIP3    H225153   3.862   3.635   1.896
 8404TIP3   OH225154   4.815   1.608   4.734
 8404TIP3    H125155   4.785   1.585   4.822
 8404TIP3    H225156   4.793   1.701   4.725
 8405TIP3   OH225157   4.357   4.642   5.781
 8405TIP3    H125158   4.383   4.561   5.824
 8405TIP3    H225159   4.322   4.613   5.696
 8406TIP3   OH225160   5.692   7.430   3.250
 8406TIP3    H125161   5.752   7.402   3.319
 8406TIP3    H225162   5.732   7.509   3.214
 8407TIP3   OH225163   4.604   5.158   0.471
 8407TIP3    H125164   4.559   5.175   0.388
 8407TIP3    H225165   4.687   5.117   0.446
 8408TIP3   OH225166   6.060   7.130   3.973
 8408TIP3    H125167   6.057   7.034   3.976
 8408TIP3    H225168   6.045   7.157   4.064
 8409TIP3   OH225169   7.423   6.994   3.008
 8409TIP3    H125170   7.414   7.084   3.039
 8409TIP3    H225171   7.405   6.999   2.914
 8410TIP3   OH225172   1.125   1.642   3.494
 8410TIP3    H125173   1.138   1.623   3.401
 8410TIP3    H225174   1.134   1.557   3.537
 8411TIP3   OH225175   0.646   3.102   0.472
 8411TIP3    H125176   0.671   3.069   0.558
 8411TIP3    H225177   0.635   3.024   0.418
 8412TIP3   OH225178   4.089   2.673   6.439
 8412TIP3    H125179   4.177   2.660   6.474
 8412TIP3    H225180   4.042   2.718   6.510
 8413TIP3   OH225181   3.992   1.688   2.613
 8413TIP3    H125182   4.084   1.701   2.636
 8413TIP3    H225183   3.992   1.612   2.555
 8414TIP3   OH225184   4.559   7.069   5.081
 8414TIP3    H125185   4.636   7.014   5.095
 8414TIP3    H225186   4.517   7.074   5.166
 8415TIP3   OH225187   1.897   7.242   4.994
 8415TIP3    H125188   1.895   7.321   5.048
 8415TIP3    H225189   1.807   7.234   4.960
 8416TIP3   OH225190   0.907   4.367   0.867
 8416TIP3    H125191   0.983   4.424   0.855
 8416TIP3    H225192   0.891   4.368   0.962
 8417TIP3   OH225193   2.337   5.678   4.306
 8417TIP3    H125194   2.310   5.684   4.397
 8417TIP3    H225195   2.296   5.754   4.264
 8418TIP3   OH225196   0.501   0.146   2.459
 8418TIP3    H125197   0.591   0.167   2.434
 8418TIP3    H225198   0.456   0.231   2.460
 8419TIP3   OH225199   2.629   6.162   3.851
 8419TIP3    H125200   2.648   6.245   3.896
 8419TIP3    H225201   2.580   6.110   3.916
 8420TIP3   OH225202   2.401   2.617   5.553
 8420TIP3    H125203   2.395   2.547   5.618
 8420TIP3    H225204   2.490   2.611   5.519
 8421TIP3   OH225205   7.219   3.492   3.552
 8421TIP3    H125206   7.247   3.488   3.644
 8421TIP3    H225207   7.292   3.453   3.503
 8422TIP3   OH225208   8.128   6.561   6.773
 8422TIP3    H125209   8.217   6.575   6.807
 8422TIP3    H225210   8.119   6.465   6.768
 8423TIP3   OH225211   1.652   3.135   6.597
 8423TIP3    H125212   1.641   3.040   6.591
 8423TIP3    H225213   1.666   3.163   6.506
 8424TIP3   OH225214   3.385   6.782   4.778
 8424TIP3    H125215   3.400   6.710   4.840
 8424TIP3    H225216   3.432   6.755   4.699
 8425TIP3   OH225217   1.769   7.453   0.374
 8425TIP3    H125218   1.686   7.423   0.411
 8425TIP3    H225219   1.804   7.513   0.440
 8426TIP3   OH225220   7.049   3.061   5.309
 8426TIP3    H125221   7.096   3.049   5.391
 8426TIP3    H225222   7.086   3.140   5.270
 8427TIP3   OH225223   7.690   3.611   0.911
 8427TIP3    H125224   7.750   3.666   0.962
 8427TIP3    H225225   7.607   3.659   0.913
 8428TIP3   OH225226   5.399   5.317   5.728
 8428TIP3    H125227   5.359   5.402   5.748
 8428TIP3    H225228   5.489   5.339   5.705
 8429TIP3   OH225229   0.209   0.652   4.482
 8429TIP3    H125230   0.281   0.651   4.546
 8429TIP3    H225231   0.245   0.612   4.404
 8430TIP3   OH225232   2.210   6.028   2.239
 8430TIP3    H125233   2.293   6.029   2.192
 8430TIP3    H225234   2.143   6.020   2.171
 8431TIP3   OH225235   7.321   1.503   3.020
 8431TIP3    H125236   7.257   1.573   3.011
 8431TIP3    H225237   7.327   1.488   3.114
 8432TIP3   OH225238   2.071   6.788   5.343
 8432TIP3    H125239   2.026   6.769   5.261
 8432TIP3    H225240   2.087   6.882   5.341
 8433TIP3   OH225241   5.950   5.013   6.274
 8433TIP3    H125242   5.887   4.961   6.323
 8433TIP3    H225243   6.007   5.051   6.341
 8434TIP3   OH225244   3.881   3.294   5.740
 8434TIP3    H125245   3.920   3.210   5.715
 8434TIP3    H225246   3.799   3.269   5.783
 8435TIP3   OH225247   6.134   1.066   0.493
 8435TIP3    H125248   6.180   1.040   0.572
 8435TIP3    H225249   6.077   0.992   0.472
 8436TIP3   OH225250   7.505   2.890   1.991
 8436TIP3    H125251   7.585   2.940   1.976
 8436TIP3    H225252   7.456   2.898   1.910
 8437TIP3   OH225253   4.087   0.252   1.769
 8437TIP3    H125254   4.098   0.247   1.864
 8437TIP3    H225255   4.166   0.296   1.738
 8438TIP3   OH225256   5.970   5.172   3.146
 8438TIP3    H125257   6.028   5.099   3.167
 8438TIP3    H225258   5.912   5.138   3.078
 8439TIP3   OH225259   1.766   3.021   0.829
 8439TIP3    H125260   1.696   3.057   0.774
 8439TIP3    H225261   1.844   3.071   0.803
 8440TIP3   OH225262   1.799   6.498   5.855
 8440TIP3    H125263   1.859   6.508   5.928
 8440TIP3    H225264   1.712   6.505   5.894
 8441TIP3   OH225265   5.484   3.096   6.362
 8441TIP3    H125266   5.450   3.146   6.436
 8441TIP3    H225267   5.578   3.115   6.361
 8442TIP3   OH225268   5.760   3.208   2.588
 8442TIP3    H125269   5.824   3.186   2.520
 8442TIP3    H225270   5.781   3.299   2.611
 8443TIP3   OH225271   1.842   7.641   0.654
 8443TIP3    H125272   1.857   7.550   0.627
 8443TIP3    H225273   1.929   7.676   0.670
 8444TIP3   OH225274   4.502   4.966   4.185
 8444TIP3    H125275   4.578   4.922   4.145
 8444TIP3    H225276   4.449   4.994   4.111
 8445TIP3   OH225277   4.808   2.371   0.301
 8445TIP3    H125278   4.716   2.391   0.315
 8445TIP3    H225279   4.846   2.454   0.273
 8446TIP3   OH225280   7.202   4.765   5.796
 8446TIP3    H125281   7.146   4.732   5.866
 8446TIP3    H225282   7.185   4.708   5.721
 8447TIP3   OH225283   4.225   6.363   2.161
 8447TIP3    H125284   4.287   6.319   2.102
 8447TIP3    H225285   4.281   6.402   2.228
 8448TIP3   OH225286   0.361   2.528   2.014
 8448TIP3    H125287   0.444   2.488   1.989
 8448TIP3    H225288   0.385   2.595   2.079
 8449TIP3   OH225289   5.883   7.484   0.918
 8449TIP3    H125290   5.907   7.433   0.995
 8449TIP3    H225291   5.935   7.447   0.847
 8450TIP3   OH225292   5.051   1.287   6.155
 8450TIP3    H125293   4.957   1.307   6.151
 8450TIP3    H225294   5.093   1.365   6.119
 8451TIP3   OH225295   1.316   1.128   3.349
 8451TIP3    H125296   1.243   1.181   3.380
 8451TIP3    H225297   1.361   1.184   3.286
 8452TIP3   OH225298   6.577   4.908   2.428
 8452TIP3    H125299   6.604   4.825   2.389
 8452TIP3    H225300   6.578   4.890   2.522
 8453TIP3   OH225301   2.516   2.134   6.298
 8453TIP3    H125302   2.571   2.098   6.228
 8453TIP3    H225303   2.448   2.069   6.310
 8454TIP3   OH225304   8.106   6.108   6.706
 8454TIP3    H125305   8.191   6.080   6.671
 8454TIP3    H225306   8.084   6.041   6.771
 8455TIP3   OH225307   2.743   5.293   0.968
 8455TIP3    H125308   2.706   5.380   0.950
 8455TIP3    H225309   2.713   5.271   1.056
 8456TIP3   OH225310   3.567   4.252   5.003
 8456TIP3    H125311   3.657   4.282   5.013
 8456TIP3    H225312   3.515   4.332   4.998
 8457TIP3   OH225313   1.956   1.080   2.256
 8457TIP3    H125314   2.022   1.023   2.297
 8457TIP3    H225315   1.975   1.075   2.162
 8458TIP3   OH225316   1.879   7.363   0.642
 8458TIP3    H125317   1.808   7.303   0.665
 8458TIP3    H225318   1.959   7.317   0.667
 8459TIP3   OH225319   5.668   5.547   1.569
 8459TIP3    H125320   5.581   5.586   1.578
 8459TIP3    H225321   5.655   5.455   1.591
 8460TIP3   OH225322   7.991   6.741   0.855
 8460TIP3    H125323   8.010   6.783   0.939
 8460TIP3    H225324   7.898   6.722   0.857
 8461TIP3   OH225325   5.061   4.003   4.138
 8461TIP3    H125326   5.000   3.937   4.105
 8461TIP3    H225327   5.004   4.074   4.171
 8462TIP3   OH225328   4.835   3.515   2.120
 8462TIP3    H125329   4.929   3.502   2.129
 8462TIP3    H225330   4.826   3.599   2.075
 8463TIP3   OH225331   5.221   0.569   0.426
 8463TIP3    H125332   5.194   0.514   0.352
 8463TIP3    H225333   5.297   0.524   0.463
 8464TIP3   OH225334   7.163   1.015   3.797
 8464TIP3    H125335   7.152   0.990   3.705
 8464TIP3    H225336   7.074   1.036   3.826
 8465TIP3   OH225337   2.398   3.920   5.416
 8465TIP3    H125338   2.310   3.923   5.454
 8465TIP3    H225339   2.412   3.829   5.392
 8466TIP3   OH225340   5.682   7.065   2.087
 8466TIP3    H125341   5.743   7.049   2.159
 8466TIP3    H225342   5.674   6.981   2.042
 8467TIP3   OH225343   0.633   6.934   4.606
 8467TIP3    H125344   0.650   7.019   4.645
 8467TIP3    H225345   0.564   6.896   4.659
 8468TIP3   OH225346   2.937   5.654   2.326
 8468TIP3    H125347   2.865   5.608   2.281
 8468TIP3    H225348   2.947   5.607   2.409
 8469TIP3   OH225349   6.280   4.209   0.947
 8469TIP3    H125350   6.232   4.128   0.968
 8469TIP3    H225351   6.367   4.178   0.921
 8470TIP3   OH225352   5.635   3.902   1.794
 8470TIP3    H125353   5.597   3.946   1.718
 8470TIP3    H225354   5.563   3.852   1.832
 8471TIP3   OH225355   2.811   6.289   4.219
 8471TIP3    H125356   2.784   6.338   4.141
 8471TIP3    H225357   2.877   6.345   4.261
 8472TIP3   OH225358   4.546   7.626   6.704
 8472TIP3    H125359   4.513   7.675   6.779
 8472TIP3    H225360   4.515   7.537   6.718
 8473TIP3   OH225361   2.287   6.551   4.455
 8473TIP3    H125362   2.269   6.644   4.463
 8473TIP3    H225363   2.367   6.546   4.402
 8474TIP3   OH225364   5.452   2.473   2.899
 8474TIP3    H125365   5.425   2.486   2.990
 8474TIP3    H225366   5.391   2.525   2.847
 8475TIP3   OH225367   6.735   5.021   1.049
 8475TIP3    H125368   6.670   4.978   1.103
 8475TIP3    H225369   6.686   5.056   0.974
 8476TIP3   OH225370   4.752   3.215   0.181
 8476TIP3    H125371   4.691   3.287   0.200
 8476TIP3    H225372   4.824   3.229   0.243
 8477TIP3   OH225373   0.820   0.506   1.365
 8477TIP3    H125374   0.766   0.557   1.425
 8477TIP3    H225375   0.858   0.437   1.419
 8478TIP3   OH225376   6.386   5.729   2.278
 8478TIP3    H125377   6.453   5.717   2.211
 8478TIP3    H225378   6.405   5.661   2.343
 8479TIP3   OH225379   0.181   6.831   0.826
 8479TIP3    H125380   0.115   6.762   0.826
 8479TIP3    H225381   0.264   6.784   0.828
 8480TIP3   OH225382   2.005   5.568   3.343
 8480TIP3    H125383   2.064   5.501   3.307
 8480TIP3    H225384   1.960   5.604   3.267
 8481TIP3   OH225385   2.460   7.046   2.089
 8481TIP3    H125386   2.555   7.051   2.090
 8481TIP3    H225387   2.440   6.966   2.040
 8482TIP3   OH225388   3.276   6.002   5.757
 8482TIP3    H125389   3.186   5.982   5.732
 8482TIP3    H225390   3.272   6.091   5.791
 8483TIP3   OH225391   1.046   0.103   5.602
 8483TIP3    H125392   1.004   0.188   5.587
 8483TIP3    H225393   0.979   0.039   5.580
 8484TIP3   OH225394   5.532   5.035   4.449
 8484TIP3    H125395   5.446   4.998   4.467
 8484TIP3    H225396   5.594   4.973   4.488
 8485TIP3   OH225397   1.473   3.773   0.304
 8485TIP3    H125398   1.517   3.689   0.318
 8485TIP3    H225399   1.382   3.756   0.331
 8486TIP3   OH225400   3.691   4.290   1.984
 8486TIP3    H125401   3.598   4.274   2.005
 8486TIP3    H225402   3.738   4.259   2.062
 8487TIP3   OH225403   1.164   7.475   4.924
 8487TIP3    H125404   1.169   7.396   4.978
 8487TIP3    H225405   1.075   7.475   4.890
 8488TIP3   OH225406   5.731   4.990   3.942
 8488TIP3    H125407   5.670   5.042   3.994
 8488TIP3    H225408   5.763   4.923   4.002
 8489TIP3   OH225409   7.249   1.271   5.412
 8489TIP3    H125410   7.188   1.197   5.415
 8489TIP3    H225411   7.323   1.245   5.466
 8490TIP3   OH225412   8.288   7.199   3.402
 8490TIP3    H125413   8.364   7.164   3.450
 8490TIP3    H225414   8.235   7.241   3.470
 8491TIP3   OH225415   1.216   4.198   1.607
 8491TIP3    H125416   1.142   4.164   1.557
 8491TIP3    H225417   1.245   4.276   1.559
 8492TIP3   OH225418   5.818   6.637   4.129
 8492TIP3    H125419   5.796   6.675   4.214
 8492TIP3    H225420   5.743   6.658   4.073
 8493TIP3   OH225421   7.760   0.773   2.117
 8493TIP3    H125422   7.744   0.849   2.061
 8493TIP3    H225423   7.679   0.723   2.112
 8494TIP3   OH225424   6.756   4.223   1.082
 8494TIP3    H125425   6.688   4.181   1.133
 8494TIP3    H225426   6.834   4.219   1.138
 8495TIP3   OH225427   5.291   5.193  -0.001
 8495TIP3    H125428   5.312   5.283   0.020
 8495TIP3    H225429   5.262   5.195  -0.092
 8496TIP3   OH225430   5.326   3.062   3.670
 8496TIP3    H125431   5.399   3.000   3.679
 8496TIP3    H225432   5.275   3.029   3.596
 8497TIP3   OH225433   7.149   0.099   3.263
 8497TIP3    H125434   7.059   0.078   3.288
 8497TIP3    H225435   7.189   0.014   3.243
 8498TIP3   OH225436   0.037   0.945   0.744
 8498TIP3    H125437  -0.043   0.944   0.795
 8498TIP3    H225438   0.013   0.901   0.662
 8499TIP3   OH225439   0.927   1.131   1.779
 8499TIP3    H125440   0.924   1.145   1.873
 8499TIP3    H225441   1.015   1.160   1.753
 8500TIP3   OH225442   7.537   2.398   0.442
 8500TIP3    H125443   7.597   2.347   0.497
 8500TIP3    H225444   7.450   2.381   0.479
 8501TIP3   OH225445   6.658   2.199   4.037
 8501TIP3    H125446   6.703   2.115   4.046
 8501TIP3    H225447   6.726   2.261   4.011
 8502TIP3   OH225448   3.064   3.644   0.563
 8502TIP3    H125449   2.984   3.592   0.553
 8502TIP3    H225450   3.043   3.727   0.521
 8503TIP3   OH225451   0.936   1.371   2.265
 8503TIP3    H125452   0.918   1.458   2.302
 8503TIP3    H225453   0.990   1.327   2.331
 8504TIP3   OH225454   0.337   0.041   2.090
 8504TIP3    H125455   0.429   0.065   2.095
 8504TIP3    H225456   0.291   0.124   2.081
 8505TIP3   OH225457   0.394   5.377   1.340
 8505TIP3    H125458   0.412   5.443   1.273
 8505TIP3    H225459   0.383   5.295   1.290
 8506TIP3   OH225460   6.616   4.353   4.819
 8506TIP3    H125461   6.565   4.395   4.749
 8506TIP3    H225462   6.550   4.323   4.882
 8507TIP3   OH225463   3.724   4.710   4.082
 8507TIP3    H125464   3.699   4.795   4.118
 8507TIP3    H225465   3.800   4.684   4.134
 8508TIP3   OH225466   0.620   7.208   2.375
 8508TIP3    H125467   0.684   7.147   2.412
 8508TIP3    H225468   0.562   7.153   2.322
 8509TIP3   OH225469   4.587   4.360   4.821
 8509TIP3    H125470   4.618   4.320   4.903
 8509TIP3    H225471   4.666   4.398   4.782
 8510TIP3   OH225472   7.308   4.047   0.995
 8510TIP3    H125473   7.234   4.054   0.935
 8510TIP3    H225474   7.385   4.037   0.938
 8511TIP3   OH225475   8.009   0.151   0.177
 8511TIP3    H125476   8.054   0.235   0.166
 8511TIP3    H225477   8.074   0.085   0.153
 8512TIP3   OH225478   6.123   4.488   3.969
 8512TIP3    H125479   6.088   4.497   4.058
 8512TIP3    H225480   6.156   4.398   3.966
 8513TIP3   OH225481   7.924   0.046   4.180
 8513TIP3    H125482   7.836   0.056   4.145
 8513TIP3    H225483   7.915  -0.021   4.248
 8514TIP3   OH225484   2.696   2.290   1.858
 8514TIP3    H125485   2.776   2.243   1.881
 8514TIP3    H225486   2.668   2.329   1.940
 8515TIP3   OH225487   2.525   7.644   0.469
 8515TIP3    H125488   2.475   7.668   0.391
 8515TIP3    H225489   2.547   7.727   0.510
 8516TIP3   OH225490   6.327   5.477   3.155
 8516TIP3    H125491   6.331   5.393   3.199
 8516TIP3    H225492   6.234   5.496   3.147
 8517TIP3   OH225493   1.130   3.478   4.825
 8517TIP3    H125494   1.146   3.439   4.738
 8517TIP3    H225495   1.100   3.567   4.806
 8518TIP3   OH225496   6.434   4.273   4.221
 8518TIP3    H125497   6.395   4.356   4.249
 8518TIP3    H225498   6.436   4.220   4.301
 8519TIP3   OH225499   3.236   3.669   2.570
 8519TIP3    H125500   3.228   3.705   2.658
 8519TIP3    H225501   3.303   3.600   2.578
 8520TIP3   OH225502   7.825   3.478   3.886
 8520TIP3    H125503   7.874   3.469   3.968
 8520TIP3    H225504   7.884   3.445   3.819
 8521TIP3   OH225505   4.601   4.825   0.523
 8521TIP3    H125506   4.619   4.847   0.614
 8521TIP3    H225507   4.664   4.756   0.502
 8522TIP3   OH225508   6.009   0.829   1.522
 8522TIP3    H125509   6.016   0.761   1.590
 8522TIP3    H225510   6.076   0.805   1.458
 8523TIP3   OH225511   5.616   1.070   4.350
 8523TIP3    H125512   5.672   1.130   4.400
 8523TIP3    H225513   5.677   1.020   4.295
 8524TIP3   OH225514   2.329   3.368   5.042
 8524TIP3    H125515   2.279   3.296   5.079
 8524TIP3    H225516   2.273   3.444   5.052
 8525TIP3   OH225517   1.968   4.790   3.724
 8525TIP3    H125518   2.007   4.845   3.656
 8525TIP3    H225519   1.908   4.848   3.771
 8526TIP3   OH225520   5.102   4.988   5.960
 8526TIP3    H125521   5.192   5.000   5.930
 8526TIP3    H225522   5.086   4.894   5.952
 8527TIP3   OH225523   6.876   2.974   1.957
 8527TIP3    H125524   6.864   3.031   2.033
 8527TIP3    H225525   6.795   2.923   1.951
 8528TIP3   OH225526   2.343   6.516   4.973
 8528TIP3    H125527   2.416   6.546   4.918
 8528TIP3    H225528   2.311   6.595   5.015
 8529TIP3   OH225529   4.583   2.501   2.591
 8529TIP3    H125530   4.527   2.560   2.641
 8529TIP3    H225531   4.613   2.554   2.517
 8530TIP3   OH225532   3.223   3.276   1.122
 8530TIP3    H125533   3.160   3.208   1.147
 8530TIP3    H225534   3.295   3.227   1.081
 8531TIP3   OH225535   7.932   1.645   1.654
 8531TIP3    H125536   7.890   1.712   1.599
 8531TIP3    H225537   8.001   1.608   1.598
 8532TIP3   OH225538   0.248   4.305   1.152
 8532TIP3    H125539   0.313   4.374   1.165
 8532TIP3    H225540   0.204   4.329   1.071
 8533TIP3   OH225541   3.090   6.525   4.938
 8533TIP3    H125542   3.038   6.504   5.016
 8533TIP3    H225543   3.180   6.529   4.969
 8534TIP3   OH225544   0.388   7.491   1.348
 8534TIP3    H125545   0.427   7.562   1.296
 8534TIP3    H225546   0.337   7.440   1.285
 8535TIP3   OH225547   6.899   5.189   2.023
 8535TIP3    H125548   6.886   5.244   1.945
 8535TIP3    H225549   6.876   5.101   1.994
 8536TIP3   OH225550   1.543   6.794   2.586
 8536TIP3    H125551   1.576   6.844   2.661
 8536TIP3    H225552   1.466   6.748   2.620
 8537TIP3   OH225553   2.041   5.349   0.310
 8537TIP3    H125554   1.999   5.303   0.238
 8537TIP3    H225555   2.035   5.289   0.384
 8538TIP3   OH225556   3.169   2.389   1.492
 8538TIP3    H125557   3.247   2.381   1.436
 8538TIP3    H225558   3.189   2.464   1.549
 8539TIP3   OH225559   0.987   0.271   3.554
 8539TIP3    H125560   0.941   0.264   3.637
 8539TIP3    H225561   0.982   0.363   3.530
 8540TIP3   OH225562   5.256   4.853   3.652
 8540TIP3    H125563   5.190   4.907   3.695
 8540TIP3    H225564   5.334   4.909   3.647
 8541TIP3   OH225565   1.875   6.006   1.265
 8541TIP3    H125566   1.945   6.033   1.324
 8541TIP3    H225567   1.913   5.933   1.215
 8542TIP3   OH225568   6.649   2.612   4.024
 8542TIP3    H125569   6.574   2.624   4.081
 8542TIP3    H225570   6.632   2.669   3.949
 8543TIP3   OH225571   2.745   6.342   4.663
 8543TIP3    H125572   2.707   6.425   4.632
 8543TIP3    H225573   2.777   6.300   4.584
 8544TIP3   OH225574   6.516   4.231   3.068
 8544TIP3    H125575   6.596   4.282   3.058
 8544TIP3    H225576   6.446   4.292   3.043
 8545TIP3   OH225577   3.717   1.513   1.667
 8545TIP3    H125578   3.745   1.587   1.613
 8545TIP3    H225579   3.670   1.456   1.606
 8546TIP3   OH225580   4.843   1.113   2.874
 8546TIP3    H125581   4.900   1.058   2.928
 8546TIP3    H225582   4.860   1.084   2.785
 8547TIP3   OH225583   1.267   5.994   1.786
 8547TIP3    H125584   1.275   6.065   1.848
 8547TIP3    H225585   1.185   6.012   1.739
 8548TIP3   OH225586   2.927   5.333   4.961
 8548TIP3    H125587   2.945   5.288   5.044
 8548TIP3    H225588   2.865   5.275   4.916
 8549TIP3   OH225589   5.177   2.312   3.082
 8549TIP3    H125590   5.126   2.259   3.142
 8549TIP3    H225591   5.259   2.331   3.129
 8550TIP3   OH225592   0.247   5.815   2.672
 8550TIP3    H125593   0.240   5.831   2.766
 8550TIP3    H225594   0.162   5.778   2.647
 8551TIP3   OH225595   3.459   3.699   0.561
 8551TIP3    H125596   3.384   3.719   0.617
 8551TIP3    H225597   3.437   3.737   0.476
 8552TIP3   OH225598   2.929   6.776   3.462
 8552TIP3    H125599   2.943   6.768   3.557
 8552TIP3    H225600   3.013   6.752   3.423
 8553TIP3   OH225601   3.324   4.864   1.437
 8553TIP3    H125602   3.315   4.768   1.438
 8553TIP3    H225603   3.252   4.895   1.492
 8554TIP3   OH225604   0.029   2.375   4.917
 8554TIP3    H125605  -0.022   2.456   4.913
 8554TIP3    H225606   0.116   2.401   4.947
 8555TIP3   OH225607   0.622   7.028   3.124
 8555TIP3    H125608   0.685   7.080   3.173
 8555TIP3    H225609   0.639   6.938   3.152
 8556TIP3   OH225610   2.079   2.858   6.479
 8556TIP3    H125611   2.018   2.885   6.548
 8556TIP3    H225612   2.145   2.927   6.479
 8557TIP3   OH225613   3.898   3.734   3.350
 8557TIP3    H125614   3.931   3.796   3.285
 8557TIP3    H225615   3.910   3.648   3.309
 8558TIP3   OH225616   7.339   4.881   6.547
 8558TIP3    H125617   7.249   4.863   6.574
 8558TIP3    H225618   7.364   4.958   6.600
 8559TIP3   OH225619   5.745   2.948   5.273
 8559TIP3    H125620   5.677   2.884   5.290
 8559TIP3    H225621   5.717   2.994   5.194
 8560TIP3   OH225622   0.431   5.608   2.229
 8560TIP3    H125623   0.455   5.522   2.264
 8560TIP3    H225624   0.513   5.645   2.198
 8561TIP3   OH225625   3.982   1.847   6.296
 8561TIP3    H125626   4.067   1.890   6.304
 8561TIP3    H225627   3.991   1.790   6.219
 8562TIP3   OH225628   3.987   7.285   0.503
 8562TIP3    H125629   4.035   7.352   0.552
 8562TIP3    H225630   4.048   7.212   0.494
 8563TIP3   OH225631   6.139   4.126   4.933
 8563TIP3    H125632   6.234   4.137   4.938
 8563TIP3    H225633   6.106   4.167   5.013
 8564TIP3   OH225634   0.251   6.346   4.230
 8564TIP3    H125635   0.255   6.285   4.156
 8564TIP3    H225636   0.257   6.290   4.307
 8565TIP3   OH225637   5.350   3.573   0.119
 8565TIP3    H125638   5.373   3.513   0.048
 8565TIP3    H225639   5.287   3.525   0.172
 8566TIP3   OH225640   5.414   5.830   1.545
 8566TIP3    H125641   5.464   5.912   1.547
 8566TIP3    H225642   5.324   5.858   1.525
 8567TIP3   OH225643   7.809   7.089   5.856
 8567TIP3    H125644   7.827   7.023   5.789
 8567TIP3    H225645   7.714   7.089   5.864
 8568TIP3   OH225646   8.064   1.767   2.116
 8568TIP3    H125647   8.060   1.706   2.042
 8568TIP3    H225648   8.061   1.854   2.076
 8569TIP3   OH225649   6.069   3.147   5.930
 8569TIP3    H125650   6.040   3.218   5.873
 8569TIP3    H225651   6.111   3.085   5.871
 8570TIP3   OH225652   0.893   0.055   6.266
 8570TIP3    H125653   0.808   0.049   6.310
 8570TIP3    H225654   0.895   0.143   6.228
 8571TIP3   OH225655   0.066   3.811   6.639
 8571TIP3    H125656   0.154   3.813   6.677
 8571TIP3    H225657   0.060   3.894   6.591
 8572TIP3   OH225658   2.919   3.511   6.669
 8572TIP3    H125659   2.943   3.591   6.716
 8572TIP3    H225660   3.000   3.480   6.630
 8573TIP3   OH225661   3.915   0.546  -0.078
 8573TIP3    H125662   3.927   0.452  -0.065
 8573TIP3    H225663   3.913   0.582   0.010
 8574TIP3   OH225664   0.368   3.186   4.092
 8574TIP3    H125665   0.405   3.206   4.006
 8574TIP3    H225666   0.315   3.262   4.114
 8575TIP3   OH225667   6.512   3.038   2.216
 8575TIP3    H125668   6.467   2.972   2.270
 8575TIP3    H225669   6.546   2.988   2.142
 8576TIP3   OH225670   7.511   0.826   6.312
 8576TIP3    H125671   7.560   0.790   6.386
 8576TIP3    H225672   7.433   0.865   6.351
 8577TIP3   OH225673   1.777   6.922   3.351
 8577TIP3    H125674   1.728   6.847   3.385
 8577TIP3    H225675   1.825   6.956   3.427
 8578TIP3   OH225676   2.048   0.391   3.361
 8578TIP3    H125677   2.123   0.388   3.301
 8578TIP3    H225678   2.085   0.373   3.447
 8579TIP3   OH225679   4.227   6.717   0.093
 8579TIP3    H125680   4.213   6.625   0.115
 8579TIP3    H225681   4.154   6.739   0.035
 8580TIP3   OH225682   2.993   7.280   0.071
 8580TIP3    H125683   2.991   7.195   0.026
 8580TIP3    H225684   2.935   7.336   0.019
 8581TIP3   OH225685   5.003   5.091   1.153
 8581TIP3    H125686   4.922   5.115   1.198
 8581TIP3    H225687   5.063   5.163   1.172
 8582TIP3   OH225688   0.973   2.760   0.650
 8582TIP3    H125689   0.906   2.709   0.694
 8582TIP3    H225690   1.055   2.731   0.688
 8583TIP3   OH225691   4.169   7.087   2.987
 8583TIP3    H125692   4.214   7.159   2.945
 8583TIP3    H225693   4.191   7.095   3.080
 8584TIP3   OH225694   3.279   1.962   4.677
 8584TIP3    H125695   3.210   2.000   4.622
 8584TIP3    H225696   3.319   2.036   4.721
 8585TIP3   OH225697   7.192   4.021   2.044
 8585TIP3    H125698   7.100   4.011   2.021
 8585TIP3    H225699   7.231   4.065   1.968
 8586TIP3   OH225700   6.215   6.261   5.360
 8586TIP3    H125701   6.235   6.354   5.351
 8586TIP3    H225702   6.254   6.237   5.444
 8587TIP3   OH225703   3.825   1.888   0.145
 8587TIP3    H125704   3.896   1.846   0.097
 8587TIP3    H225705   3.796   1.821   0.207
 8588TIP3   OH225706   0.467   4.614   5.489
 8588TIP3    H125707   0.507   4.536   5.527
 8588TIP3    H225708   0.376   4.613   5.519
 8589TIP3   OH225709   7.765   4.682   1.219
 8589TIP3    H125710   7.698   4.635   1.269
 8589TIP3    H225711   7.715   4.741   1.163
 8590TIP3   OH225712   6.203   2.739   2.556
 8590TIP3    H125713   6.191   2.648   2.583
 8590TIP3    H225714   6.132   2.786   2.599
 8591TIP3   OH225715   8.257   1.265   3.005
 8591TIP3    H125716   8.223   1.284   3.092
 8591TIP3    H225717   8.179   1.260   2.949
 8592TIP3   OH225718   7.779   4.936   3.052
 8592TIP3    H125719   7.754   5.004   3.115
 8592TIP3    H225720   7.842   4.882   3.099
 8593TIP3   OH225721   4.399   6.999   5.287
 8593TIP3    H125722   4.443   6.936   5.343
 8593TIP3    H225723   4.327   7.033   5.340
 8594TIP3   OH225724   0.360   5.350   4.361
 8594TIP3    H125725   0.322   5.281   4.306
 8594TIP3    H225726   0.335   5.326   4.450
 8595TIP3   OH225727   2.554   0.756   0.749
 8595TIP3    H125728   2.459   0.766   0.742
 8595TIP3    H225729   2.581   0.824   0.811
 8596TIP3   OH225730   3.478   4.882   5.428
 8596TIP3    H125731   3.473   4.855   5.520
 8596TIP3    H225732   3.537   4.818   5.387
 8597TIP3   OH225733   1.624   7.779   0.610
 8597TIP3    H125734   1.605   7.731   0.530
 8597TIP3    H225735   1.711   7.749   0.636
 8598TIP3   OH225736   2.708   1.395   3.039
 8598TIP3    H125737   2.701   1.470   2.980
 8598TIP3    H225738   2.790   1.352   3.014
 8599TIP3   OH225739   3.139   4.309   3.409
 8599TIP3    H125740   3.109   4.337   3.496
 8599TIP3    H225741   3.118   4.216   3.406
 8600TIP3   OH225742   2.420   1.356   0.501
 8600TIP3    H125743   2.423   1.273   0.454
 8600TIP3    H225744   2.507   1.363   0.542
 8601TIP3   OH225745   1.596   5.077   4.954
 8601TIP3    H125746   1.599   5.084   5.050
 8601TIP3    H225747   1.664   5.138   4.924
 8602TIP3   OH225748   4.803   0.728   3.787
 8602TIP3    H125749   4.741   0.725   3.860
 8602TIP3    H225750   4.860   0.652   3.802
 8603TIP3   OH225751   7.882   7.303   2.433
 8603TIP3    H125752   7.908   7.260   2.514
 8603TIP3    H225753   7.848   7.232   2.378
 8604TIP3   OH225754   6.530   0.267   1.037
 8604TIP3    H125755   6.597   0.263   0.968
 8604TIP3    H225756   6.467   0.332   1.006
 8605TIP3   OH225757   5.462   4.473   2.457
 8605TIP3    H125758   5.430   4.433   2.537
 8605TIP3    H225759   5.545   4.428   2.439
 8606TIP3   OH225760   3.498   3.154   1.068
 8606TIP3    H125761   3.539   3.223   1.016
 8606TIP3    H225762   3.489   3.080   1.007
 8607TIP3   OH225763   4.953   2.267   2.136
 8607TIP3    H125764   4.890   2.288   2.204
 8607TIP3    H225765   4.905   2.277   2.054
 8608TIP3   OH225766   0.369   7.107   4.842
 8608TIP3    H125767   0.362   7.119   4.936
 8608TIP3    H225768   0.336   7.188   4.804
 8609TIP3   OH225769   2.642   0.837   2.780
 8609TIP3    H125770   2.565   0.796   2.741
 8609TIP3    H225771   2.705   0.844   2.708
 8610TIP3   OH225772   0.535   5.237   6.554
 8610TIP3    H125773   0.442   5.245   6.533
 8610TIP3    H225774   0.545   5.282   6.637
 8611TIP3   OH225775   4.347   2.359   3.249
 8611TIP3    H125776   4.282   2.348   3.319
 8611TIP3    H225777   4.413   2.292   3.267
 8612TIP3   OH225778   3.415   4.063   4.808
 8612TIP3    H125779   3.501   4.105   4.799
 8612TIP3    H225780   3.436   3.971   4.828
 8613TIP3   OH225781   7.659   1.673   2.015
 8613TIP3    H125782   7.565   1.660   1.999
 8613TIP3    H225783   7.702   1.609   1.959
 8614TIP3   OH225784   3.384   6.285   2.471
 8614TIP3    H125785   3.374   6.283   2.566
 8614TIP3    H225786   3.478   6.293   2.457
 8615TIP3   OH225787   5.370   7.225   0.303
 8615TIP3    H125788   5.294   7.182   0.264
 8615TIP3    H225789   5.352   7.224   0.397
 8616TIP3   OH225790   5.492   6.809   5.243
 8616TIP3    H125791   5.399   6.823   5.259
 8616TIP3    H225792   5.520   6.888   5.196
 8617TIP3   OH225793   5.212   2.862   0.156
 8617TIP3    H125794   5.198   2.949   0.119
 8617TIP3    H225795   5.270   2.818   0.093
 8618TIP3   OH225796   4.015   1.081   4.235
 8618TIP3    H125797   4.025   1.173   4.211
 8618TIP3    H225798   3.988   1.084   4.327
 8619TIP3   OH225799   5.791   3.130   6.275
 8619TIP3    H125800   5.882   3.115   6.302
 8619TIP3    H225801   5.755   3.041   6.265
 8620TIP3   OH225802   4.444   6.981   3.122
 8620TIP3    H125803   4.473   6.990   3.213
 8620TIP3    H225804   4.349   6.990   3.126
 8621TIP3   OH225805   8.232   4.855   6.108
 8621TIP3    H125806   8.276   4.902   6.180
 8621TIP3    H225807   8.226   4.765   6.138
 8622TIP3   OH225808   7.993   3.124   3.282
 8622TIP3    H125809   8.019   3.174   3.205
 8622TIP3    H225810   7.966   3.189   3.346
 8623TIP3   OH225811   0.375   0.500   4.917
 8623TIP3    H125812   0.395   0.579   4.967
 8623TIP3    H225813   0.444   0.496   4.850
 8624TIP3   OH225814   3.000   4.221   6.713
 8624TIP3    H125815   2.991   4.126   6.718
 8624TIP3    H225816   3.091   4.238   6.735
 8625TIP3   OH225817   7.851   2.393   3.594
 8625TIP3    H125818   7.943   2.379   3.618
 8625TIP3    H225819   7.845   2.361   3.504
 8626TIP3   OH225820   6.892   4.215   1.594
 8626TIP3    H125821   6.913   4.295   1.545
 8626TIP3    H225822   6.966   4.157   1.577
 8627TIP3   OH225823   2.309   5.513   2.921
 8627TIP3    H125824   2.257   5.582   2.962
 8627TIP3    H225825   2.296   5.436   2.976
 8628TIP3   OH225826   0.093   5.360   4.741
 8628TIP3    H125827   0.158   5.342   4.809
 8628TIP3    H225828   0.018   5.397   4.788
 8629TIP3   OH225829   4.950   3.252   6.307
 8629TIP3    H125830   4.981   3.340   6.332
 8629TIP3    H225831   4.869   3.268   6.258
 8630TIP3   OH225832   0.028   0.887   4.497
 8630TIP3    H125833   0.089   0.823   4.535
 8630TIP3    H225834  -0.028   0.834   4.439
 8631TIP3   OH225835   8.149   6.284   0.487
 8631TIP3    H125836   8.114   6.280   0.575
 8631TIP3    H225837   8.073   6.300   0.431
 8632TIP3   OH225838   2.986   6.671   4.220
 8632TIP3    H125839   2.967   6.689   4.313
 8632TIP3    H225840   3.015   6.580   4.219
 8633TIP3   OH225841   4.038   5.656   5.179
 8633TIP3    H125842   4.052   5.632   5.087
 8633TIP3    H225843   4.082   5.587   5.228
 8634TIP3   OH225844   3.173   2.584   2.292
 8634TIP3    H125845   3.079   2.562   2.290
 8634TIP3    H225846   3.215   2.505   2.325
 8635TIP3   OH225847   4.650   7.346   1.186
 8635TIP3    H125848   4.662   7.431   1.228
 8635TIP3    H225849   4.687   7.358   1.098
 8636TIP3   OH225850   0.874   1.977   5.260
 8636TIP3    H125851   0.779   1.969   5.251
 8636TIP3    H225852   0.888   2.068   5.287
 8637TIP3   OH225853   7.489   7.210   2.649
 8637TIP3    H125854   7.474   7.119   2.673
 8637TIP3    H225855   7.419   7.231   2.586
 8638TIP3   OH225856   2.145   0.309   5.548
 8638TIP3    H125857   2.123   0.342   5.636
 8638TIP3    H225858   2.140   0.214   5.557
 8639TIP3   OH225859   2.750   4.525   0.452
 8639TIP3    H125860   2.655   4.538   0.443
 8639TIP3    H225861   2.763   4.508   0.545
 8640TIP3   OH225862   4.755   7.187   2.723
 8640TIP3    H125863   4.746   7.139   2.806
 8640TIP3    H225864   4.802   7.127   2.666
 8641TIP3   OH225865   6.463   1.558   0.898
 8641TIP3    H125866   6.465   1.506   0.978
 8641TIP3    H225867   6.525   1.513   0.840
 8642TIP3   OH225868   0.535   0.008   1.485
 8642TIP3    H125869   0.461   0.057   1.447
 8642TIP3    H225870   0.608   0.070   1.481
 8643TIP3   OH225871   4.285   5.306   1.757
 8643TIP3    H125872   4.225   5.262   1.817
 8643TIP3    H225873   4.270   5.262   1.673
 8644TIP3   OH225874   1.252   3.733   6.421
 8644TIP3    H125875   1.216   3.686   6.346
 8644TIP3    H225876   1.316   3.672   6.459
 8645TIP3   OH225877   4.589   5.109   1.213
 8645TIP3    H125878   4.597   5.053   1.136
 8645TIP3    H225879   4.512   5.164   1.196
 8646TIP3   OH225880   7.852   4.738   0.518
 8646TIP3    H125881   7.867   4.773   0.430
 8646TIP3    H225882   7.851   4.643   0.506
 8647TIP3   OH225883   3.251   6.528   1.872
 8647TIP3    H125884   3.330   6.562   1.830
 8647TIP3    H225885   3.282   6.491   1.955
 8648TIP3   OH225886   8.017   6.736   1.932
 8648TIP3    H125887   7.995   6.753   1.840
 8648TIP3    H225888   8.083   6.803   1.953
 8649TIP3   OH225889   6.239   1.414   4.529
 8649TIP3    H125890   6.225   1.372   4.614
 8649TIP3    H225891   6.157   1.460   4.511
 8650TIP3   OH225892   2.173   3.061   0.893
 8650TIP3    H125893   2.228   3.000   0.842
 8650TIP3    H225894   2.149   3.012   0.971
 8651TIP3   OH225895   2.404   2.886   5.586
 8651TIP3    H125896   2.477   2.883   5.647
 8651TIP3    H225897   2.377   2.795   5.576
 8652TIP3   OH225898   8.023   4.179   4.660
 8652TIP3    H125899   8.001   4.119   4.732
 8652TIP3    H225900   8.037   4.123   4.585
 8653TIP3   OH225901   5.838   6.348   4.004
 8653TIP3    H125902   5.891   6.289   3.950
 8653TIP3    H225903   5.883   6.433   3.998
 8654TIP3   OH225904   2.239   1.221   1.477
 8654TIP3    H125905   2.293   1.284   1.525
 8654TIP3    H225906   2.257   1.240   1.385
 8655TIP3   OH225907   4.230   4.851   5.933
 8655TIP3    H125908   4.135   4.845   5.924
 8655TIP3    H225909   4.263   4.771   5.891
 8656TIP3   OH225910   0.151   6.803   3.438
 8656TIP3    H125911   0.169   6.711   3.458
 8656TIP3    H225912   0.224   6.851   3.477
 8657TIP3   OH225913   6.141   0.473   1.101
 8657TIP3    H125914   6.064   0.486   1.045
 8657TIP3    H225915   6.201   0.423   1.046
 8658TIP3   OH225916   5.765   5.701   5.407
 8658TIP3    H125917   5.847   5.670   5.445
 8658TIP3    H225918   5.710   5.724   5.482
 8659TIP3   OH225919   6.433   3.754   0.717
 8659TIP3    H125920   6.388   3.838   0.710
 8659TIP3    H225921   6.372   3.698   0.765
 8660TIP3   OH225922   4.807   1.928   2.744
 8660TIP3    H125923   4.713   1.932   2.724
 8660TIP3    H225924   4.813   1.960   2.834
 8661TIP3   OH225925   2.936   7.509   6.720
 8661TIP3    H125926   2.939   7.440   6.786
 8661TIP3    H225927   2.844   7.535   6.716
 8662TIP3   OH225928   5.697   6.840   4.301
 8662TIP3    H125929   5.636   6.802   4.364
 8662TIP3    H225930   5.644   6.905   4.254
 8663TIP3   OH225931   6.052   4.005   0.978
 8663TIP3    H125932   6.065   3.985   0.886
 8663TIP3    H225933   6.056   3.920   1.022
 8664TIP3   OH225934   6.708   3.901   1.614
 8664TIP3    H125935   6.766   3.837   1.573
 8664TIP3    H225936   6.681   3.860   1.696
 8665TIP3   OH225937   3.243   1.506   6.356
 8665TIP3    H125938   3.308   1.542   6.296
 8665TIP3    H225939   3.161   1.549   6.332
 8666TIP3   OH225940   3.114   2.839   2.284
 8666TIP3    H125941   3.020   2.846   2.302
 8666TIP3    H225942   3.133   2.746   2.295
 8667TIP3   OH225943   7.758   3.823   2.277
 8667TIP3    H125944   7.762   3.900   2.220
 8667TIP3    H225945   7.839   3.776   2.261
 8668TIP3   OH225946   7.835   3.222   4.482
 8668TIP3    H125947   7.845   3.313   4.455
 8668TIP3    H225948   7.859   3.171   4.404
 8669TIP3   OH225949   4.515   5.271   5.313
 8669TIP3    H125950   4.482   5.289   5.225
 8669TIP3    H225951   4.480   5.342   5.367
 8670TIP3   OH225952   4.865   3.953   1.855
 8670TIP3    H125953   4.777   3.977   1.827
 8670TIP3    H225954   4.913   4.036   1.858
 8671TIP3   OH225955   3.907   5.550   1.264
 8671TIP3    H125956   3.965   5.560   1.340
 8671TIP3    H225957   3.888   5.640   1.236
 8672TIP3   OH225958   1.486   0.392   1.271
 8672TIP3    H125959   1.475   0.315   1.326
 8672TIP3    H225960   1.405   0.442   1.283
 8673TIP3   OH225961   6.050   0.302   6.758
 8673TIP3    H125962   6.126   0.330   6.707
 8673TIP3    H225963   6.085   0.238   6.820
 8674TIP3   OH225964   7.340   0.580   0.238
 8674TIP3    H125965   7.277   0.520   0.278
 8674TIP3    H225966   7.402   0.600   0.309
 8675TIP3   OH225967   4.311   7.209   0.246
 8675TIP3    H125968   4.291   7.117   0.265
 8675TIP3    H225969   4.264   7.227   0.164
 8676TIP3   OH225970   1.717   2.314   0.452
 8676TIP3    H125971   1.691   2.340   0.363
 8676TIP3    H225972   1.812   2.330   0.455
 8677TIP3   OH225973   4.192   1.066   0.953
 8677TIP3    H125974   4.270   1.085   1.005
 8677TIP3    H225975   4.120   1.109   1.000
 8678TIP3   OH225976   5.566   1.319   1.565
 8678TIP3    H125977   5.534   1.292   1.651
 8678TIP3    H225978   5.658   1.292   1.564
 8679TIP3   OH225979   7.639   4.767   5.039
 8679TIP3    H125980   7.595   4.741   4.957
 8679TIP3    H225981   7.703   4.698   5.054
 8680TIP3   OH225982   2.161   3.248   4.750
 8680TIP3    H125983   2.201   3.334   4.739
 8680TIP3    H225984   2.236   3.187   4.748
 8681TIP3   OH225985   0.785   5.857   3.978
 8681TIP3    H125986   0.769   5.951   3.974
 8681TIP3    H225987   0.873   5.849   4.016
 8682TIP3   OH225988   2.533   4.318   4.246
 8682TIP3    H125989   2.544   4.370   4.166
 8682TIP3    H225990   2.619   4.279   4.260
 8683TIP3   OH225991   0.239   1.780   5.067
 8683TIP3    H125992   0.150   1.760   5.037
 8683TIP3    H225993   0.296   1.733   5.006
 8684TIP3   OH225994   2.772   4.893   0.642
 8684TIP3    H125995   2.809   4.941   0.716
 8684TIP3    H225996   2.708   4.954   0.604
 8685TIP3   OH225997   4.933   0.390   5.478
 8685TIP3    H125998   4.862   0.384   5.541
 8685TIP3    H225999   4.981   0.308   5.487
 8686TIP3   OH226000   2.017   2.284   3.265
 8686TIP3    H126001   2.076   2.314   3.195
 8686TIP3    H226002   2.068   2.296   3.346
 8687TIP3   OH226003   5.292   6.893   2.528
 8687TIP3    H126004   5.287   6.966   2.589
 8687TIP3    H226005   5.342   6.826   2.574
 8688TIP3   OH226006   0.174   3.409   6.316
 8688TIP3    H126007   0.143   3.488   6.361
 8688TIP3    H226008   0.135   3.414   6.229
 8689TIP3   OH226009   7.159   1.763   2.439
 8689TIP3    H126010   7.228   1.810   2.392
 8689TIP3    H226011   7.206   1.699   2.493
 8690TIP3   OH226012   5.319   5.564   5.866
 8690TIP3    H126013   5.273   5.503   5.924
 8690TIP3    H226014   5.250   5.604   5.813
 8691TIP3   OH226015   4.175   4.510   1.745
 8691TIP3    H126016   4.110   4.544   1.806
 8691TIP3    H226017   4.238   4.464   1.800
 8692TIP3   OH226018   6.099   1.222   4.705
 8692TIP3    H126019   6.031   1.290   4.703
 8692TIP3    H226020   6.064   1.153   4.649
 8693TIP3   OH226021   2.182   1.663   3.138
 8693TIP3    H126022   2.171   1.738   3.079
 8693TIP3    H226023   2.270   1.632   3.121
 8694TIP3   OH226024   8.026   2.418   5.971
 8694TIP3    H126025   8.081   2.341   5.985
 8694TIP3    H226026   8.035   2.469   6.051
 8695TIP3   OH226027   0.952   2.860   6.781
 8695TIP3    H126028   0.910   2.919   6.844
 8695TIP3    H226029   1.026   2.910   6.746
 8696TIP3   OH226030   1.243   1.205   5.814
 8696TIP3    H126031   1.251   1.231   5.723
 8696TIP3    H226032   1.148   1.205   5.831
 8697TIP3   OH226033   5.722   2.747   2.639
 8697TIP3    H126034   5.806   2.713   2.607
 8697TIP3    H226035   5.686   2.795   2.564
 8698TIP3   OH226036   1.980   6.863   1.082
 8698TIP3    H126037   1.912   6.806   1.047
 8698TIP3    H226038   1.966   6.861   1.177
 8699TIP3   OH226039   6.290   6.113   1.378
 8699TIP3    H126040   6.228   6.045   1.349
 8699TIP3    H226041   6.293   6.175   1.306
 8700TIP3   OH226042   4.802   4.571   2.588
 8700TIP3    H126043   4.742   4.613   2.649
 8700TIP3    H226044   4.780   4.610   2.503
 8701TIP3   OH226045   3.755   7.289   1.725
 8701TIP3    H126046   3.746   7.200   1.760
 8701TIP3    H226047   3.849   7.300   1.712
 8702TIP3   OH226048   0.510   3.856   3.320
 8702TIP3    H126049   0.463   3.835   3.400
 8702TIP3    H226050   0.585   3.796   3.319
 8703TIP3   OH226051   5.920   2.290   2.717
 8703TIP3    H126052   5.850   2.350   2.694
 8703TIP3    H226053   5.905   2.268   2.809
 8704TIP3   OH226054   2.726   6.970   4.121
 8704TIP3    H126055   2.801   6.985   4.064
 8704TIP3    H226056   2.732   7.039   4.188
 8705TIP3   OH226057   4.676   1.032   5.813
 8705TIP3    H126058   4.709   0.983   5.738
 8705TIP3    H226059   4.581   1.034   5.801
 8706TIP3   OH226060   1.717   4.663   0.592
 8706TIP3    H126061   1.722   4.568   0.596
 8706TIP3    H226062   1.626   4.681   0.566
 8707TIP3   OH226063   3.909   2.256   3.228
 8707TIP3    H126064   3.858   2.290   3.302
 8707TIP3    H226065   3.917   2.163   3.246
 8708TIP3   OH226066   2.919   1.312   4.528
 8708TIP3    H126067   2.867   1.232   4.521
 8708TIP3    H226068   2.911   1.353   4.442
 8709TIP3   OH226069   2.023   4.122   5.993
 8709TIP3    H126070   1.985   4.093   6.076
 8709TIP3    H226071   2.105   4.164   6.017
 8710TIP3   OH226072   6.986   3.677   3.910
 8710TIP3    H126073   7.017   3.588   3.895
 8710TIP3    H226074   7.042   3.732   3.855
 8711TIP3   OH226075   1.007   7.673   4.424
 8711TIP3    H126076   1.030   7.587   4.461
 8711TIP3    H226077   1.016   7.733   4.498
 8712TIP3   OH226078   0.590   3.729   5.026
 8712TIP3    H126079   0.526   3.793   4.994
 8712TIP3    H226080   0.673   3.756   4.987
 8713TIP3   OH226081   1.132   4.129   5.467
 8713TIP3    H126082   1.163   4.196   5.407
 8713TIP3    H226083   1.081   4.069   5.413
 8714TIP3   OH226084   2.045   0.214   3.849
 8714TIP3    H126085   2.088   0.146   3.902
 8714TIP3    H226086   2.059   0.295   3.899
 8715TIP3   OH226087   1.960   1.754   6.101
 8715TIP3    H126088   1.880   1.723   6.142
 8715TIP3    H226089   2.009   1.796   6.172
 8716TIP3   OH226090   2.994   2.714   3.246
 8716TIP3    H126091   2.930   2.774   3.284
 8716TIP3    H226092   3.072   2.768   3.234
 8717TIP3   OH226093   4.774   3.326   6.588
 8717TIP3    H126094   4.848   3.270   6.609
 8717TIP3    H226095   4.698   3.267   6.590
 8718TIP3   OH226096   2.572   3.057   3.545
 8718TIP3    H126097   2.543   3.128   3.487
 8718TIP3    H226098   2.659   3.084   3.573
 8719TIP3   OH226099   5.786   2.461   5.281
 8719TIP3    H126100   5.765   2.378   5.324
 8719TIP3    H226101   5.849   2.504   5.339
 8720TIP3   OH226102   0.511   1.352   5.325
 8720TIP3    H126103   0.579   1.346   5.258
 8720TIP3    H226104   0.559   1.366   5.407
 8721TIP3   OH226105   4.195   5.606   3.551
 8721TIP3    H126106   4.188   5.676   3.486
 8721TIP3    H226107   4.176   5.649   3.634
 8722TIP3   OH226108   6.455   1.079   4.933
 8722TIP3    H126109   6.510   1.107   4.861
 8722TIP3    H226110   6.448   0.984   4.923
 8723TIP3   OH226111   0.391   1.458   2.846
 8723TIP3    H126112   0.317   1.409   2.811
 8723TIP3    H226113   0.458   1.391   2.863
 8724TIP3   OH226114   2.239   0.252   0.372
 8724TIP3    H126115   2.192   0.286   0.448
 8724TIP3    H226116   2.213   0.309   0.300
 8725TIP3   OH226117   0.498   3.787   4.658
 8725TIP3    H126118   0.547   3.746   4.729
 8725TIP3    H226119   0.424   3.728   4.642
 8726TIP3   OH226120   4.676   6.626   3.763
 8726TIP3    H126121   4.604   6.686   3.746
 8726TIP3    H226122   4.703   6.596   3.676
 8727TIP3   OH226123   2.680   4.816   2.537
 8727TIP3    H126124   2.699   4.852   2.450
 8727TIP3    H226125   2.702   4.724   2.530
 8728TIP3   OH226126   4.159   0.165   4.770
 8728TIP3    H126127   4.096   0.096   4.790
 8728TIP3    H226128   4.152   0.226   4.843
 8729TIP3   OH226129   3.452   6.445   4.708
 8729TIP3    H126130   3.516   6.375   4.727
 8729TIP3    H226131   3.385   6.434   4.776
 8730TIP3   OH226132   5.101   2.388   0.617
 8730TIP3    H126133   5.175   2.448   0.612
 8730TIP3    H226134   5.139   2.301   0.608
 8731TIP3   OH226135   6.438   4.396   3.400
 8731TIP3    H126136   6.511   4.454   3.377
 8731TIP3    H226137   6.450   4.377   3.493
 8732TIP3   OH226138   7.792   0.927   1.716
 8732TIP3    H126139   7.838   0.848   1.743
 8732TIP3    H226140   7.831   0.950   1.632
 8733TIP3   OH226141   7.325   1.040   0.800
 8733TIP3    H126142   7.394   1.083   0.748
 8733TIP3    H226143   7.283   1.112   0.848
 8734TIP3   OH226144   2.754   1.563   0.504
 8734TIP3    H126145   2.747   1.484   0.558
 8734TIP3    H226146   2.716   1.538   0.420
 8735TIP3   OH226147   5.029   6.985   3.211
 8735TIP3    H126148   5.038   6.907   3.266
 8735TIP3    H226149   5.118   7.019   3.203
 8736TIP3   OH226150   1.963   4.432   5.373
 8736TIP3    H126151   1.923   4.407   5.456
 8736TIP3    H226152   2.001   4.351   5.339
 8737TIP3   OH226153   6.647   3.864   6.439
 8737TIP3    H126154   6.718   3.925   6.458
 8737TIP3    H226155   6.586   3.915   6.385
 8738TIP3   OH226156   6.150   1.008   4.872
 8738TIP3    H126157   6.224   0.987   4.929
 8738TIP3    H226158   6.166   1.098   4.845
 8739TIP3   OH226159   6.061   1.793   3.227
 8739TIP3    H126160   5.990   1.793   3.291
 8739TIP3    H226161   6.137   1.760   3.276
 8740TIP3   OH226162   1.946   3.281   6.050
 8740TIP3    H126163   1.904   3.195   6.054
 8740TIP3    H226164   1.952   3.301   5.957
 8741TIP3   OH226165   6.481   4.090   1.966
 8741TIP3    H126166   6.389   4.079   1.943
 8741TIP3    H226167   6.481   4.157   2.034
 8742TIP3   OH226168   5.104   2.224   4.087
 8742TIP3    H126169   5.170   2.289   4.061
 8742TIP3    H226170   5.021   2.264   4.062
 8743TIP3   OH226171   2.486   5.036   5.441
 8743TIP3    H126172   2.511   5.127   5.458
 8743TIP3    H226173   2.393   5.033   5.463
 8744TIP3   OH226174   1.322   0.236   6.437
 8744TIP3    H126175   1.293   0.149   6.462
 8744TIP3    H226176   1.361   0.225   6.351
 8745TIP3   OH226177   1.743   2.306   6.308
 8745TIP3    H126178   1.765   2.216   6.282
 8745TIP3    H226179   1.722   2.300   6.401
 8746TIP3   OH226180   5.697   4.474   6.294
 8746TIP3    H126181   5.678   4.393   6.341
 8746TIP3    H226182   5.749   4.446   6.219
 8747TIP3   OH226183   2.666   4.916   4.560
 8747TIP3    H126184   2.648   5.003   4.596
 8747TIP3    H226185   2.681   4.931   4.467
 8748TIP3   OH226186   1.375   4.506   0.180
 8748TIP3    H126187   1.327   4.556   0.115
 8748TIP3    H226188   1.445   4.462   0.131
 8749TIP3   OH226189   3.954   3.447   4.672
 8749TIP3    H126190   3.907   3.466   4.590
 8749TIP3    H226191   3.944   3.527   4.724
 8750TIP3   OH226192   3.965   3.853   3.061
 8750TIP3    H126193   4.011   3.935   3.046
 8750TIP3    H226194   3.880   3.864   3.017
 8751TIP3   OH226195   4.307   5.308   1.465
 8751TIP3    H126196   4.370   5.238   1.483
 8751TIP3    H226197   4.231   5.263   1.429
 8752TIP3   OH226198   4.213   0.865   3.455
 8752TIP3    H126199   4.285   0.817   3.417
 8752TIP3    H226200   4.214   0.841   3.548
 8753TIP3   OH226201   6.194   5.544   4.621
 8753TIP3    H126202   6.191   5.639   4.614
 8753TIP3    H226203   6.283   5.525   4.650
 8754TIP3   OH226204   6.117   5.616   3.823
 8754TIP3    H126205   6.146   5.708   3.825
 8754TIP3    H226206   6.103   5.598   3.730
 8755TIP3   OH226207   6.077   3.166   3.152
 8755TIP3    H126208   5.984   3.145   3.140
 8755TIP3    H226209   6.113   3.091   3.199
 8756TIP3   OH226210   2.332   4.934   3.436
 8756TIP3    H126211   2.404   4.976   3.484
 8756TIP3    H226212   2.364   4.926   3.347
 8757TIP3   OH226213   1.595   2.411   3.729
 8757TIP3    H126214   1.663   2.458   3.778
 8757TIP3    H226215   1.638   2.381   3.650
 8758TIP3   OH226216   4.915   7.600   4.131
 8758TIP3    H126217   4.955   7.608   4.044
 8758TIP3    H226218   4.989   7.599   4.192
 8759TIP3   OH226219   6.704   1.623   1.020
 8759TIP3    H126220   6.737   1.571   0.947
 8759TIP3    H226221   6.632   1.571   1.055
 8760TIP3   OH226222   7.605   1.631   5.534
 8760TIP3    H126223   7.560   1.649   5.616
 8760TIP3    H226224   7.689   1.596   5.560
 8761TIP3   OH226225   1.819   0.904   6.197
 8761TIP3    H126226   1.833   0.810   6.200
 8761TIP3    H226227   1.758   0.917   6.124
 8762TIP3   OH226228   8.138   2.601   4.945
 8762TIP3    H126229   8.058   2.632   4.903
 8762TIP3    H226230   8.202   2.671   4.930
 8763TIP3   OH226231   5.255   3.925   1.264
 8763TIP3    H126232   5.214   3.838   1.263
 8763TIP3    H226233   5.183   3.986   1.280
 8764TIP3   OH226234   6.533   2.088   2.035
 8764TIP3    H126235   6.612   2.056   2.079
 8764TIP3    H226236   6.463   2.076   2.099
 8765TIP3   OH226237   8.047   7.783   5.526
 8765TIP3    H126238   8.095   7.863   5.546
 8765TIP3    H226239   8.113   7.725   5.486
 8766TIP3   OH226240   0.170   3.468   5.607
 8766TIP3    H126241   0.176   3.430   5.695
 8766TIP3    H226242   0.082   3.507   5.605
 8767TIP3   OH226243   4.397   4.051   5.644
 8767TIP3    H126244   4.441   4.028   5.562
 8767TIP3    H226245   4.450   4.122   5.680
 8768TIP3   OH226246   0.630   1.733   5.787
 8768TIP3    H126247   0.723   1.711   5.795
 8768TIP3    H226248   0.589   1.694   5.865
 8769TIP3   OH226249   6.503   0.667   6.392
 8769TIP3    H126250   6.418   0.626   6.375
 8769TIP3    H226251   6.493   0.757   6.361
 8770TIP3   OH226252   5.983   3.009   5.446
 8770TIP3    H126253   6.060   2.968   5.407
 8770TIP3    H226254   5.912   2.992   5.384
 8771TIP3   OH226255   2.880   1.812   6.454
 8771TIP3    H126256   2.836   1.818   6.539
 8771TIP3    H226257   2.940   1.887   6.452
 8772TIP3   OH226258   5.100   5.786   6.676
 8772TIP3    H126259   5.056   5.786   6.761
 8772TIP3    H226260   5.032   5.763   6.613
 8773TIP3   OH226261   2.733   2.525   3.455
 8773TIP3    H126262   2.755   2.496   3.543
 8773TIP3    H226263   2.711   2.617   3.465
 8774TIP3   OH226264   4.475   3.745   3.373
 8774TIP3    H126265   4.527   3.721   3.297
 8774TIP3    H226266   4.474   3.665   3.427
 8775TIP3   OH226267   5.578   1.608   4.473
 8775TIP3    H126268   5.513   1.542   4.448
 8775TIP3    H226269   5.591   1.596   4.567
 8776TIP3   OH226270   4.193   1.986   1.831
 8776TIP3    H126271   4.173   2.031   1.913
 8776TIP3    H226272   4.231   1.902   1.858
 8777TIP3   OH226273   6.667   2.078   3.356
 8777TIP3    H126274   6.621   2.158   3.330
 8777TIP3    H226275   6.753   2.108   3.386
 8778TIP3   OH226276   5.094   3.652   3.810
 8778TIP3    H126277   5.135   3.637   3.895
 8778TIP3    H226278   5.002   3.630   3.824
 8779TIP3   OH226279   2.214   0.413   2.828
 8779TIP3    H126280   2.213   0.504   2.799
 8779TIP3    H226281   2.131   0.400   2.873
 8780TIP3   OH226282   0.792   4.103   3.903
 8780TIP3    H126283   0.767   4.116   3.994
 8780TIP3    H226284   0.725   4.151   3.853
 8781TIP3   OH226285   2.787   5.369   4.297
 8781TIP3    H126286   2.808   5.383   4.389
 8781TIP3    H226287   2.692   5.353   4.296
 8782TIP3   OH226288   0.825   6.123   3.862
 8782TIP3    H126289   0.855   6.179   3.933
 8782TIP3    H226290   0.838   6.175   3.783
 8783TIP3   OH226291   8.279   4.817   0.112
 8783TIP3    H126292   8.210   4.772   0.162
 8783TIP3    H226293   8.256   4.802   0.021
 8784TIP3   OH226294   0.359   2.849   3.959
 8784TIP3    H126295   0.365   2.944   3.963
 8784TIP3    H226296   0.291   2.826   4.022
 8785TIP3   OH226297   1.299   4.070   1.164
 8785TIP3    H126298   1.258   4.106   1.085
 8785TIP3    H226299   1.315   4.146   1.220
 8786TIP3   OH226300   1.785   0.993   6.726
 8786TIP3    H126301   1.775   0.984   6.632
 8786TIP3    H226302   1.876   0.970   6.743
 8787TIP3   OH226303   7.568   2.095   1.299
 8787TIP3    H126304   7.497   2.031   1.311
 8787TIP3    H226305   7.553   2.132   1.213
 8788TIP3   OH226306   2.253   5.060   0.161
 8788TIP3    H126307   2.172   5.041   0.208
 8788TIP3    H226308   2.302   5.118   0.220
 8789TIP3   OH226309   7.950   7.550   1.229
 8789TIP3    H126310   7.906   7.550   1.314
 8789TIP3    H226311   7.901   7.487   1.177
 8790TIP3   OH226312   5.118   5.393   4.832
 8790TIP3    H126313   5.095   5.304   4.803
 8790TIP3    H226314   5.080   5.450   4.765
 8791TIP3   OH226315   5.597   3.486   5.109
 8791TIP3    H126316   5.506   3.508   5.090
 8791TIP3    H226317   5.645   3.512   5.030
 8792TIP3   OH226318   7.860   1.046   6.294
 8792TIP3    H126319   7.868   1.139   6.315
 8792TIP3    H226320   7.847   1.003   6.378
 8793TIP3   OH226321   1.080   1.477   4.360
 8793TIP3    H126322   1.075   1.570   4.338
 8793TIP3    H226323   1.066   1.432   4.276
 8794TIP3   OH226324   5.203   2.481   6.405
 8794TIP3    H126325   5.257   2.446   6.334
 8794TIP3    H226326   5.212   2.417   6.476
 8795TIP3   OH226327   5.714   4.346   5.960
 8795TIP3    H126328   5.795   4.388   5.989
 8795TIP3    H226329   5.691   4.285   6.030
 8796TIP3   OH226330   2.162   4.462   5.027
 8796TIP3    H126331   2.245   4.488   5.068
 8796TIP3    H226332   2.176   4.372   4.998
 8797TIP3   OH226333   4.504   2.743   5.923
 8797TIP3    H126334   4.420   2.770   5.885
 8797TIP3    H226335   4.509   2.649   5.906
 8798TIP3   OH226336   8.097   2.788   2.872
 8798TIP3    H126337   8.040   2.857   2.838
 8798TIP3    H226338   8.052   2.755   2.950
 8799TIP3   OH226339   2.592   1.907   1.964
 8799TIP3    H126340   2.542   1.980   1.927
 8799TIP3    H226341   2.668   1.948   2.005
 8800TIP3   OH226342   4.291   6.373   4.357
 8800TIP3    H126343   4.199   6.397   4.347
 8800TIP3    H226344   4.290   6.277   4.354
 8801TIP3   OH226345   7.275   7.634   4.263
 8801TIP3    H126346   7.250   7.627   4.355
 8801TIP3    H226347   7.199   7.598   4.215
 8802TIP3   OH226348   6.888   6.609   5.434
 8802TIP3    H126349   6.975   6.598   5.473
 8802TIP3    H226350   6.879   6.703   5.421
 8803TIP3   OH226351   3.613   2.154   3.932
 8803TIP3    H126352   3.708   2.148   3.941
 8803TIP3    H226353   3.580   2.131   4.018
 8804TIP3   OH226354   6.145   4.772   4.174
 8804TIP3    H126355   6.175   4.854   4.133
 8804TIP3    H226356   6.215   4.710   4.155
 8805TIP3   OH226357   3.703   3.833   6.082
 8805TIP3    H126358   3.613   3.814   6.054
 8805TIP3    H226359   3.747   3.864   6.004
 8806TIP3   OH226360   4.683   1.539   5.572
 8806TIP3    H126361   4.691   1.617   5.517
 8806TIP3    H226362   4.595   1.544   5.609
 8807TIP3   OH226363   6.095   1.802   5.917
 8807TIP3    H126364   6.124   1.762   5.835
 8807TIP3    H226365   6.004   1.828   5.901
 8808TIP3   OH226366   4.593   1.490   6.764
 8808TIP3    H126367   4.620   1.567   6.715
 8808TIP3    H226368   4.588   1.520   6.855
 8809TIP3   OH226369   6.145   6.698   1.959
 8809TIP3    H126370   6.207   6.751   1.910
 8809TIP3    H226371   6.182   6.692   2.047
 8810TIP3   OH226372   1.294   7.154   6.614
 8810TIP3    H126373   1.320   7.149   6.522
 8810TIP3    H226374   1.365   7.109   6.661
 8811TIP3   OH226375   6.632   0.453   1.552
 8811TIP3    H126376   6.574   0.457   1.476
 8811TIP3    H226377   6.604   0.376   1.601
 8812TIP3   OH226378   5.065   1.553   5.041
 8812TIP3    H126379   5.083   1.627   5.100
 8812TIP3    H226380   5.079   1.475   5.095
 8813TIP3   OH226381   2.326   0.627   6.008
 8813TIP3    H126382   2.265   0.597   6.075
 8813TIP3    H226383   2.273   0.633   5.928
 8814TIP3   OH226384   7.085   5.812   5.976
 8814TIP3    H126385   7.033   5.837   5.900
 8814TIP3    H226386   7.054   5.868   6.047
 8815TIP3   OH226387   4.276   5.541   0.377
 8815TIP3    H126388   4.286   5.569   0.468
 8815TIP3    H226389   4.279   5.622   0.327
 8816TIP3   OH226390   6.694   0.936   0.113
 8816TIP3    H126391   6.685   0.909   0.205
 8816TIP3    H226392   6.617   0.899   0.070
 8817TIP3   OH226393   7.476   0.706   4.347
 8817TIP3    H126394   7.551   0.763   4.366
 8817TIP3    H226395   7.510   0.617   4.361
 8818TIP3   OH226396   5.613   0.861   1.357
 8818TIP3    H126397   5.629   0.955   1.344
 8818TIP3    H226398   5.531   0.845   1.310
 8819TIP3   OH226399   5.341   3.509   3.597
 8819TIP3    H126400   5.309   3.427   3.634
 8819TIP3    H226401   5.320   3.503   3.503
 8820TIP3   OH226402   3.898   3.432   2.635
 8820TIP3    H126403   3.865   3.355   2.590
 8820TIP3    H226404   3.825   3.463   2.689
 8821TIP3   OH226405   3.798   0.460   0.306
 8821TIP3    H126406   3.724   0.440   0.248
 8821TIP3    H226407   3.811   0.380   0.357
 8822TIP3   OH226408   7.189   5.672   2.521
 8822TIP3    H126409   7.283   5.674   2.500
 8822TIP3    H226410   7.161   5.584   2.496
 8823TIP3   OH226411   1.944   2.475   0.708
 8823TIP3    H126412   1.850   2.462   0.694
 8823TIP3    H226413   1.964   2.418   0.783
 8824TIP3   OH226414   7.375   6.445   1.411
 8824TIP3    H126415   7.392   6.520   1.354
 8824TIP3    H226416   7.387   6.369   1.354
 8825TIP3   OH226417   2.640   7.724   6.608
 8825TIP3    H126418   2.684   7.807   6.590
 8825TIP3    H226419   2.555   7.731   6.563
 8826TIP3   OH226420   1.525   7.702   1.076
 8826TIP3    H126421   1.546   7.680   0.985
 8826TIP3    H226422   1.559   7.628   1.126
 8827TIP3   OH226423   2.171   4.999   0.756
 8827TIP3    H126424   2.203   4.983   0.667
 8827TIP3    H226425   2.208   4.928   0.808
 8828TIP3   OH226426   1.348   6.712   3.034
 8828TIP3    H126427   1.391   6.776   2.978
 8828TIP3    H226428   1.327   6.760   3.114
 8829TIP3   OH226429   7.010   1.855   3.238
 8829TIP3    H126430   7.011   1.770   3.282
 8829TIP3    H226431   6.921   1.862   3.201
 8830TIP3   OH226432   7.508   2.128   3.511
 8830TIP3    H126433   7.471   2.073   3.579
 8830TIP3    H226434   7.602   2.126   3.526
 8831TIP3   OH226435   6.710   7.212   1.682
 8831TIP3    H126436   6.719   7.212   1.778
 8831TIP3    H226437   6.620   7.182   1.667
 8832TIP3   OH226438   7.764   7.544   3.541
 8832TIP3    H126439   7.833   7.575   3.599
 8832TIP3    H226440   7.761   7.450   3.554
 8833TIP3   OH226441   6.990   3.140   0.116
 8833TIP3    H126442   7.053   3.075   0.085
 8833TIP3    H226443   6.909   3.091   0.128
 8834TIP3   OH226444   0.450   1.216   5.868
 8834TIP3    H126445   0.419   1.292   5.917
 8834TIP3    H226446   0.432   1.238   5.776
 8835TIP3   OH226447   0.953   3.065   2.957
 8835TIP3    H126448   1.035   3.040   2.999
 8835TIP3    H226449   0.934   3.153   2.991
 8836TIP3   OH226450   3.006   6.262   3.880
 8836TIP3    H126451   2.941   6.196   3.854
 8836TIP3    H226452   3.056   6.221   3.950
 8837TIP3   OH226453   1.145   5.789   3.534
 8837TIP3    H126454   1.157   5.825   3.622
 8837TIP3    H226455   1.173   5.698   3.541
 8838TIP3   OH226456   0.377   4.937   6.260
 8838TIP3    H126457   0.321   5.013   6.269
 8838TIP3    H226458   0.366   4.910   6.169
 8839TIP3   OH226459   5.352   6.353   4.188
 8839TIP3    H126460   5.428   6.408   4.171
 8839TIP3    H226461   5.380   6.296   4.260
 8840TIP3   OH226462   2.007   3.877   0.513
 8840TIP3    H126463   2.068   3.939   0.474
 8840TIP3    H226464   1.930   3.880   0.456
 8841TIP3   OH226465   4.072   7.595   2.816
 8841TIP3    H126466   4.066   7.499   2.813
 8841TIP3    H226467   4.151   7.613   2.866
 8842TIP3   OH226468   5.296   3.679   2.152
 8842TIP3    H126469   5.244   3.757   2.133
 8842TIP3    H226470   5.254   3.640   2.228
 8843TIP3   OH226471   0.683   6.995   2.172
 8843TIP3    H126472   0.747   6.930   2.142
 8843TIP3    H226473   0.655   6.964   2.258
 8844TIP3   OH226474   0.200   4.578   5.877
 8844TIP3    H126475   0.177   4.516   5.807
 8844TIP3    H226476   0.228   4.657   5.831
 8845TIP3   OH226477   7.592   1.768   1.074
 8845TIP3    H126478   7.685   1.793   1.078
 8845TIP3    H226479   7.556   1.796   1.158
 8846TIP3   OH226480   5.055   0.812   3.929
 8846TIP3    H126481   5.009   0.760   3.995
 8846TIP3    H226482   4.986   0.852   3.877
 8847TIP3   OH226483   8.230   4.993   1.123
 8847TIP3    H126484   8.307   4.939   1.140
 8847TIP3    H226485   8.159   4.948   1.168
 8848TIP3   OH226486   3.923   1.589   5.136
 8848TIP3    H126487   3.869   1.649   5.187
 8848TIP3    H226488   3.881   1.586   5.050
 8849TIP3   OH226489   7.342   6.530   5.459
 8849TIP3    H126490   7.379   6.603   5.410
 8849TIP3    H226491   7.405   6.515   5.530
 8850TIP3   OH226492   7.299   2.131   2.076
 8850TIP3    H126493   7.379   2.183   2.068
 8850TIP3    H226494   7.287   2.119   2.171
 8851TIP3   OH226495   1.491   1.336   5.908
 8851TIP3    H126496   1.402   1.302   5.895
 8851TIP3    H226497   1.520   1.361   5.821
 8852TIP3   OH226498   3.187   4.417   1.985
 8852TIP3    H126499   3.154   4.415   2.074
 8852TIP3    H226500   3.121   4.369   1.934
 8853TIP3   OH226501   2.505   1.188   4.792
 8853TIP3    H126502   2.531   1.280   4.797
 8853TIP3    H226503   2.553   1.153   4.717
 8854TIP3   OH226504   4.339   0.046   2.112
 8854TIP3    H126505   4.276   0.097   2.163
 8854TIP3    H226506   4.350   0.096   2.031
 8855TIP3   OH226507   7.124   3.252   1.956
 8855TIP3    H126508   7.115   3.252   1.860
 8855TIP3    H226509   7.164   3.337   1.975
 8856TIP3   OH226510   3.685   7.466   5.466
 8856TIP3    H126511   3.701   7.378   5.432
 8856TIP3    H226512   3.607   7.496   5.419
 8857TIP3   OH226513   7.715   2.781   0.589
 8857TIP3    H126514   7.746   2.718   0.654
 8857TIP3    H226515   7.684   2.855   0.640
 8858TIP3   OH226516   0.339   3.721   5.607
 8858TIP3    H126517   0.430   3.717   5.577
 8858TIP3    H226518   0.302   3.637   5.582
 8859TIP3   OH226519   5.470   6.056   3.662
 8859TIP3    H126520   5.426   6.004   3.730
 8859TIP3    H226521   5.482   5.996   3.589
 8860TIP3   OH226522   5.559   2.066   2.934
 8860TIP3    H126523   5.535   2.056   3.026
 8860TIP3    H226524   5.654   2.058   2.933
 8861TIP3   OH226525   0.988   6.203   6.558
 8861TIP3    H126526   1.063   6.255   6.531
 8861TIP3    H226527   0.948   6.173   6.476
 8862TIP3   OH226528   3.025   7.200   4.527
 8862TIP3    H126529   3.089   7.175   4.593
 8862TIP3    H226530   3.074   7.199   4.445
 8863TIP3   OH226531   0.678   3.565   3.001
 8863TIP3    H126532   0.633   3.531   2.923
 8863TIP3    H226533   0.770   3.566   2.976
 8864TIP3   OH226534   6.998   4.326   2.921
 8864TIP3    H126535   7.060   4.311   2.993
 8864TIP3    H226536   7.022   4.411   2.886
 8865TIP3   OH226537   6.431   4.939   6.003
 8865TIP3    H126538   6.408   4.970   6.090
 8865TIP3    H226539   6.356   4.887   5.975
 8866TIP3   OH226540   7.340   1.628   0.272
 8866TIP3    H126541   7.274   1.588   0.328
 8866TIP3    H226542   7.416   1.639   0.328
 8867TIP3   OH226543   2.736   4.554   3.558
 8867TIP3    H126544   2.780   4.639   3.549
 8867TIP3    H226545   2.805   4.493   3.583
 8868TIP3   OH226546   6.186   1.756   3.648
 8868TIP3    H126547   6.247   1.829   3.663
 8868TIP3    H226548   6.113   1.773   3.707
 8869TIP3   OH226549   1.460   5.732   0.241
 8869TIP3    H126550   1.476   5.700   0.330
 8869TIP3    H226551   1.522   5.684   0.186
 8870TIP3   OH226552   1.683   4.929   5.919
 8870TIP3    H126553   1.623   4.916   5.845
 8870TIP3    H226554   1.766   4.951   5.878
 8871TIP3   OH226555   4.725   3.385   4.226
 8871TIP3    H126556   4.805   3.391   4.174
 8871TIP3    H226557   4.744   3.318   4.292
 8872TIP3   OH226558   4.459   6.367   5.210
 8872TIP3    H126559   4.496   6.424   5.143
 8872TIP3    H226560   4.388   6.320   5.166
 8873TIP3   OH226561   2.232   4.544   4.662
 8873TIP3    H126562   2.137   4.557   4.658
 8873TIP3    H226563   2.256   4.520   4.572
 8874TIP3   OH226564   3.159   2.027   3.406
 8874TIP3    H126565   3.124   1.956   3.460
 8874TIP3    H226566   3.163   2.102   3.465
 8875TIP3   OH226567   7.743   2.104   2.607
 8875TIP3    H126568   7.678   2.159   2.651
 8875TIP3    H226569   7.713   2.099   2.516
 8876TIP3   OH226570   3.233   5.669   6.481
 8876TIP3    H126571   3.140   5.652   6.461
 8876TIP3    H226572   3.267   5.584   6.508
 8877TIP3   OH226573   3.466   2.723   0.554
 8877TIP3    H126574   3.488   2.778   0.478
 8877TIP3    H226575   3.407   2.777   0.606
 8878TIP3   OH226576   3.810   0.365   6.570
 8878TIP3    H126577   3.868   0.356   6.495
 8878TIP3    H226578   3.805   0.460   6.585
 8879TIP3   OH226579   6.791   7.686   4.093
 8879TIP3    H126580   6.882   7.674   4.064
 8879TIP3    H226581   6.796   7.688   4.188
 8880TIP3   OH226582   3.837   0.678   0.761
 8880TIP3    H126583   3.833   0.665   0.666
 8880TIP3    H226584   3.910   0.622   0.790
 8881TIP3   OH226585   2.820   2.425   4.942
 8881TIP3    H126586   2.884   2.359   4.968
 8881TIP3    H226587   2.828   2.431   4.847
 8882TIP3   OH226588   4.567   5.714   1.222
 8882TIP3    H126589   4.485   5.741   1.263
 8882TIP3    H226590   4.556   5.621   1.204
 8883TIP3   OH226591   3.040   6.524   3.142
 8883TIP3    H126592   3.050   6.581   3.218
 8883TIP3    H226593   3.117   6.466   3.144
 8884TIP3   OH226594   5.310   1.349   1.226
 8884TIP3    H126595   5.245   1.300   1.175
 8884TIP3    H226596   5.314   1.303   1.309
 8885TIP3   OH226597   4.134   7.153   1.086
 8885TIP3    H126598   4.191   7.229   1.097
 8885TIP3    H226599   4.193   7.081   1.065
 8886TIP3   OH226600   7.325   5.874   3.703
 8886TIP3    H126601   7.334   5.902   3.794
 8886TIP3    H226602   7.295   5.783   3.709
 8887TIP3   OH226603   3.667   3.172   5.877
 8887TIP3    H126604   3.667   3.149   5.970
 8887TIP3    H226605   3.574   3.175   5.853
 8888TIP3   OH226606   2.454   6.049   0.304
 8888TIP3    H126607   2.363   6.042   0.274
 8888TIP3    H226608   2.500   6.089   0.230
 8889TIP3   OH226609   6.823   3.657   3.036
 8889TIP3    H126610   6.782   3.726   3.089
 8889TIP3    H226611   6.891   3.621   3.093
 8890TIP3   OH226612   7.678   0.637   4.032
 8890TIP3    H126613   7.593   0.597   4.049
 8890TIP3    H226614   7.741   0.564   4.039
 8891TIP3   OH226615   7.201   4.458   0.897
 8891TIP3    H126616   7.184   4.533   0.954
 8891TIP3    H226617   7.152   4.476   0.817
 8892TIP3   OH226618   7.576   3.168   3.954
 8892TIP3    H126619   7.624   3.229   4.011
 8892TIP3    H226620   7.624   3.172   3.871
 8893TIP3   OH226621   4.916   4.556   5.813
 8893TIP3    H126622   4.884   4.567   5.724
 8893TIP3    H226623   4.934   4.462   5.821
 8894TIP3   OH226624   0.946   3.616   6.486
 8894TIP3    H126625   1.040   3.623   6.498
 8894TIP3    H226626   0.917   3.557   6.556
 8895TIP3   OH226627   5.062   5.300   2.174
 8895TIP3    H126628   5.070   5.205   2.175
 8895TIP3    H226629   5.091   5.327   2.262
 8896TIP3   OH226630   6.352   4.524   4.304
 8896TIP3    H126631   6.397   4.555   4.224
 8896TIP3    H226632   6.390   4.577   4.374
 8897TIP3   OH226633   3.274   3.557   2.101
 8897TIP3    H126634   3.199   3.536   2.046
 8897TIP3    H226635   3.252   3.523   2.187
 8898TIP3   OH226636   0.385   5.462   2.874
 8898TIP3    H126637   0.454   5.458   2.808
 8898TIP3    H226638   0.317   5.517   2.835
 8899TIP3   OH226639   2.556   4.881   3.203
 8899TIP3    H126640   2.596   4.968   3.204
 8899TIP3    H226641   2.625   4.823   3.237
 8900TIP3   OH226642   7.997   5.558   3.624
 8900TIP3    H126643   8.043   5.513   3.695
 8900TIP3    H226644   7.979   5.645   3.658
 8901TIP3   OH226645   6.693   5.946   2.821
 8901TIP3    H126646   6.679   5.855   2.849
 8901TIP3    H226647   6.660   5.998   2.894
 8902TIP3   OH226648   5.874   1.553   3.588
 8902TIP3    H126649   5.969   1.543   3.592
 8902TIP3    H226650   5.858   1.604   3.509
 8903TIP3   OH226651   0.514   1.972   0.290
 8903TIP3    H126652   0.560   1.929   0.218
 8903TIP3    H226653   0.429   1.996   0.253
 8904TIP3   OH226654   2.310   4.575   0.732
 8904TIP3    H126655   2.381   4.608   0.678
 8904TIP3    H226656   2.268   4.653   0.768
 8905TIP3   OH226657   1.650   1.856   2.785
 8905TIP3    H126658   1.624   1.768   2.811
 8905TIP3    H226659   1.655   1.853   2.689
 8906TIP3   OH226660   8.136   4.361   1.265
 8906TIP3    H126661   8.215   4.323   1.303
 8906TIP3    H226662   8.064   4.310   1.305
 8907TIP3   OH226663   2.262   2.452   4.168
 8907TIP3    H126664   2.212   2.458   4.086
 8907TIP3    H226665   2.274   2.358   4.181
 8908TIP3   OH226666   7.582   2.380   5.866
 8908TIP3    H126667   7.665   2.364   5.911
 8908TIP3    H226668   7.566   2.300   5.816
 8909TIP3   OH226669   0.251   0.848   0.397
 8909TIP3    H126670   0.255   0.944   0.406
 8909TIP3    H226671   0.244   0.833   0.303
 8910TIP3   OH226672   2.365   0.328   5.106
 8910TIP3    H126673   2.287   0.306   5.157
 8910TIP3    H226674   2.339   0.403   5.053
 8911TIP3   OH226675   3.112   2.840   1.737
 8911TIP3    H126676   3.171   2.891   1.681
 8911TIP3    H226677   3.144   2.856   1.826
 8912TIP3   OH226678   5.800   7.448   6.538
 8912TIP3    H126679   5.873   7.495   6.498
 8912TIP3    H226680   5.781   7.497   6.618
 8913TIP3   OH226681   3.450   5.399   6.446
 8913TIP3    H126682   3.522   5.462   6.454
 8913TIP3    H226683   3.414   5.414   6.359
 8914TIP3   OH226684   2.620   6.055   1.871
 8914TIP3    H126685   2.700   6.095   1.904
 8914TIP3    H226686   2.551   6.084   1.930
 8915TIP3   OH226687   2.258   3.949   5.838
 8915TIP3    H126688   2.297   3.924   5.922
 8915TIP3    H226689   2.206   4.027   5.859
 8916TIP3   OH226690   6.376   1.543   2.785
 8916TIP3    H126691   6.323   1.620   2.766
 8916TIP3    H226692   6.314   1.479   2.822
 8917TIP3   OH226693   6.076   6.200   6.253
 8917TIP3    H126694   6.084   6.287   6.214
 8917TIP3    H226695   6.053   6.143   6.179
 8918TIP3   OH226696   5.290   1.402   4.333
 8918TIP3    H126697   5.196   1.394   4.318
 8918TIP3    H226698   5.319   1.312   4.351
 8919TIP3   OH226699   5.393   4.712   4.516
 8919TIP3    H126700   5.355   4.790   4.558
 8919TIP3    H226701   5.365   4.639   4.571
 8920TIP3   OH226702   7.546   2.688   0.880
 8920TIP3    H126703   7.464   2.729   0.906
 8920TIP3    H226704   7.606   2.761   0.865
 8921TIP3   OH226705   0.538   6.819   5.537
 8921TIP3    H126706   0.620   6.786   5.572
 8921TIP3    H226707   0.473   6.803   5.606
 8922TIP3   OH226708   5.366   2.327   6.235
 8922TIP3    H126709   5.339   2.259   6.173
 8922TIP3    H226710   5.408   2.279   6.307
 8923TIP3   OH226711   2.150   0.658   2.706
 8923TIP3    H126712   2.098   0.734   2.734
 8923TIP3    H226713   2.111   0.633   2.622
 8924TIP3   OH226714   6.286   1.760   3.394
 8924TIP3    H126715   6.237   1.768   3.476
 8924TIP3    H226716   6.360   1.704   3.416
 8925TIP3   OH226717   3.366   6.698   0.082
 8925TIP3    H126718   3.377   6.658  -0.004
 8925TIP3    H226719   3.366   6.624   0.143
 8926TIP3   OH226720   6.506   1.096   4.614
 8926TIP3    H126721   6.519   1.164   4.547
 8926TIP3    H226722   6.593   1.080   4.649
 8927TIP3   OH226723   3.288   1.884   0.714
 8927TIP3    H126724   3.218   1.888   0.649
 8927TIP3    H226725   3.251   1.927   0.792
 8928TIP3   OH226726   4.687   3.083   1.040
 8928TIP3    H126727   4.647   2.996   1.042
 8928TIP3    H226728   4.660   3.124   1.122
 8929TIP3   OH226729   7.278   2.001   5.674
 8929TIP3    H126730   7.213   2.055   5.718
 8929TIP3    H226731   7.250   1.911   5.689
 8930TIP3   OH226732   6.700   0.475   5.166
 8930TIP3    H126733   6.631   0.429   5.118
 8930TIP3    H226734   6.781   0.435   5.136
 8931TIP3   OH226735   2.897   5.907   2.529
 8931TIP3    H126736   2.954   5.838   2.495
 8931TIP3    H226737   2.957   5.972   2.566
 8932TIP3   OH226738   7.409   1.609   2.192
 8932TIP3    H126739   7.461   1.609   2.273
 8932TIP3    H226740   7.358   1.690   2.197
 8933TIP3   OH226741   2.485   4.523   3.650
 8933TIP3    H126742   2.461   4.612   3.676
 8933TIP3    H226743   2.574   4.531   3.614
 8934TIP3   OH226744   2.753   3.516   5.887
 8934TIP3    H126745   2.810   3.488   5.959
 8934TIP3    H226746   2.811   3.527   5.812
 8935TIP3   OH226747   2.355   7.445   0.297
 8935TIP3    H126748   2.333   7.537   0.285
 8935TIP3    H226749   2.406   7.421   0.220
 8936TIP3   OH226750   5.270   1.464   6.083
 8936TIP3    H126751   5.200   1.520   6.049
 8936TIP3    H226752   5.327   1.447   6.008
 8937TIP3   OH226753   1.209   6.246   1.271
 8937TIP3    H126754   1.251   6.296   1.200
 8937TIP3    H226755   1.281   6.217   1.326
 8938TIP3   OH226756   3.375   7.559   6.383
 8938TIP3    H126757   3.307   7.551   6.451
 8938TIP3    H226758   3.437   7.623   6.419
 8939TIP3   OH226759   5.405   2.215   4.295
 8939TIP3    H126760   5.352   2.136   4.290
 8939TIP3    H226761   5.349   2.280   4.336
 8940TIP3   OH226762   4.745   7.021   0.430
 8940TIP3    H126763   4.773   7.112   0.420
 8940TIP3    H226764   4.698   7.001   0.349
 8941TIP3   OH226765   1.021   2.914   4.344
 8941TIP3    H126766   1.023   2.945   4.434
 8941TIP3    H226767   0.999   2.821   4.351
 8942TIP3   OH226768   1.834   2.526   0.018
 8942TIP3    H126769   1.869   2.609   0.050
 8942TIP3    H226770   1.777   2.494   0.088
 8943TIP3   OH226771   4.478   6.446   1.200
 8943TIP3    H126772   4.488   6.427   1.106
 8943TIP3    H226773   4.565   6.475   1.227
 8944TIP3   OH226774   5.964   4.903   0.361
 8944TIP3    H126775   5.948   4.948   0.444
 8944TIP3    H226776   6.008   4.968   0.307
 8945TIP3   OH226777   8.225   2.665   2.210
 8945TIP3    H126778   8.255   2.575   2.212
 8945TIP3    H226779   8.300   2.716   2.241
 8946TIP3   OH226780   4.376   5.261   0.331
 8946TIP3    H126781   4.367   5.356   0.339
 8946TIP3    H226782   4.428   5.249   0.252
 8947TIP3   OH226783   1.443   3.431   3.431
 8947TIP3    H126784   1.389   3.395   3.501
 8947TIP3    H226785   1.528   3.448   3.472
 8948TIP3   OH226786   6.396   7.602   3.789
 8948TIP3    H126787   6.480   7.572   3.823
 8948TIP3    H226788   6.415   7.686   3.747
 8949TIP3   OH226789   7.219   5.974   4.957
 8949TIP3    H126790   7.236   5.934   5.042
 8949TIP3    H226791   7.125   5.960   4.942
 8950TIP3   OH226792   1.511   1.171   0.426
 8950TIP3    H126793   1.480   1.099   0.372
 8950TIP3    H226794   1.487   1.147   0.515
 8951TIP3   OH226795   7.145  -0.030   1.483
 8951TIP3    H126796   7.215   0.033   1.468
 8951TIP3    H226797   7.068   0.025   1.502
 8952TIP3   OH226798   6.563   5.713   5.219
 8952TIP3    H126799   6.564   5.770   5.142
 8952TIP3    H226800   6.611   5.635   5.192
 8953TIP3   OH226801   1.872   7.817   1.401
 8953TIP3    H126802   1.838   7.833   1.313
 8953TIP3    H226803   1.899   7.725   1.400
 8954TIP3   OH226804   6.005   6.175   3.634
 8954TIP3    H126805   5.951   6.182   3.556
 8954TIP3    H226806   5.950   6.126   3.696
 8955TIP3   OH226807   2.416   6.753   4.759
 8955TIP3    H126808   2.459   6.805   4.827
 8955TIP3    H226809   2.463   6.775   4.678
 8956TIP3   OH226810   8.156   0.330   4.735
 8956TIP3    H126811   8.145   0.235   4.723
 8956TIP3    H226812   8.225   0.354   4.674
 8957TIP3   OH226813   5.231   6.901   0.520
 8957TIP3    H126814   5.249   6.995   0.520
 8957TIP3    H226815   5.188   6.886   0.604
 8958TIP3   OH226816   0.348   2.385   1.247
 8958TIP3    H126817   0.406   2.449   1.289
 8958TIP3    H226818   0.274   2.437   1.216
 8959TIP3   OH226819   4.672   5.038   5.353
 8959TIP3    H126820   4.614   4.994   5.415
 8959TIP3    H226821   4.629   5.122   5.335
 8960TIP3   OH226822   4.532   5.296   6.484
 8960TIP3    H126823   4.598   5.266   6.421
 8960TIP3    H226824   4.572   5.372   6.526
 8961TIP3   OH226825   3.433   5.910   5.324
 8961TIP3    H126826   3.414   6.003   5.338
 8961TIP3    H226827   3.355   5.876   5.280
 8962TIP3   OH226828   0.433   4.199   2.649
 8962TIP3    H126829   0.402   4.109   2.637
 8962TIP3    H226830   0.395   4.226   2.733
 8963TIP3   OH226831   1.370   7.244   0.682
 8963TIP3    H126832   1.280   7.219   0.658
 8963TIP3    H226833   1.387   7.195   0.762
 8964TIP3   OH226834   5.087   4.330   4.318
 8964TIP3    H126835   5.018   4.295   4.263
 8964TIP3    H226836   5.164   4.335   4.260
 8965TIP3   OH226837   1.505   4.084   5.742
 8965TIP3    H126838   1.425   4.034   5.757
 8965TIP3    H226839   1.531   4.115   5.829
 8966TIP3   OH226840   0.737   4.144   2.813
 8966TIP3    H126841   0.760   4.227   2.770
 8966TIP3    H226842   0.790   4.142   2.893
 8967TIP3   OH226843   6.390   6.946   0.542
 8967TIP3    H126844   6.377   6.967   0.449
 8967TIP3    H226845   6.308   6.906   0.569
 8968TIP3   OH226846   8.068   6.757   2.907
 8968TIP3    H126847   8.061   6.760   2.811
 8968TIP3    H226848   8.162   6.752   2.924
 8969TIP3   OH226849   5.645   5.853   4.697
 8969TIP3    H126850   5.705   5.780   4.711
 8969TIP3    H226851   5.686   5.927   4.742
 8970TIP3   OH226852   1.567   4.786   5.278
 8970TIP3    H126853   1.641   4.741   5.319
 8970TIP3    H226854   1.498   4.783   5.344
 8971TIP3   OH226855   8.125   2.650   3.645
 8971TIP3    H126856   8.077   2.658   3.727
 8971TIP3    H226857   8.214   2.626   3.671
 8972TIP3   OH226858   4.043   4.546   5.066
 8972TIP3    H126859   4.138   4.558   5.065
 8972TIP3    H226860   4.031   4.453   5.085
 8973TIP3   OH226861   1.554   7.102   5.475
 8973TIP3    H126862   1.554   7.198   5.467
 8973TIP3    H226863   1.647   7.078   5.476
 8974TIP3   OH226864   4.674   7.754   2.989
 8974TIP3    H126865   4.720   7.836   2.969
 8974TIP3    H226866   4.646   7.720   2.904
 8975TIP3   OH226867   5.240   0.803   6.192
 8975TIP3    H126868   5.328   0.808   6.229
 8975TIP3    H226869   5.193   0.875   6.232
 8976TIP3   OH226870   5.242   0.450   5.283
 8976TIP3    H126871   5.167   0.510   5.276
 8976TIP3    H226872   5.207   0.366   5.254
 8977TIP3   OH226873   4.926   4.194   2.333
 8977TIP3    H126874   4.837   4.198   2.368
 8977TIP3    H226875   4.961   4.110   2.365
 8978TIP3   OH226876   3.565   0.058   0.961
 8978TIP3    H126877   3.558   0.130   0.898
 8978TIP3    H226878   3.654   0.025   0.951
 8979TIP3   OH226879   5.210   7.185   5.242
 8979TIP3    H126880   5.300   7.211   5.258
 8979TIP3    H226881   5.158   7.244   5.296
 8980TIP3   OH226882   7.309   1.428   1.722
 8980TIP3    H126883   7.344   1.356   1.669
 8980TIP3    H226884   7.215   1.412   1.726
 8981TIP3   OH226885   5.807   4.338   1.576
 8981TIP3    H126886   5.821   4.403   1.507
 8981TIP3    H226887   5.764   4.265   1.531
 8982TIP3   OH226888   6.774   6.952   0.292
 8982TIP3    H126889   6.695   6.898   0.293
 8982TIP3    H226890   6.783   6.982   0.382
 8983TIP3   OH226891   3.244   1.638   5.622
 8983TIP3    H126892   3.308   1.675   5.560
 8983TIP3    H226893   3.231   1.707   5.687
 8984TIP3   OH226894   8.216   7.536   1.885
 8984TIP3    H126895   8.198   7.507   1.974
 8984TIP3    H226896   8.230   7.454   1.836
 8985TIP3   OH226897   0.869   1.433   1.758
 8985TIP3    H126898   0.886   1.355   1.810
 8985TIP3    H226899   0.816   1.402   1.685
 8986TIP3   OH226900   6.764   5.855   5.910
 8986TIP3    H126901   6.755   5.873   5.817
 8986TIP3    H226902   6.677   5.869   5.946
 8987TIP3   OH226903   3.444   2.032   5.617
 8987TIP3    H126904   3.370   2.008   5.562
 8987TIP3    H226905   3.446   1.966   5.685
 8988TIP3   OH226906   4.401   1.723   4.487
 8988TIP3    H126907   4.397   1.655   4.420
 8988TIP3    H226908   4.314   1.764   4.484
 8989TIP3   OH226909   1.064   3.684   4.498
 8989TIP3    H126910   0.972   3.681   4.525
 8989TIP3    H226911   1.064   3.656   4.407
 8990TIP3   OH226912   3.022   3.099   0.801
 8990TIP3    H126913   2.983   3.167   0.855
 8990TIP3    H226914   3.091   3.061   0.856
 8991TIP3   OH226915  -0.036   1.623   1.652
 8991TIP3    H126916  -0.028   1.714   1.624
 8991TIP3    H226917  -0.026   1.573   1.572
 8992TIP3   OH226918   7.872   4.481   4.924
 8992TIP3    H126919   7.929   4.523   4.859
 8992TIP3    H226920   7.925   4.479   5.004
 8993TIP3   OH226921   2.781   7.594   4.047
 8993TIP3    H126922   2.771   7.687   4.066
 8993TIP3    H226923   2.857   7.566   4.099
 8994TIP3   OH226924   2.071   3.381   2.972
 8994TIP3    H126925   2.083   3.414   2.883
 8994TIP3    H226926   2.159   3.351   2.997
 8995TIP3   OH226927   0.988   1.212   6.663
 8995TIP3    H126928   0.940   1.140   6.624
 8995TIP3    H226929   0.921   1.266   6.705
 8996TIP3   OH226930   4.175   1.769   1.527
 8996TIP3    H126931   4.121   1.725   1.463
 8996TIP3    H226932   4.119   1.838   1.563
 8997TIP3   OH226933   5.457   2.586   2.197
 8997TIP3    H126934   5.384   2.590   2.136
 8997TIP3    H226935   5.529   2.629   2.151
 8998TIP3   OH226936   2.146   0.886   4.637
 8998TIP3    H126937   2.142   0.842   4.552
 8998TIP3    H226938   2.239   0.905   4.651
 8999TIP3   OH226939   5.214   1.733   3.824
 8999TIP3    H126940   5.307   1.718   3.810
 8999TIP3    H226941   5.202   1.721   3.918
 9000TIP3   OH226942   5.534   4.533   5.126
 9000TIP3    H126943   5.599   4.462   5.128
 9000TIP3    H226944   5.550   4.577   5.043
 9001TIP3   OH226945   6.347   2.812   6.253
 9001TIP3    H126946   6.306   2.755   6.319
 9001TIP3    H226947   6.274   2.847   6.203
 9002TIP3   OH226948   0.532   5.781   6.380
 9002TIP3    H126949   0.582   5.701   6.394
 9002TIP3    H226950   0.441   5.756   6.397
 9003TIP3   OH226951   0.337   6.985   0.991
 9003TIP3    H126952   0.286   6.934   0.928
 9003TIP3    H226953   0.282   7.060   1.011
 9004TIP3   OH226954   5.113   0.732   3.517
 9004TIP3    H126955   5.050   0.715   3.447
 9004TIP3    H226956   5.077   0.808   3.563
 9005TIP3   OH226957   4.957   3.414   5.315
 9005TIP3    H126958   4.992   3.437   5.401
 9005TIP3    H226959   4.969   3.319   5.309
 9006TIP3   OH226960   5.330   5.101   2.439
 9006TIP3    H126961   5.282   5.019   2.448
 9006TIP3    H226962   5.266   5.169   2.459
 9007TIP3   OH226963   6.615   1.573   6.431
 9007TIP3    H126964   6.593   1.593   6.522
 9007TIP3    H226965   6.661   1.650   6.399
 9008TIP3   OH226966   3.312   5.764   5.625
 9008TIP3    H126967   3.267   5.784   5.543
 9008TIP3    H226968   3.298   5.841   5.680
 9009TIP3   OH226969   6.608   3.800   3.134
 9009TIP3    H126970   6.614   3.880   3.187
 9009TIP3    H226971   6.520   3.802   3.096
 9010TIP3   OH226972   0.967   5.277   4.628
 9010TIP3    H126973   0.890   5.284   4.572
 9010TIP3    H226974   1.027   5.343   4.593
 9011TIP3   OH226975   1.886   2.784   5.147
 9011TIP3    H126976   1.975   2.777   5.114
 9011TIP3    H226977   1.841   2.707   5.114
 9012TIP3   OH226978   0.070   1.974   4.900
 9012TIP3    H126979   0.006   2.017   4.843
 9012TIP3    H226980   0.104   1.902   4.847
 9013TIP3   OH226981   6.267   3.639   3.265
 9013TIP3    H126982   6.258   3.680   3.351
 9013TIP3    H226983   6.321   3.701   3.215
 9014TIP3   OH226984   2.467   3.211   4.034
 9014TIP3    H126985   2.410   3.280   4.001
 9014TIP3    H226986   2.539   3.208   3.971
 9015TIP3   OH226987   3.100   4.884   1.644
 9015TIP3    H126988   3.100   4.789   1.641
 9015TIP3    H226989   3.016   4.907   1.685
 9016TIP3   OH226990   3.018   1.679   2.551
 9016TIP3    H126991   3.088   1.638   2.500
 9016TIP3    H226992   3.041   1.772   2.553
 9017TIP3   OH226993   3.211   4.297   5.950
 9017TIP3    H126994   3.176   4.279   5.862
 9017TIP3    H226995   3.204   4.391   5.959
 9018TIP3   OH226996   4.270   6.420   0.181
 9018TIP3    H126997   4.217   6.449   0.255
 9018TIP3    H226998   4.253   6.326   0.176
 9019TIP3   OH226999   3.635   3.444   6.033
 9019TIP3    H127000   3.620   3.369   6.089
 9019TIP3    H227001   3.728   3.464   6.044
 9020TIP3   OH227002   3.896   2.249   4.386
 9020TIP3    H127003   3.953   2.216   4.456
 9020TIP3    H227004   3.823   2.187   4.385
 9021TIP3   OH227005   7.793   1.501   1.841
 9021TIP3    H127006   7.856   1.570   1.816
 9021TIP3    H227007   7.809   1.431   1.778
 9022TIP3   OH227008   7.155   2.962   0.016
 9022TIP3    H127009   7.117   2.877   0.038
 9022TIP3    H227010   7.124   2.980  -0.073
 9023TIP3   OH227011   0.995   6.335   3.081
 9023TIP3    H127012   1.063   6.373   3.026
 9023TIP3    H227013   0.913   6.362   3.040
 9024TIP3   OH227014   3.417   0.521   1.876
 9024TIP3    H127015   3.461   0.544   1.794
 9024TIP3    H227016   3.333   0.484   1.848
 9025TIP3   OH227017   5.355   0.542   5.745
 9025TIP3    H127018   5.262   0.556   5.728
 9025TIP3    H227019   5.394   0.629   5.742
 9026TIP3   OH227020   1.053   4.264   0.050
 9026TIP3    H127021   1.018   4.265  -0.039
 9026TIP3    H227022   1.027   4.348   0.088
 9027TIP3   OH227023   4.643   2.316   1.645
 9027TIP3    H127024   4.556   2.275   1.642
 9027TIP3    H227025   4.678   2.305   1.557
 9028TIP3   OH227026   3.535   3.336   2.756
 9028TIP3    H127027   3.540   3.363   2.848
 9028TIP3    H227028   3.510   3.244   2.759
 9029TIP3   OH227029   5.386   6.126   2.789
 9029TIP3    H127030   5.381   6.033   2.808
 9029TIP3    H227031   5.460   6.158   2.841
 9030TIP3   OH227032   2.933   5.066   6.662
 9030TIP3    H127033   2.876   4.989   6.668
 9030TIP3    H227034   2.938   5.099   6.752
 9031TIP3   OH227035   4.094   5.023   4.357
 9031TIP3    H127036   4.003   5.030   4.384
 9031TIP3    H227037   4.089   5.003   4.263
 9032TIP3   OH227038   5.058   0.991   3.626
 9032TIP3    H127039   5.109   1.056   3.672
 9032TIP3    H227040   4.968   1.004   3.656
 9033TIP3   OH227041   1.963   2.310   0.948
 9033TIP3    H127042   1.933   2.225   0.980
 9033TIP3    H227043   1.921   2.374   1.006
 9034TIP3   OH227044   1.296   2.851   1.738
 9034TIP3    H127045   1.236   2.925   1.749
 9034TIP3    H227046   1.299   2.810   1.825
 9035TIP3   OH227047   7.874   2.581   4.871
 9035TIP3    H127048   7.834   2.515   4.927
 9035TIP3    H227049   7.803   2.643   4.853
 9036TIP3   OH227050   3.864   6.221   5.027
 9036TIP3    H127051   3.941   6.243   4.976
 9036TIP3    H227052   3.889   6.143   5.076
 9037TIP3   OH227053   4.764   6.787   4.809
 9037TIP3    H127054   4.695   6.727   4.780
 9037TIP3    H227055   4.779   6.763   4.901
 9038TIP3   OH227056   5.056   1.723   1.758
 9038TIP3    H127057   4.979   1.712   1.814
 9038TIP3    H227058   5.035   1.798   1.703
 9039TIP3   OH227059   1.606   5.644   0.465
 9039TIP3    H127060   1.591   5.585   0.539
 9039TIP3    H227061   1.697   5.672   0.475
 9040TIP3   OH227062   1.448   0.909   1.112
 9040TIP3    H127063   1.418   0.824   1.144
 9040TIP3    H227064   1.516   0.888   1.048
 9041TIP3   OH227065   4.175   6.030   2.090
 9041TIP3    H127066   4.149   6.050   2.000
 9041TIP3    H227067   4.262   6.068   2.099
 9042TIP3   OH227068   4.191   4.274   0.921
 9042TIP3    H127069   4.211   4.234   1.006
 9042TIP3    H227070   4.265   4.252   0.866
 9043TIP3   OH227071   5.004   2.579   3.259
 9043TIP3    H127072   4.922   2.581   3.308
 9043TIP3    H227073   4.982   2.535   3.177
 9044TIP3   OH227074   5.938   3.483   6.614
 9044TIP3    H127075   5.974   3.395   6.626
 9044TIP3    H227076   5.848   3.476   6.647
 9045TIP3   OH227077   1.214   7.669   3.823
 9045TIP3    H127078   1.226   7.736   3.756
 9045TIP3    H227079   1.255   7.706   3.902
 9046TIP3   OH227080   3.813   1.906   1.151
 9046TIP3    H127081   3.841   1.959   1.076
 9046TIP3    H227082   3.762   1.835   1.112
 9047TIP3   OH227083   3.894   4.626   0.058
 9047TIP3    H127084   3.966   4.687   0.071
 9047TIP3    H227085   3.867   4.601   0.147
 9048TIP3   OH227086   3.093   0.256   3.977
 9048TIP3    H127087   3.125   0.213   3.898
 9048TIP3    H227088   3.150   0.225   4.047
 9049TIP3   OH227089   6.484   3.121   1.879
 9049TIP3    H127090   6.496   3.033   1.914
 9049TIP3    H227091   6.446   3.170   1.952
 9050TIP3   OH227092   2.367   5.137   1.498
 9050TIP3    H127093   2.274   5.146   1.478
 9050TIP3    H227094   2.392   5.223   1.534
 9051TIP3   OH227095   2.190   5.431   1.032
 9051TIP3    H127096   2.173   5.366   1.100
 9051TIP3    H227097   2.279   5.462   1.051
 9052TIP3   OH227098   1.368   1.873   3.919
 9052TIP3    H127099   1.403   1.791   3.885
 9052TIP3    H227100   1.436   1.938   3.899
 9053TIP3   OH227101   3.424   5.500   3.219
 9053TIP3    H127102   3.455   5.536   3.302
 9053TIP3    H227103   3.497   5.448   3.186
 9054TIP3   OH227104   2.189   4.767   2.533
 9054TIP3    H127105   2.264   4.808   2.575
 9054TIP3    H227106   2.124   4.837   2.527
 9055TIP3   OH227107   6.205   0.862   5.228
 9055TIP3    H127108   6.288   0.831   5.265
 9055TIP3    H227109   6.203   0.956   5.250
 9056TIP3   OH227110   2.714   4.623   2.259
 9056TIP3    H127111   2.679   4.564   2.326
 9056TIP3    H227112   2.675   4.592   2.177
 9057TIP3   OH227113   2.163   4.476   0.039
 9057TIP3    H127114   2.087   4.439   0.083
 9057TIP3    H227115   2.192   4.548   0.096
 9058TIP3   OH227116   5.345   2.389   3.490
 9058TIP3    H127117   5.363   2.449   3.562
 9058TIP3    H227118   5.304   2.313   3.531
 9059TIP3   OH227119   0.592   4.918   1.874
 9059TIP3    H127120   0.565   4.897   1.964
 9059TIP3    H227121   0.549   5.001   1.855
 9060TIP3   OH227122   4.691   5.724   2.368
 9060TIP3    H127123   4.716   5.652   2.426
 9060TIP3    H227124   4.757   5.791   2.383
 9061TIP3   OH227125   8.207   5.004   4.111
 9061TIP3    H127126   8.256   4.923   4.128
 9061TIP3    H227127   8.134   4.976   4.056
 9062TIP3   OH227128   3.171   0.385   1.824
 9062TIP3    H127129   3.111   0.432   1.766
 9062TIP3    H227130   3.204   0.313   1.770
 9063TIP3   OH227131   4.002   2.240   1.535
 9063TIP3    H127132   3.970   2.150   1.542
 9063TIP3    H227133   4.092   2.237   1.567
 9064TIP3   OH227134   3.398   4.440   3.272
 9064TIP3    H127135   3.420   4.347   3.266
 9064TIP3    H227136   3.341   4.446   3.349
 9065TIP3   OH227137   0.994   7.075   4.582
 9065TIP3    H127138   0.933   7.127   4.528
 9065TIP3    H227139   0.973   6.984   4.560
 9066TIP3   OH227140   7.737   1.487   4.436
 9066TIP3    H127141   7.765   1.521   4.521
 9066TIP3    H227142   7.641   1.484   4.443
 9067TIP3   OH227143   4.831   5.489   5.811
 9067TIP3    H127144   4.884   5.520   5.884
 9067TIP3    H227145   4.748   5.536   5.819
 9068TIP3   OH227146   7.609   6.404   3.373
 9068TIP3    H127147   7.642   6.491   3.395
 9068TIP3    H227148   7.551   6.381   3.445
 9069TIP3   OH227149   1.337   5.917   0.645
 9069TIP3    H127150   1.408   5.961   0.598
 9069TIP3    H227151   1.342   5.952   0.734
 9070TIP3   OH227152   3.956   2.481   1.641
 9070TIP3    H127153   3.934   2.493   1.548
 9070TIP3    H227154   3.962   2.386   1.652
 9071TIP3   OH227155   4.031   5.249   1.404
 9071TIP3    H127156   4.007   5.303   1.329
 9071TIP3    H227157   3.968   5.273   1.472
 9072TIP3   OH227158   6.277   4.235   2.738
 9072TIP3    H127159   6.225   4.216   2.660
 9072TIP3    H227160   6.351   4.174   2.733
 9073TIP3   OH227161   7.222   6.670   2.287
 9073TIP3    H127162   7.208   6.701   2.377
 9073TIP3    H227163   7.221   6.575   2.294
 9074TIP3   OH227164   1.669   3.691   0.987
 9074TIP3    H127165   1.721   3.682   0.907
 9074TIP3    H227166   1.720   3.750   1.043
 9075TIP3   OH227167   0.184   3.890   5.986
 9075TIP3    H127168   0.264   3.843   6.008
 9075TIP3    H227169   0.180   3.887   5.891
 9076TIP3   OH227170   1.062   3.389   4.157
 9076TIP3    H127171   1.019   3.345   4.085
 9076TIP3    H227172   1.013   3.362   4.235
 9077TIP3   OH227173   0.553   4.682   0.279
 9077TIP3    H127174   0.578   4.774   0.267
 9077TIP3    H227175   0.630   4.642   0.321
 9078TIP3   OH227176   0.394   6.947   3.454
 9078TIP3    H127177   0.423   6.894   3.380
 9078TIP3    H227178   0.471   6.999   3.478
 9079TIP3   OH227179   0.490   5.898   0.745
 9079TIP3    H127180   0.563   5.955   0.771
 9079TIP3    H227181   0.473   5.922   0.654
 9080TIP3   OH227182   5.649   4.285   2.135
 9080TIP3    H127183   5.667   4.368   2.091
 9080TIP3    H227184   5.735   4.243   2.145
 9081TIP3   OH227185   2.734   7.382   0.189
 9081TIP3    H127186   2.707   7.377   0.280
 9081TIP3    H227187   2.658   7.353   0.139
 9082TIP3   OH227188   4.598   1.540   1.319
 9082TIP3    H127189   4.582   1.484   1.243
 9082TIP3    H227190   4.632   1.622   1.282
 9083TIP3   OH227191   1.360   2.777   1.477
 9083TIP3    H127192   1.340   2.812   1.563
 9083TIP3    H227193   1.342   2.684   1.484
 9084TIP3   OH227194   0.126   0.843   2.239
 9084TIP3    H127195   0.187   0.912   2.267
 9084TIP3    H227196   0.110   0.862   2.147
 9085TIP3   OH227197   7.272   4.302   3.379
 9085TIP3    H127198   7.244   4.230   3.435
 9085TIP3    H227199   7.254   4.380   3.431
 9086TIP3   OH227200   3.832   0.307   6.036
 9086TIP3    H127201   3.760   0.257   6.075
 9086TIP3    H227202   3.789   0.368   5.976
 9087TIP3   OH227203   3.181   6.911   0.608
 9087TIP3    H127204   3.134   6.854   0.548
 9087TIP3    H227205   3.143   6.997   0.594
 9088TIP3   OH227206   2.279   6.993   5.247
 9088TIP3    H127207   2.325   7.060   5.297
 9088TIP3    H227208   2.201   7.037   5.213
 9089TIP3   OH227209   4.214   7.792   3.048
 9089TIP3    H127210   4.261   7.874   3.037
 9089TIP3    H227211   4.188   7.792   3.140
 9090TIP3   OH227212   6.285   6.350   4.885
 9090TIP3    H127213   6.198   6.310   4.874
 9090TIP3    H227214   6.315   6.317   4.970
 9091TIP3   OH227215   1.716   1.678   0.421
 9091TIP3    H127216   1.657   1.700   0.350
 9091TIP3    H227217   1.684   1.594   0.454
 9092TIP3   OH227218   3.809   7.097   2.460
 9092TIP3    H127219   3.888   7.142   2.490
 9092TIP3    H227220   3.785   7.039   2.532
 9093TIP3   OH227221   7.919   6.331   0.315
 9093TIP3    H127222   7.846   6.386   0.341
 9093TIP3    H227223   7.932   6.351   0.222
 9094TIP3   OH227224   5.520   2.560   3.713
 9094TIP3    H127225   5.607   2.584   3.747
 9094TIP3    H227226   5.481   2.507   3.782
 9095TIP3   OH227227   2.125   0.428   0.174
 9095TIP3    H127228   2.164   0.395   0.093
 9095TIP3    H227229   2.148   0.521   0.176
 9096TIP3   OH227230   2.802   0.857   0.989
 9096TIP3    H127231   2.808   0.913   0.911
 9096TIP3    H227232   2.758   0.911   1.054
 9097TIP3   OH227233   6.658   2.499   0.196
 9097TIP3    H127234   6.639   2.419   0.147
 9097TIP3    H227235   6.692   2.560   0.131
 9098TIP3   OH227236   2.781   0.030   0.817
 9098TIP3    H127237   2.806   0.113   0.776
 9098TIP3    H227238   2.862  -0.004   0.855
 9099TIP3   OH227239   0.714   4.095   4.437
 9099TIP3    H127240   0.753   4.115   4.522
 9099TIP3    H227241   0.678   4.178   4.407
 9100TIP3   OH227242   5.333   2.812   0.583
 9100TIP3    H127243   5.352   2.841   0.672
 9100TIP3    H227244   5.415   2.824   0.536
 9101TIP3   OH227245   0.909   4.733   2.016
 9101TIP3    H127246   0.911   4.786   2.096
 9101TIP3    H227247   0.948   4.649   2.042
 9102TIP3   OH227248   6.866   0.487   0.374
 9102TIP3    H127249   6.783   0.525   0.344
 9102TIP3    H227250   6.872   0.404   0.326
 9103TIP3   OH227251   2.133   2.526   3.938
 9103TIP3    H127252   2.123   2.474   3.859
 9103TIP3    H227253   2.174   2.607   3.908
 9104TIP3   OH227254   0.780   5.907   5.331
 9104TIP3    H127255   0.829   5.836   5.372
 9104TIP3    H227256   0.710   5.927   5.394
 9105TIP3   OH227257   3.326   5.003   1.752
 9105TIP3    H127258   3.332   4.932   1.815
 9105TIP3    H227259   3.253   4.977   1.695
 9106TIP3   OH227260   3.174   5.029   5.562
 9106TIP3    H127261   3.163   5.034   5.467
 9106TIP3    H227262   3.130   5.107   5.595
 9107TIP3   OH227263   7.552   4.035   2.912
 9107TIP3    H127264   7.518   4.125   2.912
 9107TIP3    H227265   7.486   3.985   2.961
 9108TIP3   OH227266   1.039   4.509   4.754
 9108TIP3    H127267   1.099   4.573   4.792
 9108TIP3    H227268   0.967   4.561   4.720
 9109TIP3   OH227269   3.463   2.490   6.120
 9109TIP3    H127270   3.387   2.528   6.164
 9109TIP3    H227271   3.449   2.396   6.125
 9110TIP3   OH227272   1.179   0.193   6.725
 9110TIP3    H127273   1.159   0.286   6.736
 9110TIP3    H227274   1.106   0.160   6.673
 9111TIP3   OH227275   7.586   0.581   1.541
 9111TIP3    H127276   7.680   0.593   1.549
 9111TIP3    H227277   7.573   0.550   1.452
 9112TIP3   OH227278   5.357   4.055   0.794
 9112TIP3    H127279   5.363   4.111   0.717
 9112TIP3    H227280   5.444   4.015   0.801
 9113TIP3   OH227281   6.518   6.478   0.785
 9113TIP3    H127282   6.425   6.457   0.789
 9113TIP3    H227283   6.526   6.559   0.837
 9114TIP3   OH227284   5.093   5.782   4.591
 9114TIP3    H127285   5.187   5.769   4.597
 9114TIP3    H227286   5.083   5.875   4.571
 9115TIP3   OH227287   4.790   0.743   4.102
 9115TIP3    H127288   4.747   0.679   4.159
 9115TIP3    H227289   4.863   0.776   4.155
 9116TIP3   OH227290   6.152   6.410   1.073
 9116TIP3    H127291   6.142   6.445   0.985
 9116TIP3    H227292   6.177   6.486   1.126
 9117TIP3   OH227293   2.324   6.806   3.012
 9117TIP3    H127294   2.231   6.809   3.035
 9117TIP3    H227295   2.354   6.896   3.018
 9118TIP3   OH227296   5.623   3.970   3.590
 9118TIP3    H127297   5.641   4.046   3.534
 9118TIP3    H227298   5.611   3.898   3.528
 9119TIP3   OH227299   7.299   5.529   2.866
 9119TIP3    H127300   7.350   5.495   2.793
 9119TIP3    H227301   7.265   5.613   2.835
 9120TIP3   OH227302   5.338   3.246   4.728
 9120TIP3    H127303   5.323   3.254   4.633
 9120TIP3    H227304   5.252   3.230   4.765
 9121TIP3   OH227305   0.962   3.595   5.898
 9121TIP3    H127306   0.904   3.602   5.823
 9121TIP3    H227307   1.023   3.668   5.889
 9122TIP3   OH227308   4.881   3.732   6.429
 9122TIP3    H127309   4.808   3.759   6.374
 9122TIP3    H227310   4.953   3.790   6.404
 9123TIP3   OH227311   7.181   6.421   4.438
 9123TIP3    H127312   7.172   6.355   4.370
 9123TIP3    H227313   7.092   6.456   4.451
 9124TIP3   OH227314   3.510   0.772   4.435
 9124TIP3    H127315   3.461   0.759   4.353
 9124TIP3    H227316   3.473   0.851   4.473
 9125TIP3   OH227317   3.047   7.338   6.486
 9125TIP3    H127318   3.065   7.271   6.552
 9125TIP3    H227319   3.056   7.421   6.533
 9126TIP3   OH227320   5.027   6.298   3.095
 9126TIP3    H127321   4.988   6.252   3.020
 9126TIP3    H227322   5.069   6.375   3.057
 9127TIP3   OH227323   1.734   7.143   0.714
 9127TIP3    H127324   1.773   7.084   0.779
 9127TIP3    H227325   1.691   7.084   0.652
 9128TIP3   OH227326   0.761   2.760   3.139
 9128TIP3    H127327   0.817   2.684   3.157
 9128TIP3    H227328   0.672   2.727   3.152
 9129TIP3   OH227329   1.482   1.386   5.077
 9129TIP3    H127330   1.499   1.371   4.984
 9129TIP3    H227331   1.539   1.460   5.099
 9130TIP3   OH227332   2.679   1.528   1.234
 9130TIP3    H127333   2.629   1.531   1.152
 9130TIP3    H227334   2.650   1.446   1.276
 9131TIP3   OH227335   6.883   6.094   1.365
 9131TIP3    H127336   6.955   6.127   1.418
 9131TIP3    H227337   6.842   6.173   1.329
 9132TIP3   OH227338   5.223   2.669   1.984
 9132TIP3    H127339   5.161   2.704   1.920
 9132TIP3    H227340   5.308   2.679   1.943
 9133TIP3   OH227341   5.431   7.361   3.250
 9133TIP3    H127342   5.382   7.434   3.212
 9133TIP3    H227343   5.523   7.382   3.232
 9134TIP3   OH227344   1.119   4.260   6.207
 9134TIP3    H127345   1.104   4.173   6.245
 9134TIP3    H227346   1.040   4.277   6.155
 9135TIP3   OH227347   3.209   6.292   3.131
 9135TIP3    H127348   3.148   6.257   3.196
 9135TIP3    H227349   3.294   6.294   3.176
 9136TIP3   OH227350   4.332   1.564   6.272
 9136TIP3    H127351   4.371   1.517   6.198
 9136TIP3    H227352   4.340   1.657   6.248
 9137TIP3   OH227353   4.707   5.612   4.692
 9137TIP3    H127354   4.792   5.652   4.678
 9137TIP3    H227355   4.680   5.580   4.605
 9138TIP3   OH227356   6.687   3.606   3.322
 9138TIP3    H127357   6.667   3.662   3.247
 9138TIP3    H227358   6.604   3.595   3.367
 9139TIP3   OH227359   5.228   7.088   4.963
 9139TIP3    H127360   5.250   7.092   5.056
 9139TIP3    H227361   5.194   6.999   4.951
 9140TIP3   OH227362   4.454   7.713   1.755
 9140TIP3    H127363   4.444   7.809   1.758
 9140TIP3    H227364   4.426   7.689   1.666
 9141TIP3   OH227365   0.360   0.720   6.341
 9141TIP3    H127366   0.279   0.670   6.331
 9141TIP3    H227367   0.400   0.720   6.254
 9142TIP3   OH227368   2.759   7.325   4.572
 9142TIP3    H127369   2.685   7.297   4.625
 9142TIP3    H227370   2.820   7.251   4.573
 9143TIP3   OH227371   4.451   4.603   4.840
 9143TIP3    H127372   4.492   4.517   4.832
 9143TIP3    H227373   4.388   4.606   4.768
 9144TIP3   OH227374   6.254   3.648   2.441
 9144TIP3    H127375   6.244   3.707   2.366
 9144TIP3    H227376   6.338   3.674   2.480
 9145TIP3   OH227377   2.193   6.483   5.694
 9145TIP3    H127378   2.177   6.477   5.788
 9145TIP3    H227379   2.223   6.573   5.680
 9146TIP3   OH227380   5.995   2.894   3.198
 9146TIP3    H127381   5.912   2.927   3.166
 9146TIP3    H227382   5.974   2.811   3.241
 9147TIP3   OH227383   5.805   3.519   5.887
 9147TIP3    H127384   5.711   3.538   5.880
 9147TIP3    H227385   5.812   3.452   5.954
 9148TIP3   OH227386   0.624   6.254   4.540
 9148TIP3    H127387   0.611   6.290   4.452
 9148TIP3    H227388   0.562   6.181   4.545
 9149TIP3   OH227389   6.282   5.949   5.217
 9149TIP3    H127390   6.287   5.935   5.312
 9149TIP3    H227391   6.207   6.008   5.206
 9150TIP3   OH227392   3.174   1.541   5.977
 9150TIP3    H127393   3.269   1.524   5.978
 9150TIP3    H227394   3.147   1.529   6.068
 9151TIP3   OH227395   1.075   5.834   3.092
 9151TIP3    H127396   1.117   5.915   3.120
 9151TIP3    H227397   1.008   5.818   3.159
 9152TIP3   OH227398   3.870   1.822   5.749
 9152TIP3    H127399   3.912   1.874   5.818
 9152TIP3    H227400   3.880   1.875   5.670
 9153TIP3   OH227401   0.198   5.854   0.292
 9153TIP3    H127402   0.132   5.865   0.361
 9153TIP3    H227403   0.258   5.789   0.327
 9154TIP3   OH227404   2.772   7.251   6.030
 9154TIP3    H127405   2.854   7.299   6.043
 9154TIP3    H227406   2.751   7.216   6.117
 9155TIP3   OH227407   2.831   1.344   5.738
 9155TIP3    H127408   2.907   1.328   5.681
 9155TIP3    H227409   2.788   1.420   5.700
 9156TIP3   OH227410   6.848   0.031   6.444
 9156TIP3    H127411   6.774   0.034   6.383
 9156TIP3    H227412   6.898   0.111   6.425
 9157TIP3   OH227413   7.948   0.922   4.520
 9157TIP3    H127414   7.942   0.976   4.599
 9157TIP3    H227415   8.004   0.971   4.460
 9158TIP3   OH227416   1.538   4.715   2.750
 9158TIP3    H127417   1.507   4.806   2.753
 9158TIP3    H227418   1.472   4.669   2.699
 9159TIP3   OH227419   0.645   4.239   1.835
 9159TIP3    H127420   0.672   4.329   1.815
 9159TIP3    H227421   0.593   4.247   1.914
 9160TIP3   OH227422   1.959   7.679   6.130
 9160TIP3    H127423   1.951   7.705   6.221
 9160TIP3    H227424   1.907   7.743   6.082
 9161TIP3   OH227425   1.678   5.572   4.593
 9161TIP3    H127426   1.705   5.550   4.505
 9161TIP3    H227427   1.610   5.508   4.615
 9162TIP3   OH227428   1.071   0.154   4.894
 9162TIP3    H127429   1.039   0.195   4.974
 9162TIP3    H227430   1.009   0.083   4.877
 9163TIP3   OH227431   2.627   1.256   3.800
 9163TIP3    H127432   2.713   1.226   3.773
 9163TIP3    H227433   2.589   1.296   3.721
 9164TIP3   OH227434   5.415   1.943   0.470
 9164TIP3    H127435   5.405   2.018   0.410
 9164TIP3    H227436   5.357   1.964   0.543
 9165TIP3   OH227437   5.911   3.609   3.111
 9165TIP3    H127438   5.846   3.615   3.041
 9165TIP3    H227439   5.928   3.700   3.135
 9166TIP3   OH227440   6.150   0.919   5.544
 9166TIP3    H127441   6.222   0.936   5.605
 9166TIP3    H227442   6.115   1.006   5.524
 9167TIP3   OH227443   6.601   5.999   0.689
 9167TIP3    H127444   6.594   5.910   0.724
 9167TIP3    H227445   6.665   5.991   0.618
 9168TIP3   OH227446   4.366   6.228   2.818
 9168TIP3    H127447   4.349   6.299   2.880
 9168TIP3    H227448   4.352   6.268   2.732
 9169TIP3   OH227449   6.002   0.696   1.775
 9169TIP3    H127450   6.022   0.609   1.740
 9169TIP3    H227451   5.931   0.681   1.837
 9170TIP3   OH227452   0.763   3.677   4.247
 9170TIP3    H127453   0.712   3.602   4.279
 9170TIP3    H227454   0.742   3.748   4.308
 9171TIP3   OH227455   5.634   3.169   2.841
 9171TIP3    H127456   5.666   3.082   2.865
 9171TIP3    H227457   5.661   3.181   2.751
 9172TIP3   OH227458   3.695   4.723   0.796
 9172TIP3    H127459   3.767   4.764   0.748
 9172TIP3    H227460   3.714   4.629   0.793
 9173TIP3   OH227461   1.443   4.436   6.597
 9173TIP3    H127462   1.353   4.448   6.569
 9173TIP3    H227463   1.479   4.524   6.603
 9174TIP3   OH227464   7.572   6.393   5.238
 9174TIP3    H127465   7.561   6.357   5.327
 9174TIP3    H227466   7.532   6.479   5.242
 9175TIP3   OH227467   7.111   0.950   4.309
 9175TIP3    H127468   7.153   0.997   4.236
 9175TIP3    H227469   7.078   1.020   4.366
 9176TIP3   OH227470   7.399   5.686   0.623
 9176TIP3    H127471   7.384   5.629   0.547
 9176TIP3    H227472   7.493   5.679   0.640
 9177TIP3   OH227473   3.442   6.540   5.691
 9177TIP3    H127474   3.527   6.496   5.689
 9177TIP3    H227475   3.433   6.571   5.781
 9178TIP3   OH227476   3.347   3.248   0.684
 9178TIP3    H127477   3.292   3.244   0.607
 9178TIP3    H227478   3.324   3.331   0.726
 9179TIP3   OH227479   7.500   4.610   0.302
 9179TIP3    H127480   7.580   4.562   0.284
 9179TIP3    H227481   7.528   4.683   0.358
 9180TIP3   OH227482   7.248   6.525   2.723
 9180TIP3    H127483   7.289   6.440   2.707
 9180TIP3    H227484   7.308   6.570   2.782
 9181TIP3   OH227485   2.828   1.056   0.300
 9181TIP3    H127486   2.887   1.052   0.375
 9181TIP3    H227487   2.791   1.144   0.303
 9182TIP3   OH227488   3.663   7.496   5.925
 9182TIP3    H127489   3.695   7.552   5.995
 9182TIP3    H227490   3.599   7.550   5.878
 9183TIP3   OH227491   1.822   2.219   3.957
 9183TIP3    H127492   1.910   2.220   3.995
 9183TIP3    H227493   1.787   2.306   3.977
 9184TIP3   OH227494   3.258   5.843   5.137
 9184TIP3    H127495   3.212   5.917   5.097
 9184TIP3    H227496   3.243   5.770   5.077
 9185TIP3   OH227497   0.663   2.266   4.790
 9185TIP3    H127498   0.740   2.235   4.838
 9185TIP3    H227499   0.600   2.195   4.799
 9186TIP3   OH227500   4.666   1.711   3.963
 9186TIP3    H127501   4.727   1.638   3.976
 9186TIP3    H227502   4.633   1.699   3.874
 9187TIP3   OH227503   0.195   2.108   4.192
 9187TIP3    H127504   0.237   2.170   4.133
 9187TIP3    H227505   0.257   2.100   4.266
 9188TIP3   OH227506   0.592   2.134   2.552
 9188TIP3    H127507   0.652   2.199   2.514
 9188TIP3    H227508   0.624   2.050   2.520
 9189TIP3   OH227509   2.867   5.457   2.980
 9189TIP3    H127510   2.892   5.366   2.969
 9189TIP3    H227511   2.810   5.476   2.905
 9190TIP3   OH227512   5.030   7.739   1.681
 9190TIP3    H127513   5.064   7.760   1.768
 9190TIP3    H227514   4.939   7.715   1.695
 9191TIP3   OH227515   7.587   0.937   0.445
 9191TIP3    H127516   7.494   0.916   0.449
 9191TIP3    H227517   7.629   0.853   0.425
 9192TIP3   OH227518   5.169   4.084   4.967
 9192TIP3    H127519   5.225   4.014   4.934
 9192TIP3    H227520   5.153   4.139   4.890
 9193TIP3   OH227521   1.168   7.492   2.471
 9193TIP3    H127522   1.263   7.495   2.454
 9193TIP3    H227523   1.159   7.523   2.561
 9194TIP3   OH227524   4.444   1.322   0.789
 9194TIP3    H127525   4.404   1.245   0.748
 9194TIP3    H227526   4.536   1.297   0.801
 9195TIP3   OH227527   2.657   2.517   0.703
 9195TIP3    H127528   2.682   2.456   0.634
 9195TIP3    H227529   2.645   2.462   0.780
 9196TIP3   OH227530   5.047   1.192   0.535
 9196TIP3    H127531   5.021   1.229   0.451
 9196TIP3    H227532   5.129   1.147   0.516
 9197TIP3   OH227533   2.059   1.784   0.971
 9197TIP3    H127534   2.051   1.729   1.050
 9197TIP3    H227535   1.969   1.796   0.941
 9198TIP3   OH227536   0.678   2.199   6.519
 9198TIP3    H127537   0.697   2.185   6.426
 9198TIP3    H227538   0.689   2.293   6.532
 9199TIP3   OH227539   7.586   4.944   5.701
 9199TIP3    H127540   7.530   5.001   5.753
 9199TIP3    H227541   7.645   5.004   5.655
 9200TIP3   OH227542   7.823   4.048   2.978
 9200TIP3    H127543   7.796   4.073   3.067
 9200TIP3    H227544   7.748   4.070   2.923
 9201TIP3   OH227545   7.004   7.369   4.935
 9201TIP3    H127546   6.938   7.397   4.997
 9201TIP3    H227547   7.047   7.450   4.907
 9202TIP3   OH227548   7.980   4.445   0.715
 9202TIP3    H127549   8.009   4.355   0.697
 9202TIP3    H227550   7.957   4.480   0.629
 9203TIP3   OH227551   5.783   4.163   0.466
 9203TIP3    H127552   5.729   4.242   0.461
 9203TIP3    H227553   5.721   4.092   0.484
 9204TIP3   OH227554   0.770   6.178   1.013
 9204TIP3    H127555   0.721   6.172   1.095
 9204TIP3    H227556   0.859   6.154   1.036
 9205TIP3   OH227557   7.108   5.750   2.760
 9205TIP3    H127558   7.033   5.798   2.725
 9205TIP3    H227559   7.158   5.724   2.683
 9206TIP3   OH227560   2.488   0.957   1.854
 9206TIP3    H127561   2.448   0.871   1.838
 9206TIP3    H227562   2.479   0.970   1.948
 9207TIP3   OH227563   2.707   0.155   5.656
 9207TIP3    H127564   2.762   0.101   5.713
 9207TIP3    H227565   2.768   0.212   5.610
 9208TIP3   OH227566   2.425   5.735   2.154
 9208TIP3    H127567   2.504   5.754   2.101
 9208TIP3    H227568   2.459   5.719   2.242
 9209TIP3   OH227569   5.859   2.744   0.632
 9209TIP3    H127570   5.867   2.838   0.649
 9209TIP3    H227571   5.893   2.733   0.543
 9210TIP3   OH227572   6.389   2.199   4.067
 9210TIP3    H127573   6.353   2.251   3.996
 9210TIP3    H227574   6.480   2.184   4.042
 9211TIP3   OH227575   5.620   2.033   2.279
 9211TIP3    H127576   5.705   2.052   2.239
 9211TIP3    H227577   5.557   2.054   2.211
 9212TIP3   OH227578   7.894   3.669   3.182
 9212TIP3    H127579   7.851   3.586   3.202
 9212TIP3    H227580   7.982   3.645   3.156
 9213TIP3   OH227581   6.194   5.418   4.900
 9213TIP3    H127582   6.100   5.436   4.910
 9213TIP3    H227583   6.214   5.449   4.812
 9214TIP3   OH227584   5.720   0.208   4.211
 9214TIP3    H127585   5.808   0.240   4.192
 9214TIP3    H227586   5.732   0.145   4.282
 9215TIP3   OH227587   3.071   4.056   3.890
 9215TIP3    H127588   3.051   3.980   3.835
 9215TIP3    H227589   3.121   4.115   3.834
 9216TIP3   OH227590   7.653   0.228   4.205
 9216TIP3    H127591   7.576   0.175   4.226
 9216TIP3    H227592   7.673   0.206   4.115
 9217TIP3   OH227593   3.576   5.782   5.549
 9217TIP3    H127594   3.561   5.852   5.486
 9217TIP3    H227595   3.490   5.764   5.587
 9218TIP3   OH227596   5.273   0.305   6.074
 9218TIP3    H127597   5.240   0.221   6.041
 9218TIP3    H227598   5.350   0.282   6.126
 9219TIP3   OH227599   1.109   6.780   0.833
 9219TIP3    H127600   1.115   6.876   0.837
 9219TIP3    H227601   1.078   6.762   0.744
 9220TIP3   OH227602   6.549   2.648   6.461
 9220TIP3    H127603   6.576   2.599   6.383
 9220TIP3    H227604   6.505   2.583   6.516
 9221TIP3   OH227605   7.827   6.582   0.396
 9221TIP3    H127606   7.851   6.552   0.483
 9221TIP3    H227607   7.732   6.590   0.398
 9222TIP3   OH227608   3.346   2.401   5.109
 9222TIP3    H127609   3.424   2.455   5.123
 9222TIP3    H227610   3.331   2.359   5.194
 9223TIP3   OH227611   7.237   2.182   3.415
 9223TIP3    H127612   7.313   2.207   3.467
 9223TIP3    H227613   7.244   2.087   3.405
 9224TIP3   OH227614   7.447   7.027   3.946
 9224TIP3    H127615   7.439   7.018   4.041
 9224TIP3    H227616   7.404   6.949   3.911
 9225TIP3   OH227617   4.655   5.697   5.848
 9225TIP3    H127618   4.666   5.775   5.902
 9225TIP3    H227619   4.693   5.722   5.763
 9226TIP3   OH227620   4.156   4.840   5.049
 9226TIP3    H127621   4.077   4.831   5.101
 9226TIP3    H227622   4.205   4.760   5.066
 9227TIP3   OH227623   5.117   3.193   3.255
 9227TIP3    H127624   5.175   3.190   3.179
 9227TIP3    H227625   5.031   3.170   3.220
 9228TIP3   OH227626   4.053   2.768   4.800
 9228TIP3    H127627   3.997   2.706   4.754
 9228TIP3    H227628   4.026   2.854   4.768
 9229TIP3   OH227629   0.197   3.125   1.005
 9229TIP3    H127630   0.204   3.036   0.973
 9229TIP3    H227631   0.121   3.161   0.958
 9230TIP3   OH227632   3.855   4.303   2.677
 9230TIP3    H127633   3.906   4.231   2.714
 9230TIP3    H227634   3.815   4.266   2.598
 9231TIP3   OH227635   1.356   2.784   1.995
 9231TIP3    H127636   1.297   2.709   2.009
 9231TIP3    H227637   1.371   2.819   2.083
 9232TIP3   OH227638   5.173   5.615   0.076
 9232TIP3    H127639   5.102   5.598   0.015
 9232TIP3    H227640   5.130   5.627   0.161
 9233TIP3   OH227641   0.129   4.691   6.431
 9233TIP3    H127642   0.192   4.761   6.448
 9233TIP3    H227643   0.152   4.659   6.344
 9234TIP3   OH227644   1.000   2.893   2.039
 9234TIP3    H127645   1.061   2.870   2.109
 9234TIP3    H227646   0.966   2.979   2.065
 9235TIP3   OH227647   2.433   0.842   4.779
 9235TIP3    H127648   2.453   0.907   4.712
 9235TIP3    H227649   2.406   0.765   4.730
 9236TIP3   OH227650   6.652   5.239   6.006
 9236TIP3    H127651   6.724   5.181   6.029
 9236TIP3    H227652   6.635   5.289   6.085
 9237TIP3   OH227653   2.482   1.199   1.140
 9237TIP3    H127654   2.450   1.174   1.227
 9237TIP3    H227655   2.575   1.179   1.142
 9238TIP3   OH227656   1.808   0.483   0.515
 9238TIP3    H127657   1.743   0.522   0.456
 9238TIP3    H227658   1.836   0.555   0.571
 9239TIP3   OH227659   5.609   4.879   0.865
 9239TIP3    H127660   5.540   4.883   0.931
 9239TIP3    H227661   5.656   4.962   0.873
 9240TIP3   OH227662   4.641   3.368   2.272
 9240TIP3    H127663   4.722   3.412   2.247
 9240TIP3    H227664   4.623   3.397   2.361
 9241TIP3   OH227665   4.194   3.328   1.476
 9241TIP3    H127666   4.283   3.331   1.442
 9241TIP3    H227667   4.147   3.398   1.430
 9242TIP3   OH227668   6.304   2.256   1.092
 9242TIP3    H127669   6.287   2.162   1.083
 9242TIP3    H227670   6.380   2.261   1.151
 9243TIP3   OH227671   0.253   3.599   1.652
 9243TIP3    H127672   0.175   3.653   1.635
 9243TIP3    H227673   0.221   3.509   1.647
 9244TIP3   OH227674   7.051   0.217   3.761
 9244TIP3    H127675   7.072   0.149   3.824
 9244TIP3    H227676   6.963   0.196   3.731
 9245TIP3   OH227677   6.463   7.267   5.710
 9245TIP3    H127678   6.401   7.334   5.736
 9245TIP3    H227679   6.526   7.264   5.782
 9246TIP3   OH227680   0.626   7.057   6.257
 9246TIP3    H127681   0.670   6.993   6.201
 9246TIP3    H227682   0.620   7.013   6.342
 9247TIP3   OH227683   2.328   3.117   2.080
 9247TIP3    H127684   2.267   3.160   2.140
 9247TIP3    H227685   2.328   3.025   2.106
 9248TIP3   OH227686   3.786   5.948   5.179
 9248TIP3    H127687   3.721   5.886   5.148
 9248TIP3    H227688   3.828   5.905   5.253
 9249TIP3   OH227689   7.804   3.374   4.973
 9249TIP3    H127690   7.741   3.346   5.040
 9249TIP3    H227691   7.846   3.292   4.945
 9250TIP3   OH227692   7.431   4.036   5.725
 9250TIP3    H127693   7.415   4.119   5.771
 9250TIP3    H227694   7.524   4.039   5.702
 9251TIP3   OH227695   7.181   5.217   4.181
 9251TIP3    H127696   7.086   5.214   4.191
 9251TIP3    H227697   7.197   5.170   4.100
 9252TIP3   OH227698   0.474   5.380   5.288
 9252TIP3    H127699   0.531   5.451   5.318
 9252TIP3    H227700   0.424   5.418   5.215
 9253TIP3   OH227701   1.327   5.155   0.788
 9253TIP3    H127702   1.332   5.244   0.822
 9253TIP3    H227703   1.250   5.117   0.831
 9254TIP3   OH227704   3.239   7.377   5.435
 9254TIP3    H127705   3.291   7.313   5.483
 9254TIP3    H227706   3.194   7.326   5.368
 9255TIP3   OH227707   3.766   5.172   1.489
 9255TIP3    H127708   3.690   5.121   1.462
 9255TIP3    H227709   3.795   5.130   1.570
 9256TIP3   OH227710   8.006   3.118   6.489
 9256TIP3    H127711   7.969   3.116   6.577
 9256TIP3    H227712   8.070   3.047   6.487
 9257TIP3   OH227713   6.703   0.007   6.170
 9257TIP3    H127714   6.644   0.007   6.095
 9257TIP3    H227715   6.779  -0.044   6.141
 9258TIP3   OH227716   6.378   0.549   4.198
 9258TIP3    H127717   6.433   0.501   4.136
 9258TIP3    H227718   6.406   0.640   4.189
 9259TIP3   OH227719   6.722   6.609   5.212
 9259TIP3    H127720   6.762   6.578   5.293
 9259TIP3    H227721   6.645   6.658   5.240
 9260TIP3   OH227722   0.943   1.943   5.574
 9260TIP3    H127723   0.913   1.874   5.514
 9260TIP3    H227724   1.038   1.942   5.566
 9261TIP3   OH227725   0.248   1.456   5.168
 9261TIP3    H127726   0.333   1.478   5.207
 9261TIP3    H227727   0.253   1.489   5.078
 9262TIP3   OH227728   4.704   2.779   2.752
 9262TIP3    H127729   4.677   2.696   2.792
 9262TIP3    H227730   4.638   2.795   2.685
 9263TIP3   OH227731   5.799   0.697   6.123
 9263TIP3    H127732   5.871   0.723   6.066
 9263TIP3    H227733   5.747   0.776   6.134
 9264TIP3   OH227734   6.760   0.739   4.216
 9264TIP3    H127735   6.669   0.763   4.196
 9264TIP3    H227736   6.812   0.811   4.182
 9265TIP3   OH227737   3.575   1.427   1.437
 9265TIP3    H127738   3.491   1.472   1.440
 9265TIP3    H227739   3.633   1.488   1.392
 9266TIP3   OH227740   4.483   7.162   3.561
 9266TIP3    H127741   4.485   7.254   3.535
 9266TIP3    H227742   4.503   7.163   3.655
 9267TIP3   OH227743   6.143   6.699   3.720
 9267TIP3    H127744   6.137   6.605   3.700
 9267TIP3    H227745   6.153   6.741   3.635
 9268TIP3   OH227746   1.840   4.271   2.392
 9268TIP3    H127747   1.780   4.345   2.381
 9268TIP3    H227748   1.910   4.305   2.447
 9269TIP3   OH227749   3.079   5.799   5.379
 9269TIP3    H127750   3.116   5.757   5.301
 9269TIP3    H227751   3.011   5.857   5.345
 9270TIP3   OH227752   5.335   3.988   6.131
 9270TIP3    H127753   5.377   4.073   6.147
 9270TIP3    H227754   5.371   3.958   6.048
 9271TIP3   OH227755   0.419   3.995   6.445
 9271TIP3    H127756   0.503   4.040   6.440
 9271TIP3    H227757   0.386   4.015   6.533
 9272TIP3   OH227758   7.696   0.242   5.424
 9272TIP3    H127759   7.635   0.172   5.447
 9272TIP3    H227760   7.640   0.316   5.403
 9273TIP3   OH227761   6.638   3.035   3.511
 9273TIP3    H127762   6.704   3.104   3.516
 9273TIP3    H227763   6.578   3.063   3.442
 9274TIP3   OH227764   7.294   0.842   0.536
 9274TIP3    H127765   7.269   0.932   0.513
 9274TIP3    H227766   7.239   0.787   0.480
 9275TIP3   OH227767   2.718   0.344   3.973
 9275TIP3    H127768   2.645   0.286   3.950
 9275TIP3    H227769   2.751   0.309   4.056
 9276TIP3   OH227770   7.939   6.225   5.975
 9276TIP3    H127771   7.955   6.294   6.040
 9276TIP3    H227772   8.016   6.169   5.981
 9277TIP3   OH227773   3.209   2.844   5.757
 9277TIP3    H127774   3.120   2.863   5.785
 9277TIP3    H227775   3.207   2.752   5.731
 9278TIP3   OH227776   1.622   0.387   5.578
 9278TIP3    H127777   1.574   0.327   5.522
 9278TIP3    H227778   1.554   0.438   5.623
 9279TIP3   OH227779   0.278   1.550   2.419
 9279TIP3    H127780   0.190   1.541   2.456
 9279TIP3    H227781   0.316   1.624   2.465
 9280TIP3   OH227782   3.223   0.149   2.744
 9280TIP3    H127783   3.237   0.061   2.778
 9280TIP3    H227784   3.130   0.151   2.721
 9281TIP3   OH227785   3.418   1.000   0.094
 9281TIP3    H127786   3.510   0.984   0.113
 9281TIP3    H227787   3.383   1.036   0.176
 9282TIP3   OH227788   4.140   4.959   2.396
 9282TIP3    H127789   4.145   4.864   2.409
 9282TIP3    H227790   4.069   4.988   2.454
 9283TIP3   OH227791   1.590   2.072   1.530
 9283TIP3    H127792   1.590   1.979   1.553
 9283TIP3    H227793   1.637   2.076   1.447
 9284TIP3   OH227794   2.924   0.733   1.450
 9284TIP3    H127795   2.912   0.697   1.538
 9284TIP3    H227796   2.857   0.801   1.442
 9285TIP3   OH227797   6.323   0.454   2.042
 9285TIP3    H127798   6.363   0.433   1.957
 9285TIP3    H227799   6.294   0.370   2.076
 9286TIP3   OH227800   3.576   4.251   0.324
 9286TIP3    H127801   3.509   4.271   0.259
 9286TIP3    H227802   3.533   4.192   0.386
 9287TIP3   OH227803   6.200   5.747   0.652
 9287TIP3    H127804   6.247   5.792   0.722
 9287TIP3    H227805   6.180   5.661   0.688
 9288TIP3   OH227806   6.395   1.692   4.997
 9288TIP3    H127807   6.326   1.726   4.941
 9288TIP3    H227808   6.462   1.760   4.999
 9289TIP3   OH227809   2.817   4.289   4.232
 9289TIP3    H127810   2.843   4.277   4.140
 9289TIP3    H227811   2.885   4.345   4.269
 9290TIP3   OH227812   0.993  -0.006   3.662
 9290TIP3    H127813   0.987   0.077   3.615
 9290TIP3    H227814   1.085  -0.012   3.689
 9291TIP3   OH227815   3.702   0.844   2.340
 9291TIP3    H127816   3.741   0.843   2.427
 9291TIP3    H227817   3.638   0.772   2.342
 9292TIP3   OH227818   6.827   2.090   3.722
 9292TIP3    H127819   6.888   2.072   3.793
 9292TIP3    H227820   6.882   2.120   3.650
 9293TIP3   OH227821   0.476   4.664   6.615
 9293TIP3    H127822   0.467   4.749   6.571
 9293TIP3    H227823   0.567   4.639   6.602
 9294TIP3   OH227824   1.960   3.160   5.789
 9294TIP3    H127825   1.948   3.186   5.698
 9294TIP3    H227826   2.026   3.091   5.786
 9295TIP3   OH227827   2.048   2.470   3.666
 9295TIP3    H127828   2.110   2.466   3.593
 9295TIP3    H227829   1.963   2.487   3.624
 9296TIP3   OH227830   4.630   4.053   0.283
 9296TIP3    H127831   4.554   4.021   0.235
 9296TIP3    H227832   4.688   3.976   0.289
 9297TIP3   OH227833   3.814   2.175   1.814
 9297TIP3    H127834   3.905   2.205   1.809
 9297TIP3    H227835   3.821   2.080   1.812
 9298TIP3   OH227836   6.308   6.520   5.379
 9298TIP3    H127837   6.400   6.516   5.403
 9298TIP3    H227838   6.271   6.587   5.437
 9299TIP3   OH227839   7.966   6.908   6.683
 9299TIP3    H127840   7.877   6.892   6.653
 9299TIP3    H227841   8.022   6.858   6.624
 9300TIP3   OH227842   2.156   5.161   2.321
 9300TIP3    H127843   2.167   5.174   2.227
 9300TIP3    H227844   2.239   5.191   2.359
 9301TIP3   OH227845   0.701   0.422   4.272
 9301TIP3    H127846   0.742   0.356   4.328
 9301TIP3    H227847   0.659   0.372   4.202
 9302TIP3   OH227848   5.667   7.662   0.393
 9302TIP3    H127849   5.747   7.714   0.401
 9302TIP3    H227850   5.656   7.650   0.298
 9303TIP3   OH227851   6.075   6.112   2.851
 9303TIP3    H127852   6.130   6.160   2.913
 9303TIP3    H227853   6.044   6.037   2.900
 9304TIP3   OH227854   4.330   7.183   1.728
 9304TIP3    H127855   4.370   7.148   1.648
 9304TIP3    H227856   4.245   7.216   1.700
 9305TIP3   OH227857   4.806   5.015   4.352
 9305TIP3    H127858   4.720   5.021   4.394
 9305TIP3    H227859   4.828   4.922   4.358
 9306TIP3   OH227860   6.979   3.736   4.183
 9306TIP3    H127861   6.998   3.730   4.089
 9306TIP3    H227862   6.893   3.695   4.192
 9307TIP3   OH227863   2.852   0.580   2.675
 9307TIP3    H127864   2.931   0.534   2.647
 9307TIP3    H227865   2.873   0.673   2.662
 9308TIP3   OH227866   3.914   5.338   2.153
 9308TIP3    H127867   3.937   5.291   2.234
 9308TIP3    H227868   3.991   5.390   2.133
 9309TIP3   OH227869   1.008   6.093   4.328
 9309TIP3    H127870   1.057   6.158   4.378
 9309TIP3    H227871   0.948   6.054   4.391
 9310TIP3   OH227872   7.939   3.014   1.359
 9310TIP3    H127873   7.880   3.089   1.351
 9310TIP3    H227874   7.889   2.940   1.326
 9311TIP3   OH227875   5.664   5.354   5.640
 9311TIP3    H127876   5.701   5.279   5.594
 9311TIP3    H227877   5.738   5.413   5.653
 9312TIP3   OH227878   7.964   0.680   6.020
 9312TIP3    H127879   7.939   0.639   6.103
 9312TIP3    H227880   7.975   0.773   6.041
 9313TIP3   OH227881   2.913   1.204   0.856
 9313TIP3    H127882   2.919   1.190   0.950
 9313TIP3    H227883   2.931   1.298   0.845
 9314TIP3   OH227884   7.879   6.703   4.073
 9314TIP3    H127885   7.855   6.659   4.155
 9314TIP3    H227886   7.816   6.774   4.065
 9315TIP3   OH227887   4.231   7.709   0.154
 9315TIP3    H127888   4.222   7.621   0.192
 9315TIP3    H227889   4.153   7.756   0.184
 9316TIP3   OH227890   2.791   0.774   2.110
 9316TIP3    H127891   2.774   0.721   2.032
 9316TIP3    H227892   2.884   0.795   2.106
 9317TIP3   OH227893   1.946   4.506   0.876
 9317TIP3    H127894   1.968   4.565   0.948
 9317TIP3    H227895   1.956   4.559   0.797
 9318TIP3   OH227896   0.223   0.162   4.128
 9318TIP3    H127897   0.188   0.081   4.091
 9318TIP3    H227898   0.242   0.217   4.052
 9319TIP3   OH227899   6.469   6.963   2.979
 9319TIP3    H127900   6.484   6.968   3.073
 9319TIP3    H227901   6.443   6.872   2.964
 9320TIP3   OH227902   1.201   0.975   6.379
 9320TIP3    H127903   1.123   0.929   6.411
 9320TIP3    H227904   1.187   0.983   6.285
 9321TIP3   OH227905   4.759   7.316   0.383
 9321TIP3    H127906   4.849   7.343   0.401
 9321TIP3    H227907   4.752   7.316   0.288
 9322TIP3   OH227908   3.728   5.892   3.266
 9322TIP3    H127909   3.735   5.922   3.357
 9322TIP3    H227910   3.817   5.868   3.242
 9323TIP3   OH227911   4.847   6.980   5.722
 9323TIP3    H127912   4.913   6.991   5.791
 9323TIP3    H227913   4.890   6.925   5.657
 9324TIP3   OH227914   2.659   4.589   5.697
 9324TIP3    H127915   2.593   4.521   5.706
 9324TIP3    H227916   2.673   4.596   5.602
 9325TIP3   OH227917   5.067   4.535   4.502
 9325TIP3    H127918   5.136   4.525   4.568
 9325TIP3    H227919   5.071   4.453   4.452
 9326TIP3   OH227920   8.200   2.971   6.158
 9326TIP3    H127921   8.237   2.943   6.074
 9326TIP3    H227922   8.267   3.029   6.195
 9327TIP3   OH227923   2.133   2.116   2.403
 9327TIP3    H127924   2.162   2.198   2.442
 9327TIP3    H227925   2.188   2.105   2.325
 9328TIP3   OH227926   6.971   3.564   3.658
 9328TIP3    H127927   7.000   3.524   3.740
 9328TIP3    H227928   7.030   3.527   3.592
 9329TIP3   OH227929   4.366   2.325   4.683
 9329TIP3    H127930   4.323   2.245   4.655
 9329TIP3    H227931   4.308   2.395   4.654
 9330TIP3   OH227932   5.022   1.651   6.619
 9330TIP3    H127933   5.091   1.635   6.683
 9330TIP3    H227934   5.052   1.726   6.567
 9331TIP3   OH227935   7.306   5.092   4.986
 9331TIP3    H127936   7.370   5.071   4.918
 9331TIP3    H227937   7.322   5.185   5.005
 9332TIP3   OH227938   8.014  -0.007   4.893
 9332TIP3    H127939   8.103  -0.015   4.859
 9332TIP3    H227940   8.025   0.027   4.982
 9333TIP3   OH227941   6.899   6.762   6.610
 9333TIP3    H127942   6.938   6.689   6.563
 9333TIP3    H227943   6.972   6.817   6.636
 9334TIP3   OH227944   0.338   4.995   0.400
 9334TIP3    H127945   0.349   4.902   0.380
 9334TIP3    H227946   0.427   5.027   0.418
 9335TIP3   OH227947   7.333   0.400   1.623
 9335TIP3    H127948   7.279   0.392   1.544
 9335TIP3    H227949   7.406   0.455   1.597
 9336TIP3   OH227950   6.076   4.732   5.275
 9336TIP3    H127951   6.040   4.810   5.233
 9336TIP3    H227952   6.037   4.658   5.228
 9337TIP3   OH227953   1.845   4.273   1.150
 9337TIP3    H127954   1.861   4.257   1.057
 9337TIP3    H227955   1.771   4.333   1.151
 9338TIP3   OH227956   7.887   3.993   0.500
 9338TIP3    H127957   7.808   3.962   0.456
 9338TIP3    H227958   7.944   3.917   0.503
 9339TIP3   OH227959   6.174   7.640   5.257
 9339TIP3    H127960   6.250   7.590   5.286
 9339TIP3    H227961   6.111   7.633   5.329
 9340TIP3   OH227962   0.397   1.445   1.949
 9340TIP3    H127963   0.441   1.445   2.034
 9340TIP3    H227964   0.405   1.535   1.918
 9341TIP3   OH227965   6.169   6.238   6.703
 9341TIP3    H127966   6.161   6.286   6.785
 9341TIP3    H227967   6.079   6.235   6.669
 9342TIP3   OH227968   0.358   3.402   4.360
 9342TIP3    H127969   0.374   3.438   4.448
 9342TIP3    H227970   0.268   3.369   4.364
 9343TIP3   OH227971   1.240   1.079   6.645
 9343TIP3    H127972   1.234   1.070   6.550
 9343TIP3    H227973   1.163   1.130   6.669
 9344TIP3   OH227974   3.838  -0.050   6.693
 9344TIP3    H127975   3.854  -0.068   6.785
 9344TIP3    H227976   3.817   0.043   6.690
 9345TIP3   OH227977   3.167   3.227   5.353
 9345TIP3    H127978   3.109   3.164   5.394
 9345TIP3    H227979   3.126   3.312   5.369
 9346TIP3   OH227980   6.787   6.818   6.218
 9346TIP3    H127981   6.736   6.787   6.293
 9346TIP3    H227982   6.869   6.770   6.223
 9347TIP3   OH227983   7.388   3.050   5.040
 9347TIP3    H127984   7.370   3.143   5.056
 9347TIP3    H227985   7.423   3.048   4.951
 9348TIP3   OH227986   7.187   1.894   1.435
 9348TIP3    H127987   7.097   1.889   1.404
 9348TIP3    H227988   7.209   1.804   1.458
 9349TIP3   OH227989   0.390   2.427   6.329
 9349TIP3    H127990   0.318   2.368   6.355
 9349TIP3    H227991   0.451   2.370   6.282
 9350TIP3   OH227992   2.940   0.155   4.673
 9350TIP3    H127993   2.952   0.211   4.749
 9350TIP3    H227994   3.003   0.187   4.609
 9351TIP3   OH227995   7.310   0.802   6.107
 9351TIP3    H127996   7.384   0.809   6.166
 9351TIP3    H227997   7.346   0.766   6.026
 9352TIP3   OH227998   2.410   4.460   5.456
 9352TIP3    H127999   2.318   4.454   5.481
 9352TIP3    H228000   2.413   4.422   5.368
 9353TIP3   OH228001   1.783   5.532   4.175
 9353TIP3    H128002   1.856   5.534   4.113
 9353TIP3    H228003   1.823   5.504   4.257
 9354TIP3   OH228004   5.165   7.619   4.336
 9354TIP3    H128005   5.151   7.629   4.431
 9354TIP3    H228006   5.174   7.525   4.323
 9355TIP3   OH228007   7.224   2.302   1.008
 9355TIP3    H128008   7.259   2.368   1.069
 9355TIP3    H228009   7.250   2.218   1.046
 9356TIP3   OH228010   4.721   3.552   6.154
 9356TIP3    H128011   4.675   3.622   6.108
 9356TIP3    H228012   4.652   3.490   6.179
 9357TIP3   OH228013   0.864   2.823   4.965
 9357TIP3    H128014   0.954   2.848   4.945
 9357TIP3    H228015   0.825   2.902   5.002
 9358TIP3   OH228016   1.111   4.630   5.928
 9358TIP3    H128017   1.041   4.645   5.992
 9358TIP3    H228018   1.137   4.540   5.942
 9359TIP3   OH228019   5.083   7.414   4.909
 9359TIP3    H128020   5.122   7.338   4.864
 9359TIP3    H228021   4.994   7.386   4.929
 9360TIP3   OH228022   6.838   7.138   2.768
 9360TIP3    H128023   6.882   7.222   2.773
 9360TIP3    H228024   6.908   7.073   2.764
 9361TIP3   OH228025   0.403   5.207   1.087
 9361TIP3    H128026   0.402   5.111   1.079
 9361TIP3    H228027   0.328   5.236   1.037
 9362TIP3   OH228028   8.304   5.762   5.424
 9362TIP3    H128029   8.261   5.847   5.416
 9362TIP3    H228030   8.286   5.734   5.514
 9363TIP3   OH228031   5.569   3.555   3.084
 9363TIP3    H128032   5.618   3.557   3.002
 9363TIP3    H228033   5.583   3.466   3.118
 9364TIP3   OH228034   3.191   5.178   4.693
 9364TIP3    H128035   3.202   5.269   4.719
 9364TIP3    H228036   3.222   5.127   4.768
 9365TIP3   OH228037   7.989   0.958   0.187
 9365TIP3    H128038   7.932   0.985   0.115
 9365TIP3    H228039   8.072   0.938   0.144
 9366TIP3   OH228040   1.399   1.368   0.716
 9366TIP3    H128041   1.362   1.287   0.681
 9366TIP3    H228042   1.338   1.436   0.688
 9367TIP3   OH228043   3.679   6.788   2.123
 9367TIP3    H128044   3.759   6.841   2.126
 9367TIP3    H228045   3.711   6.697   2.119
 9368TIP3   OH228046   4.531   4.230   5.794
 9368TIP3    H128047   4.488   4.285   5.860
 9368TIP3    H228048   4.613   4.203   5.834
 9369TIP3   OH228049   4.578   4.611   0.835
 9369TIP3    H128050   4.647   4.677   0.839
 9369TIP3    H228051   4.561   4.600   0.741
 9370TIP3   OH228052   4.124   5.963   5.102
 9370TIP3    H128053   4.066   5.898   5.142
 9370TIP3    H228054   4.151   6.019   5.175
 9371TIP3   OH228055   3.753   6.427   6.263
 9371TIP3    H128056   3.797   6.367   6.203
 9371TIP3    H228057   3.665   6.392   6.273
 9372TIP3   OH228058   1.768   4.112   3.650
 9372TIP3    H128059   1.722   4.049   3.595
 9372TIP3    H228060   1.704   4.182   3.664
 9373TIP3   OH228061   3.762   2.764   0.737
 9373TIP3    H128062   3.777   2.699   0.668
 9373TIP3    H228063   3.848   2.778   0.777
 9374TIP3   OH228064   3.397   0.258   3.939
 9374TIP3    H128065   3.377   0.205   4.016
 9374TIP3    H228066   3.486   0.290   3.954
 9375TIP3   OH228067   6.548   6.016   3.075
 9375TIP3    H128068   6.457   5.990   3.089
 9375TIP3    H228069   6.556   6.100   3.120
 9376TIP3   OH228070   5.289   2.965   3.350
 9376TIP3    H128071   5.256   3.055   3.346
 9376TIP3    H228072   5.218   2.912   3.313
 9377TIP3   OH228073   1.638   3.990   3.433
 9377TIP3    H128074   1.731   3.994   3.413
 9377TIP3    H228075   1.595   3.984   3.348
 9378TIP3   OH228076   0.119   0.867   5.672
 9378TIP3    H128077   0.047   0.858   5.734
 9378TIP3    H228078   0.088   0.824   5.592
 9379TIP3   OH228079   1.371   7.376   4.137
 9379TIP3    H128080   1.310   7.414   4.200
 9379TIP3    H228081   1.384   7.287   4.167
 9380TIP3   OH228082   2.959   4.819   2.773
 9380TIP3    H128083   2.975   4.829   2.867
 9380TIP3    H228084   3.019   4.749   2.746
 9381TIP3   OH228085   0.227   3.018   4.740
 9381TIP3    H128086   0.176   3.058   4.670
 9381TIP3    H228087   0.278   2.949   4.697
 9382TIP3   OH228088   6.813   0.514   2.829
 9382TIP3    H128089   6.764   0.573   2.887
 9382TIP3    H228090   6.871   0.572   2.779
 9383TIP3   OH228091   2.242   6.256   6.479
 9383TIP3    H128092   2.314   6.302   6.436
 9383TIP3    H228093   2.199   6.206   6.409
 9384TIP3   OH228094   5.081   3.879   6.234
 9384TIP3    H128095   5.155   3.907   6.180
 9384TIP3    H228096   5.039   3.810   6.184
 9385TIP3   OH228097   5.691   3.658   6.730
 9385TIP3    H128098   5.628   3.613   6.673
 9385TIP3    H228099   5.724   3.731   6.677
 9386TIP3   OH228100   3.998   6.597   1.158
 9386TIP3    H128101   3.940   6.652   1.106
 9386TIP3    H228102   3.952   6.586   1.241
 9387TIP3   OH228103   4.450   2.440   3.851
 9387TIP3    H128104   4.514   2.372   3.872
 9387TIP3    H228105   4.460   2.504   3.922
 9388TIP3   OH228106   0.414   2.759   6.130
 9388TIP3    H128107   0.351   2.760   6.058
 9388TIP3    H228108   0.400   2.843   6.174
 9389TIP3   OH228109   3.905   1.253   2.885
 9389TIP3    H128110   3.858   1.171   2.870
 9389TIP3    H228111   3.954   1.239   2.966
 9390TIP3   OH228112   7.801   6.390   5.800
 9390TIP3    H128113   7.845   6.329   5.859
 9390TIP3    H228114   7.870   6.423   5.743
 9391TIP3   OH228115   4.165   5.747   0.715
 9391TIP3    H128116   4.226   5.673   0.721
 9391TIP3    H228117   4.181   5.784   0.628
 9392TIP3   OH228118   7.784   1.231   3.422
 9392TIP3    H128119   7.781   1.293   3.495
 9392TIP3    H228120   7.855   1.263   3.367
 9393TIP3   OH228121   0.089   6.371   6.624
 9393TIP3    H128122   0.144   6.306   6.581
 9393TIP3    H228123   0.149   6.441   6.649
 9394TIP3   OH228124   6.077   6.051   3.988
 9394TIP3    H128125   5.995   6.035   4.035
 9394TIP3    H228126   6.122   6.117   4.041
 9395TIP3   OH228127   0.933   1.590   1.084
 9395TIP3    H128128   1.019   1.576   1.123
 9395TIP3    H228129   0.897   1.502   1.071
 9396TIP3   OH228130   0.001   3.884   6.221
 9396TIP3    H128131  -0.093   3.861   6.223
 9396TIP3    H228132   0.020   3.897   6.128
 9397TIP3   OH228133   8.148   6.200   5.639
 9397TIP3    H128134   8.126   6.264   5.572
 9397TIP3    H228135   8.213   6.142   5.598
 9398TIP3   OH228136   0.654   3.356   5.186
 9398TIP3    H128137   0.591   3.416   5.225
 9398TIP3    H228138   0.680   3.299   5.258
 9399TIP3   OH228139   0.125   0.259   2.964
 9399TIP3    H128140   0.197   0.207   3.000
 9399TIP3    H228141   0.073   0.284   3.040
 9400TIP3   OH228142   1.335   7.009   6.337
 9400TIP3    H128143   1.250   6.986   6.299
 9400TIP3    H228144   1.364   7.085   6.287
 9401TIP3   OH228145   0.280   5.165   0.139
 9401TIP3    H128146   0.303   5.140   0.050
 9401TIP3    H228147   0.273   5.082   0.187
 9402TIP3   OH228148   8.238   2.893   1.094
 9402TIP3    H128149   8.331   2.906   1.076
 9402TIP3    H228150   8.234   2.877   1.189
 9403TIP3   OH228151   4.177   2.366   3.460
 9403TIP3    H128152   4.120   2.441   3.442
 9403TIP3    H228153   4.223   2.390   3.540
 9404TIP3   OH228154   7.039   2.509   3.713
 9404TIP3    H128155   6.951   2.547   3.709
 9404TIP3    H228156   7.092   2.576   3.756
 9405TIP3   OH228157   4.629   0.962   4.083
 9405TIP3    H128158   4.670   0.883   4.120
 9405TIP3    H228159   4.699   1.027   4.083
 9406TIP3   OH228160   2.069   4.384   1.320
 9406TIP3    H128161   2.093   4.345   1.404
 9406TIP3    H228162   2.011   4.319   1.279
 9407TIP3   OH228163   0.039   5.590   2.365
 9407TIP3    H128164   0.074   5.510   2.326
 9407TIP3    H228165   0.038   5.573   2.459
 9408TIP3   OH228166   3.081   1.974   4.136
 9408TIP3    H128167   3.003   1.926   4.164
 9408TIP3    H228168   3.070   1.985   4.042
 9409TIP3   OH228169   4.278   1.799   0.130
 9409TIP3    H128170   4.373   1.788   0.129
 9409TIP3    H228171   4.263   1.886   0.092
 9410TIP3   OH228172   1.120   2.778   5.928
 9410TIP3    H128173   1.042   2.803   5.978
 9410TIP3    H228174   1.183   2.750   5.994
 9411TIP3   OH228175   2.152   2.494   3.088
 9411TIP3    H128176   2.080   2.552   3.062
 9411TIP3    H228177   2.212   2.551   3.136
 9412TIP3   OH228178   4.023   4.684   5.811
 9412TIP3    H128179   3.944   4.703   5.761
 9412TIP3    H228180   3.998   4.614   5.871
 9413TIP3   OH228181   2.876   7.702   0.684
 9413TIP3    H128182   2.841   7.776   0.634
 9413TIP3    H228183   2.901   7.740   0.768
 9414TIP3   OH228184   4.974   1.248   3.905
 9414TIP3    H128185   5.052   1.195   3.889
 9414TIP3    H228186   5.003   1.317   3.965
 9415TIP3   OH228187   0.188   7.173   1.966
 9415TIP3    H128188   0.140   7.226   2.030
 9415TIP3    H228189   0.268   7.147   2.012
 9416TIP3   OH228190   2.514   5.470   1.349
 9416TIP3    H128191   2.500   5.418   1.428
 9416TIP3    H228192   2.571   5.542   1.377
 9417TIP3   OH228193   3.667   7.543   5.011
 9417TIP3    H128194   3.689   7.493   4.933
 9417TIP3    H228195   3.575   7.523   5.028
 9418TIP3   OH228196   3.282   0.260   2.484
 9418TIP3    H128197   3.360   0.220   2.446
 9418TIP3    H228198   3.273   0.218   2.569
 9419TIP3   OH228199   2.364   5.827   0.856
 9419TIP3    H128200   2.435   5.792   0.911
 9419TIP3    H228201   2.390   5.805   0.767
 9420TIP3   OH228202   8.265   2.409   4.539
 9420TIP3    H128203   8.173   2.427   4.560
 9420TIP3    H228204   8.292   2.341   4.600
 9421TIP3   OH228205   5.409   3.880   5.891
 9421TIP3    H128206   5.326   3.839   5.868
 9421TIP3    H228207   5.448   3.905   5.807
 9422TIP3   OH228208   6.762   0.926   2.067
 9422TIP3    H128209   6.703   0.936   2.141
 9422TIP3    H228210   6.718   0.865   2.008
 9423TIP3   OH228211   3.258   0.971   0.732
 9423TIP3    H128212   3.208   0.986   0.812
 9423TIP3    H228213   3.191   0.965   0.663
 9424TIP3   OH228214   2.435   2.876   4.826
 9424TIP3    H128215   2.501   2.818   4.788
 9424TIP3    H228216   2.431   2.950   4.766
 9425TIP3   OH228217   5.449   7.354   4.838
 9425TIP3    H128218   5.378   7.347   4.774
 9425TIP3    H228219   5.494   7.269   4.832
 9426TIP3   OH228220   6.563   4.040   3.267
 9426TIP3    H128221   6.639   4.078   3.310
 9426TIP3    H228222   6.530   4.110   3.210
 9427TIP3   OH228223   0.860   2.844   5.415
 9427TIP3    H128224   0.914   2.848   5.495
 9427TIP3    H228225   0.775   2.878   5.442
 9428TIP3   OH228226   1.229   7.551   1.038
 9428TIP3    H128227   1.215   7.461   1.065
 9428TIP3    H228228   1.296   7.546   0.970
 9429TIP3   OH228229   7.180   6.188   0.558
 9429TIP3    H128230   7.121   6.176   0.632
 9429TIP3    H228231   7.263   6.149   0.586
 9430TIP3   OH228232   1.543   5.045   4.434
 9430TIP3    H128233   1.524   5.138   4.446
 9430TIP3    H228234   1.625   5.043   4.384
 9431TIP3   OH228235   0.917   4.646   6.226
 9431TIP3    H128236   0.861   4.569   6.226
 9431TIP3    H228237   0.884   4.699   6.152
 9432TIP3   OH228238   3.088   2.824   5.413
 9432TIP3    H128239   3.049   2.911   5.401
 9432TIP3    H228240   3.145   2.833   5.489
 9433TIP3   OH228241   1.901   3.988   3.861
 9433TIP3    H128242   1.836   4.033   3.807
 9433TIP3    H228243   1.985   4.028   3.837
 9434TIP3   OH228244   3.227   1.486   1.226
 9434TIP3    H128245   3.230   1.514   1.317
 9434TIP3    H228246   3.308   1.522   1.188
 9435TIP3   OH228247   5.321   5.160   2.726
 9435TIP3    H128248   5.269   5.233   2.694
 9435TIP3    H228249   5.358   5.120   2.648
 9436TIP3   OH228250   3.424   6.936   3.371
 9436TIP3    H128251   3.345   6.961   3.418
 9436TIP3    H228252   3.483   7.011   3.379
 9437TIP3   OH228253   7.818   5.667   0.921
 9437TIP3    H128254   7.870   5.588   0.936
 9437TIP3    H228255   7.764   5.675   1.000
 9438TIP3   OH228256   4.147   5.695   4.284
 9438TIP3    H128257   4.219   5.642   4.250
 9438TIP3    H228258   4.092   5.632   4.331
 9439TIP3   OH228259   4.936   6.653   2.134
 9439TIP3    H128260   4.977   6.666   2.220
 9439TIP3    H228261   4.845   6.678   2.148
 9440TIP3   OH228262   2.549   3.398   1.707
 9440TIP3    H128263   2.469   3.449   1.702
 9440TIP3    H228264   2.569   3.395   1.801
 9441TIP3   OH228265   0.306   5.361   4.927
 9441TIP3    H128266   0.315   5.280   4.976
 9441TIP3    H228267   0.275   5.424   4.992
 9442TIP3   OH228268   3.261   0.645   6.260
 9442TIP3    H128269   3.297   0.667   6.174
 9442TIP3    H228270   3.202   0.718   6.281
 9443TIP3   OH228271   6.166   3.030   0.476
 9443TIP3    H128272   6.203   2.944   0.454
 9443TIP3    H228273   6.228   3.066   0.540
 9444TIP3   OH228274   6.979   0.193   1.537
 9444TIP3    H128275   6.914   0.225   1.598
 9444TIP3    H228276   6.929   0.159   1.463
 9445TIP3   OH228277   3.533   4.751   1.051
 9445TIP3    H128278   3.561   4.743   1.142
 9445TIP3    H228279   3.597   4.699   1.002
 9446TIP3   OH228280   6.863   3.439   5.076
 9446TIP3    H128281   6.940   3.406   5.030
 9446TIP3    H228282   6.847   3.525   5.037
 9447TIP3   OH228283   4.687   2.408   5.587
 9447TIP3    H128284   4.677   2.347   5.515
 9447TIP3    H228285   4.643   2.366   5.661
 9448TIP3   OH228286   8.213   0.678   3.868
 9448TIP3    H128287   8.173   0.622   3.934
 9448TIP3    H228288   8.140   0.730   3.833
 9449TIP3   OH228289   7.664   0.458   2.860
 9449TIP3    H128290   7.716   0.533   2.888
 9449TIP3    H228291   7.590   0.497   2.813
 9450TIP3   OH228292   5.753   2.936   0.887
 9450TIP3    H128293   5.787   3.015   0.927
 9450TIP3    H228294   5.698   2.967   0.814
 9451TIP3   OH228295   5.316   3.550   4.501
 9451TIP3    H128296   5.278   3.634   4.527
 9451TIP3    H228297   5.410   3.563   4.505
 9452TIP3   OH228298   7.668   6.817   1.374
 9452TIP3    H128299   7.701   6.739   1.419
 9452TIP3    H228300   7.747   6.866   1.352
 9453TIP3   OH228301   2.951   6.638   5.677
 9453TIP3    H128302   2.886   6.617   5.743
 9453TIP3    H228303   3.030   6.592   5.706
 9454TIP3   OH228304   1.602   5.831   4.981
 9454TIP3    H128305   1.545   5.766   5.023
 9454TIP3    H228306   1.593   5.815   4.887
 9455TIP3   OH228307   5.841   0.037   6.004
 9455TIP3    H128308   5.875  -0.048   6.032
 9455TIP3    H228309   5.872   0.047   5.914
 9456TIP3   OH228310   7.285   0.393   4.695
 9456TIP3    H128311   7.224   0.466   4.708
 9456TIP3    H228312   7.260   0.355   4.611
 9457TIP3   OH228313   6.494   2.720   4.695
 9457TIP3    H128314   6.458   2.669   4.623
 9457TIP3    H228315   6.457   2.681   4.774
 9458TIP3   OH228316   2.659   5.118   1.580
 9458TIP3    H128317   2.565   5.125   1.593
 9458TIP3    H228318   2.696   5.189   1.633
 9459TIP3   OH228319   1.226   7.037   3.407
 9459TIP3    H128320   1.273   6.983   3.471
 9459TIP3    H228321   1.211   7.120   3.452
 9460TIP3   OH228322   4.797   3.283   1.236
 9460TIP3    H128323   4.837   3.276   1.150
 9460TIP3    H228324   4.870   3.303   1.295
 9461TIP3   OH228325   5.811   3.118   5.828
 9461TIP3    H128326   5.867   3.080   5.895
 9461TIP3    H228327   5.724   3.122   5.868
 9462TIP3   OH228328   2.693   3.022   1.190
 9462TIP3    H128329   2.712   3.012   1.283
 9462TIP3    H228330   2.605   3.058   1.187
 9463TIP3   OH228331   7.414   1.851   1.295
 9463TIP3    H128332   7.332   1.879   1.336
 9463TIP3    H228333   7.387   1.790   1.227
 9464TIP3   OH228334   1.804   7.350   6.496
 9464TIP3    H128335   1.730   7.332   6.554
 9464TIP3    H228336   1.831   7.439   6.520
 9465TIP3   OH228337   5.341   7.726   3.267
 9465TIP3    H128338   5.300   7.667   3.204
 9465TIP3    H228339   5.297   7.810   3.254
 9466TIP3   OH228340   7.272   4.047   6.623
 9466TIP3    H128341   7.344   4.109   6.627
 9466TIP3    H228342   7.228   4.056   6.708
 9467TIP3   OH228343   4.178   4.396   5.904
 9467TIP3    H128344   4.262   4.419   5.943
 9467TIP3    H228345   4.113   4.434   5.962
 9468TIP3   OH228346   1.818   5.526   5.019
 9468TIP3    H128347   1.777   5.448   5.056
 9468TIP3    H228348   1.851   5.497   4.933
 9469TIP3   OH228349   7.220   7.469   6.029
 9469TIP3    H128350   7.163   7.407   6.075
 9469TIP3    H228351   7.215   7.443   5.938
 9470TIP3   OH228352   1.797   0.209   0.433
 9470TIP3    H128353   1.808   0.300   0.460
 9470TIP3    H228354   1.835   0.206   0.345
 9471TIP3   OH228355   0.532   7.289   1.445
 9471TIP3    H128356   0.487   7.366   1.411
 9471TIP3    H228357   0.485   7.267   1.525
 9472TIP3   OH228358   3.168   4.410   2.357
 9472TIP3    H128359   3.161   4.353   2.434
 9472TIP3    H228360   3.161   4.499   2.392
 9473TIP3   OH228361   4.507   3.083   3.170
 9473TIP3    H128362   4.429   3.110   3.123
 9473TIP3    H228363   4.548   3.017   3.115
 9474TIP3   OH228364   7.460   1.280   5.137
 9474TIP3    H128365   7.376   1.317   5.108
 9474TIP3    H228366   7.451   1.272   5.232
 9475TIP3   OH228367   2.063   5.067   6.791
 9475TIP3    H128368   2.027   5.003   6.730
 9475TIP3    H228369   2.110   5.130   6.736
 9476TIP3   OH228370   2.788   2.793   1.044
 9476TIP3    H128371   2.718   2.740   1.083
 9476TIP3    H228372   2.772   2.881   1.076
 9477TIP3   OH228373   5.741   0.982   3.672
 9477TIP3    H128374   5.690   0.959   3.749
 9477TIP3    H228375   5.723   0.912   3.609
 9478TIP3   OH228376   4.125   4.725   6.219
 9478TIP3    H128377   4.142   4.813   6.252
 9478TIP3    H228378   4.120   4.737   6.124
 9479TIP3   OH228379   2.897   5.170   5.194
 9479TIP3    H128380   2.851   5.086   5.199
 9479TIP3    H228381   2.977   5.157   5.246
 9480TIP3   OH228382   1.929   5.940   3.925
 9480TIP3    H128383   1.958   6.027   3.897
 9480TIP3    H228384   1.954   5.935   4.018
 9481TIP3   OH228385   0.067   0.533   1.206
 9481TIP3    H128386   0.014   0.460   1.240
 9481TIP3    H228387   0.004   0.591   1.164
 9482TIP3   OH228388   6.350   0.349   1.629
 9482TIP3    H128389   6.321   0.264   1.595
 9482TIP3    H228390   6.398   0.328   1.709
 9483TIP3   OH228391   3.768   1.347   3.273
 9483TIP3    H128392   3.837   1.332   3.209
 9483TIP3    H228393   3.743   1.438   3.261
 9484TIP3   OH228394   5.724   4.284   5.154
 9484TIP3    H128395   5.705   4.190   5.151
 9484TIP3    H228396   5.706   4.308   5.245
 9485TIP3   OH228397   1.507   2.751   3.525
 9485TIP3    H128398   1.566   2.702   3.583
 9485TIP3    H228399   1.564   2.809   3.475
 9486TIP3   OH228400   4.431   7.160   4.033
 9486TIP3    H128401   4.471   7.215   3.965
 9486TIP3    H228402   4.436   7.213   4.112
 9487TIP3   OH228403   7.542   5.040   2.412
 9487TIP3    H128404   7.515   4.966   2.359
 9487TIP3    H228405   7.562   5.110   2.349
 9488TIP3   OH228406   7.859   3.673   2.889
 9488TIP3    H128407   7.849   3.654   2.982
 9488TIP3    H228408   7.774   3.710   2.863
 9489TIP3   OH228409   0.508   0.998   6.651
 9489TIP3    H128410   0.462   1.010   6.734
 9489TIP3    H228411   0.447   1.028   6.585
 9490TIP3   OH228412   0.883   3.332   4.386
 9490TIP3    H128413   0.797   3.375   4.379
 9490TIP3    H228414   0.866   3.242   4.359
 9491TIP3   OH228415   2.287   5.262   3.064
 9491TIP3    H128416   2.379   5.242   3.051
 9491TIP3    H228417   2.242   5.178   3.059
 9492TIP3   OH228418   0.252   0.887   4.708
 9492TIP3    H128419   0.301   0.962   4.674
 9492TIP3    H228420   0.309   0.812   4.694
 9493TIP3   OH228421   5.957   1.143   3.732
 9493TIP3    H128422   5.887   1.080   3.716
 9493TIP3    H228423   5.995   1.159   3.645
 9494TIP3   OH228424   3.368   4.986   0.919
 9494TIP3    H128425   3.448   5.020   0.959
 9494TIP3    H228426   3.397   4.912   0.866
 9495TIP3   OH228427   6.186   0.158   2.568
 9495TIP3    H128428   6.100   0.137   2.532
 9495TIP3    H228429   6.249   0.126   2.503
 9496TIP3   OH228430   1.744   1.330   5.203
 9496TIP3    H128431   1.672   1.359   5.146
 9496TIP3    H228432   1.752   1.236   5.186
 9497TIP3   OH228433   3.424   6.568   1.466
 9497TIP3    H128434   3.482   6.577   1.390
 9497TIP3    H228435   3.351   6.626   1.448
 9498TIP3   OH228436   6.921   6.527   0.795
 9498TIP3    H128437   6.905   6.546   0.703
 9498TIP3    H228438   6.929   6.613   0.837
 9499TIP3   OH228439   6.709   4.505   1.415
 9499TIP3    H128440   6.640   4.479   1.355
 9499TIP3    H228441   6.789   4.501   1.363
 9500TIP3   OH228442   4.613   2.973   3.919
 9500TIP3    H128443   4.599   2.879   3.935
 9500TIP3    H228444   4.621   2.979   3.823
 9501TIP3   OH228445   3.185   1.441   5.124
 9501TIP3    H128446   3.130   1.461   5.199
 9501TIP3    H228447   3.139   1.370   5.079
 9502TIP3   OH228448   7.437   6.278   3.575
 9502TIP3    H128449   7.477   6.325   3.648
 9502TIP3    H228450   7.343   6.297   3.583
 9503TIP3   OH228451   7.203   0.708   4.273
 9503TIP3    H128452   7.166   0.796   4.276
 9503TIP3    H228453   7.297   0.720   4.288
 9504TIP3   OH228454   5.136   3.433   3.376
 9504TIP3    H128455   5.134   3.341   3.351
 9504TIP3    H228456   5.115   3.480   3.295
 9505TIP3   OH228457   1.074   1.270   2.801
 9505TIP3    H128458   1.067   1.182   2.837
 9505TIP3    H228459   0.992   1.313   2.826
 9506TIP3   OH228460   6.507   6.919   3.454
 9506TIP3    H128461   6.523   6.959   3.368
 9506TIP3    H228462   6.476   6.831   3.434
 9507TIP3   OH228463   6.838   7.103   5.603
 9507TIP3    H128464   6.781   7.043   5.554
 9507TIP3    H228465   6.837   7.184   5.552
 9508TIP3   OH228466   4.638   7.174   1.436
 9508TIP3    H128467   4.676   7.196   1.521
 9508TIP3    H228468   4.680   7.235   1.375
 9509TIP3   OH228469   0.996   5.820   2.404
 9509TIP3    H128470   0.906   5.811   2.437
 9509TIP3    H228471   1.051   5.779   2.471
 9510TIP3   OH228472   7.142   3.612   0.960
 9510TIP3    H128473   7.085   3.653   0.895
 9510TIP3    H228474   7.214   3.575   0.909
 9511TIP3   OH228475   3.243   5.870   1.669
 9511TIP3    H128476   3.156   5.910   1.671
 9511TIP3    H228477   3.248   5.828   1.583
 9512TIP3   OH228478   3.991   2.406   4.177
 9512TIP3    H128479   4.073   2.368   4.145
 9512TIP3    H228480   3.958   2.343   4.241
 9513TIP3   OH228481   6.487   0.397   3.986
 9513TIP3    H128482   6.499   0.302   3.990
 9513TIP3    H228483   6.575   0.431   3.972
 9514TIP3   OH228484   5.682   0.003   6.309
 9514TIP3    H128485   5.736   0.081   6.299
 9514TIP3    H228486   5.697  -0.048   6.230
 9515TIP3   OH228487   7.847   6.930   0.366
 9515TIP3    H128488   7.900   6.913   0.443
 9515TIP3    H228489   7.828   7.023   0.369
 9516TIP3   OH228490   2.688   5.686   0.435
 9516TIP3    H128491   2.772   5.648   0.463
 9516TIP3    H228492   2.652   5.621   0.375
 9517TIP3   OH228493   5.014   2.683   2.380
 9517TIP3    H128494   5.046   2.753   2.437
 9517TIP3    H228495   5.000   2.726   2.296
 9518TIP3   OH228496   7.343   6.620   3.703
 9518TIP3    H128497   7.362   6.620   3.609
 9518TIP3    H228498   7.318   6.711   3.722
 9519TIP3   OH228499   5.103   7.733   1.956
 9519TIP3    H128500   5.168   7.775   2.013
 9519TIP3    H228501   5.118   7.639   1.968
 9520TIP3   OH228502   0.871   7.245   4.412
 9520TIP3    H128503   0.793   7.268   4.462
 9520TIP3    H228504   0.862   7.292   4.330
 9521TIP3   OH228505   5.501   5.070   2.153
 9521TIP3    H128506   5.577   5.088   2.208
 9521TIP3    H228507   5.480   4.978   2.169
 9522TIP3   OH228508   4.361   7.492   1.607
 9522TIP3    H128509   4.291   7.534   1.656
 9522TIP3    H228510   4.410   7.442   1.673
 9523TIP3   OH228511   2.683   7.116   1.028
 9523TIP3    H128512   2.772   7.150   1.018
 9523TIP3    H228513   2.641   7.137   0.945
 9524TIP3   OH228514   5.626   2.211   3.762
 9524TIP3    H128515   5.546   2.162   3.747
 9524TIP3    H228516   5.692   2.144   3.780
 9525TIP3   OH228517   2.110   7.118   4.020
 9525TIP3    H128518   2.048   7.184   4.052
 9525TIP3    H228519   2.121   7.057   4.093
 9526TIP3   OH228520   3.315   4.231   5.587
 9526TIP3    H128521   3.275   4.150   5.619
 9526TIP3    H228522   3.275   4.245   5.501
 9527TIP3   OH228523   4.050   3.983   6.086
 9527TIP3    H128524   3.987   4.026   6.144
 9527TIP3    H228525   4.136   4.006   6.122
 9528TIP3   OH228526   7.616   6.082   2.665
 9528TIP3    H128527   7.636   6.149   2.730
 9528TIP3    H228528   7.698   6.069   2.617
 9529TIP3   OH228529   4.842   6.853   2.690
 9529TIP3    H128530   4.763   6.813   2.655
 9529TIP3    H228531   4.859   6.927   2.631
 9530TIP3   OH228532   7.536   1.798   2.746
 9530TIP3    H128533   7.505   1.709   2.726
 9530TIP3    H228534   7.607   1.786   2.809
 9531TIP3   OH228535   0.714   7.085   0.308
 9531TIP3    H128536   0.652   7.072   0.237
 9531TIP3    H228537   0.662   7.119   0.380
 9532TIP3   OH228538   0.261   6.732   6.285
 9532TIP3    H128539   0.284   6.748   6.377
 9532TIP3    H228540   0.167   6.714   6.287
 9533TIP3   OH228541   8.267   3.041   3.044
 9533TIP3    H128542   8.240   2.966   3.096
 9533TIP3    H228543   8.308   3.003   2.966
 9534TIP3   OH228544   2.870   3.802   4.121
 9534TIP3    H128545   2.823   3.725   4.090
 9534TIP3    H228546   2.940   3.766   4.176
 9535TIP3   OH228547   6.393   6.245   5.148
 9535TIP3    H128548   6.301   6.247   5.176
 9535TIP3    H228549   6.441   6.219   5.226
 9536TIP3   OH228550   3.935   5.630   6.715
 9536TIP3    H128551   3.914   5.631   6.808
 9536TIP3    H228552   3.933   5.538   6.690
 9537TIP3   OH228553   1.653   1.532   3.153
 9537TIP3    H128554   1.712   1.586   3.206
 9537TIP3    H228555   1.567   1.574   3.162
 9538TIP3   OH228556   6.690   0.361   2.264
 9538TIP3    H128557   6.707   0.426   2.332
 9538TIP3    H228558   6.777   0.331   2.237
 9539TIP3   OH228559   7.630   4.618   3.679
 9539TIP3    H128560   7.658   4.695   3.728
 9539TIP3    H228561   7.678   4.622   3.597
 9540TIP3   OH228562   3.324   5.792   3.093
 9540TIP3    H128563   3.289   5.836   3.171
 9540TIP3    H228564   3.252   5.735   3.064
 9541TIP3   OH228565   2.997   1.328   2.610
 9541TIP3    H128566   3.003   1.323   2.515
 9541TIP3    H228567   3.088   1.337   2.640
 9542TIP3   OH228568   7.489   4.653   0.881
 9542TIP3    H128569   7.502   4.580   0.941
 9542TIP3    H228570   7.429   4.712   0.927
 9543TIP3   OH228571   4.874   6.028   2.640
 9543TIP3    H128572   4.904   6.118   2.643
 9543TIP3    H228573   4.817   6.019   2.717
 9544TIP3   OH228574   0.108   5.158   1.645
 9544TIP3    H128575   0.160   5.239   1.647
 9544TIP3    H228576   0.133   5.111   1.724
 9545TIP3   OH228577   6.554   1.542   0.181
 9545TIP3    H128578   6.475   1.527   0.130
 9545TIP3    H228579   6.616   1.476   0.149
 9546TIP3   OH228580   6.121   2.803   3.463
 9546TIP3    H128581   6.139   2.896   3.479
 9546TIP3    H228582   6.026   2.800   3.449
 9547TIP3   OH228583   2.673   5.109   0.154
 9547TIP3    H128584   2.694   5.023   0.118
 9547TIP3    H228585   2.638   5.090   0.241
 9548TIP3   OH228586   5.715   7.367   2.131
 9548TIP3    H128587   5.778   7.306   2.170
 9548TIP3    H228588   5.699   7.332   2.043
 9549TIP3   OH228589   3.965   3.561   2.203
 9549TIP3    H128590   3.901   3.536   2.269
 9549TIP3    H228591   4.022   3.485   2.193
 9550TIP3   OH228592   4.258   5.881   0.484
 9550TIP3    H128593   4.239   5.903   0.393
 9550TIP3    H228594   4.222   5.954   0.535
 9551TIP3   OH228595   3.825   4.904   4.854
 9551TIP3    H128596   3.738   4.922   4.890
 9551TIP3    H228597   3.838   4.810   4.868
 9552TIP3   OH228598   7.634   3.528   4.568
 9552TIP3    H128599   7.606   3.617   4.547
 9552TIP3    H228600   7.711   3.513   4.513
 9553TIP3   OH228601   4.475   6.805   2.010
 9553TIP3    H128602   4.531   6.833   1.937
 9553TIP3    H228603   4.458   6.885   2.059
 9554TIP3   OH228604   5.120   4.954   6.408
 9554TIP3    H128605   5.069   4.923   6.483
 9554TIP3    H228606   5.206   4.912   6.418
 9555TIP3   OH228607   1.951   4.131   5.723
 9555TIP3    H128608   1.988   4.118   5.810
 9555TIP3    H228609   1.877   4.070   5.719
 9556TIP3   OH228610   3.634   3.349   0.929
 9556TIP3    H128611   3.698   3.413   0.960
 9556TIP3    H228612   3.577   3.398   0.870
 9557TIP3   OH228613   0.880   5.350   4.884
 9557TIP3    H128614   0.943   5.310   4.823
 9557TIP3    H228615   0.823   5.403   4.828
 9558TIP3   OH228616   2.270   7.831   2.980
 9558TIP3    H128617   2.239   7.745   2.951
 9558TIP3    H228618   2.233   7.892   2.917
 9559TIP3   OH228619   5.241   3.435   0.821
 9559TIP3    H128620   5.300   3.508   0.841
 9559TIP3    H228621   5.299   3.364   0.796
 9560TIP3   OH228622   5.863   0.644   2.908
 9560TIP3    H128623   5.846   0.606   2.822
 9560TIP3    H228624   5.867   0.569   2.967
 9561TIP3   OH228625   0.342   6.499   1.010
 9561TIP3    H128626   0.394   6.563   0.960
 9561TIP3    H228627   0.312   6.548   1.086
 9562TIP3   OH228628   0.557   1.510   0.540
 9562TIP3    H128629   0.565   1.600   0.573
 9562TIP3    H228630   0.507   1.519   0.458
 9563TIP3   OH228631   0.972   5.120   5.717
 9563TIP3    H128632   1.001   5.150   5.631
 9563TIP3    H228633   0.878   5.140   5.718
 9564TIP3   OH228634   8.013   5.018   4.773
 9564TIP3    H128635   8.068   5.095   4.791
 9564TIP3    H228636   7.987   4.987   4.860
 9565TIP3   OH228637   2.395   4.179   1.468
 9565TIP3    H128638   2.392   4.252   1.531
 9565TIP3    H228639   2.486   4.174   1.442
 9566TIP3   OH228640   3.928   4.901   6.398
 9566TIP3    H128641   3.976   4.824   6.428
 9566TIP3    H228642   3.996   4.964   6.374
 9567TIP3   OH228643   4.381   5.860   3.632
 9567TIP3    H128644   4.387   5.946   3.590
 9567TIP3    H228645   4.431   5.801   3.575
 9568TIP3   OH228646   1.892   4.528   3.269
 9568TIP3    H128647   1.963   4.477   3.228
 9568TIP3    H228648   1.812   4.480   3.246
 9569TIP3   OH228649   6.561   3.325   4.762
 9569TIP3    H128650   6.580   3.298   4.851
 9569TIP3    H228651   6.639   3.376   4.736
 9570TIP3   OH228652   0.647   5.160   3.783
 9570TIP3    H128653   0.726   5.181   3.733
 9570TIP3    H228654   0.597   5.102   3.726
 9571TIP3   OH228655   2.328   0.475   3.548
 9571TIP3    H128656   2.299   0.522   3.626
 9571TIP3    H228657   2.276   0.394   3.548
 9572TIP3   OH228658   1.116   4.017   0.682
 9572TIP3    H128659   1.210   4.025   0.670
 9572TIP3    H228660   1.102   3.924   0.702
 9573TIP3   OH228661   5.034   1.499   0.123
 9573TIP3    H128662   5.121   1.533   0.102
 9573TIP3    H228663   5.034   1.491   0.218
 9574TIP3   OH228664   1.484   4.354   0.659
 9574TIP3    H128665   1.427   4.374   0.585
 9574TIP3    H228666   1.472   4.260   0.673
 9575TIP3   OH228667   4.844   4.984   0.448
 9575TIP3    H128668   4.779   4.921   0.479
 9575TIP3    H228669   4.928   4.937   0.457
 9576TIP3   OH228670   3.708   7.804   5.126
 9576TIP3    H128671   3.722   7.713   5.154
 9576TIP3    H228672   3.700   7.799   5.030
 9577TIP3   OH228673   6.472   7.219   4.495
 9577TIP3    H128674   6.391   7.195   4.451
 9577TIP3    H228675   6.505   7.295   4.446
 9578TIP3   OH228676   4.038   3.218   1.121
 9578TIP3    H128677   3.962   3.257   1.165
 9578TIP3    H228678   4.054   3.137   1.169
 9579TIP3   OH228679   8.078   5.368   3.443
 9579TIP3    H128680   8.104   5.438   3.502
 9579TIP3    H228681   8.011   5.407   3.387
 9580TIP3   OH228682   2.525   2.328   6.483
 9580TIP3    H128683   2.532   2.275   6.563
 9580TIP3    H228684   2.502   2.264   6.415
 9581TIP3   OH228685   5.152   6.522   0.763
 9581TIP3    H128686   5.146   6.496   0.855
 9581TIP3    H228687   5.069   6.493   0.725
 9582TIP3   OH228688   8.199   6.941   1.953
 9582TIP3    H128689   8.245   6.954   2.036
 9582TIP3    H228690   8.130   7.008   1.953
 9583TIP3   OH228691   2.993   7.566   2.888
 9583TIP3    H128692   3.042   7.600   2.814
 9583TIP3    H228693   3.008   7.471   2.887
 9584TIP3   OH228694   6.093   6.410   4.324
 9584TIP3    H128695   6.014   6.464   4.314
 9584TIP3    H228696   6.060   6.324   4.350
 9585TIP3   OH228697   5.671   2.920   2.433
 9585TIP3    H128698   5.721   3.002   2.432
 9585TIP3    H228699   5.652   2.902   2.341
 9586TIP3   OH228700   8.162   1.819   2.806
 9586TIP3    H128701   8.256   1.814   2.826
 9586TIP3    H228702   8.119   1.822   2.891
 9587TIP3   OH228703   4.565   3.968   2.594
 9587TIP3    H128704   4.599   3.882   2.619
 9587TIP3    H228705   4.636   4.029   2.617
 9588TIP3   OH228706   1.109   1.408   3.622
 9588TIP3    H128707   1.115   1.344   3.693
 9588TIP3    H228708   1.131   1.359   3.543
 9589TIP3   OH228709   0.529   1.597   5.578
 9589TIP3    H128710   0.544   1.643   5.661
 9589TIP3    H228711   0.513   1.506   5.603
 9590TIP3   OH228712   0.111   2.705   1.890
 9590TIP3    H128713   0.123   2.619   1.930
 9590TIP3    H228714   0.078   2.685   1.802
 9591TIP3   OH228715   1.554   7.575   0.082
 9591TIP3    H128716   1.541   7.599  -0.010
 9591TIP3    H228717   1.507   7.492   0.092
 9592TIP3   OH228718   5.855   0.830   2.302
 9592TIP3    H128719   5.929   0.769   2.301
 9592TIP3    H228720   5.882   0.899   2.363
 9593TIP3   OH228721   7.979   6.750   3.812
 9593TIP3    H128722   7.963   6.835   3.769
 9593TIP3    H228723   7.977   6.687   3.741
 9594TIP3   OH228724   6.138   1.514   0.268
 9594TIP3    H128725   6.188   1.450   0.319
 9594TIP3    H228726   6.094   1.568   0.333
 9595TIP3   OH228727   0.145   0.182   1.056
 9595TIP3    H128728   0.233   0.208   1.029
 9595TIP3    H228729   0.134   0.094   1.021
 9596TIP3   OH228730   1.896   2.219   4.290
 9596TIP3    H128731   1.936   2.159   4.228
 9596TIP3    H228732   1.946   2.300   4.280
 9597TIP3   OH228733   6.196   4.267   2.115
 9597TIP3    H128734   6.226   4.349   2.075
 9597TIP3    H228735   6.200   4.203   2.044
 9598TIP3   OH228736   8.254   5.250   1.128
 9598TIP3    H128737   8.316   5.260   1.055
 9598TIP3    H228738   8.247   5.155   1.140
 9599TIP3   OH228739   7.465   0.077   5.431
 9599TIP3    H128740   7.432   0.045   5.347
 9599TIP3    H228741   7.526   0.009   5.461
 9600TIP3   OH228742   4.800   5.853   1.162
 9600TIP3    H128743   4.830   5.924   1.219
 9600TIP3    H228744   4.746   5.798   1.219
 9601TIP3   OH228745   5.513   6.761   0.677
 9601TIP3    H128746   5.466   6.840   0.706
 9601TIP3    H228747   5.447   6.709   0.632
 9602TIP3   OH228748   7.750   3.598   4.181
 9602TIP3    H128749   7.793   3.587   4.266
 9602TIP3    H228750   7.783   3.682   4.148
 9603TIP3   OH228751   7.309   5.353   6.279
 9603TIP3    H128752   7.338   5.417   6.214
 9603TIP3    H228753   7.216   5.370   6.291
 9604TIP3   OH228754   2.548   6.040   4.091
 9604TIP3    H128755   2.492   5.969   4.061
 9604TIP3    H228756   2.635   6.002   4.094
 9605TIP3   OH228757   2.825   3.726   3.016
 9605TIP3    H128758   2.766   3.709   2.942
 9605TIP3    H228759   2.776   3.787   3.072
 9606TIP3   OH228760   0.018   5.384   0.147
 9606TIP3    H128761   0.062   5.345   0.222
 9606TIP3    H228762  -0.006   5.309   0.092
 9607TIP3   OH228763   0.089   3.028   5.288
 9607TIP3    H128764   0.178   3.061   5.298
 9607TIP3    H228765   0.044   3.096   5.237
 9608TIP3   OH228766   8.232   4.022   5.151
 9608TIP3    H128767   8.139   4.006   5.165
 9608TIP3    H228768   8.271   3.935   5.143
 9609TIP3   OH228769   7.773   3.882   6.348
 9609TIP3    H128770   7.719   3.944   6.298
 9609TIP3    H228771   7.728   3.799   6.340
 9610TIP3   OH228772   0.997   5.048   3.566
 9610TIP3    H128773   0.994   5.078   3.657
 9610TIP3    H228774   1.046   4.966   3.570
 9611TIP3   OH228775   3.036   6.330   2.877
 9611TIP3    H128776   3.053   6.398   2.811
 9611TIP3    H228777   3.094   6.352   2.950
 9612TIP3   OH228778   0.590   4.873   5.454
 9612TIP3    H128779   0.540   4.801   5.492
 9612TIP3    H228780   0.530   4.914   5.392
 9613TIP3   OH228781   4.850   1.129   2.329
 9613TIP3    H128782   4.942   1.157   2.327
 9613TIP3    H228783   4.849   1.056   2.391
 9614TIP3   OH228784   6.131   7.487   2.109
 9614TIP3    H128785   6.134   7.552   2.179
 9614TIP3    H228786   6.101   7.536   2.032
 9615TIP3   OH228787   2.018   6.434   0.144
 9615TIP3    H128788   1.923   6.440   0.137
 9615TIP3    H228789   2.051   6.496   0.078
 9616TIP3   OH228790   2.618   1.023   0.814
 9616TIP3    H128791   2.540   1.041   0.867
 9616TIP3    H228792   2.670   1.102   0.821
 9617TIP3   OH228793   7.593   5.963   0.826
 9617TIP3    H128794   7.681   5.957   0.864
 9617TIP3    H228795   7.567   5.871   0.814
 9618TIP3   OH228796   7.456   4.328   2.265
 9618TIP3    H128797   7.427   4.378   2.341
 9618TIP3    H228798   7.427   4.380   2.190
 9619TIP3   OH228799   0.087   2.044   2.428
 9619TIP3    H128800   0.167   2.045   2.480
 9619TIP3    H228801   0.017   2.029   2.491
 9620TIP3   OH228802   3.091   0.411   5.400
 9620TIP3    H128803   3.177   0.378   5.373
 9620TIP3    H228804   3.104   0.506   5.408
 9621TIP3   OH228805   0.086   5.652   3.503
 9621TIP3    H128806   0.068   5.655   3.409
 9621TIP3    H228807   0.182   5.650   3.509
 9622TIP3   OH228808   0.142   1.913   0.815
 9622TIP3    H128809   0.104   1.986   0.865
 9622TIP3    H228810   0.173   1.953   0.734
 9623TIP3   OH228811   0.208   0.281   2.035
 9623TIP3    H128812   0.179   0.331   2.111
 9623TIP3    H228813   0.267   0.340   1.989
 9624TIP3   OH228814   7.546   0.616   2.178
 9624TIP3    H128815   7.502   0.645   2.097
 9624TIP3    H228816   7.526   0.522   2.183
 9625TIP3   OH228817   3.378   2.802   6.195
 9625TIP3    H128818   3.353   2.724   6.145
 9625TIP3    H228819   3.360   2.778   6.286
 9626TIP3   OH228820   7.799   4.727   2.736
 9626TIP3    H128821   7.752   4.678   2.669
 9626TIP3    H228822   7.756   4.812   2.739
 9627TIP3   OH228823   4.571   6.957   3.847
 9627TIP3    H128824   4.495   6.923   3.800
 9627TIP3    H228825   4.535   6.988   3.930
 9628TIP3   OH228826   6.901   7.701   3.557
 9628TIP3    H128827   6.891   7.746   3.641
 9628TIP3    H228828   6.818   7.654   3.546
 9629TIP3   OH228829   0.683   0.551   0.574
 9629TIP3    H128830   0.618   0.617   0.551
 9629TIP3    H228831   0.676   0.485   0.506
 9630TIP3   OH228832   4.874   2.313   1.834
 9630TIP3    H128833   4.806   2.350   1.777
 9630TIP3    H228834   4.956   2.349   1.801
 9631TIP3   OH228835   7.374   5.867   1.087
 9631TIP3    H128836   7.324   5.829   1.014
 9631TIP3    H228837   7.312   5.926   1.131
 9632TIP3   OH228838   8.177   0.603   3.185
 9632TIP3    H128839   8.213   0.660   3.253
 9632TIP3    H228840   8.247   0.596   3.120
 9633TIP3   OH228841   1.271   4.377   5.979
 9633TIP3    H128842   1.324   4.398   6.057
 9633TIP3    H228843   1.218   4.302   6.006
 9634TIP3   OH228844   7.780   5.021   0.566
 9634TIP3    H128845   7.779   4.926   0.578
 9634TIP3    H228846   7.872   5.045   0.564
 9635TIP3   OH228847   6.100   6.963   2.792
 9635TIP3    H128848   6.023   7.002   2.750
 9635TIP3    H228849   6.141   7.036   2.838
 9636TIP3   OH228850   2.523   7.403   3.376
 9636TIP3    H128851   2.512   7.309   3.387
 9636TIP3    H228852   2.485   7.422   3.290
 9637TIP3   OH228853   7.053   3.190   4.935
 9637TIP3    H128854   7.099   3.266   4.971
 9637TIP3    H228855   7.074   3.118   4.994
 9638TIP3   OH228856   4.349   1.366   4.816
 9638TIP3    H128857   4.357   1.363   4.720
 9638TIP3    H228858   4.398   1.444   4.842
 9639TIP3   OH228859   3.988   4.589   1.942
 9639TIP3    H128860   4.036   4.668   1.967
 9639TIP3    H228861   3.902   4.599   1.981
 9640TIP3   OH228862   4.334   3.487   3.436
 9640TIP3    H128863   4.330   3.535   3.353
 9640TIP3    H228864   4.346   3.395   3.411
 9641TIP3   OH228865   8.239   5.825   3.856
 9641TIP3    H128866   8.188   5.774   3.793
 9641TIP3    H228867   8.311   5.861   3.804
 9642TIP3   OH228868   3.671   6.791   0.486
 9642TIP3    H128869   3.597   6.798   0.547
 9642TIP3    H228870   3.702   6.881   0.476
 9643TIP3   OH228871   6.860   2.463   6.310
 9643TIP3    H128872   6.948   2.492   6.287
 9643TIP3    H228873   6.844   2.499   6.397
 9644TIP3   OH228874   0.286   2.158   4.931
 9644TIP3    H128875   0.209   2.103   4.942
 9644TIP3    H228876   0.295   2.204   5.014
 9645TIP3   OH228877   7.190   0.310   0.767
 9645TIP3    H128878   7.123   0.294   0.701
 9645TIP3    H228879   7.186   0.404   0.783
 9646TIP3   OH228880   2.780   0.332   4.235
 9646TIP3    H128881   2.796   0.423   4.210
 9646TIP3    H228882   2.867   0.293   4.241
 9647TIP3   OH228883   2.520   3.575   3.624
 9647TIP3    H128884   2.429   3.551   3.636
 9647TIP3    H228885   2.518   3.649   3.562
 9648TIP3   OH228886   0.634   0.275   5.209
 9648TIP3    H128887   0.569   0.342   5.192
 9648TIP3    H228888   0.612   0.203   5.150
 9649TIP3   OH228889   6.393   1.828   3.987
 9649TIP3    H128890   6.416   1.898   3.926
 9649TIP3    H228891   6.409   1.748   3.938
 9650TIP3   OH228892   4.499   6.134   0.045
 9650TIP3    H128893   4.587   6.172   0.040
 9650TIP3    H228894   4.482   6.125   0.138
 9651TIP3   OH228895   2.395   7.541   2.046
 9651TIP3    H128896   2.368   7.610   2.107
 9651TIP3    H228897   2.424   7.588   1.968
 9652TIP3   OH228898   5.638   2.165   0.283
 9652TIP3    H128899   5.568   2.221   0.250
 9652TIP3    H228900   5.632   2.085   0.230
 9653TIP3   OH228901   7.856   1.592   3.909
 9653TIP3    H128902   7.764   1.619   3.913
 9653TIP3    H228903   7.884   1.587   4.000
 9654TIP3   OH228904   3.087   0.273   0.209
 9654TIP3    H128905   3.159   0.301   0.153
 9654TIP3    H228906   3.074   0.345   0.271
 9655TIP3   OH228907   5.125   3.657   3.125
 9655TIP3    H128908   5.176   3.699   3.055
 9655TIP3    H228909   5.041   3.637   3.085
 9656TIP3   OH228910   5.645   6.038   1.042
 9656TIP3    H128911   5.579   6.044   1.111
 9656TIP3    H228912   5.653   6.128   1.009
 9657TIP3   OH228913   4.042   2.721   1.711
 9657TIP3    H128914   4.022   2.631   1.688
 9657TIP3    H228915   4.073   2.760   1.629
 9658TIP3   OH228916   3.641   5.051   2.846
 9658TIP3    H128917   3.610   4.965   2.872
 9658TIP3    H228918   3.563   5.106   2.845
 9659TIP3   OH228919   4.091   2.145   6.170
 9659TIP3    H128920   4.069   2.211   6.236
 9659TIP3    H228921   4.154   2.088   6.213
 9660TIP3   OH228922   6.632   0.741   1.892
 9660TIP3    H128923   6.602   0.689   1.967
 9660TIP3    H228924   6.570   0.721   1.822
 9661TIP3   OH228925   4.870   6.165   5.010
 9661TIP3    H128926   4.868   6.168   5.106
 9661TIP3    H228927   4.944   6.109   4.990
 9662TIP3   OH228928   4.615   0.878   6.337
 9662TIP3    H128929   4.597   0.825   6.260
 9662TIP3    H228930   4.709   0.898   6.331
 9663TIP3   OH228931   5.818   5.249   3.362
 9663TIP3    H128932   5.847   5.209   3.280
 9663TIP3    H228933   5.868   5.203   3.430
 9664TIP3   OH228934   1.088   2.144   4.827
 9664TIP3    H128935   0.997   2.156   4.857
 9664TIP3    H228936   1.141   2.163   4.904
 9665TIP3   OH228937   6.598   1.817   1.576
 9665TIP3    H128938   6.582   1.879   1.505
 9665TIP3    H228939   6.590   1.869   1.656
 9666TIP3   OH228940   2.187   5.083   5.883
 9666TIP3    H128941   2.149   5.170   5.875
 9666TIP3    H228942   2.258   5.081   5.820
 9667TIP3   OH228943   6.562   3.822   4.317
 9667TIP3    H128944   6.571   3.879   4.394
 9667TIP3    H228945   6.596   3.737   4.346
 9668TIP3   OH228946   6.014   6.354   2.733
 9668TIP3    H128947   6.062   6.271   2.740
 9668TIP3    H228948   5.957   6.342   2.657
 9669TIP3   OH228949   2.696   1.601   2.844
 9669TIP3    H128950   2.691   1.538   2.772
 9669TIP3    H228951   2.790   1.617   2.855
 9670TIP3   OH228952   4.366   0.314   3.399
 9670TIP3    H128953   4.411   0.230   3.410
 9670TIP3    H228954   4.432   0.380   3.419
 9671TIP3   OH228955   1.480   5.423   1.658
 9671TIP3    H128956   1.527   5.495   1.701
 9671TIP3    H228957   1.493   5.439   1.564
 9672TIP3   OH228958   1.313   3.607   3.036
 9672TIP3    H128959   1.341   3.608   3.127
 9672TIP3    H228960   1.371   3.543   2.993
 9673TIP3   OH228961   0.763   6.646   4.133
 9673TIP3    H128962   0.765   6.703   4.210
 9673TIP3    H228963   0.688   6.589   4.147
 9674TIP3   OH228964   6.116   0.323   5.132
 9674TIP3    H128965   6.038   0.373   5.106
 9674TIP3    H228966   6.084   0.233   5.140
 9675TIP3   OH228967   7.605   0.335   3.401
 9675TIP3    H128968   7.524   0.286   3.392
 9675TIP3    H228969   7.665   0.274   3.445
 9676TIP3   OH228970   6.674   6.660   4.956
 9676TIP3    H128971   6.695   6.628   5.043
 9676TIP3    H228972   6.588   6.701   4.965
 9677TIP3   OH228973   3.969   0.204   3.934
 9677TIP3    H128974   3.999   0.294   3.943
 9677TIP3    H228975   3.982   0.183   3.841
 9678TIP3   OH228976   1.567   6.641   0.536
 9678TIP3    H128977   1.501   6.709   0.521
 9678TIP3    H228978   1.638   6.663   0.476
 9679TIP3   OH228979   1.895   0.001   4.897
 9679TIP3    H128980   1.855   0.051   4.826
 9679TIP3    H228981   1.914   0.066   4.965
 9680TIP3   OH228982   7.478   2.655   2.139
 9680TIP3    H128983   7.492   2.740   2.097
 9680TIP3    H228984   7.561   2.609   2.131
 9681TIP3   OH228985   5.198   5.555   0.917
 9681TIP3    H128986   5.211   5.469   0.878
 9681TIP3    H228987   5.104   5.572   0.909
 9682TIP3   OH228988   4.648   3.372   3.823
 9682TIP3    H128989   4.716   3.309   3.801
 9682TIP3    H228990   4.634   3.423   3.743
 9683TIP3   OH228991   5.547   3.550   0.455
 9683TIP3    H128992   5.533   3.608   0.380
 9683TIP3    H228993   5.498   3.470   0.433
 9684TIP3   OH228994   0.567   1.967   3.048
 9684TIP3    H128995   0.606   2.024   2.982
 9684TIP3    H228996   0.474   1.968   3.028
 9685TIP3   OH228997   2.971   6.253   5.116
 9685TIP3    H128998   2.882   6.256   5.151
 9685TIP3    H228999   3.017   6.324   5.161
 9686TIP3   OH229000   2.329   3.853   4.928
 9686TIP3    H129001   2.290   3.890   4.849
 9686TIP3    H229002   2.316   3.920   4.995
 9687TIP3   OH229003   1.060   0.629   5.652
 9687TIP3    H129004   1.048   0.543   5.611
 9687TIP3    H229005   0.976   0.673   5.642
 9688TIP3   OH229006   5.101   6.053   4.521
 9688TIP3    H129007   5.045   6.130   4.508
 9688TIP3    H229008   5.188   6.082   4.492
 9689TIP3   OH229009   3.425   6.823   0.649
 9689TIP3    H129010   3.350   6.868   0.608
 9689TIP3    H229011   3.404   6.730   0.641
 9690TIP3   OH229012   0.953   4.657   4.440
 9690TIP3    H129013   0.969   4.746   4.410
 9690TIP3    H229014   0.987   4.655   4.529
 9691TIP3   OH229015   6.590   3.216   0.374
 9691TIP3    H129016   6.575   3.205   0.468
 9691TIP3    H229017   6.630   3.303   0.366
 9692TIP3   OH229018   1.174   4.351   2.280
 9692TIP3    H129019   1.237   4.339   2.209
 9692TIP3    H229020   1.227   4.345   2.360
 9693TIP3   OH229021   3.327   4.997   6.342
 9693TIP3    H129022   3.271   4.967   6.414
 9693TIP3    H229023   3.366   4.917   6.307
 9694TIP3   OH229024   1.928   1.242   1.319
 9694TIP3    H129025   1.955   1.326   1.356
 9694TIP3    H229026   1.833   1.240   1.329
 9695TIP3   OH229027   0.496   4.995   6.687
 9695TIP3    H129028   0.499   5.080   6.643
 9695TIP3    H229029   0.483   5.016   6.779
 9696TIP3   OH229030   2.164   1.172   2.903
 9696TIP3    H129031   2.199   1.233   2.838
 9696TIP3    H229032   2.185   1.212   2.987
 9697TIP3   OH229033   6.702   5.514   0.787
 9697TIP3    H129034   6.673   5.470   0.707
 9697TIP3    H229035   6.672   5.458   0.858
 9698TIP3   OH229036   3.555   7.609   6.605
 9698TIP3    H129037   3.581   7.609   6.697
 9698TIP3    H229038   3.483   7.545   6.601
 9699TIP3   OH229039   1.538   4.771   5.638
 9699TIP3    H129040   1.476   4.730   5.578
 9699TIP3    H229041   1.493   4.851   5.666
 9700TIP3   OH229042   5.145   2.832   2.546
 9700TIP3    H129043   5.146   2.910   2.602
 9700TIP3    H229044   5.238   2.810   2.534
 9701TIP3   OH229045   4.316   0.496   5.779
 9701TIP3    H129046   4.259   0.566   5.812
 9701TIP3    H229047   4.258   0.421   5.766
 9702TIP3   OH229048   1.420   0.440   0.286
 9702TIP3    H129049   1.441   0.471   0.198
 9702TIP3    H229050   1.419   0.520   0.339
 9703TIP3   OH229051   8.293   0.081   3.390
 9703TIP3    H129052   8.261  -0.002   3.356
 9703TIP3    H229053   8.283   0.142   3.317
 9704TIP3   OH229054   0.878   1.683   2.941
 9704TIP3    H129055   0.883   1.592   2.914
 9704TIP3    H229056   0.792   1.713   2.912
 9705TIP3   OH229057   4.388   5.561   0.656
 9705TIP3    H129058   4.455   5.519   0.604
 9705TIP3    H229059   4.436   5.613   0.721
 9706TIP3   OH229060   3.439   2.083   4.176
 9706TIP3    H129061   3.439   2.040   4.262
 9706TIP3    H229062   3.364   2.142   4.178
 9707TIP3   OH229063   5.902   3.692   0.188
 9707TIP3    H129064   5.991   3.660   0.205
 9707TIP3    H229065   5.912   3.787   0.180
 9708TIP3   OH229066   0.231   6.915   0.573
 9708TIP3    H129067   0.218   6.867   0.655
 9708TIP3    H229068   0.197   6.857   0.505
 9709TIP3   OH229069   5.589   5.088   5.163
 9709TIP3    H129070   5.503   5.126   5.147
 9709TIP3    H229071   5.630   5.084   5.076
 9710TIP3   OH229072   4.609   6.749   4.062
 9710TIP3    H129073   4.553   6.707   3.997
 9710TIP3    H229074   4.551   6.810   4.107
 9711TIP3   OH229075   8.140   0.293   0.975
 9711TIP3    H129076   8.156   0.367   0.917
 9711TIP3    H229077   8.211   0.231   0.957
 9712TIP3   OH229078   6.502   0.360   1.874
 9712TIP3    H129079   6.519   0.294   1.941
 9712TIP3    H229080   6.587   0.402   1.859
 9713TIP3   OH229081   5.722   6.174   3.747
 9713TIP3    H129082   5.743   6.266   3.737
 9713TIP3    H229083   5.647   6.160   3.690
 9714TIP3   OH229084   7.117   2.256   1.552
 9714TIP3    H129085   7.167   2.176   1.566
 9714TIP3    H229086   7.161   2.322   1.606
 9715TIP3   OH229087   3.623   6.824   3.583
 9715TIP3    H129088   3.559   6.782   3.526
 9715TIP3    H229089   3.588   6.812   3.672
 9716TIP3   OH229090   5.924   4.098   1.261
 9716TIP3    H129091   6.015   4.096   1.288
 9716TIP3    H229092   5.925   4.148   1.179
 9717TIP3   OH229093   1.340   7.355   0.291
 9717TIP3    H129094   1.245   7.348   0.298
 9717TIP3    H229095   1.359   7.324   0.202
 9718TIP3   OH229096   4.185   1.493   4.529
 9718TIP3    H129097   4.197   1.585   4.503
 9718TIP3    H229098   4.270   1.452   4.512
 9719TIP3   OH229099   3.399   6.246   5.148
 9719TIP3    H129100   3.349   6.324   5.170
 9719TIP3    H229101   3.344   6.173   5.175
 9720TIP3   OH229102   0.949   2.112   2.024
 9720TIP3    H129103   0.997   2.055   2.084
 9720TIP3    H229104   0.975   2.082   1.937
 9721TIP3   OH229105   2.689   6.967   5.928
 9721TIP3    H129106   2.752   6.902   5.897
 9721TIP3    H229107   2.737   7.050   5.924
 9722TIP3   OH229108   0.219   7.525   2.029
 9722TIP3    H129109   0.148   7.589   2.028
 9722TIP3    H229110   0.206   7.477   2.111
 9723TIP3   OH229111   4.933   4.493   2.138
 9723TIP3    H129112   4.976   4.408   2.148
 9723TIP3    H229113   4.844   4.479   2.171
 9724TIP3   OH229114   6.053   2.950   0.108
 9724TIP3    H129115   6.077   2.924   0.197
 9724TIP3    H229116   6.137   2.962   0.063
 9725TIP3   OH229117   7.206   0.738   3.671
 9725TIP3    H129118   7.112   0.741   3.690
 9725TIP3    H229119   7.226   0.644   3.665
 9726TIP3   OH229120   1.326   1.856   3.487
 9726TIP3    H129121   1.396   1.792   3.472
 9726TIP3    H229122   1.247   1.802   3.496
 9727TIP3   OH229123   7.601   3.986   0.929
 9727TIP3    H129124   7.623   3.957   1.018
 9727TIP3    H229125   7.673   4.044   0.905
 9728TIP3   OH229126   3.110   4.551   0.144
 9728TIP3    H129127   3.150   4.616   0.201
 9728TIP3    H229128   3.029   4.593   0.113
 9729TIP3   OH229129   1.843   0.661   5.638
 9729TIP3    H129130   1.795   0.718   5.698
 9729TIP3    H229131   1.844   0.576   5.681
 9730TIP3   OH229132   3.880   1.413   0.399
 9730TIP3    H129133   3.881   1.344   0.333
 9730TIP3    H229134   3.965   1.457   0.389
 9731TIP3   OH229135   2.837   1.010   1.871
 9731TIP3    H129136   2.806   0.928   1.833
 9731TIP3    H229137   2.891   0.984   1.945
 9732TIP3   OH229138   0.510   3.639   1.348
 9732TIP3    H129139   0.564   3.698   1.295
 9732TIP3    H229140   0.559   3.557   1.350
 9733TIP3   OH229141   1.861   6.313   5.466
 9733TIP3    H129142   1.806   6.278   5.395
 9733TIP3    H229143   1.944   6.335   5.423
 9734TIP3   OH229144   5.414   5.140   4.084
 9734TIP3    H129145   5.463   5.061   4.107
 9734TIP3    H229146   5.371   5.167   4.165
 9735TIP3   OH229147   0.043   4.951   6.609
 9735TIP3    H129148   0.046   5.009   6.685
 9735TIP3    H229149   0.134   4.928   6.592
 9736TIP3   OH229150   1.125   1.350   6.362
 9736TIP3    H129151   1.062   1.357   6.434
 9736TIP3    H229152   1.075   1.314   6.289
 9737TIP3   OH229153   5.369   7.575   1.396
 9737TIP3    H129154   5.315   7.562   1.474
 9737TIP3    H229155   5.345   7.662   1.364
 9738TIP3   OH229156   8.033   0.998   2.955
 9738TIP3    H129157   8.109   0.949   2.925
 9738TIP3    H229158   8.050   1.014   3.048
 9739TIP3   OH229159   4.071   0.690   4.556
 9739TIP3    H129160   4.132   0.616   4.560
 9739TIP3    H229161   4.007   0.665   4.489
 9740TIP3   OH229162   3.273   4.124   2.860
 9740TIP3    H129163   3.339   4.129   2.791
 9740TIP3    H229164   3.237   4.036   2.852
 9741TIP3   OH229165   1.627   3.083   2.536
 9741TIP3    H129166   1.679   3.002   2.540
 9741TIP3    H229167   1.647   3.120   2.451
 9742TIP3   OH229168   6.451   3.240   3.719
 9742TIP3    H129169   6.513   3.185   3.672
 9742TIP3    H229170   6.463   3.216   3.811
 9743TIP3   OH229171   1.296   7.752   6.479
 9743TIP3    H129172   1.267   7.739   6.569
 9743TIP3    H229173   1.321   7.845   6.475
 9744TIP3   OH229174   2.713   3.215   3.839
 9744TIP3    H129175   2.745   3.160   3.768
 9744TIP3    H229176   2.792   3.248   3.882
 9745TIP3   OH229177   7.216   4.988   2.651
 9745TIP3    H129178   7.278   4.922   2.618
 9745TIP3    H229179   7.164   4.941   2.716
 9746TIP3   OH229180   0.838   1.800   3.792
 9746TIP3    H129181   0.872   1.842   3.713
 9746TIP3    H229182   0.904   1.735   3.815
 9747TIP3   OH229183   5.959   7.016   6.460
 9747TIP3    H129184   6.021   6.993   6.390
 9747TIP3    H229185   5.902   6.939   6.468
 9748TIP3   OH229186   7.974   3.383   2.809
 9748TIP3    H129187   7.989   3.473   2.781
 9748TIP3    H229188   7.889   3.359   2.772
 9749TIP3   OH229189   0.926   5.682   5.394
 9749TIP3    H129190   0.970   5.610   5.348
 9749TIP3    H229191   0.997   5.730   5.436
 9750TIP3   OH229192   0.714   0.218   0.840
 9750TIP3    H129193   0.794   0.229   0.790
 9750TIP3    H229194   0.674   0.305   0.840
 9751TIP3   OH229195   0.018   6.826   2.765
 9751TIP3    H129196   0.097   6.856   2.720
 9751TIP3    H229197   0.047   6.752   2.818
 9752TIP3   OH229198   6.883   6.992   1.708
 9752TIP3    H129199   6.818   7.057   1.681
 9752TIP3    H229200   6.964   7.041   1.718
 9753TIP3   OH229201   5.837   6.678   1.745
 9753TIP3    H129202   5.821   6.589   1.776
 9753TIP3    H229203   5.924   6.674   1.705
 9754TIP3   OH229204   6.614   5.539   2.977
 9754TIP3    H129205   6.704   5.518   3.001
 9754TIP3    H229206   6.598   5.489   2.897
 9755TIP3   OH229207   7.400   2.574   1.640
 9755TIP3    H129208   7.358   2.621   1.569
 9755TIP3    H229209   7.378   2.625   1.719
 9756TIP3   OH229210   3.131   3.340   0.097
 9756TIP3    H129211   3.096   3.349   0.186
 9756TIP3    H229212   3.066   3.285   0.052
 9757TIP3   OH229213   3.329   0.436   3.716
 9757TIP3    H129214   3.412   0.445   3.670
 9757TIP3    H229215   3.350   0.385   3.793
 9758TIP3   OH229216   6.749   5.715   4.425
 9758TIP3    H129217   6.691   5.750   4.357
 9758TIP3    H229218   6.780   5.793   4.473
 9759TIP3   OH229219   7.876   0.672   5.230
 9759TIP3    H129220   7.966   0.692   5.256
 9759TIP3    H229221   7.868   0.577   5.240
 9760TIP3   OH229222   5.321   0.873   2.918
 9760TIP3    H129223   5.264   0.865   2.995
 9760TIP3    H229224   5.402   0.829   2.944
 9761TIP3   OH229225   0.663   3.926   6.604
 9761TIP3    H129226   0.660   4.013   6.644
 9761TIP3    H229227   0.753   3.896   6.618
 9762TIP3   OH229228   6.341   2.070   6.463
 9762TIP3    H129229   6.372   2.013   6.533
 9762TIP3    H229230   6.382   2.036   6.384
 9763TIP3   OH229231   6.074   2.239   0.157
 9763TIP3    H129232   6.111   2.187   0.229
 9763TIP3    H229233   6.014   2.179   0.113
 9764TIP3   OH229234   4.213   3.209   5.969
 9764TIP3    H129235   4.222   3.127   6.017
 9764TIP3    H229236   4.122   3.235   5.981
 9765TIP3   OH229237   1.948   7.223   1.326
 9765TIP3    H129238   1.949   7.206   1.232
 9765TIP3    H229239   2.025   7.277   1.341
 9766TIP3   OH229240   1.844   3.306   4.744
 9766TIP3    H129241   1.753   3.314   4.772
 9766TIP3    H229242   1.845   3.342   4.655
 9767TIP3   OH229243   1.912   0.177   0.699
 9767TIP3    H129244   1.909   0.082   0.703
 9767TIP3    H229245   1.880   0.198   0.611
 9768TIP3   OH229246   3.266   4.669   1.872
 9768TIP3    H129247   3.203   4.643   1.804
 9768TIP3    H229248   3.252   4.606   1.943
 9769TIP3   OH229249   8.187   7.153   1.429
 9769TIP3    H129250   8.156   7.116   1.512
 9769TIP3    H229251   8.110   7.193   1.390
 9770TIP3   OH229252   4.100   3.583   2.473
 9770TIP3    H129253   4.030   3.531   2.513
 9770TIP3    H229254   4.056   3.636   2.407
 9771TIP3   OH229255   8.031   1.779   5.696
 9771TIP3    H129256   7.994   1.714   5.636
 9771TIP3    H229257   8.122   1.786   5.669
 9772TIP3   OH229258   6.366   4.246   1.248
 9772TIP3    H129259   6.313   4.301   1.191
 9772TIP3    H229260   6.445   4.297   1.264
 9773TIP3   OH229261   6.530   0.184   1.469
 9773TIP3    H129262   6.610   0.132   1.472
 9773TIP3    H229263   6.476   0.151   1.541
 9774TIP3   OH229264   1.095   7.219   3.591
 9774TIP3    H129265   1.104   7.305   3.550
 9774TIP3    H229266   1.018   7.228   3.648
 9775TIP3   OH229267   1.803   2.783   2.281
 9775TIP3    H129268   1.731   2.809   2.224
 9775TIP3    H229269   1.874   2.843   2.258
 9776TIP3   OH229270   4.310   5.955   4.922
 9776TIP3    H129271   4.379   5.971   4.986
 9776TIP3    H229272   4.232   5.938   4.974
 9777TIP3   OH229273   7.274   1.996   6.495
 9777TIP3    H129274   7.270   2.019   6.402
 9777TIP3    H229275   7.267   1.900   6.495
 9778TIP3   OH229276   3.331   7.377   0.991
 9778TIP3    H129277   3.236   7.374   1.003
 9778TIP3    H229278   3.346   7.451   0.933
 9779TIP3   OH229279   6.592   5.910   6.124
 9779TIP3    H129280   6.567   5.948   6.208
 9779TIP3    H229281   6.552   5.824   6.123
 9780TIP3   OH229282   0.565   3.318   6.605
 9780TIP3    H129283   0.567   3.333   6.700
 9780TIP3    H229284   0.546   3.404   6.568
 9781TIP3   OH229285   3.116   2.278   3.500
 9781TIP3    H129286   3.089   2.319   3.418
 9781TIP3    H229287   3.126   2.351   3.561
 9782TIP3   OH229288   2.617   2.129   0.042
 9782TIP3    H129289   2.658   2.059  -0.008
 9782TIP3    H229290   2.552   2.085   0.096
 9783TIP3   OH229291   6.894   0.385   2.094
 9783TIP3    H129292   6.956   0.446   2.135
 9783TIP3    H229293   6.944   0.304   2.084
 9784TIP3   OH229294   7.202   1.504   5.297
 9784TIP3    H129295   7.281   1.558   5.304
 9784TIP3    H229296   7.213   1.436   5.362
 9785TIP3   OH229297   2.413   1.576   2.327
 9785TIP3    H129298   2.431   1.653   2.274
 9785TIP3    H229299   2.473   1.509   2.293
 9786TIP3   OH229300   7.934   4.366   4.226
 9786TIP3    H129301   8.025   4.343   4.245
 9786TIP3    H229302   7.940   4.428   4.154
 9787TIP3   OH229303   5.373   6.244   1.400
 9787TIP3    H129304   5.410   6.290   1.475
 9787TIP3    H229305   5.383   6.151   1.422
 9788TIP3   OH229306   0.522   2.536   5.988
 9788TIP3    H129307   0.508   2.590   6.066
 9788TIP3    H229308   0.443   2.483   5.981
 9789TIP3   OH229309   7.483   7.492   2.393
 9789TIP3    H129310   7.487   7.407   2.348
 9789TIP3    H229311   7.390   7.508   2.404
 9790TIP3   OH229312   2.284   3.239   5.585
 9790TIP3    H129313   2.199   3.228   5.626
 9790TIP3    H229314   2.289   3.172   5.518
 9791TIP3   OH229315   2.276   1.921   5.194
 9791TIP3    H129316   2.366   1.893   5.212
 9791TIP3    H229317   2.270   1.924   5.099
 9792TIP3   OH229318   6.882   0.008   3.316
 9792TIP3    H129319   6.802   0.049   3.349
 9792TIP3    H229320   6.890  -0.073   3.367
 9793TIP3   OH229321   3.907   5.024   2.552
 9793TIP3    H129322   3.852   4.945   2.551
 9793TIP3    H229323   3.891   5.063   2.637
 9794TIP3   OH229324   1.982   7.007   3.509
 9794TIP3    H129325   2.046   6.957   3.458
 9794TIP3    H229326   1.965   7.085   3.456
 9795TIP3   OH229327   7.116   5.008   4.001
 9795TIP3    H129328   7.141   5.030   3.911
 9795TIP3    H229329   7.041   4.949   3.991
 9796TIP3   OH229330   1.678   3.487   6.000
 9796TIP3    H129331   1.641   3.527   6.078
 9796TIP3    H229332   1.768   3.466   6.024
 9797TIP3   OH229333   2.205   2.374   1.704
 9797TIP3    H129334   2.145   2.300   1.695
 9797TIP3    H229335   2.163   2.445   1.655
 9798TIP3   OH229336   2.722   7.620   6.362
 9798TIP3    H129337   2.693   7.640   6.451
 9798TIP3    H229338   2.780   7.692   6.339
 9799TIP3   OH229339   7.308   7.138   1.934
 9799TIP3    H129340   7.278   7.150   2.024
 9799TIP3    H229341   7.232   7.162   1.880
 9800TIP3   OH229342   4.641   4.055   0.597
 9800TIP3    H129343   4.654   4.100   0.513
 9800TIP3    H229344   4.652   4.124   0.662
 9801TIP3   OH229345   2.389   6.163   6.129
 9801TIP3    H129346   2.343   6.112   6.196
 9801TIP3    H229347   2.319   6.194   6.071
 9802TIP3   OH229348   5.463   1.107   3.836
 9802TIP3    H129349   5.470   1.192   3.878
 9802TIP3    H229350   5.527   1.052   3.883
 9803TIP3   OH229351   3.565   6.662   4.583
 9803TIP3    H129352   3.636   6.608   4.549
 9803TIP3    H229353   3.504   6.600   4.622
 9804TIP3   OH229354   3.166   1.045   5.147
 9804TIP3    H129355   3.092   1.098   5.118
 9804TIP3    H229356   3.238   1.107   5.158
 9805TIP3   OH229357   1.487   1.195   5.413
 9805TIP3    H129358   1.487   1.231   5.324
 9805TIP3    H229359   1.425   1.122   5.410
 9806TIP3   OH229360   1.860   4.382   4.281
 9806TIP3    H129361   1.913   4.435   4.340
 9806TIP3    H229362   1.861   4.294   4.319
 9807TIP3   OH229363   3.381   0.151   5.137
 9807TIP3    H129364   3.467   0.122   5.169
 9807TIP3    H229365   3.361   0.229   5.189
 9808TIP3   OH229366   5.798   3.137   1.864
 9808TIP3    H129367   5.778   3.218   1.911
 9808TIP3    H229368   5.752   3.145   1.781
 9809TIP3   OH229369   2.510   2.741   0.886
 9809TIP3    H129370   2.603   2.759   0.901
 9809TIP3    H229371   2.499   2.649   0.908
 9810TIP3   OH229372   1.043   0.342   4.506
 9810TIP3    H129373   1.040   0.341   4.410
 9810TIP3    H229374   1.073   0.430   4.528
 9811TIP3   OH229375   1.022   2.585   1.615
 9811TIP3    H129376   1.012   2.639   1.693
 9811TIP3    H229377   1.001   2.643   1.542
 9812TIP3   OH229378   7.944   0.459   5.788
 9812TIP3    H129379   7.872   0.405   5.822
 9812TIP3    H229380   7.937   0.451   5.693
 9813TIP3   OH229381   5.868   1.454   5.520
 9813TIP3    H129382   5.823   1.413   5.446
 9813TIP3    H229383   5.911   1.531   5.482
 9814TIP3   OH229384   0.139   5.389   3.604
 9814TIP3    H129385   0.140   5.418   3.513
 9814TIP3    H229386   0.143   5.469   3.655
 9815TIP3   OH229387   2.539   1.671   1.609
 9815TIP3    H129388   2.597   1.624   1.669
 9815TIP3    H229389   2.596   1.697   1.536
 9816TIP3   OH229390   7.238   4.129   5.440
 9816TIP3    H129391   7.318   4.182   5.442
 9816TIP3    H229392   7.191   4.155   5.519
 9817TIP3   OH229393   3.688   6.307   4.760
 9817TIP3    H129394   3.676   6.216   4.786
 9817TIP3    H229395   3.778   6.311   4.729
 9818TIP3   OH229396   4.342   1.609   4.983
 9818TIP3    H129397   4.428   1.597   5.022
 9818TIP3    H229398   4.290   1.537   5.018
 9819TIP3   OH229399   4.065   2.287   5.685
 9819TIP3    H129400   4.069   2.370   5.733
 9819TIP3    H229401   4.094   2.221   5.749
 9820TIP3   OH229402   4.173   1.499   5.197
 9820TIP3    H129403   4.082   1.504   5.168
 9820TIP3    H229404   4.193   1.587   5.227
 9821TIP3   OH229405   6.546   5.760   0.812
 9821TIP3    H129406   6.549   5.785   0.904
 9821TIP3    H229407   6.605   5.684   0.806
 9822TIP3   OH229408   2.625   5.600   6.140
 9822TIP3    H129409   2.543   5.580   6.185
 9822TIP3    H229410   2.693   5.594   6.207
 9823TIP3   OH229411   6.359   3.085   3.435
 9823TIP3    H129412   6.285   3.129   3.475
 9823TIP3    H229413   6.394   3.028   3.504
 9824TIP3   OH229414   8.016   6.119   1.711
 9824TIP3    H129415   7.938   6.115   1.655
 9824TIP3    H229416   8.063   6.038   1.692
 9825TIP3   OH229417   2.001   0.590   4.289
 9825TIP3    H129418   2.080   0.625   4.331
 9825TIP3    H229419   1.946   0.668   4.274
 9826TIP3   OH229420   4.446   1.533   3.129
 9826TIP3    H129421   4.368   1.588   3.133
 9826TIP3    H229422   4.454   1.510   3.036
 9827TIP3   OH229423   7.509   6.694   4.264
 9827TIP3    H129424   7.482   6.652   4.346
 9827TIP3    H229425   7.574   6.634   4.227
 9828TIP3   OH229426   0.113   0.611   0.235
 9828TIP3    H129427   0.153   0.526   0.252
 9828TIP3    H229428   0.184   0.664   0.198
 9829TIP3   OH229429   4.411   5.449   3.555
 9829TIP3    H129430   4.336   5.495   3.516
 9829TIP3    H229431   4.460   5.518   3.600
 9830TIP3   OH229432   6.048   0.468   1.373
 9830TIP3    H129433   6.100   0.462   1.293
 9830TIP3    H229434   5.957   0.467   1.344
 9831TIP3   OH229435   1.624   0.219   1.560
 9831TIP3    H129436   1.708   0.232   1.604
 9831TIP3    H229437   1.594   0.134   1.593
 9832TIP3   OH229438   3.601   0.649   1.723
 9832TIP3    H129439   3.653   0.633   1.644
 9832TIP3    H229440   3.542   0.721   1.699
 9833TIP3   OH229441   3.834   4.651   1.462
 9833TIP3    H129442   3.801   4.702   1.536
 9833TIP3    H229443   3.928   4.645   1.477
 9834TIP3   OH229444   6.854   5.966   4.506
 9834TIP3    H129445   6.819   6.029   4.570
 9834TIP3    H229446   6.949   5.970   4.517
 9835TIP3   OH229447   6.595   6.918   1.704
 9835TIP3    H129448   6.667   6.867   1.741
 9835TIP3    H229449   6.596   6.897   1.611
 9836TIP3   OH229450   3.029   2.157   5.607
 9836TIP3    H129451   2.978   2.214   5.549
 9836TIP3    H229452   3.120   2.171   5.579
 9837TIP3   OH229453   2.451   4.577   2.540
 9837TIP3    H129454   2.546   4.568   2.534
 9837TIP3    H229455   2.417   4.490   2.520
 9838TIP3   OH229456   1.836   4.287   6.386
 9838TIP3    H129457   1.864   4.208   6.340
 9838TIP3    H229458   1.744   4.297   6.363
 9839TIP3   OH229459   5.987   3.892   5.778
 9839TIP3    H129460   5.926   3.963   5.759
 9839TIP3    H229461   6.048   3.929   5.842
 9840TIP3   OH229462   6.121   4.893   3.933
 9840TIP3    H129463   6.058   4.823   3.916
 9840TIP3    H229464   6.180   4.892   3.857
 9841TIP3   OH229465   7.276   7.453   1.979
 9841TIP3    H129466   7.184   7.436   2.000
 9841TIP3    H229467   7.298   7.530   2.031
 9842TIP3   OH229468   2.907   4.083   2.899
 9842TIP3    H129469   2.867   4.119   2.819
 9842TIP3    H229470   2.972   4.021   2.867
 9843TIP3   OH229471   2.099   4.145   2.049
 9843TIP3    H129472   2.077   4.126   2.140
 9843TIP3    H229473   2.041   4.217   2.024
 9844TIP3   OH229474   2.612   4.139   1.240
 9844TIP3    H129475   2.645   4.057   1.276
 9844TIP3    H229476   2.548   4.113   1.174
 9845TIP3   OH229477   2.155   3.077   4.506
 9845TIP3    H129478   2.235   3.074   4.453
 9845TIP3    H229479   2.109   3.155   4.474
 9846TIP3   OH229480   3.129   0.191   3.706
 9846TIP3    H129481   3.130   0.186   3.611
 9846TIP3    H229482   3.166   0.277   3.726
 9847TIP3   OH229483   6.810   6.795   2.967
 9847TIP3    H129484   6.893   6.830   2.934
 9847TIP3    H229485   6.794   6.841   3.049
 9848TIP3   OH229486   6.322   5.640   2.000
 9848TIP3    H129487   6.295   5.626   1.909
 9848TIP3    H229488   6.416   5.660   1.994
 9849TIP3   OH229489   2.572   0.988   4.280
 9849TIP3    H129490   2.596   1.071   4.240
 9849TIP3    H229491   2.582   0.924   4.209
 9850TIP3   OH229492   2.398   5.225   5.698
 9850TIP3    H129493   2.456   5.224   5.623
 9850TIP3    H229494   2.312   5.248   5.662
 9851TIP3   OH229495   1.033   6.948   2.139
 9851TIP3    H129496   0.969   6.892   2.094
 9851TIP3    H229497   1.112   6.895   2.143
 9852TIP3   OH229498   1.561   4.784   0.134
 9852TIP3    H129499   1.528   4.694   0.141
 9852TIP3    H229500   1.572   4.812   0.225
 9853TIP3   OH229501   5.972   1.384   3.888
 9853TIP3    H129502   6.007   1.439   3.818
 9853TIP3    H229503   5.960   1.298   3.847
 9854TIP3   OH229504   8.091   6.023   3.975
 9854TIP3    H129505   8.153   5.976   3.919
 9854TIP3    H229506   8.140   6.039   4.056
 9855TIP3   OH229507   1.122   1.819   5.299
 9855TIP3    H129508   1.122   1.728   5.327
 9855TIP3    H229509   1.033   1.850   5.319
 9856TIP3   OH229510   6.947   6.404   0.300
 9856TIP3    H129511   6.862   6.442   0.321
 9856TIP3    H229512   6.935   6.310   0.315
 9857TIP3   OH229513   8.289   6.639   6.313
 9857TIP3    H129514   8.256   6.577   6.249
 9857TIP3    H229515   8.236   6.718   6.300
 9858TIP3   OH229516   8.000   2.900   0.973
 9858TIP3    H129517   8.001   2.968   0.906
 9858TIP3    H229518   8.088   2.901   1.010
 9859TIP3   OH229519   1.385   4.268   3.258
 9859TIP3    H129520   1.385   4.309   3.171
 9859TIP3    H229521   1.425   4.182   3.245
 9860TIP3   OH229522   4.602   7.430   5.845
 9860TIP3    H129523   4.537   7.496   5.822
 9860TIP3    H229524   4.552   7.360   5.887
 9861TIP3   OH229525   6.707   0.436   4.222
 9861TIP3    H129526   6.725   0.530   4.220
 9861TIP3    H229527   6.741   0.404   4.138
 9862TIP3   OH229528   0.878   3.422   6.668
 9862TIP3    H129529   0.949   3.393   6.725
 9862TIP3    H229530   0.805   3.439   6.727
 9863TIP3   OH229531   7.818   1.828   0.033
 9863TIP3    H129532   7.888   1.892   0.021
 9863TIP3    H229533   7.853   1.746  -0.003
 9864TIP3   OH229534   1.631   6.433   4.882
 9864TIP3    H129535   1.636   6.337   4.883
 9864TIP3    H229536   1.696   6.459   4.816
 9865TIP3   OH229537   7.772   3.816   4.615
 9865TIP3    H129538   7.840   3.882   4.600
 9865TIP3    H229539   7.817   3.732   4.601
 9866TIP3   OH229540   6.114   6.084   5.664
 9866TIP3    H129541   6.166   6.032   5.725
 9866TIP3    H229542   6.103   6.027   5.588
 9867TIP3   OH229543   3.457   4.748   6.304
 9867TIP3    H129544   3.545   4.763   6.269
 9867TIP3    H229545   3.471   4.719   6.394
 9868TIP3   OH229546   3.658   6.195   5.297
 9868TIP3    H129547   3.576   6.186   5.248
 9868TIP3    H229548   3.711   6.121   5.267
 9869TIP3   OH229549   5.825   5.246   3.855
 9869TIP3    H129550   5.815   5.279   3.766
 9869TIP3    H229551   5.757   5.180   3.864
 9870TIP3   OH229552   7.621   7.298   1.553
 9870TIP3    H129553   7.563   7.251   1.494
 9870TIP3    H229554   7.564   7.334   1.621
 9871TIP3   OH229555   6.585   4.688   0.060
 9871TIP3    H129556   6.500   4.685   0.104
 9871TIP3    H229557   6.632   4.760   0.103
 9872TIP3   OH229558   4.437   7.669   5.807
 9872TIP3    H129559   4.366   7.618   5.844
 9872TIP3    H229560   4.419   7.759   5.834
 9873TIP3   OH229561   0.934   3.852   2.896
 9873TIP3    H129562   1.003   3.858   2.962
 9873TIP3    H229563   0.965   3.907   2.824
 9874TIP3   OH229564   3.804   2.951   2.041
 9874TIP3    H129565   3.848   2.992   1.967
 9874TIP3    H229566   3.836   2.861   2.042
 9875TIP3   OH229567   2.205   4.144   1.239
 9875TIP3    H129568   2.249   4.133   1.324
 9875TIP3    H229569   2.202   4.238   1.225
 9876TIP3   OH229570   4.233   5.956   1.098
 9876TIP3    H129571   4.188   5.975   1.181
 9876TIP3    H229572   4.169   5.909   1.046
 9877TIP3   OH229573   7.313   2.319   5.951
 9877TIP3    H129574   7.395   2.283   5.917
 9877TIP3    H229575   7.245   2.265   5.912
 9878TIP3   OH229576   2.178   3.658   0.526
 9878TIP3    H129577   2.121   3.734   0.541
 9878TIP3    H229578   2.123   3.582   0.544
 9879TIP3   OH229579   1.694   5.319   0.465
 9879TIP3    H129580   1.624   5.377   0.495
 9879TIP3    H229581   1.691   5.325   0.370
 9880TIP3   OH229582   3.199   5.683   4.641
 9880TIP3    H129583   3.206   5.758   4.582
 9880TIP3    H229584   3.129   5.629   4.603
 9881TIP3   OH229585   8.143   6.071   4.287
 9881TIP3    H129586   8.131   6.162   4.259
 9881TIP3    H229587   8.227   6.070   4.332
 9882TIP3   OH229588   7.880   1.455   1.397
 9882TIP3    H129589   7.963   1.423   1.432
 9882TIP3    H229590   7.817   1.385   1.415
 9883TIP3   OH229591   0.665   7.618   5.859
 9883TIP3    H129592   0.717   7.648   5.785
 9883TIP3    H229593   0.576   7.645   5.839
 9884TIP3   OH229594   3.849   6.682   4.457
 9884TIP3    H129595   3.858   6.777   4.449
 9884TIP3    H229596   3.919   6.646   4.402
 9885TIP3   OH229597   1.867   3.262   2.621
 9885TIP3    H129598   1.788   3.216   2.591
 9885TIP3    H229599   1.857   3.351   2.586
 9886TIP3   OH229600   6.124   5.072   4.932
 9886TIP3    H129601   6.034   5.063   4.963
 9886TIP3    H229602   6.147   5.163   4.951
 9887TIP3   OH229603   1.257   3.920   5.734
 9887TIP3    H129604   1.179   3.872   5.762
 9887TIP3    H229605   1.226   3.974   5.661
 9888TIP3   OH229606   4.193   7.737   4.170
 9888TIP3    H129607   4.107   7.747   4.210
 9888TIP3    H229608   4.219   7.647   4.189
 9889TIP3   OH229609   3.076   3.756   1.433
 9889TIP3    H129610   3.057   3.709   1.352
 9889TIP3    H229611   3.142   3.821   1.409
 9890TIP3   OH229612   4.766   5.029   2.086
 9890TIP3    H129613   4.856   5.009   2.059
 9890TIP3    H229614   4.771   5.116   2.125
 9891TIP3   OH229615   7.535   5.240   0.132
 9891TIP3    H129616   7.507   5.164   0.184
 9891TIP3    H229617   7.457   5.265   0.083
 9892TIP3   OH229618   1.807   5.251   1.151
 9892TIP3    H129619   1.856   5.333   1.162
 9892TIP3    H229620   1.725   5.266   1.197
 9893TIP3   OH229621   2.403   0.325   3.005
 9893TIP3    H129622   2.377   0.398   2.948
 9893TIP3    H229623   2.473   0.282   2.957
 9894TIP3   OH229624   6.595   0.584   2.109
 9894TIP3    H129625   6.509   0.553   2.138
 9894TIP3    H229626   6.653   0.509   2.119
 9895TIP3   OH229627   5.376   6.267   2.137
 9895TIP3    H129628   5.302   6.295   2.190
 9895TIP3    H229629   5.425   6.208   2.194
 9896TIP3   OH229630   7.929   0.838   5.658
 9896TIP3    H129631   7.879   0.913   5.691
 9896TIP3    H229632   7.862   0.777   5.626
 9897TIP3   OH229633   7.440   6.281   4.574
 9897TIP3    H129634   7.487   6.294   4.491
 9897TIP3    H229635   7.478   6.200   4.609
 9898TIP3   OH229636   7.052   2.037   0.989
 9898TIP3    H129637   7.010   2.072   1.068
 9898TIP3    H229638   7.143   2.021   1.015
 9899TIP3   OH229639   3.877   6.098   0.532
 9899TIP3    H129640   3.925   6.042   0.470
 9899TIP3    H229641   3.786   6.093   0.503
 9900TIP3   OH229642   0.936   2.649   2.312
 9900TIP3    H129643   1.005   2.715   2.319
 9900TIP3    H229644   0.942   2.617   2.222
 9901TIP3   OH229645  -0.019   0.307   5.675
 9901TIP3    H129646  -0.078   0.329   5.603
 9901TIP3    H229647   0.058   0.270   5.632
 9902TIP3   OH229648   6.569   3.313   6.316
 9902TIP3    H129649   6.615   3.380   6.265
 9902TIP3    H229650   6.635   3.247   6.335
 9903TIP3   OH229651   0.009   7.463   3.926
 9903TIP3    H129652   0.036   7.543   3.880
 9903TIP3    H229653   0.050   7.471   4.012
 9904TIP3   OH229654   8.287   6.340   2.044
 9904TIP3    H129655   8.240   6.268   2.001
 9904TIP3    H229656   8.218   6.389   2.089
 9905TIP3   OH229657   0.702   4.109   4.156
 9905TIP3    H129658   0.736   4.097   4.245
 9905TIP3    H229659   0.652   4.029   4.138
 9906TIP3   OH229660   2.435   6.372   0.396
 9906TIP3    H129661   2.476   6.343   0.314
 9906TIP3    H229662   2.418   6.291   0.444
 9907TIP3   OH229663   3.787   7.014   1.757
 9907TIP3    H129664   3.738   7.032   1.837
 9907TIP3    H229665   3.756   6.928   1.728
 9908TIP3   OH229666   3.859   6.575   1.412
 9908TIP3    H129667   3.843   6.602   1.502
 9908TIP3    H229668   3.780   6.527   1.386
 9909TIP3   OH229669   6.756   6.208   6.535
 9909TIP3    H129670   6.770   6.114   6.538
 9909TIP3    H229671   6.689   6.221   6.468
 9910TIP3   OH229672   2.529   2.643   4.369
 9910TIP3    H129673   2.437   2.634   4.394
 9910TIP3    H229674   2.577   2.596   4.437
 9911TIP3   OH229675   3.971   6.723   3.717
 9911TIP3    H129676   3.954   6.718   3.622
 9911TIP3    H229677   3.905   6.666   3.756
 9912TIP3   OH229678   4.596   4.447   6.641
 9912TIP3    H129679   4.516   4.456   6.589
 9912TIP3    H229680   4.567   4.452   6.732
 9913TIP3   OH229681   1.683   0.694   2.335
 9913TIP3    H129682   1.650   0.726   2.251
 9913TIP3    H229683   1.766   0.651   2.313
 9914TIP3   OH229684   6.453   5.598   4.730
 9914TIP3    H129685   6.462   5.693   4.723
 9914TIP3    H229686   6.543   5.566   4.735
 9915TIP3   OH229687   7.627   5.699   0.313
 9915TIP3    H129688   7.713   5.733   0.288
 9915TIP3    H229689   7.637   5.604   0.311
 9916TIP3   OH229690   2.247   7.634   1.733
 9916TIP3    H129691   2.210   7.667   1.651
 9916TIP3    H229692   2.290   7.552   1.709
 9917TIP3   OH229693   2.965   2.677   2.847
 9917TIP3    H129694   2.903   2.739   2.886
 9917TIP3    H229695   3.004   2.724   2.773
 9918TIP3   OH229696   2.777   4.184   0.233
 9918TIP3    H129697   2.836   4.216   0.164
 9918TIP3    H229698   2.796   4.240   0.309
 9919TIP3   OH229699   7.167   5.315   3.271
 9919TIP3    H129700   7.130   5.362   3.346
 9919TIP3    H229701   7.251   5.357   3.255
 9920TIP3   OH229702   3.952   4.233   5.395
 9920TIP3    H129703   3.993   4.246   5.309
 9920TIP3    H229704   4.011   4.172   5.441
 9921TIP3   OH229705   0.204   6.845   1.623
 9921TIP3    H129706   0.204   6.863   1.717
 9921TIP3    H229707   0.285   6.884   1.591
 9922TIP3   OH229708   7.697   7.353   0.078
 9922TIP3    H129709   7.754   7.412   0.029
 9922TIP3    H229710   7.643   7.312   0.011
 9923TIP3   OH229711   5.796   1.825   2.332
 9923TIP3    H129712   5.882   1.809   2.292
 9923TIP3    H229713   5.811   1.813   2.426
 9924TIP3   OH229714   5.605   6.008   3.918
 9924TIP3    H129715   5.622   5.918   3.890
 9924TIP3    H229716   5.652   6.062   3.854
 9925TIP3   OH229717   2.357   7.218   4.914
 9925TIP3    H129718   2.344   7.212   4.819
 9925TIP3    H229719   2.290   7.160   4.951
 9926TIP3   OH229720   3.461   3.413   4.796
 9926TIP3    H129721   3.445   3.464   4.874
 9926TIP3    H229722   3.381   3.362   4.783
 9927TIP3   OH229723   4.222   4.435   5.646
 9927TIP3    H129724   4.182   4.412   5.730
 9927TIP3    H229725   4.178   4.379   5.583
 9928TIP3   OH229726   1.218   1.636   0.940
 9928TIP3    H129727   1.290   1.699   0.933
 9928TIP3    H229728   1.232   1.593   1.024
 9929TIP3   OH229729   0.672   1.981   1.629
 9929TIP3    H129730   0.683   1.893   1.665
 9929TIP3    H229731   0.676   2.039   1.704
 9930TIP3   OH229732   7.150   2.864   2.087
 9930TIP3    H129733   7.200   2.894   2.010
 9930TIP3    H229734   7.173   2.927   2.156
 9931TIP3   OH229735   0.523   4.662   3.984
 9931TIP3    H129736   0.614   4.631   3.981
 9931TIP3    H229737   0.488   4.627   4.066
 9932TIP3   OH229738   7.438   7.003   6.419
 9932TIP3    H129739   7.358   6.952   6.410
 9932TIP3    H229740   7.443   7.054   6.338
 9933TIP3   OH229741   5.858   1.680   0.221
 9933TIP3    H129742   5.811   1.744   0.168
 9933TIP3    H229743   5.815   1.597   0.202
 9934TIP3   OH229744   1.951   4.885   1.516
 9934TIP3    H129745   1.861   4.912   1.531
 9934TIP3    H229746   1.946   4.791   1.500
 9935TIP3   OH229747   8.216  -0.014   2.942
 9935TIP3    H129748   8.224   0.065   2.995
 9935TIP3    H229749   8.261   0.006   2.860
 9936TIP3   OH229750   0.990   5.580   0.350
 9936TIP3    H129751   0.950   5.665   0.371
 9936TIP3    H229752   1.017   5.545   0.435
 9937TIP3   OH229753   0.950   0.625   6.604
 9937TIP3    H129754   1.012   0.640   6.675
 9937TIP3    H229755   0.872   0.590   6.648
 9938TIP3   OH229756   5.152   3.471   5.814
 9938TIP3    H129757   5.065   3.437   5.836
 9938TIP3    H229758   5.213   3.411   5.858
 9939TIP3   OH229759   4.317   5.128   2.276
 9939TIP3    H129760   4.230   5.104   2.308
 9939TIP3    H229761   4.376   5.106   2.348
 9940TIP3   OH229762   7.118   0.611   4.824
 9940TIP3    H129763   7.173   0.687   4.802
 9940TIP3    H229764   7.047   0.614   4.761
 9941TIP3   OH229765   6.063   0.066   6.320
 9941TIP3    H129766   6.137   0.097   6.372
 9941TIP3    H229767   6.074   0.108   6.234
 9942TIP3   OH229768   2.928   2.199   1.663
 9942TIP3    H129769   2.887   2.272   1.709
 9942TIP3    H229770   3.002   2.174   1.719
 9943TIP3   OH229771   0.219   3.169   0.406
 9943TIP3    H129772   0.279   3.221   0.351
 9943TIP3    H229773   0.257   3.081   0.406
 9944TIP3   OH229774   2.563   6.375   5.527
 9944TIP3    H129775   2.545   6.422   5.609
 9944TIP3    H229776   2.605   6.294   5.555
 9945TIP3   OH229777   2.110   5.374   4.947
 9945TIP3    H129778   2.026   5.330   4.949
 9945TIP3    H229779   2.103   5.437   4.875
 9946TIP3   OH229780   0.620   1.755   4.110
 9946TIP3    H129781   0.566   1.745   4.188
 9946TIP3    H229782   0.598   1.679   4.055
 9947TIP3   OH229783   5.584   3.522   2.292
 9947TIP3    H129784   5.561   3.440   2.246
 9947TIP3    H229785   5.656   3.558   2.241
 9948TIP3   OH229786   6.516   3.101   1.483
 9948TIP3    H129787   6.495   3.193   1.500
 9948TIP3    H229788   6.611   3.101   1.472
 9949TIP3   OH229789   2.100   7.232   3.683
 9949TIP3    H129790   2.192   7.236   3.657
 9949TIP3    H229791   2.067   7.153   3.642
 9950TIP3   OH229792   1.871   1.041   3.060
 9950TIP3    H129793   1.819   0.965   3.034
 9950TIP3    H229794   1.864   1.101   2.986
 9951TIP3   OH229795   1.182   0.855   5.846
 9951TIP3    H129796   1.168   0.822   5.757
 9951TIP3    H229797   1.109   0.916   5.861
 9952TIP3   OH229798   5.753   7.427   3.654
 9952TIP3    H129799   5.778   7.441   3.745
 9952TIP3    H229800   5.728   7.334   3.650
 9953TIP3   OH229801   4.588   3.033   3.639
 9953TIP3    H129802   4.622   3.113   3.599
 9953TIP3    H229803   4.521   3.003   3.577
 9954TIP3   OH229804   7.083   5.391   2.976
 9954TIP3    H129805   7.130   5.379   3.059
 9954TIP3    H229806   7.145   5.435   2.919
 9955TIP3   OH229807   6.668   2.338   3.647
 9955TIP3    H129808   6.586   2.340   3.696
 9955TIP3    H229809   6.703   2.250   3.663
 9956TIP3   OH229810   0.818   2.131   6.217
 9956TIP3    H129811   0.835   2.053   6.270
 9956TIP3    H229812   0.885   2.127   6.148
 9957TIP3   OH229813   3.268   1.370   2.166
 9957TIP3    H129814   3.291   1.285   2.204
 9957TIP3    H229815   3.330   1.431   2.206
 9958TIP3   OH229816   4.977   5.550   4.637
 9958TIP3    H129817   4.975   5.531   4.544
 9958TIP3    H229818   5.021   5.635   4.643
 9959TIP3   OH229819   6.412   7.730   1.232
 9959TIP3    H129820   6.354   7.765   1.164
 9959TIP3    H229821   6.352   7.695   1.298
 9960TIP3   OH229822   1.578   1.768   6.729
 9960TIP3    H129823   1.611   1.764   6.639
 9960TIP3    H229824   1.489   1.801   6.721
 9961TIP3   OH229825   1.342   7.218   5.267
 9961TIP3    H129826   1.414   7.279   5.284
 9961TIP3    H229827   1.324   7.178   5.352
 9962TIP3   OH229828   2.966   4.542   4.941
 9962TIP3    H129829   2.994   4.508   5.026
 9962TIP3    H229830   3.026   4.615   4.924
 9963TIP3   OH229831   2.275   5.535   1.773
 9963TIP3    H129832   2.305   5.527   1.864
 9963TIP3    H229833   2.181   5.547   1.780
 9964TIP3   OH229834   0.244   0.331   3.282
 9964TIP3    H129835   0.336   0.337   3.257
 9964TIP3    H229836   0.204   0.410   3.247
 9965TIP3   OH229837   2.272   1.939   4.230
 9965TIP3    H129838   2.295   1.956   4.138
 9965TIP3    H229839   2.311   1.853   4.248
 9966TIP3   OH229840   6.651   1.899   1.094
 9966TIP3    H129841   6.682   1.810   1.113
 9966TIP3    H229842   6.685   1.918   1.007
 9967TIP3   OH229843   1.569   0.525   6.253
 9967TIP3    H129844   1.509   0.589   6.291
 9967TIP3    H229845   1.656   0.555   6.280
 9968TIP3   OH229846   5.537   1.757   1.967
 9968TIP3    H129847   5.442   1.755   1.955
 9968TIP3    H229848   5.560   1.850   1.964
 9969TIP3   OH229849   5.241  -0.081   1.888
 9969TIP3    H129850   5.333  -0.054   1.887
 9969TIP3    H229851   5.193  -0.002   1.910
 9970TIP3   OH229852   5.645   3.601   4.151
 9970TIP3    H129853   5.643   3.651   4.232
 9970TIP3    H229854   5.618   3.663   4.083
 9971TIP3   OH229855   3.559   0.288   3.403
 9971TIP3    H129856   3.553   0.248   3.490
 9971TIP3    H229857   3.585   0.378   3.420
 9972TIP3   OH229858   5.721   0.987   0.772
 9972TIP3    H129859   5.781   1.036   0.715
 9972TIP3    H229860   5.755   1.002   0.861
 9973TIP3   OH229861   6.106   5.592   6.366
 9973TIP3    H129862   6.072   5.640   6.291
 9973TIP3    H229863   6.030   5.578   6.422
 9974TIP3   OH229864   1.896   5.744   6.838
 9974TIP3    H129865   1.833   5.673   6.845
 9974TIP3    H229866   1.953   5.718   6.765
 9975TIP3   OH229867   6.060   7.642   1.876
 9975TIP3    H129868   5.978   7.687   1.896
 9975TIP3    H229869   6.128   7.706   1.896
 9976TIP3   OH229870   2.705   0.354   0.930
 9976TIP3    H129871   2.615   0.329   0.913
 9976TIP3    H229872   2.699   0.418   1.002
 9977TIP3   OH229873   1.720   2.914   4.567
 9977TIP3    H129874   1.707   2.878   4.654
 9977TIP3    H229875   1.690   3.004   4.573
 9978TIP3   OH229876   1.755   6.257   1.250
 9978TIP3    H129877   1.822   6.190   1.264
 9978TIP3    H229878   1.802   6.333   1.216
 9979TIP3   OH229879   3.108   2.603   0.731
 9979TIP3    H129880   3.119   2.552   0.651
 9979TIP3    H229881   3.143   2.689   0.709
 9980TIP3   OH229882   1.704   2.485   2.218
 9980TIP3    H129883   1.731   2.518   2.304
 9980TIP3    H229884   1.781   2.439   2.185
 9981TIP3   OH229885   0.901   3.763   2.589
 9981TIP3    H129886   0.815   3.763   2.632
 9981TIP3    H229887   0.886   3.718   2.506
 9982TIP3   OH229888   6.577   4.962   3.765
 9982TIP3    H129889   6.504   4.902   3.776
 9982TIP3    H229890   6.583   4.976   3.671
 9983TIP3   OH229891   4.486   3.881   0.076
 9983TIP3    H129892   4.513   3.802   0.029
 9983TIP3    H229893   4.407   3.909   0.030
 9984TIP3   OH229894   1.616   3.575   1.656
 9984TIP3    H129895   1.527   3.596   1.684
 9984TIP3    H229896   1.617   3.480   1.645
 9985TIP3   OH229897   7.930   1.213   0.290
 9985TIP3    H129898   7.936   1.268   0.212
 9985TIP3    H229899   7.944   1.124   0.258
 9986TIP3   OH229900   3.908   2.223   4.990
 9986TIP3    H129901   3.937   2.313   4.979
 9986TIP3    H229902   3.813   2.227   4.980
 9987TIP3   OH229903   8.072   7.531   0.744
 9987TIP3    H129904   8.142   7.494   0.798
 9987TIP3    H229905   7.997   7.474   0.759
 9988TIP3   OH229906   5.637   1.636   4.021
 9988TIP3    H129907   5.642   1.578   3.946
 9988TIP3    H229908   5.546   1.633   4.049
 9989TIP3   OH229909   7.639   4.294   0.089
 9989TIP3    H129910   7.667   4.385   0.101
 9989TIP3    H229911   7.545   4.296   0.109
 9990TIP3   OH229912   2.679   1.947   5.076
 9990TIP3    H129913   2.652   2.038   5.070
 9990TIP3    H229914   2.615   1.907   5.135
 9991TIP3   OH229915   7.962   7.761   2.977
 9991TIP3    H129916   8.013   7.843   2.973
 9991TIP3    H229917   7.992   7.719   3.058
 9992TIP3   OH229918   4.408   7.735   5.460
 9992TIP3    H129919   4.323   7.702   5.429
 9992TIP3    H229920   4.386   7.785   5.539
 9993TIP3   OH229921   5.932   0.736   3.910
 9993TIP3    H129922   5.975   0.811   3.951
 9993TIP3    H229923   5.984   0.719   3.831
 9994TIP3   OH229924   0.442   2.906   5.069
 9994TIP3    H129925   0.516   2.858   5.032
 9994TIP3    H229926   0.475   2.996   5.080
 9995TIP3   OH229927   6.533   5.038   0.472
 9995TIP3    H129928   6.555   5.014   0.382
 9995TIP3    H229929   6.441   5.064   0.468
 9996TIP3   OH229930   6.651   2.200   4.522
 9996TIP3    H129931   6.724   2.259   4.542
 9996TIP3    H229932   6.612   2.181   4.607
 9997TIP3   OH229933   6.961   4.578   1.919
 9997TIP3    H129934   6.887   4.521   1.936
 9997TIP3    H229935   7.013   4.532   1.853
 9998TIP3   OH229936   1.125   6.097   3.620
 9998TIP3    H129937   1.091   6.174   3.575
 9998TIP3    H229938   1.082   6.023   3.575
 9999TIP3   OH229939   3.444   2.647   4.570
 9999TIP3    H129940   3.377   2.704   4.607
 9999TIP3    H229941   3.396   2.588   4.511
10000TIP3   OH229942   3.020   3.998   2.497
10000TIP3    H129943   2.953   3.943   2.458
10000TIP3    H229944   3.048   3.951   2.576
10001TIP3   OH229945   4.633   7.739   2.472
10001TIP3    H129946   4.658   7.787   2.393
10001TIP3    H229947   4.569   7.675   2.442
10002TIP3   OH229948   5.357   0.754   5.494
10002TIP3    H129949   5.415   0.693   5.449
10002TIP3    H229950   5.278   0.702   5.513
10003TIP3   OH229951   8.010   1.115   3.604
10003TIP3    H129952   8.013   1.074   3.518
10003TIP3    H229953   8.051   1.201   3.591
10004TIP3   OH229954   6.019   0.289   2.144
10004TIP3    H129955   6.046   0.370   2.188
10004TIP3    H229956   6.023   0.310   2.051
10005TIP3   OH229957   3.717   3.696   2.006
10005TIP3    H129958   3.746   3.677   2.095
10005TIP3    H229959   3.644   3.635   1.991
10006TIP3   OH229960   5.247   2.148   0.911
10006TIP3    H129961   5.321   2.089   0.927
10006TIP3    H229962   5.171   2.100   0.945
10007TIP3   OH229963   1.013   5.983   0.149
10007TIP3    H129964   0.957   6.012   0.222
10007TIP3    H229965   1.074   5.921   0.188
10008TIP3   OH229966   5.828   7.087   1.670
10008TIP3    H129967   5.915   7.046   1.667
10008TIP3    H229968   5.795   7.079   1.580
10009TIP3   OH229969   1.595   4.976   0.949
10009TIP3    H129970   1.687   4.958   0.970
10009TIP3    H229971   1.594   5.068   0.923
10010TIP3   OH229972   3.848   0.838   1.578
10010TIP3    H129973   3.818   0.921   1.540
10010TIP3    H229974   3.787   0.773   1.544
10011TIP3   OH229975   4.456   2.102   1.756
10011TIP3    H129976   4.525   2.061   1.703
10011TIP3    H229977   4.397   2.030   1.778
10012TIP3   OH229978   2.628   1.435   2.235
10012TIP3    H129979   2.708   1.453   2.283
10012TIP3    H229980   2.645   1.352   2.190
10013TIP3   OH229981   2.101   3.136   2.617
10013TIP3    H129982   2.140   3.182   2.692
10013TIP3    H229983   2.011   3.169   2.614
10014TIP3   OH229984   5.312   2.921   6.227
10014TIP3    H129985   5.379   2.985   6.248
10014TIP3    H229986   5.248   2.929   6.298
10015TIP3   OH229987   8.053   6.021   6.362
10015TIP3    H129988   8.094   6.097   6.403
10015TIP3    H229989   8.020   5.970   6.436
10016TIP3   OH229990   8.030   1.065   2.159
10016TIP3    H129991   8.011   1.079   2.066
10016TIP3    H229992   7.961   1.113   2.205
10017TIP3   OH229993   1.813   0.806   4.530
10017TIP3    H129994   1.872   0.777   4.461
10017TIP3    H229995   1.732   0.757   4.514
10018TIP3   OH229996   8.248   5.249   3.292
10018TIP3    H129997   8.195   5.289   3.361
10018TIP3    H229998   8.298   5.321   3.255
10019TIP3   OH229999   2.773   3.808   0.054
10019TIP3    H130000   2.755   3.715   0.040
10019TIP3    H230001   2.867   3.816   0.040
10020TIP3   OH230002   6.361   2.856   5.561
10020TIP3    H130003   6.413   2.801   5.620
10020TIP3    H230004   6.412   2.859   5.480
10021TIP3   OH230005   1.506   2.023   1.967
10021TIP3    H130006   1.427   2.040   1.916
10021TIP3    H230007   1.578   2.036   1.905
10022TIP3   OH230008   1.771   1.568   5.402
10022TIP3    H130009   1.769   1.498   5.336
10022TIP3    H230010   1.706   1.632   5.371
10023TIP3   OH230011   7.568   7.325   3.211
10023TIP3    H130012   7.540   7.403   3.259
10023TIP3    H230013   7.506   7.318   3.138
10024TIP3   OH230014   2.700   4.756   1.085
10024TIP3    H130015   2.754   4.795   1.016
10024TIP3    H230016   2.716   4.662   1.078
10025TIP3   OH230017   8.033   6.474   0.058
10025TIP3    H130018   8.088   6.447  -0.015
10025TIP3    H230019   8.095   6.498   0.127
10026TIP3   OH230020   5.936   5.854   3.715
10026TIP3    H130021   5.865   5.796   3.743
10026TIP3    H230022   5.947   5.915   3.788
10027TIP3   OH230023   3.554   1.160   1.400
10027TIP3    H130024   3.470   1.134   1.438
10027TIP3    H230025   3.555   1.256   1.408
10028TIP3   OH230026   0.917   3.931   3.718
10028TIP3    H130027   0.891   3.983   3.794
10028TIP3    H230028   0.859   3.960   3.648
10029TIP3   OH230029   5.763   2.560   2.371
10029TIP3    H130030   5.767   2.491   2.304
10029TIP3    H230031   5.828   2.624   2.343
10030TIP3   OH230032   1.462   3.923   2.942
10030TIP3    H130033   1.421   3.874   2.871
10030TIP3    H230034   1.541   3.873   2.963
10031TIP3   OH230035   2.554   1.768   3.050
10031TIP3    H130036   2.601   1.733   2.974
10031TIP3    H230037   2.538   1.860   3.027
10032TIP3   OH230038   2.610   2.392   0.935
10032TIP3    H130039   2.635   2.299   0.931
10032TIP3    H230040   2.666   2.429   1.002
10033TIP3   OH230041   6.734   3.498   0.403
10033TIP3    H130042   6.780   3.471   0.324
10033TIP3    H230043   6.783   3.574   0.435
10034TIP3   OH230044   0.373   1.903   5.878
10034TIP3    H130045   0.347   1.812   5.863
10034TIP3    H230046   0.438   1.921   5.810
10035TIP3   OH230047   5.709   6.188   1.381
10035TIP3    H130048   5.639   6.232   1.334
10035TIP3    H230049   5.774   6.167   1.313
10036TIP3   OH230050   6.330   0.403   5.292
10036TIP3    H130051   6.263   0.358   5.240
10036TIP3    H230052   6.338   0.489   5.251
10037TIP3   OH230053   6.443   1.590   3.096
10037TIP3    H130054   6.502   1.577   3.022
10037TIP3    H230055   6.500   1.581   3.173
10038TIP3   OH230056   5.506   6.609   1.584
10038TIP3    H130057   5.478   6.662   1.659
10038TIP3    H230058   5.561   6.541   1.622
10039TIP3   OH230059   6.517   0.698   0.519
10039TIP3    H130060   6.488   0.751   0.592
10039TIP3    H230061   6.547   0.616   0.559
10040TIP3   OH230062   4.283   0.516   6.624
10040TIP3    H130063   4.294   0.572   6.547
10040TIP3    H230064   4.367   0.473   6.635
10041TIP3   OH230065   3.321   5.176   5.908
10041TIP3    H130066   3.343   5.083   5.902
10041TIP3    H230067   3.259   5.182   5.980
10042TIP3   OH230068   6.162   1.779   6.509
10042TIP3    H130069   6.068   1.767   6.524
10042TIP3    H230070   6.176   1.749   6.419
10043TIP3   OH230071   7.423   5.625   3.827
10043TIP3    H130072   7.477   5.700   3.852
10043TIP3    H230073   7.474   5.548   3.853
10044TIP3   OH230074   2.230   1.908   3.648
10044TIP3    H130075   2.170   1.842   3.612
10044TIP3    H230076   2.314   1.864   3.652
10045TIP3   OH230077   0.573   2.522   0.135
10045TIP3    H130078   0.594   2.429   0.135
10045TIP3    H230079   0.477   2.526   0.129
10046TIP3   OH230080   7.868   6.970   5.188
10046TIP3    H130081   7.961   6.980   5.167
10046TIP3    H230082   7.864   6.893   5.245
10047TIP3   OH230083   6.934   6.618   2.255
10047TIP3    H130084   6.891   6.533   2.265
10047TIP3    H230085   7.027   6.600   2.271
10048TIP3   OH230086   1.188   6.765   4.124
10048TIP3    H130087   1.192   6.778   4.219
10048TIP3    H230088   1.235   6.839   4.087
10049TIP3   OH230089   4.589   0.469   3.008
10049TIP3    H130090   4.652   0.467   2.935
10049TIP3    H230091   4.632   0.420   3.078
10050TIP3   OH230092   1.855   6.372   3.736
10050TIP3    H130093   1.842   6.354   3.643
10050TIP3    H230094   1.836   6.465   3.746
10051TIP3   OH230095   0.398   1.094   5.292
10051TIP3    H130096   0.376   1.109   5.200
10051TIP3    H230097   0.444   1.173   5.319
10052TIP3   OH230098   4.812   5.789   2.798
10052TIP3    H130099   4.797   5.720   2.862
10052TIP3    H230100   4.725   5.808   2.762
10053TIP3   OH230101   1.377   4.741   6.037
10053TIP3    H130102   1.424   4.669   5.997
10053TIP3    H230103   1.330   4.783   5.965
10054TIP3   OH230104   6.702   5.502   6.472
10054TIP3    H130105   6.723   5.413   6.501
10054TIP3    H230106   6.712   5.556   6.551
10055TIP3   OH230107   0.189   2.777   5.131
10055TIP3    H130108   0.259   2.833   5.096
10055TIP3    H230109   0.130   2.839   5.175
10056TIP3   OH230110   6.141   6.281   5.973
10056TIP3    H130111   6.097   6.197   5.977
10056TIP3    H230112   6.120   6.316   5.887
10057TIP3   OH230113   6.781   0.216   1.731
10057TIP3    H130114   6.769   0.292   1.788
10057TIP3    H230115   6.759   0.141   1.786
10058TIP3   OH230116   6.036   4.263   6.780
10058TIP3    H130117   6.065   4.220   6.699
10058TIP3    H230118   6.102   4.330   6.797
10059TIP3   OH230119   7.822   3.759   2.585
10059TIP3    H130120   7.790   3.739   2.673
10059TIP3    H230121   7.900   3.705   2.575
10060TIP3   OH230122   5.094   7.751   6.215
10060TIP3    H130123   5.101   7.740   6.121
10060TIP3    H230124   5.109   7.664   6.251
10061TIP3   OH230125   8.270   5.911   0.470
10061TIP3    H130126   8.277   5.837   0.530
10061TIP3    H230127   8.190   5.894   0.420
10062TIP3   OH230128   3.615   3.920   3.203
10062TIP3    H130129   3.615   3.900   3.110
10062TIP3    H230130   3.577   3.842   3.245
10063TIP3   OH230131   3.214   3.337   4.688
10063TIP3    H130132   3.175   3.280   4.621
10063TIP3    H230133   3.139   3.380   4.729
10064TIP3   OH230134   2.401   1.562   5.427
10064TIP3    H130135   2.362   1.649   5.434
10064TIP3    H230136   2.401   1.543   5.333
10065TIP3   OH230137   8.219   7.581   1.213
10065TIP3    H130138   8.126   7.598   1.227
10065TIP3    H230139   8.258   7.668   1.204
10066TIP3   OH230140   7.623   4.590   4.560
10066TIP3    H130141   7.654   4.500   4.567
10066TIP3    H230142   7.536   4.582   4.521
10067TIP3   OH230143   7.831   0.666   2.900
10067TIP3    H130144   7.825   0.739   2.961
10067TIP3    H230145   7.924   0.661   2.877
10068TIP3   OH230146   4.844   5.511   3.754
10068TIP3    H130147   4.861   5.492   3.847
10068TIP3    H230148   4.916   5.569   3.729
10069TIP3   OH230149   7.132   5.316   5.939
10069TIP3    H130150   7.052   5.358   5.906
10069TIP3    H230151   7.120   5.223   5.920
10070TIP3   OH230152   2.117   2.121   5.262
10070TIP3    H130153   2.183   2.053   5.257
10070TIP3    H230154   2.087   2.119   5.352
10071TIP3   OH230155   2.285   7.079   2.919
10071TIP3    H130156   2.195   7.050   2.906
10071TIP3    H230157   2.313   7.110   2.832
10072TIP3   OH230158   8.016   3.323   3.737
10072TIP3    H130159   7.956   3.263   3.780
10072TIP3    H230160   7.987   3.325   3.646
10073TIP3   OH230161   0.579   3.835   4.069
10073TIP3    H130162   0.601   3.792   3.987
10073TIP3    H230163   0.620   3.781   4.136
10074TIP3   OH230164   2.478   5.814   5.112
10074TIP3    H130165   2.429   5.740   5.076
10074TIP3    H230166   2.553   5.824   5.054
10075TIP3   OH230167   3.669   0.587   4.150
10075TIP3    H130168   3.762   0.574   4.172
10075TIP3    H230169   3.639   0.500   4.123
10076TIP3   OH230170   1.349   3.003   6.113
10076TIP3    H130171   1.260   3.037   6.109
10076TIP3    H230172   1.394   3.045   6.040
10077TIP3   OH230173   0.350   1.813   2.514
10077TIP3    H130174   0.415   1.794   2.583
10077TIP3    H230175   0.315   1.899   2.538
10078TIP3   OH230176   7.503   5.768   4.535
10078TIP3    H130177   7.440   5.736   4.600
10078TIP3    H230178   7.495   5.706   4.462
10079TIP3   OH230179   0.872   6.000   4.766
10079TIP3    H130180   0.900   5.966   4.851
10079TIP3    H230181   0.799   5.944   4.740
10080TIP3   OH230182   3.408   5.508   2.910
10080TIP3    H130183   3.429   5.522   3.002
10080TIP3    H230184   3.325   5.554   2.898
10081TIP3   OH230185   4.531   3.878   3.617
10081TIP3    H130186   4.484   3.844   3.541
10081TIP3    H230187   4.472   3.944   3.654
10082TIP3   OH230188   4.923   1.287   2.580
10082TIP3    H130189   4.921   1.363   2.522
10082TIP3    H230190   4.899   1.322   2.666
10083TIP3   OH230191   1.112   3.392   4.550
10083TIP3    H130192   1.022   3.390   4.518
10083TIP3    H230193   1.147   3.476   4.518
10084TIP3   OH230194   2.685   0.348   6.037
10084TIP3    H130195   2.641   0.375   5.956
10084TIP3    H230196   2.715   0.259   6.019
10085TIP3   OH230197   3.099   2.488   6.693
10085TIP3    H130198   3.057   2.456   6.773
10085TIP3    H230199   3.191   2.497   6.716
10086TIP3   OH230200   7.893   1.544   2.946
10086TIP3    H130201   7.981   1.523   2.915
10086TIP3    H230202   7.897   1.532   3.041
10087TIP3   OH230203   5.220   3.587   1.165
10087TIP3    H130204   5.246   3.633   1.086
10087TIP3    H230205   5.293   3.527   1.183
10088TIP3   OH230206   3.739   3.128   3.973
10088TIP3    H130207   3.810   3.077   3.934
10088TIP3    H230208   3.732   3.097   4.063
10089TIP3   OH230209   3.245   3.455   6.128
10089TIP3    H130210   3.214   3.532   6.178
10089TIP3    H230211   3.306   3.412   6.187
10090TIP3   OH230212   6.121   0.639   2.692
10090TIP3    H130213   6.128   0.550   2.726
10090TIP3    H230214   6.082   0.689   2.764
10091TIP3   OH230215   2.319   4.914   6.729
10091TIP3    H130216   2.229   4.942   6.711
10091TIP3    H230217   2.347   4.867   6.651
10092TIP3   OH230218   6.312   4.796   3.731
10092TIP3    H130219   6.369   4.754   3.667
10092TIP3    H230220   6.233   4.743   3.732
10093TIP3   OH230221   1.602   0.498   3.981
10093TIP3    H130222   1.614   0.449   4.062
10093TIP3    H230223   1.678   0.476   3.928
10094TIP3   OH230224   0.747   1.367   6.759
10094TIP3    H130225   0.692   1.332   6.828
10094TIP3    H230226   0.691   1.367   6.681
10095TIP3   OH230227   1.435   5.496   3.920
10095TIP3    H130228   1.528   5.483   3.899
10095TIP3    H230229   1.431   5.584   3.958
10096TIP3   OH230230   5.195   1.938   3.242
10096TIP3    H130231   5.222   1.926   3.333
10096TIP3    H230232   5.166   1.851   3.214
10097TIP3   OH230233   5.032   0.911   2.956
10097TIP3    H130234   4.980   0.844   2.910
10097TIP3    H230235   5.092   0.861   3.010
10098TIP3   OH230236   3.430   7.296   2.212
10098TIP3    H130237   3.498   7.228   2.213
10098TIP3    H230238   3.456   7.354   2.141
10099TIP3   OH230239   2.314   2.889   0.752
10099TIP3    H130240   2.377   2.844   0.808
10099TIP3    H230241   2.347   2.876   0.664
10100TIP3   OH230242   6.487   1.146   0.848
10100TIP3    H130243   6.436   1.066   0.839
10100TIP3    H230244   6.426   1.216   0.822
10101TIP3   OH230245   0.430   1.454   0.849
10101TIP3    H130246   0.366   1.523   0.868
10101TIP3    H230247   0.505   1.500   0.811
10102TIP3   OH230248   6.004   5.657   1.290
10102TIP3    H130249   5.910   5.642   1.290
10102TIP3    H230250   6.032   5.634   1.379
10103TIP3   OH230251   0.442   3.944   4.942
10103TIP3    H130252   0.479   3.977   5.024
10103TIP3    H230253   0.379   4.011   4.916
10104TIP3   OH230254   5.897   1.259   5.698
10104TIP3    H130255   5.881   1.191   5.633
10104TIP3    H230256   5.908   1.340   5.648
10105TIP3   OH230257   1.210   2.283   4.626
10105TIP3    H130258   1.162   2.226   4.686
10105TIP3    H230259   1.262   2.223   4.572
10106TIP3   OH230260   4.632   2.272   6.666
10106TIP3    H130261   4.646   2.329   6.742
10106TIP3    H230262   4.561   2.315   6.618
10107TIP3   OH230263   2.734   4.240   6.762
10107TIP3    H130264   2.827   4.263   6.760
10107TIP3    H230265   2.708   4.254   6.853
10108TIP3   OH230266   1.184   4.604   6.613
10108TIP3    H130267   1.184   4.697   6.591
10108TIP3    H230268   1.105   4.569   6.574
10109TIP3   OH230269   3.969   7.544   4.971
10109TIP3    H130270   4.000   7.586   5.051
10109TIP3    H230271   3.914   7.472   5.002
10110TIP3   OH230272   0.693   7.725   0.330
10110TIP3    H130273   0.699   7.820   0.336
10110TIP3    H230274   0.768   7.693   0.379
10111TIP3   OH230275   1.459   1.323   3.134
10111TIP3    H130276   1.536   1.366   3.099
10111TIP3    H230277   1.401   1.311   3.058
10112TIP3   OH230278   7.180   5.042   1.722
10112TIP3    H130279   7.179   5.125   1.675
10112TIP3    H230280   7.208   5.066   1.811
10113TIP3   OH230281   6.147   1.496   3.615
10113TIP3    H130282   6.204   1.573   3.608
10113TIP3    H230283   6.207   1.422   3.623
10114TIP3   OH230284   8.076   5.417   2.938
10114TIP3    H130285   7.997   5.469   2.956
10114TIP3    H230286   8.054   5.329   2.971
10115TIP3   OH230287   2.357   0.367   2.293
10115TIP3    H130288   2.421   0.313   2.340
10115TIP3    H230289   2.272   0.338   2.325
10116TIP3   OH230290   0.658   3.904   2.218
10116TIP3    H130291   0.673   3.919   2.312
10116TIP3    H230292   0.577   3.853   2.214
10117TIP3   OH230293   5.027   7.603   3.034
10117TIP3    H130294   4.952   7.648   2.995
10117TIP3    H230295   4.988   7.547   3.101
10118TIP3   OH230296   3.646   2.182   6.313
10118TIP3    H130297   3.674   2.133   6.236
10118TIP3    H230298   3.726   2.222   6.347
10119TIP3   OH230299   3.329   2.098   6.015
10119TIP3    H130300   3.336   2.172   6.075
10119TIP3    H230301   3.269   2.128   5.946
10120TIP3   OH230302   6.257   4.515   3.234
10120TIP3    H130303   6.317   4.491   3.305
10120TIP3    H230304   6.303   4.490   3.154
10121TIP3   OH230305   1.550   5.049   5.207
10121TIP3    H130306   1.571   4.955   5.209
10121TIP3    H230307   1.504   5.065   5.290
10122TIP3   OH230308   0.630   5.368   1.080
10122TIP3    H130309   0.539   5.337   1.080
10122TIP3    H230310   0.623   5.463   1.095
10123TIP3   OH230311   3.993   2.350   0.251
10123TIP3    H130312   3.974   2.428   0.199
10123TIP3    H230313   3.940   2.281   0.211
10124TIP3   OH230314   5.038   7.232   2.803
10124TIP3    H130315   4.970   7.252   2.739
10124TIP3    H230316   5.097   7.307   2.799
10125TIP3   OH230317   5.501   7.237   5.595
10125TIP3    H130318   5.572   7.300   5.582
10125TIP3    H230319   5.432   7.266   5.535
10126TIP3   OH230320   6.918   3.798   3.486
10126TIP3    H130321   6.952   3.724   3.537
10126TIP3    H230322   6.847   3.760   3.434
10127TIP3   OH230323   5.147   0.756   2.656
10127TIP3    H130324   5.177   0.798   2.736
10127TIP3    H230325   5.223   0.709   2.623
10128TIP3   OH230326   6.424   4.674   1.516
10128TIP3    H130327   6.341   4.721   1.516
10128TIP3    H230328   6.433   4.640   1.606
10129TIP3   OH230329   8.292   7.401   4.818
10129TIP3    H130330   8.274   7.469   4.754
10129TIP3    H230331   8.301   7.447   4.901
10130TIP3   OH230332   7.629   3.927   1.211
10130TIP3    H130333   7.552   3.937   1.267
10130TIP3    H230334   7.695   3.985   1.250
10131TIP3   OH230335   7.806   3.858   0.229
10131TIP3    H130336   7.778   3.949   0.239
10131TIP3    H230337   7.731   3.813   0.190
10132TIP3   OH230338   2.529   6.580   0.549
10132TIP3    H130339   2.498   6.514   0.487
10132TIP3    H230340   2.470   6.571   0.624
10133TIP3   OH230341   3.702   7.404   3.183
10133TIP3    H130342   3.666   7.395   3.095
10133TIP3    H230343   3.791   7.436   3.169
10134TIP3   OH230344   8.038   4.088   6.274
10134TIP3    H130345   8.025   4.004   6.319
10134TIP3    H230346   8.023   4.154   6.342
10135TIP3   OH230347   6.256   4.880   4.578
10135TIP3    H130348   6.249   4.975   4.583
10135TIP3    H230349   6.278   4.852   4.666
10136TIP3   OH230350   0.618   3.774   3.688
10136TIP3    H130351   0.652   3.846   3.635
10136TIP3    H230352   0.611   3.700   3.627
10137TIP3   OH230353   7.419   1.924   2.415
10137TIP3    H130354   7.452   1.836   2.431
10137TIP3    H230355   7.495   1.981   2.425
10138TIP3   OH230356   2.448   4.440   5.790
10138TIP3    H130357   2.468   4.366   5.733
10138TIP3    H230358   2.491   4.419   5.872
10139TIP3   OH230359   1.171   4.289   4.539
10139TIP3    H130360   1.216   4.343   4.475
10139TIP3    H230361   1.081   4.283   4.507
10140TIP3   OH230362   7.686   1.944   2.131
10140TIP3    H130363   7.681   1.858   2.089
10140TIP3    H230364   7.709   2.004   2.061
10141TIP3   OH230365   4.453   5.213   2.663
10141TIP3    H130366   4.439   5.138   2.606
10141TIP3    H230367   4.369   5.258   2.664
10142TIP3   OH230368   4.683   1.991   0.869
10142TIP3    H130369   4.612   2.037   0.825
10142TIP3    H230370   4.658   1.989   0.961
10143TIP3   OH230371   6.968   6.596   2.802
10143TIP3    H130372   7.055   6.561   2.787
10143TIP3    H230373   6.976   6.690   2.786
10144TIP3   OH230374   4.402   7.297   2.342
10144TIP3    H130375   4.341   7.223   2.341
10144TIP3    H230376   4.449   7.289   2.425
10145TIP3   OH230377   2.590   4.184   0.019
10145TIP3    H130378   2.658   4.142  -0.033
10145TIP3    H230379   2.638   4.235   0.085
10146TIP3   OH230380   6.891   6.480   1.913
10146TIP3    H130381   6.968   6.521   1.951
10146TIP3    H230382   6.901   6.387   1.934
10147TIP3   OH230383   4.612   2.846   1.332
10147TIP3    H130384   4.552   2.916   1.359
10147TIP3    H230385   4.574   2.767   1.370
10148TIP3   OH230386   3.586   3.072   3.071
10148TIP3    H130387   3.565   2.986   3.034
10148TIP3    H230388   3.676   3.089   3.042
10149TIP3   OH230389   8.305   1.450   5.967
10149TIP3    H130390   8.277   1.486   6.051
10149TIP3    H230391   8.263   1.363   5.963
10150TIP3   OH230392   8.069   5.239   0.753
10150TIP3    H130393   8.106   5.158   0.789
10150TIP3    H230394   8.115   5.252   0.670
10151TIP3   OH230395   7.549   1.768   0.392
10151TIP3    H130396   7.638   1.750   0.363
10151TIP3    H230397   7.532   1.858   0.363
10152TIP3   OH230398   2.501   5.319   3.946
10152TIP3    H130399   2.546   5.330   3.862
10152TIP3    H230400   2.466   5.406   3.966
10153TIP3   OH230401   0.971   5.082   0.790
10153TIP3    H130402   0.884   5.045   0.806
10153TIP3    H230403   0.995   5.051   0.702
10154TIP3   OH230404   4.863   2.804   4.856
10154TIP3    H130405   4.814   2.728   4.887
10154TIP3    H230406   4.939   2.810   4.915
10155TIP3   OH230407   7.029   4.342   4.946
10155TIP3    H130408   7.016   4.262   4.997
10155TIP3    H230409   7.075   4.401   5.006
10156TIP3   OH230410   4.862   5.339   1.710
10156TIP3    H130411   4.839   5.255   1.671
10156TIP3    H230412   4.956   5.348   1.693
10157TIP3   OH230413   6.403   6.660   2.976
10157TIP3    H130414   6.476   6.624   2.925
10157TIP3    H230415   6.385   6.594   3.043
10158TIP3   OH230416   3.756   0.785   2.063
10158TIP3    H130417   3.751   0.827   2.148
10158TIP3    H230418   3.824   0.718   2.073
10159TIP3   OH230419   4.495   7.660   4.126
10159TIP3    H130420   4.549   7.683   4.201
10159TIP3    H230421   4.491   7.564   4.126
10160TIP3   OH230422   5.161   7.574   4.671
10160TIP3    H130423   5.091   7.563   4.736
10160TIP3    H230424   5.149   7.663   4.637
10161TIP3   OH230425   5.155   0.107   5.824
10161TIP3    H130426   5.221   0.067   5.880
10161TIP3    H230427   5.202   0.129   5.744
10162TIP3   OH230428   5.896   7.485   2.854
10162TIP3    H130429   5.981   7.516   2.886
10162TIP3    H230430   5.893   7.392   2.880
10163TIP3   OH230431   0.577   1.567   2.521
10163TIP3    H130432   0.539   1.578   2.433
10163TIP3    H230433   0.553   1.478   2.546
10164TIP3   OH230434   3.276   5.036   2.273
10164TIP3    H130435   3.355   5.089   2.263
10164TIP3    H230436   3.280   5.002   2.362
10165TIP3   OH230437   4.933   3.467   2.797
10165TIP3    H130438   4.855   3.428   2.758
10165TIP3    H230439   4.900   3.542   2.847
10166TIP3   OH230440   3.771   4.410   1.770
10166TIP3    H130441   3.752   4.490   1.819
10166TIP3    H230442   3.726   4.341   1.819
10167TIP3   OH230443   0.380   3.810   2.536
10167TIP3    H130444   0.468   3.791   2.569
10167TIP3    H230445   0.336   3.854   2.609
10168TIP3   OH230446   8.104   1.438   5.725
10168TIP3    H130447   8.015   1.441   5.690
10168TIP3    H230448   8.097   1.479   5.811
10169TIP3   OH230449   7.111   7.208   1.293
10169TIP3    H130450   7.054   7.247   1.359
10169TIP3    H230451   7.075   7.239   1.209
10170TIP3   OH230452   8.241   7.697   4.761
10170TIP3    H130453   8.335   7.714   4.764
10170TIP3    H230454   8.212   7.705   4.851
10171TIP3   OH230455   4.370   2.579   1.758
10171TIP3    H130456   4.357   2.520   1.833
10171TIP3    H230457   4.326   2.660   1.782
10172TIP3   OH230458   7.695   7.755   6.165
10172TIP3    H130459   7.772   7.810   6.175
10172TIP3    H230460   7.690   7.737   6.071
10173TIP3   OH230461   7.371   3.406   1.539
10173TIP3    H130462   7.432   3.446   1.477
10173TIP3    H230463   7.387   3.312   1.532
10174TIP3   OH230464   7.222   6.534   3.370
10174TIP3    H130465   7.212   6.629   3.379
10174TIP3    H230466   7.259   6.523   3.282
10175TIP3   OH230467   6.455   7.150   1.854
10175TIP3    H130468   6.488   7.168   1.942
10175TIP3    H230469   6.479   7.059   1.837
10176TIP3   OH230470   1.910   2.531   6.510
10176TIP3    H130471   1.845   2.601   6.506
10176TIP3    H230472   1.869   2.457   6.466
10177TIP3   OH230473   1.308   1.019   5.057
10177TIP3    H130474   1.370   1.087   5.085
10177TIP3    H230475   1.363   0.942   5.039
10178TIP3   OH230476   2.169   1.453   4.780
10178TIP3    H130477   2.240   1.508   4.811
10178TIP3    H230478   2.183   1.368   4.823
10179TIP3   OH230479   4.301   7.403   6.301
10179TIP3    H130480   4.208   7.385   6.310
10179TIP3    H230481   4.335   7.404   6.390
10180TIP3   OH230482   2.302   0.594   4.677
10180TIP3    H130483   2.222   0.615   4.628
10180TIP3    H230484   2.358   0.549   4.613
10181TIP3   OH230485   7.052   6.838   2.157
10181TIP3    H130486   7.116   6.797   2.215
10181TIP3    H230487   7.016   6.765   2.106
10182TIP3   OH230488   0.108   7.123   2.462
10182TIP3    H130489   0.166   7.165   2.525
10182TIP3    H230490   0.032   7.095   2.513
10183TIP3   OH230491   4.916   5.074   5.757
10183TIP3    H130492   4.909   4.990   5.711
10183TIP3    H230493   4.969   5.054   5.834
10184TIP3   OH230494   8.127   7.485   0.488
10184TIP3    H130495   8.057   7.426   0.462
10184TIP3    H230496   8.100   7.520   0.573
10185TIP3   OH230497   2.130   1.728   4.447
10185TIP3    H130498   2.092   1.805   4.406
10185TIP3    H230499   2.206   1.707   4.392
10186TIP3   OH230500   7.806   4.472   0.984
10186TIP3    H130501   7.875   4.468   0.919
10186TIP3    H230502   7.836   4.540   1.046
10187TIP3   OH230503   7.041   2.034   5.007
10187TIP3    H130504   7.021   1.980   4.930
10187TIP3    H230505   7.118   2.084   4.981
10188TIP3   OH230506   4.933   5.490   6.769
10188TIP3    H130507   4.886   5.478   6.687
10188TIP3    H230508   4.925   5.583   6.789
10189TIP3   OH230509   7.440   1.925   1.929
10189TIP3    H130510   7.409   1.930   1.839
10189TIP3    H230511   7.451   1.831   1.945
10190TIP3   OH230512   8.250   4.075   3.724
10190TIP3    H130513   8.203   4.126   3.790
10190TIP3    H230514   8.279   4.141   3.660
10191TIP3   OH230515   5.693   0.033   4.966
10191TIP3    H130516   5.606   0.036   5.006
10191TIP3    H230517   5.686  -0.038   4.902
10192TIP3   OH230518   1.767   6.540   5.591
10192TIP3    H130519   1.773   6.528   5.686
10192TIP3    H230520   1.787   6.454   5.554
10193TIP3   OH230521   5.860   3.188   0.962
10193TIP3    H130522   5.799   3.252   0.924
10193TIP3    H230523   5.944   3.209   0.922
10194TIP3   OH230524   5.632   3.113   4.016
10194TIP3    H130525   5.662   3.157   3.936
10194TIP3    H230526   5.576   3.042   3.984
10195TIP3   OH230527   0.472   6.270   5.439
10195TIP3    H130528   0.520   6.307   5.513
10195TIP3    H230529   0.433   6.189   5.474
10196TIP3   OH230530   1.127   5.621   2.862
10196TIP3    H130531   1.058   5.581   2.916
10196TIP3    H230532   1.146   5.704   2.905
10197TIP3   OH230533   1.251   1.794   2.194
10197TIP3    H130534   1.269   1.753   2.278
10197TIP3    H230535   1.178   1.743   2.158
10198TIP3   OH230536   1.882   1.380   0.738
10198TIP3    H130537   1.907   1.317   0.806
10198TIP3    H230538   1.794   1.407   0.763
10199TIP3   OH230539   2.277   3.517   4.679
10199TIP3    H130540   2.221   3.572   4.624
10199TIP3    H230541   2.327   3.578   4.733
10200TIP3   OH230542   7.112   4.826   6.143
10200TIP3    H130543   7.192   4.778   6.167
10200TIP3    H230544   7.093   4.880   6.219
10201TIP3   OH230545   1.855   0.190   5.628
10201TIP3    H130546   1.765   0.224   5.626
10201TIP3    H230547   1.857   0.133   5.705
10202TIP3   OH230548   4.435   3.619   0.265
10202TIP3    H130549   4.451   3.668   0.185
10202TIP3    H230550   4.450   3.683   0.335
10203TIP3   OH230551   8.155   3.598   3.073
10203TIP3    H130552   8.249   3.592   3.087
10203TIP3    H230553   8.140   3.688   3.044
10204TIP3   OH230554   6.142   4.255   3.697
10204TIP3    H130555   6.167   4.242   3.789
10204TIP3    H230556   6.193   4.190   3.649
10205TIP3   OH230557   7.982   0.045   5.681
10205TIP3    H130558   8.020   0.103   5.747
10205TIP3    H230559   8.025  -0.040   5.696
10206TIP3   OH230560   2.853   2.374   3.644
10206TIP3    H130561   2.917   2.325   3.695
10206TIP3    H230562   2.824   2.312   3.576
10207TIP3   OH230563   2.435   2.874   5.107
10207TIP3    H130564   2.464   2.785   5.122
10207TIP3    H230565   2.434   2.883   5.011
10208TIP3   OH230566   4.262   2.510   5.937
10208TIP3    H130567   4.253   2.415   5.940
10208TIP3    H230568   4.282   2.535   6.028
10209TIP3   OH230569   8.070   6.590   2.439
10209TIP3    H130570   7.987   6.596   2.392
10209TIP3    H230571   8.059   6.646   2.516
10210TIP3   OH230572   0.619   6.647   1.325
10210TIP3    H130573   0.590   6.561   1.356
10210TIP3    H230574   0.544   6.682   1.277
10211TIP3   OH230575   8.017   1.864   3.085
10211TIP3    H130576   7.941   1.858   3.143
10211TIP3    H230577   8.072   1.790   3.109
10212TIP3   OH230578   2.859   1.793   1.065
10212TIP3    H130579   2.848   1.700   1.046
10212TIP3    H230580   2.926   1.795   1.133
10213TIP3   OH230581   4.079   1.832   0.839
10213TIP3    H130582   4.083   1.756   0.897
10213TIP3    H230583   4.026   1.804   0.765
10214TIP3   OH230584   5.019   4.799   6.626
10214TIP3    H130585   4.937   4.756   6.649
10214TIP3    H230586   5.040   4.854   6.702
10215TIP3   OH230587   5.222   3.719   5.228
10215TIP3    H130588   5.170   3.641   5.210
10215TIP3    H230589   5.309   3.698   5.193
10216TIP3   OH230590   1.199   1.137   0.760
10216TIP3    H130591   1.173   1.046   0.745
10216TIP3    H230592   1.216   1.141   0.855
10217TIP3   OH230593   1.175   7.510   6.406
10217TIP3    H130594   1.209   7.598   6.420
10217TIP3    H230595   1.100   7.503   6.464
10218TIP3   OH230596   5.302   3.128   3.050
10218TIP3    H130597   5.332   3.039   3.034
10218TIP3    H230598   5.305   3.170   2.964
10219TIP3   OH230599   3.881   1.857   3.670
10219TIP3    H130600   3.865   1.859   3.575
10219TIP3    H230601   3.799   1.827   3.708
10220TIP3   OH230602   2.351   6.555   2.363
10220TIP3    H130603   2.430   6.609   2.365
10220TIP3    H230604   2.366   6.487   2.428
10221TIP3   OH230605   1.793   0.308   5.299
10221TIP3    H130606   1.782   0.291   5.393
10221TIP3    H230607   1.829   0.397   5.295
10222TIP3   OH230608   2.682   2.843   4.046
10222TIP3    H130609   2.642   2.800   3.970
10222TIP3    H230610   2.772   2.860   4.019
10223TIP3   OH230611   8.144   5.170   5.723
10223TIP3    H130612   8.143   5.100   5.659
10223TIP3    H230613   8.140   5.125   5.808
10224TIP3   OH230614   7.115   7.010   4.540
10224TIP3    H130615   7.195   6.967   4.509
10224TIP3    H230616   7.045   6.971   4.489
10225TIP3   OH230617   3.660   1.337   5.772
10225TIP3    H130618   3.617   1.366   5.691
10225TIP3    H230619   3.721   1.408   5.793
10226TIP3   OH230620   4.273   4.273   1.602
10226TIP3    H130621   4.196   4.236   1.645
10226TIP3    H230622   4.331   4.198   1.589
10227TIP3   OH230623   0.121   5.219   3.024
10227TIP3    H130624   0.101   5.214   3.117
10227TIP3    H230625   0.053   5.167   2.981
10228TIP3   OH230626   1.745   3.269   6.296
10228TIP3    H130627   1.808   3.275   6.224
10228TIP3    H230628   1.703   3.355   6.299
10229TIP3   OH230629   0.256   1.316   3.093
10229TIP3    H130630   0.163   1.319   3.071
10229TIP3    H230631   0.279   1.407   3.115
10230TIP3   OH230632   5.065   0.668   4.583
10230TIP3    H130633   5.127   0.731   4.546
10230TIP3    H230634   5.082   0.588   4.534
10231TIP3   OH230635   0.304   4.139   3.076
10231TIP3    H130636   0.383   4.127   3.129
10231TIP3    H230637   0.237   4.087   3.121
10232TIP3   OH230638   1.511   7.587   4.027
10232TIP3    H130639   1.550   7.546   3.950
10232TIP3    H230640   1.460   7.517   4.068
10233TIP3   OH230641   2.579   3.667   2.389
10233TIP3    H130642   2.512   3.735   2.385
10233TIP3    H230643   2.540   3.592   2.344
10234TIP3   OH230644   1.857   1.522   5.812
10234TIP3    H130645   1.773   1.565   5.796
10234TIP3    H230646   1.850   1.487   5.901
10235TIP3   OH230647   3.627   7.111   0.919
10235TIP3    H130648   3.592   7.188   0.874
10235TIP3    H230649   3.720   7.130   0.932
10236TIP3   OH230650   1.080   2.695   2.893
10236TIP3    H130651   0.991   2.726   2.907
10236TIP3    H230652   1.090   2.694   2.798
10237TIP3   OH230653   3.655   4.997   0.981
10237TIP3    H130654   3.743   4.987   1.018
10237TIP3    H230655   3.609   4.917   1.005
10238TIP3   OH230656   5.180   0.560   1.086
10238TIP3    H130657   5.233   0.600   1.017
10238TIP3    H230658   5.090   0.582   1.063
10239TIP3   OH230659   6.344   0.145   4.198
10239TIP3    H130660   6.362   0.235   4.226
10239TIP3    H230661   6.361   0.093   4.276
10240TIP3   OH230662   7.849   6.396   5.319
10240TIP3    H130663   7.876   6.314   5.278
10240TIP3    H230664   7.754   6.398   5.308
10241TIP3   OH230665   4.417   3.039   1.401
10241TIP3    H130666   4.379   3.083   1.477
10241TIP3    H230667   4.422   3.108   1.335
10242TIP3   OH230668   0.114   0.850   1.748
10242TIP3    H130669   0.119   0.758   1.775
10242TIP3    H230670   0.067   0.847   1.664
10243TIP3   OH230671   0.590   5.935   1.100
10243TIP3    H130672   0.638   5.864   1.057
10243TIP3    H230673   0.658   5.993   1.134
10244TIP3   OH230674   0.594   5.822   3.812
10244TIP3    H130675   0.655   5.807   3.884
10244TIP3    H230676   0.592   5.740   3.763
10245TIP3   OH230677   1.676   7.327   2.479
10245TIP3    H130678   1.622   7.280   2.543
10245TIP3    H230679   1.629   7.410   2.465
10246TIP3   OH230680   0.765   5.592   6.091
10246TIP3    H130681   0.686   5.547   6.120
10246TIP3    H230682   0.742   5.685   6.092
10247TIP3   OH230683   2.898   1.763   2.058
10247TIP3    H130684   2.946   1.693   2.103
10247TIP3    H230685   2.809   1.758   2.094
10248TIP3   OH230686   0.638   2.929   6.409
10248TIP3    H130687   0.543   2.923   6.400
10248TIP3    H230688   0.651   2.988   6.484
10249TIP3   OH230689   4.799   2.351   2.922
10249TIP3    H130690   4.763   2.318   3.005
10249TIP3    H230691   4.885   2.386   2.946
10250TIP3   OH230692   4.471   2.332   1.063
10250TIP3    H130693   4.390   2.376   1.038
10250TIP3    H230694   4.468   2.327   1.158
10251TIP3   OH230695   3.485   4.428   5.635
10251TIP3    H130696   3.493   4.485   5.558
10251TIP3    H230697   3.425   4.359   5.607
10252TIP3   OH230698   3.022   6.057   3.108
10252TIP3    H130699   2.948   6.071   3.166
10252TIP3    H230700   2.985   6.062   3.020
10253TIP3   OH230701   2.627   6.723   2.038
10253TIP3    H130702   2.569   6.719   2.114
10253TIP3    H230703   2.681   6.644   2.045
10254TIP3   OH230704   6.962   5.926   5.457
10254TIP3    H130705   6.967   5.906   5.551
10254TIP3    H230706   7.051   5.910   5.425
10255TIP3   OH230707   6.115   0.867   0.980
10255TIP3    H130708   6.152   0.889   0.894
10255TIP3    H230709   6.190   0.836   1.030
10256TIP3   OH230710   4.907   7.606   0.347
10256TIP3    H130711   4.990   7.572   0.315
10256TIP3    H230712   4.899   7.692   0.305
10257TIP3   OH230713   8.201   4.684   2.144
10257TIP3    H130714   8.132   4.620   2.164
10257TIP3    H230715   8.184   4.757   2.203
10258TIP3   OH230716   0.211   6.503   4.523
10258TIP3    H130717   0.210   6.412   4.493
10258TIP3    H230718   0.296   6.514   4.564
10259TIP3   OH230719   0.347   0.402   6.595
10259TIP3    H130720   0.358   0.343   6.521
10259TIP3    H230721   0.374   0.488   6.562
10260TIP3   OH230722   2.455   3.365   4.445
10260TIP3    H130723   2.446   3.415   4.363
10260TIP3    H230724   2.414   3.421   4.511
10261TIP3   OH230725   0.815   5.342   0.041
10261TIP3    H130726   0.887   5.281   0.057
10261TIP3    H230727   0.748   5.289  -0.003
10262TIP3   OH230728   1.900   0.199   0.980
10262TIP3    H130729   1.895   0.202   0.884
10262TIP3    H230730   1.933   0.112   1.000
10263TIP3   OH230731   3.463   1.914   2.150
10263TIP3    H130732   3.468   2.008   2.132
10263TIP3    H230733   3.388   1.884   2.098
10264TIP3   OH230734   7.878   1.812   2.324
10264TIP3    H130735   7.809   1.871   2.294
10264TIP3    H230736   7.945   1.818   2.256
10265TIP3   OH230737   0.595   2.724   2.731
10265TIP3    H130738   0.660   2.791   2.748
10265TIP3    H230739   0.541   2.723   2.810
10266TIP3   OH230740   2.220   0.375   6.601
10266TIP3    H130741   2.308   0.413   6.602
10266TIP3    H230742   2.226   0.297   6.656
10267TIP3   OH230743   5.366   5.159   6.434
10267TIP3    H130744   5.351   5.170   6.340
10267TIP3    H230745   5.373   5.064   6.446
10268TIP3   OH230746   5.460   6.530   4.412
10268TIP3    H130747   5.434   6.450   4.456
10268TIP3    H230748   5.554   6.520   4.396
10269TIP3   OH230749   0.765   2.709   3.800
10269TIP3    H130750   0.804   2.622   3.792
10269TIP3    H230751   0.830   2.759   3.849
10270TIP3   OH230752   4.744   6.951   4.282
10270TIP3    H130753   4.729   6.856   4.285
10270TIP3    H230754   4.665   6.988   4.323
10271TIP3   OH230755   1.800   0.876   2.814
10271TIP3    H130756   1.720   0.927   2.826
10271TIP3    H230757   1.769   0.787   2.799
10272TIP3   OH230758   3.964   5.148   4.833
10272TIP3    H130759   4.040   5.118   4.883
10272TIP3    H230760   3.906   5.072   4.829
10273TIP3   OH230761   3.357   0.977   6.476
10273TIP3    H130762   3.281   0.989   6.419
10273TIP3    H230763   3.370   0.883   6.480
10274TIP3   OH230764   2.725   5.364   5.685
10274TIP3    H130765   2.752   5.443   5.638
10274TIP3    H230766   2.686   5.397   5.766
10275TIP3   OH230767   5.556   3.169   0.224
10275TIP3    H130768   5.617   3.126   0.165
10275TIP3    H230769   5.496   3.100   0.252
10276TIP3   OH230770   4.934   7.752   2.759
10276TIP3    H130771   4.919   7.842   2.731
10276TIP3    H230772   5.027   7.750   2.783
10277TIP3   OH230773   2.710   4.051   5.818
10277TIP3    H130774   2.651   4.081   5.888
10277TIP3    H230775   2.771   3.992   5.861
10278TIP3   OH230776   5.462   5.386   1.092
10278TIP3    H130777   5.413   5.401   1.011
10278TIP3    H230778   5.546   5.429   1.078
10279TIP3   OH230779   0.209   7.619   2.984
10279TIP3    H130780   0.251   7.536   3.008
10279TIP3    H230781   0.243   7.638   2.897
10280TIP3   OH230782   4.157   3.690   6.202
10280TIP3    H130783   4.064   3.711   6.210
10280TIP3    H230784   4.176   3.700   6.109
10281TIP3   OH230785   2.916   4.100   3.548
10281TIP3    H130786   2.862   4.029   3.582
10281TIP3    H230787   3.006   4.069   3.559
10282TIP3   OH230788   3.841   1.233   5.199
10282TIP3    H130789   3.903   1.248   5.128
10282TIP3    H230790   3.886   1.265   5.277
10283TIP3   OH230791   0.712   2.305   1.238
10283TIP3    H130792   0.671   2.338   1.158
10283TIP3    H230793   0.685   2.213   1.242
10284TIP3   OH230794   7.011   3.530   4.549
10284TIP3    H130795   7.032   3.527   4.456
10284TIP3    H230796   7.094   3.549   4.592
10285TIP3   OH230797   4.602   5.627   3.705
10285TIP3    H130798   4.669   5.563   3.729
10285TIP3    H230799   4.651   5.700   3.668
10286TIP3   OH230800   2.256   6.470   1.153
10286TIP3    H130801   2.231   6.468   1.061
10286TIP3    H230802   2.189   6.524   1.195
10287TIP3   OH230803   2.090   3.330   0.843
10287TIP3    H130804   2.164   3.381   0.811
10287TIP3    H230805   2.126   3.245   0.865
10288TIP3   OH230806   7.502   3.515   5.488
10288TIP3    H130807   7.443   3.440   5.491
10288TIP3    H230808   7.587   3.477   5.463
10289TIP3   OH230809   2.700   3.722   0.489
10289TIP3    H130810   2.697   3.764   0.403
10289TIP3    H230811   2.608   3.704   0.510
10290TIP3   OH230812   0.595   5.384   0.404
10290TIP3    H130813   0.509   5.389   0.362
10290TIP3    H230814   0.655   5.426   0.342
10291TIP3   OH230815   3.061   6.489   2.186
10291TIP3    H130816   3.008   6.459   2.112
10291TIP3    H230817   3.117   6.414   2.208
10292TIP3   OH230818   0.999   2.187   5.978
10292TIP3    H130819   1.073   2.174   6.037
10292TIP3    H230820   1.036   2.231   5.902
10293TIP3   OH230821   6.700   3.964   4.120
10293TIP3    H130822   6.646   3.922   4.186
10293TIP3    H230823   6.788   3.965   4.158
10294TIP3   OH230824   2.918   7.690   4.332
10294TIP3    H130825   2.966   7.761   4.375
10294TIP3    H230826   2.828   7.701   4.363
10295TIP3   OH230827   5.207   3.833   0.534
10295TIP3    H130828   5.167   3.752   0.564
10295TIP3    H230829   5.267   3.858   0.604
10296TIP3   OH230830   0.740   3.814   0.710
10296TIP3    H130831   0.729   3.769   0.626
10296TIP3    H230832   0.670   3.878   0.713
10297TIP3   OH230833   0.166   6.817   1.348
10297TIP3    H130834   0.167   6.907   1.315
10297TIP3    H230835   0.191   6.825   1.440
10298TIP3   OH230836   7.783   6.247   0.664
10298TIP3    H130837   7.719   6.280   0.601
10298TIP3    H230838   7.788   6.153   0.646
10299TIP3   OH230839   7.770   1.556   2.468
10299TIP3    H130840   7.757   1.479   2.524
10299TIP3    H230841   7.760   1.522   2.379
10300TIP3   OH230842   4.390   2.118   4.174
10300TIP3    H130843   4.321   2.096   4.238
10300TIP3    H230844   4.420   2.205   4.201
10301TIP3   OH230845   5.482   2.663   1.901
10301TIP3    H130846   5.511   2.698   1.817
10301TIP3    H230847   5.563   2.645   1.949
10302TIP3   OH230848   6.705   4.592   3.588
10302TIP3    H130849   6.787   4.622   3.549
10302TIP3    H230850   6.729   4.562   3.676
10303TIP3   OH230851  -0.021   2.118   4.006
10303TIP3    H130852   0.059   2.108   4.057
10303TIP3    H230853  -0.084   2.155   4.067
10304TIP3   OH230854   4.533   2.679   1.544
10304TIP3    H130855   4.507   2.619   1.614
10304TIP3    H230856   4.575   2.752   1.590
10305TIP3   OH230857   8.228   4.033   0.438
10305TIP3    H130858   8.277   3.950   0.435
10305TIP3    H230859   8.164   4.026   0.367
10306TIP3   OH230860   2.091   5.727   2.308
10306TIP3    H130861   2.005   5.699   2.339
10306TIP3    H230862   2.084   5.822   2.298
10307TIP3   OH230863   6.988   2.345   1.877
10307TIP3    H130864   7.081   2.336   1.858
10307TIP3    H230865   6.944   2.295   1.809
10308TIP3   OH230866   7.499   0.761   0.710
10308TIP3    H130867   7.434   0.773   0.640
10308TIP3    H230868   7.510   0.848   0.747
10309TIP3   OH230869   4.886   2.545   6.103
10309TIP3    H130870   4.844   2.626   6.132
10309TIP3    H230871   4.975   2.572   6.078
10310TIP3   OH230872   4.928   1.566   0.394
10310TIP3    H130873   4.984   1.532   0.464
10310TIP3    H230874   4.880   1.639   0.434
10311TIP3   OH230875   8.068   3.298   3.103
10311TIP3    H130876   8.053   3.353   3.026
10311TIP3    H230877   8.162   3.306   3.119
10312TIP3   OH230878   7.073   4.985   6.355
10312TIP3    H130879   7.133   5.002   6.428
10312TIP3    H230880   6.997   4.944   6.395
10313TIP3   OH230881   4.019   4.094   3.522
10313TIP3    H130882   3.955   4.030   3.551
10313TIP3    H230883   4.002   4.105   3.429
10314TIP3   OH230884   3.753   1.191   2.547
10314TIP3    H130885   3.750   1.125   2.616
10314TIP3    H230886   3.677   1.246   2.563
10315TIP3   OH230887   7.099   0.713   0.311
10315TIP3    H130888   7.096   0.624   0.346
10315TIP3    H230889   7.021   0.719   0.256
10316TIP3   OH230890   2.697   1.957   1.234
10316TIP3    H130891   2.757   1.906   1.180
10316TIP3    H230892   2.655   1.892   1.290
10317TIP3   OH230893   3.252   3.786   4.012
10317TIP3    H130894   3.179   3.825   4.060
10317TIP3    H230895   3.253   3.695   4.041
10318TIP3   OH230896   6.240   1.396   1.557
10318TIP3    H130897   6.219   1.415   1.465
10318TIP3    H230898   6.252   1.301   1.559
10319TIP3   OH230899   6.528   6.209   6.419
10319TIP3    H130900   6.510   6.282   6.359
10319TIP3    H230901   6.453   6.150   6.409
10320TIP3   OH230902   7.359   2.162   5.143
10320TIP3    H130903   7.280   2.119   5.175
10320TIP3    H230904   7.368   2.240   5.197
10321TIP3   OH230905   0.702   7.186   4.711
10321TIP3    H130906   0.697   7.199   4.806
10321TIP3    H230907   0.717   7.273   4.675
10322TIP3   OH230908   7.455   0.829   1.571
10322TIP3    H130909   7.382   0.778   1.536
10322TIP3    H230910   7.523   0.765   1.587
10323TIP3   OH230911   7.513   2.300   4.411
10323TIP3    H130912   7.458   2.378   4.422
10323TIP3    H230913   7.523   2.292   4.316
10324TIP3   OH230914   4.714   7.403   2.373
10324TIP3    H130915   4.639   7.456   2.400
10324TIP3    H230916   4.785   7.431   2.429
10325TIP3   OH230917   2.429   2.502   2.667
10325TIP3    H130918   2.374   2.502   2.589
10325TIP3    H230919   2.472   2.416   2.666
10326TIP3   OH230920   1.924   1.542   0.208
10326TIP3    H130921   1.991   1.544   0.140
10326TIP3    H230922   1.842   1.560   0.162
10327TIP3   OH230923   7.359   3.897   5.982
10327TIP3    H130924   7.363   3.934   5.893
10327TIP3    H230925   7.316   3.812   5.971
10328TIP3   OH230926   7.676   6.900   4.093
10328TIP3    H130927   7.607   6.858   4.144
10328TIP3    H230928   7.672   6.992   4.118
10329TIP3   OH230929   0.846   2.215   4.960
10329TIP3    H130930   0.812   2.130   4.990
10329TIP3    H230931   0.862   2.264   5.040
10330TIP3   OH230932   1.960   3.498   5.553
10330TIP3    H130933   1.877   3.532   5.586
10330TIP3    H230934   1.941   3.407   5.531
10331TIP3   OH230935   5.229   0.539   6.220
10331TIP3    H130936   5.233   0.626   6.181
10331TIP3    H230937   5.259   0.480   6.151
10332TIP3   OH230938   0.663   1.843   2.596
10332TIP3    H130939   0.640   1.779   2.528
10332TIP3    H230940   0.622   1.810   2.675
10333TIP3   OH230941   8.244   3.853   1.570
10333TIP3    H130942   8.198   3.897   1.642
10333TIP3    H230943   8.174   3.815   1.517
10334TIP3   OH230944   8.256   0.302   3.752
10334TIP3    H130945   8.222   0.352   3.678
10334TIP3    H230946   8.181   0.254   3.786
10335TIP3   OH230947   1.402   6.947   1.336
10335TIP3    H130948   1.311   6.936   1.362
10335TIP3    H230949   1.444   6.989   1.411
10336TIP3   OH230950   0.075   0.615   3.647
10336TIP3    H130951   0.095   0.523   3.665
10336TIP3    H230952   0.032   0.646   3.726
10337TIP3   OH230953   3.148   3.518   1.587
10337TIP3    H130954   3.161   3.459   1.513
10337TIP3    H230955   3.112   3.598   1.548
10338TIP3   OH230956   3.639   2.603   0.238
10338TIP3    H130957   3.688   2.584   0.159
10338TIP3    H230958   3.705   2.625   0.303
10339TIP3   OH230959   5.664   5.870   5.977
10339TIP3    H130960   5.621   5.821   5.907
10339TIP3    H230961   5.756   5.870   5.954
10340TIP3   OH230962   1.016   2.330   0.712
10340TIP3    H130963   1.085   2.310   0.649
10340TIP3    H230964   1.052   2.400   0.767
10341TIP3   OH230965   2.692   2.831   5.431
10341TIP3    H130966   2.653   2.796   5.351
10341TIP3    H230967   2.750   2.761   5.462
10342TIP3   OH230968   7.532   7.634   3.947
10342TIP3    H130969   7.458   7.639   3.887
10342TIP3    H230970   7.502   7.679   4.026
10343TIP3   OH230971   2.004   6.741   2.754
10343TIP3    H130972   2.035   6.703   2.672
10343TIP3    H230973   2.026   6.676   2.821
10344TIP3   OH230974   5.720   2.079   6.233
10344TIP3    H130975   5.752   2.163   6.203
10344TIP3    H230976   5.665   2.048   6.160
10345TIP3   OH230977   6.773   6.307   4.370
10345TIP3    H130978   6.817   6.375   4.318
10345TIP3    H230979   6.824   6.301   4.450
10346TIP3   OH230980   1.625   6.676   4.404
10346TIP3    H130981   1.622   6.716   4.491
10346TIP3    H230982   1.591   6.744   4.346
10347TIP3   OH230983   4.178   6.220   2.417
10347TIP3    H130984   4.202   6.284   2.349
10347TIP3    H230985   4.095   6.252   2.451
10348TIP3   OH230986   6.254   4.689   2.377
10348TIP3    H130987   6.329   4.722   2.428
10348TIP3    H230988   6.183   4.684   2.440
10349TIP3   OH230989   7.507   1.594   4.912
10349TIP3    H130990   7.566   1.659   4.874
10349TIP3    H230991   7.422   1.612   4.871
10350TIP3   OH230992   6.246   7.482   0.480
10350TIP3    H130993   6.302   7.495   0.403
10350TIP3    H230994   6.206   7.396   0.467
10351TIP3   OH230995   6.467   2.543   3.223
10351TIP3    H130996   6.498   2.602   3.291
10351TIP3    H230997   6.485   2.590   3.141
10352TIP3   OH230998   7.795   0.989   5.861
10352TIP3    H130999   7.865   1.037   5.906
10352TIP3    H231000   7.747   0.944   5.931
10353TIP3   OH231001   1.693   2.733   1.658
10353TIP3    H131002   1.643   2.810   1.686
10353TIP3    H231003   1.712   2.749   1.565
10354TIP3   OH231004   5.525   7.482   6.615
10354TIP3    H131005   5.474   7.535   6.555
10354TIP3    H231006   5.595   7.444   6.561
10355TIP3   OH231007   4.251   3.714   5.408
10355TIP3    H131008   4.263   3.799   5.365
10355TIP3    H231009   4.336   3.696   5.449
10356TIP3   OH231010   1.406   4.936   4.635
10356TIP3    H131011   1.449   4.989   4.567
10356TIP3    H231012   1.321   4.913   4.597
10357TIP3   OH231013   3.743   1.476   5.373
10357TIP3    H131014   3.786   1.561   5.360
10357TIP3    H231015   3.815   1.414   5.384
10358TIP3   OH231016   8.005   6.668   6.524
10358TIP3    H131017   8.054   6.620   6.590
10358TIP3    H231018   7.924   6.619   6.513
10359TIP3   OH231019   1.484   2.896   0.471
10359TIP3    H131020   1.478   2.857   0.558
10359TIP3    H231021   1.574   2.881   0.444
10360TIP3   OH231022   1.335   7.745   1.484
10360TIP3    H131023   1.393   7.691   1.430
10360TIP3    H231024   1.386   7.761   1.564
10361TIP3   OH231025   0.175   1.254   3.804
10361TIP3    H131026   0.170   1.348   3.818
10361TIP3    H231027   0.115   1.217   3.868
10362TIP3   OH231028   5.567   4.308   0.775
10362TIP3    H131029   5.507   4.370   0.734
10362TIP3    H231030   5.522   4.283   0.857
10363TIP3   OH231031   2.771   6.185   4.453
10363TIP3    H131032   2.679   6.164   4.437
10363TIP3    H231033   2.810   6.193   4.366
10364TIP3   OH231034   7.018   4.567   0.660
10364TIP3    H131035   6.946   4.576   0.723
10364TIP3    H231036   6.987   4.614   0.582
10365TIP3   OH231037   6.310   3.920   2.704
10365TIP3    H131038   6.391   3.884   2.740
10365TIP3    H231039   6.243   3.898   2.769
10366TIP3   OH231040   0.622   1.315   2.612
10366TIP3    H131041   0.665   1.230   2.603
10366TIP3    H231042   0.578   1.310   2.697
10367TIP3   OH231043   1.180   1.609   4.788
10367TIP3    H131044   1.256   1.664   4.773
10367TIP3    H231045   1.154   1.628   4.878
10368TIP3   OH231046   6.899   5.409   5.812
10368TIP3    H131047   6.931   5.421   5.723
10368TIP3    H231048   6.810   5.375   5.801
10369TIP3   OH231049   5.662   5.856   3.534
10369TIP3    H131050   5.583   5.804   3.551
10369TIP3    H231051   5.715   5.846   3.614
10370TIP3   OH231052   4.322   3.742   6.453
10370TIP3    H131053   4.274   3.739   6.370
10370TIP3    H231054   4.254   3.753   6.519
10371TIP3   OH231055   2.542   6.885   4.984
10371TIP3    H131056   2.588   6.969   4.993
10371TIP3    H231057   2.606   6.826   4.945
10372TIP3   OH231058   4.264   5.967   2.866
10372TIP3    H131059   4.330   5.916   2.913
10372TIP3    H231060   4.311   6.046   2.839
10373TIP3   OH231061   7.151   2.266   4.682
10373TIP3    H131062   7.201   2.316   4.747
10373TIP3    H231063   7.215   2.205   4.645
10374TIP3   OH231064   2.412   4.271   0.429
10374TIP3    H131065   2.444   4.359   0.408
10374TIP3    H231066   2.341   4.256   0.367
10375TIP3   OH231067   7.347   3.152   4.349
10375TIP3    H131068   7.425   3.176   4.400
10375TIP3    H231069   7.338   3.223   4.286
10376TIP3   OH231070   4.964   4.575   3.184
10376TIP3    H131071   5.012   4.541   3.108
10376TIP3    H231072   5.003   4.530   3.259
10377TIP3   OH231073   3.664   3.796   0.807
10377TIP3    H131074   3.570   3.777   0.803
10377TIP3    H231075   3.700   3.755   0.729
10378TIP3   OH231076   7.609   4.869   3.394
10378TIP3    H131077   7.681   4.806   3.390
10378TIP3    H231078   7.646   4.946   3.437
10379TIP3   OH231079   6.035   4.611   3.367
10379TIP3    H131080   6.004   4.528   3.403
10379TIP3    H231081   6.110   4.587   3.312
10380TIP3   OH231082   6.114   1.809   0.830
10380TIP3    H131083   6.131   1.819   0.923
10380TIP3    H231084   6.200   1.792   0.792
10381TIP3   OH231085   2.972   3.269   6.390
10381TIP3    H131086   2.903   3.249   6.327
10381TIP3    H231087   2.934   3.245   6.475
10382TIP3   OH231088   0.372   7.483   1.816
10382TIP3    H131089   0.320   7.492   1.896
10382TIP3    H231090   0.437   7.416   1.837
10383TIP3   OH231091   3.529   3.864   4.031
10383TIP3    H131092   3.449   3.813   4.018
10383TIP3    H231093   3.597   3.812   3.988
10384TIP3   OH231094   4.607   7.095   5.683
10384TIP3    H131095   4.693   7.054   5.686
10384TIP3    H231096   4.612   7.157   5.611
10385TIP3   OH231097   5.010   6.289   4.190
10385TIP3    H131098   4.978   6.351   4.124
10385TIP3    H231099   4.931   6.248   4.225
10386TIP3   OH231100   7.357   7.483   1.209
10386TIP3    H131101   7.273   7.517   1.240
10386TIP3    H231102   7.341   7.390   1.193
10387TIP3   OH231103   5.517   7.156   3.465
10387TIP3    H131104   5.503   7.234   3.410
10387TIP3    H231105   5.479   7.179   3.550
10388TIP3   OH231106   6.129   1.817   1.919
10388TIP3    H131107   6.206   1.867   1.893
10388TIP3    H231108   6.122   1.747   1.854
10389TIP3   OH231109   0.902   1.114   4.551
10389TIP3    H131110   0.887   1.097   4.644
10389TIP3    H231111   0.975   1.176   4.549
10390TIP3   OH231112   0.090   1.567   0.686
10390TIP3    H131113   0.166   1.544   0.632
10390TIP3    H231114   0.107   1.657   0.713
10391TIP3   OH231115   1.794   6.785   3.054
10391TIP3    H131116   1.795   6.809   3.146
10391TIP3    H231117   1.746   6.702   3.051
10392TIP3   OH231118   0.096   6.207   1.686
10392TIP3    H131119   0.015   6.156   1.692
10392TIP3    H231120   0.165   6.142   1.676
10393TIP3   OH231121   6.713   5.541   4.653
10393TIP3    H131122   6.751   5.583   4.730
10393TIP3    H231123   6.728   5.604   4.582
10394TIP3   OH231124   2.279   3.337   5.976
10394TIP3    H131125   2.371   3.356   5.960
10394TIP3    H231126   2.232   3.384   5.907
10395TIP3   OH231127   3.489   3.022   0.768
10395TIP3    H131128   3.554   3.007   0.699
10395TIP3    H231129   3.434   3.092   0.734
10396TIP3   OH231130   3.857   2.205   5.877
10396TIP3    H131131   3.784   2.190   5.816
10396TIP3    H231132   3.895   2.288   5.848
10397TIP3   OH231133   1.269   5.636   4.328
10397TIP3    H131134   1.245   5.700   4.260
10397TIP3    H231135   1.353   5.601   4.299
10398TIP3   OH231136   7.822   3.377   0.999
10398TIP3    H131137   7.774   3.452   0.964
10398TIP3    H231138   7.754   3.318   1.031
10399TIP3   OH231139   2.868   2.617   4.116
10399TIP3    H131140   2.791   2.574   4.079
10399TIP3    H231141   2.836   2.659   4.196
10400TIP3   OH231142   1.388   2.866   0.799
10400TIP3    H131143   1.325   2.920   0.847
10400TIP3    H231144   1.457   2.849   0.863
10401TIP3   OH231145   1.872   3.275   2.057
10401TIP3    H131146   1.900   3.257   1.967
10401TIP3    H231147   1.901   3.199   2.107
10402TIP3   OH231148   0.687   1.299   2.194
10402TIP3    H131149   0.776   1.328   2.213
10402TIP3    H231150   0.631   1.371   2.223
10403TIP3   OH231151   4.267   2.264   5.444
10403TIP3    H131152   4.321   2.338   5.418
10403TIP3    H231153   4.251   2.215   5.363
10404TIP3   OH231154   2.145   7.336   1.998
10404TIP3    H131155   2.169   7.256   2.045
10404TIP3    H231156   2.205   7.403   2.032
10405TIP3   OH231157   4.169   4.754   3.553
10405TIP3    H131158   4.179   4.822   3.486
10405TIP3    H231159   4.180   4.671   3.505
10406TIP3   OH231160   0.296   3.539   2.302
10406TIP3    H131161   0.350   3.460   2.310
10406TIP3    H231162   0.257   3.532   2.215
10407TIP3   OH231163   6.166   3.903   0.697
10407TIP3    H131164   6.162   3.979   0.639
10407TIP3    H231165   6.094   3.847   0.668
10408TIP3   OH231166   7.750   4.454   1.832
10408TIP3    H131167   7.777   4.409   1.752
10408TIP3    H231168   7.830   4.462   1.883
10409TIP3   OH231169   0.252   0.160   5.225
10409TIP3    H131170   0.303   0.079   5.216
10409TIP3    H231171   0.192   0.159   5.150
10410TIP3   OH231172   5.695   7.362   5.259
10410TIP3    H131173   5.728   7.450   5.278
10410TIP3    H231174   5.734   7.340   5.174
10411TIP3   OH231175   3.954   7.191   5.929
10411TIP3    H131176   3.914   7.138   5.998
10411TIP3    H231177   3.881   7.223   5.877
10412TIP3   OH231178   2.961   7.437   3.614
10412TIP3    H131179   2.875   7.428   3.656
10412TIP3    H231180   2.999   7.515   3.655
10413TIP3   OH231181   3.181   4.277   6.215
10413TIP3    H131182   3.261   4.327   6.230
10413TIP3    H231183   3.185   4.251   6.123
10414TIP3   OH231184   0.778   4.956   4.656
10414TIP3    H131185   0.724   5.026   4.619
10414TIP3    H231186   0.795   4.985   4.746
10415TIP3   OH231187   7.441   6.365   0.918
10415TIP3    H131188   7.366   6.407   0.875
10415TIP3    H231189   7.444   6.405   1.005
10416TIP3   OH231190   1.273   6.627   0.970
10416TIP3    H131191   1.326   6.684   1.025
10416TIP3    H231192   1.213   6.686   0.924
10417TIP3   OH231193   7.138   1.730   6.427
10417TIP3    H131194   7.076   1.680   6.372
10417TIP3    H231195   7.083   1.778   6.488
10418TIP3   OH231196   4.650   2.454   1.281
10418TIP3    H131197   4.717   2.520   1.261
10418TIP3    H231198   4.577   2.505   1.315
10419TIP3   OH231199   6.538   2.308   1.552
10419TIP3    H131200   6.622   2.325   1.595
10419TIP3    H231201   6.476   2.366   1.595
10420TIP3   OH231202   7.403   3.219   3.668
10420TIP3    H131203   7.354   3.148   3.626
10420TIP3    H231204   7.485   3.225   3.618
10421TIP3   OH231205   3.832   3.039   6.328
10421TIP3    H131206   3.829   3.026   6.423
10421TIP3    H231207   3.806   2.954   6.292
10422TIP3   OH231208   6.402   1.913   2.240
10422TIP3    H131209   6.393   1.839   2.180
10422TIP3    H231210   6.473   1.888   2.299
10423TIP3   OH231211   4.951   4.222   4.548
10423TIP3    H131212   4.972   4.245   4.457
10423TIP3    H231213   4.903   4.298   4.581
10424TIP3   OH231214   7.336   0.694   5.348
10424TIP3    H131215   7.248   0.659   5.344
10424TIP3    H231216   7.351   0.733   5.262
10425TIP3   OH231217   5.980   6.011   5.150
10425TIP3    H131218   5.887   5.992   5.141
10425TIP3    H231219   6.022   5.925   5.155
10426TIP3   OH231220   2.908   5.578   0.556
10426TIP3    H131221   2.890   5.655   0.609
10426TIP3    H231222   3.001   5.583   0.534
10427TIP3   OH231223   7.968   2.199   5.278
10427TIP3    H131224   7.965   2.119   5.227
10427TIP3    H231225   7.993   2.267   5.215
10428TIP3   OH231226   4.001   6.898   3.908
10428TIP3    H131227   3.988   6.832   3.841
10428TIP3    H231228   4.063   6.859   3.969
10429TIP3   OH231229   4.683   7.612   1.218
10429TIP3    H131230   4.774   7.630   1.242
10429TIP3    H231231   4.685   7.604   1.123
10430TIP3   OH231232   1.651   6.915   2.356
10430TIP3    H131233   1.612   6.902   2.443
10430TIP3    H231234   1.715   6.845   2.348
10431TIP3   OH231235   1.702   6.303   0.707
10431TIP3    H131236   1.655   6.250   0.643
10431TIP3    H231237   1.793   6.273   0.701
10432TIP3   OH231238   7.017   2.925   1.129
10432TIP3    H131239   7.050   2.999   1.179
10432TIP3    H231240   7.020   2.953   1.038
10433TIP3   OH231241   4.132   7.063   4.997
10433TIP3    H131242   4.075   6.987   5.005
10433TIP3    H231243   4.122   7.110   5.079
10434TIP3   OH231244   0.306   2.250   5.187
10434TIP3    H131245   0.273   2.339   5.179
10434TIP3    H231246   0.228   2.196   5.200
10435TIP3   OH231247   6.347   3.584   6.276
10435TIP3    H131248   6.273   3.615   6.329
10435TIP3    H231249   6.328   3.492   6.260
10436TIP3   OH231250   4.446   5.905   4.691
10436TIP3    H131251   4.375   5.909   4.626
10436TIP3    H231252   4.408   5.944   4.770
10437TIP3   OH231253   6.883   7.428   3.807
10437TIP3    H131254   6.803   7.429   3.859
10437TIP3    H231255   6.916   7.517   3.812
10438TIP3   OH231256   6.709   4.054   3.610
10438TIP3    H131257   6.755   4.006   3.679
10438TIP3    H231258   6.645   3.992   3.575
10439TIP3   OH231259   6.961   7.180   6.592
10439TIP3    H131260   7.043   7.185   6.642
10439TIP3    H231261   6.894   7.166   6.659
10440TIP3   OH231262   3.727   2.835   1.331
10440TIP3    H131263   3.683   2.767   1.280
10440TIP3    H231264   3.738   2.796   1.418
10441TIP3   OH231265   0.222   5.222   5.403
10441TIP3    H131266   0.139   5.268   5.400
10441TIP3    H231267   0.288   5.291   5.406
10442TIP3   OH231268   5.920   6.009   2.098
10442TIP3    H131269   5.852   5.970   2.153
10442TIP3    H231270   5.872   6.057   2.031
10443TIP3   OH231271   0.264   1.715   5.331
10443TIP3    H131272   0.183   1.757   5.362
10443TIP3    H231273   0.273   1.743   5.240
10444TIP3   OH231274   4.188   7.488   0.319
10444TIP3    H131275   4.176   7.481   0.413
10444TIP3    H231276   4.214   7.400   0.291
10445TIP3   OH231277   3.685   4.246   3.124
10445TIP3    H131278   3.686   4.223   3.031
10445TIP3    H231279   3.737   4.327   3.130
10446TIP3   OH231280   7.882   5.046   5.711
10446TIP3    H131281   7.903   5.074   5.801
10446TIP3    H231282   7.953   4.986   5.688
10447TIP3   OH231283   6.805   2.545   0.575
10447TIP3    H131284   6.868   2.474   0.590
10447TIP3    H231285   6.721   2.502   0.565
10448TIP3   OH231286   7.789   6.573   1.993
10448TIP3    H131287   7.817   6.498   1.940
10448TIP3    H231288   7.838   6.647   1.955
10449TIP3   OH231289   5.354   5.652   4.552
10449TIP3    H131290   5.374   5.577   4.496
10449TIP3    H231291   5.408   5.640   4.630
10450TIP3   OH231292   0.265   1.117   6.553
10450TIP3    H131293   0.242   1.055   6.484
10450TIP3    H231294   0.211   1.092   6.628
10451TIP3   OH231295   4.416   7.552   1.312
10451TIP3    H131296   4.458   7.600   1.241
10451TIP3    H231297   4.393   7.619   1.376
10452TIP3   OH231298   3.225   4.792   6.534
10452TIP3    H131299   3.176   4.743   6.469
10452TIP3    H231300   3.233   4.733   6.609
10453TIP3   OH231301   2.327   7.555   3.111
10453TIP3    H131302   2.375   7.472   3.119
10453TIP3    H231303   2.235   7.530   3.119
10454TIP3   OH231304   4.299   5.423   5.821
10454TIP3    H131305   4.217   5.390   5.857
10454TIP3    H231306   4.364   5.357   5.844
10455TIP3   OH231307   6.686   7.495   0.284
10455TIP3    H131308   6.759   7.464   0.230
10455TIP3    H231309   6.724   7.564   0.339
10456TIP3   OH231310   3.079   4.832   3.916
10456TIP3    H131311   3.104   4.919   3.948
10456TIP3    H231312   3.088   4.776   3.993
10457TIP3   OH231313   4.844   1.893   3.720
10457TIP3    H131314   4.896   1.815   3.702
10457TIP3    H231315   4.841   1.898   3.816
10458TIP3   OH231316   0.161   1.328   0.855
10458TIP3    H131317   0.152   1.416   0.817
10458TIP3    H231318   0.251   1.325   0.886
10459TIP3   OH231319   3.170   6.893   4.395
10459TIP3    H131320   3.244   6.842   4.360
10459TIP3    H231321   3.184   6.893   4.489
10460TIP3   OH231322   0.066   7.750   2.135
10460TIP3    H131323   0.022   7.831   2.163
10460TIP3    H231324   0.130   7.733   2.203
10461TIP3   OH231325   4.232   4.316   4.244
10461TIP3    H131326   4.158   4.336   4.301
10461TIP3    H231327   4.262   4.230   4.273
10462TIP3   OH231328   0.635   2.556   4.365
10462TIP3    H131329   0.680   2.599   4.293
10462TIP3    H231330   0.702   2.504   4.409
10463TIP3   OH231331   2.710   0.719   5.290
10463TIP3    H131332   2.793   0.764   5.274
10463TIP3    H231333   2.733   0.626   5.287
10464TIP3   OH231334   4.283   0.433   1.731
10464TIP3    H131335   4.276   0.500   1.800
10464TIP3    H231336   4.313   0.482   1.655
10465TIP3   OH231337   0.608   3.358   1.328
10465TIP3    H131338   0.566   3.274   1.308
10465TIP3    H231339   0.665   3.374   1.253
10466TIP3   OH231340   0.376   4.953   3.396
10466TIP3    H131341   0.438   4.994   3.336
10466TIP3    H231342   0.291   4.993   3.374
10467TIP3   OH231343   3.429   5.278   4.941
10467TIP3    H131344   3.342   5.308   4.967
10467TIP3    H231345   3.419   5.184   4.926
10468TIP3   OH231346   2.885   2.188   4.693
10468TIP3    H131347   2.895   2.149   4.780
10468TIP3    H231348   2.850   2.117   4.639
10469TIP3   OH231349   5.183   5.623   4.247
10469TIP3    H131350   5.192   5.624   4.151
10469TIP3    H231351   5.270   5.599   4.279
10470TIP3   OH231352   0.017   5.848   0.066
10470TIP3    H131353   0.085   5.877   0.006
10470TIP3    H231354   0.056   5.860   0.153
10471TIP3   OH231355   1.181   0.557   6.217
10471TIP3    H131356   1.114   0.537   6.282
10471TIP3    H231357   1.137   0.611   6.152
10472TIP3   OH231358   3.189   5.893   0.964
10472TIP3    H131359   3.202   5.806   1.002
10472TIP3    H231360   3.207   5.954   1.036
10473TIP3   OH231361   0.829   2.430   6.564
10473TIP3    H131362   0.891   2.493   6.601
10473TIP3    H231363   0.870   2.401   6.482
10474TIP3   OH231364   2.766   6.938   1.557
10474TIP3    H131365   2.829   6.979   1.616
10474TIP3    H231366   2.690   6.921   1.612
10475TIP3   OH231367   1.436   0.391   1.611
10475TIP3    H131368   1.366   0.335   1.644
10475TIP3    H231369   1.501   0.330   1.576
10476TIP3   OH231370   7.853   3.053   1.871
10476TIP3    H131371   7.789   3.003   1.820
10476TIP3    H231372   7.813   3.140   1.880
10477TIP3   OH231373   2.120   1.996   3.226
10477TIP3    H131374   2.099   2.080   3.266
10477TIP3    H231375   2.040   1.971   3.179
10478TIP3   OH231376   3.948   7.678   3.474
10478TIP3    H131377   3.955   7.586   3.499
10478TIP3    H231378   3.942   7.725   3.557
10479TIP3   OH231379   6.282   1.147   5.214
10479TIP3    H131380   6.353   1.093   5.179
10479TIP3    H231381   6.248   1.193   5.138
10480TIP3   OH231382   4.561   5.773   1.923
10480TIP3    H131383   4.632   5.830   1.949
10480TIP3    H231384   4.504   5.769   2.000
10481TIP3   OH231385   1.132   5.260   1.906
10481TIP3    H131386   1.103   5.245   1.816
10481TIP3    H231387   1.223   5.229   1.908
10482TIP3   OH231388   4.469   0.789   5.649
10482TIP3    H131389   4.471   0.883   5.630
10482TIP3    H231390   4.440   0.784   5.740
10483TIP3   OH231391   5.955   2.738   0.331
10483TIP3    H131392   5.972   2.676   0.260
10483TIP3    H231393   6.041   2.754   0.370
10484TIP3   OH231394   1.207   1.163   1.754
10484TIP3    H131395   1.247   1.156   1.841
10484TIP3    H231396   1.246   1.091   1.705
10485TIP3   OH231397   7.918   4.207   6.045
10485TIP3    H131398   7.938   4.167   6.130
10485TIP3    H231399   7.873   4.139   5.996
10486TIP3   OH231400   3.784   1.205   0.041
10486TIP3    H131401   3.744   1.240  -0.039
10486TIP3    H231402   3.856   1.149   0.009
10487TIP3   OH231403   7.563   2.342   0.161
10487TIP3    H131404   7.563   2.366   0.254
10487TIP3    H231405   7.485   2.384   0.125
10488TIP3   OH231406   3.813   3.782   5.837
10488TIP3    H131407   3.738   3.752   5.786
10488TIP3    H231408   3.874   3.816   5.772
10489TIP3   OH231409   5.208   6.006   0.309
10489TIP3    H131410   5.261   6.006   0.230
10489TIP3    H231411   5.140   6.071   0.293
10490TIP3   OH231412   3.913   2.629   3.126
10490TIP3    H131413   3.923   2.578   3.046
10490TIP3    H231414   3.820   2.622   3.147
10491TIP3   OH231415   6.245   0.626   4.743
10491TIP3    H131416   6.232   0.564   4.671
10491TIP3    H231417   6.182   0.599   4.810
10492TIP3   OH231418   2.997   2.836   1.389
10492TIP3    H131419   2.929   2.808   1.449
10492TIP3    H231420   2.980   2.789   1.308
10493TIP3   OH231421   4.559   0.486   1.097
10493TIP3    H131422   4.516   0.463   1.180
10493TIP3    H231423   4.585   0.401   1.060
10494TIP3   OH231424   1.071   7.425   4.544
10494TIP3    H131425   1.104   7.413   4.633
10494TIP3    H231426   1.011   7.351   4.530
10495TIP3   OH231427   7.134   5.112   5.658
10495TIP3    H131428   7.044   5.082   5.642
10495TIP3    H231429   7.150   5.090   5.750
10496TIP3   OH231430   7.379   2.727   0.642
10496TIP3    H131431   7.460   2.743   0.690
10496TIP3    H231432   7.309   2.753   0.702
10497TIP3   OH231433   4.277   3.370   1.741
10497TIP3    H131434   4.192   3.372   1.697
10497TIP3    H231435   4.333   3.427   1.688
10498TIP3   OH231436   6.395   4.274   5.877
10498TIP3    H131437   6.469   4.304   5.931
10498TIP3    H231438   6.426   4.192   5.839
10499TIP3   OH231439   0.525   2.769   5.686
10499TIP3    H131440   0.586   2.723   5.744
10499TIP3    H231441   0.536   2.725   5.601
10500TIP3   OH231442   7.403   4.805   3.844
10500TIP3    H131443   7.483   4.855   3.862
10500TIP3    H231444   7.400   4.799   3.749
10501TIP3   OH231445   3.047   2.739   1.086
10501TIP3    H131446   2.966   2.755   1.039
10501TIP3    H231447   3.065   2.646   1.074
10502TIP3   OH231448   0.233   2.099   5.768
10502TIP3    H131449   0.164   2.070   5.708
10502TIP3    H231450   0.252   2.022   5.822
10503TIP3   OH231451   5.557   6.966   6.340
10503TIP3    H131452   5.587   7.009   6.260
10503TIP3    H231453   5.550   7.037   6.404
10504TIP3   OH231454   6.427   7.420   6.121
10504TIP3    H131455   6.372   7.421   6.042
10504TIP3    H231456   6.473   7.336   6.116
10505TIP3   OH231457   0.029   6.481   2.436
10505TIP3    H131458   0.085   6.518   2.368
10505TIP3    H231459  -0.050   6.535   2.433
10506TIP3   OH231460   7.639   5.038   5.018
10506TIP3    H131461   7.566   5.062   4.961
10506TIP3    H231462   7.647   4.943   5.010
10507TIP3   OH231463   3.814   5.788   1.461
10507TIP3    H131464   3.871   5.728   1.510
10507TIP3    H231465   3.750   5.731   1.419
10508TIP3   OH231466   5.829   4.586   1.810
10508TIP3    H131467   5.864   4.514   1.862
10508TIP3    H231468   5.744   4.605   1.849
10509TIP3   OH231469   1.777   5.130   3.787
10509TIP3    H131470   1.794   5.116   3.694
10509TIP3    H231471   1.836   5.202   3.811
10510TIP3   OH231472   0.740   7.450   4.580
10510TIP3    H131473   0.715   7.507   4.653
10510TIP3    H231474   0.733   7.505   4.502
10511TIP3   OH231475   3.956   1.458   6.135
10511TIP3    H131476   3.874   1.449   6.088
10511TIP3    H231477   3.993   1.541   6.105
10512TIP3   OH231478   7.340   0.806   5.064
10512TIP3    H131479   7.351   0.751   4.987
10512TIP3    H231480   7.378   0.890   5.040
10513TIP3   OH231481   4.777   3.629   5.285
10513TIP3    H131482   4.824   3.704   5.324
10513TIP3    H231483   4.833   3.554   5.305
10514TIP3   OH231484   5.489   0.603   4.740
10514TIP3    H131485   5.538   0.655   4.804
10514TIP3    H231486   5.432   0.548   4.793
10515TIP3   OH231487   5.205   6.523   4.756
10515TIP3    H131488   5.151   6.551   4.682
10515TIP3    H231489   5.200   6.428   4.755
10516TIP3   OH231490   2.529   5.283   4.217
10516TIP3    H131491   2.518   5.295   4.122
10516TIP3    H231492   2.453   5.328   4.255
10517TIP3   OH231493   5.523   6.247   5.365
10517TIP3    H131494   5.605   6.225   5.410
10517TIP3    H231495   5.456   6.195   5.409
10518TIP3   OH231496   0.701   4.111   1.078
10518TIP3    H131497   0.631   4.045   1.083
10518TIP3    H231498   0.765   4.073   1.017
10519TIP3   OH231499   6.840   7.326   3.123
10519TIP3    H131500   6.793   7.254   3.081
10519TIP3    H231501   6.792   7.341   3.205
10520TIP3   OH231502   1.456   0.826   3.600
10520TIP3    H131503   1.399   0.750   3.590
10520TIP3    H231504   1.544   0.789   3.607
10521TIP3   OH231505   7.355   5.567   4.639
10521TIP3    H131506   7.410   5.489   4.632
10521TIP3    H231507   7.268   5.532   4.660
10522TIP3   OH231508   1.661   0.351   4.196
10522TIP3    H131509   1.710   0.283   4.243
10522TIP3    H231510   1.594   0.303   4.147
10523TIP3   OH231511   3.364   0.889   3.798
10523TIP3    H131512   3.394   0.891   3.889
10523TIP3    H231513   3.301   0.816   3.796
10524TIP3   OH231514   2.988   3.954   4.510
10524TIP3    H131515   3.045   3.963   4.434
10524TIP3    H231516   3.017   4.023   4.571
10525TIP3   OH231517   0.950   4.407   6.537
10525TIP3    H131518   1.022   4.344   6.528
10525TIP3    H231519   0.919   4.395   6.626
10526TIP3   OH231520   5.352   7.525   6.017
10526TIP3    H131521   5.316   7.513   6.105
10526TIP3    H231522   5.278   7.558   5.966
10527TIP3   OH231523   1.806   1.162   0.890
10527TIP3    H131524   1.724   1.200   0.919
10527TIP3    H231525   1.817   1.083   0.943
10528TIP3   OH231526   0.073   7.778   0.166
10528TIP3    H131527   0.039   7.817   0.086
10528TIP3    H231528   0.026   7.823   0.236
10529TIP3   OH231529   0.967   7.162   2.349
10529TIP3    H131530   0.988   7.146   2.257
10529TIP3    H231531   0.877   7.130   2.359
10530TIP3   OH231532   1.069   2.964   3.769
10530TIP3    H131533   1.126   2.994   3.698
10530TIP3    H231534   1.077   2.869   3.768
10531TIP3   OH231535   7.680   0.804   5.523
10531TIP3    H131536   7.585   0.817   5.514
10531TIP3    H231537   7.716   0.829   5.438
10532TIP3   OH231538   2.434   0.069   5.248
10532TIP3    H131539   2.395   0.104   5.167
10532TIP3    H231540   2.391   0.118   5.318
10533TIP3   OH231541   6.213   6.206   3.305
10533TIP3    H131542   6.267   6.185   3.382
10533TIP3    H231543   6.157   6.130   3.293
10534TIP3   OH231544   0.411   6.413   1.962
10534TIP3    H131545   0.481   6.476   1.978
10534TIP3    H231546   0.373   6.396   2.048
10535TIP3   OH231547   5.922   1.438   4.679
10535TIP3    H131548   5.969   1.499   4.622
10535TIP3    H231549   5.895   1.490   4.754
10536TIP3   OH231550   0.545   2.252   0.734
10536TIP3    H131551   0.636   2.272   0.758
10536TIP3    H231552   0.535   2.293   0.648
10537TIP3   OH231553   0.295   7.821  -0.052
10537TIP3    H131554   0.323   7.909  -0.028
10537TIP3    H231555   0.295   7.773   0.031
10538TIP3   OH231556   4.102   1.123   3.533
10538TIP3    H131557   4.115   1.087   3.445
10538TIP3    H231558   4.008   1.137   3.539
10539TIP3   OH231559   1.274   2.364   2.476
10539TIP3    H131560   1.299   2.433   2.537
10539TIP3    H231561   1.180   2.379   2.461
10540TIP3   OH231562   0.453   6.371   2.700
10540TIP3    H131563   0.473   6.299   2.760
10540TIP3    H231564   0.451   6.448   2.757
10541TIP3   OH231565   3.843   6.867   4.950
10541TIP3    H131566   3.797   6.791   4.914
10541TIP3    H231567   3.825   6.864   5.044
10542TIP3   OH231568   2.349   5.451   0.243
10542TIP3    H131569   2.442   5.451   0.219
10542TIP3    H231570   2.346   5.402   0.325
10543TIP3   OH231571   1.191   4.637   6.280
10543TIP3    H131572   1.096   4.636   6.269
10543TIP3    H231573   1.225   4.664   6.194
10544TIP3   OH231574   4.819   3.402   4.939
10544TIP3    H131575   4.809   3.329   4.879
10544TIP3    H231576   4.751   3.388   5.005
10545TIP3   OH231577   2.355   6.887   1.844
10545TIP3    H131578   2.268   6.894   1.882
10545TIP3    H231579   2.362   6.962   1.785
10546TIP3   OH231580   7.319   0.557   6.292
10546TIP3    H131581   7.232   0.518   6.282
10546TIP3    H231582   7.306   0.632   6.350
10547TIP3   OH231583   4.312   2.034   1.388
10547TIP3    H131584   4.312   2.085   1.469
10547TIP3    H231585   4.383   1.970   1.399
10548TIP3   OH231586   1.716   5.355   3.386
10548TIP3    H131587   1.709   5.386   3.296
10548TIP3    H231588   1.685   5.428   3.440
10549TIP3   OH231589   5.679   3.409   0.933
10549TIP3    H131590   5.693   3.429   0.840
10549TIP3    H231591   5.756   3.445   0.977
10550TIP3   OH231592   0.250   7.036   4.384
10550TIP3    H131593   0.178   7.016   4.325
10550TIP3    H231594   0.322   7.061   4.326
10551TIP3   OH231595   0.703   6.772   4.382
10551TIP3    H131596   0.705   6.839   4.450
10551TIP3    H231597   0.611   6.748   4.374
10552TIP3   OH231598   5.206   4.460   3.580
10552TIP3    H131599   5.290   4.505   3.582
10552TIP3    H231600   5.177   4.460   3.671
10553TIP3   OH231601   4.208   4.069   0.133
10553TIP3    H131602   4.140   4.045   0.196
10553TIP3    H231603   4.284   4.091   0.188
10554TIP3   OH231604   6.288   7.063   5.635
10554TIP3    H131605   6.344   7.137   5.659
10554TIP3    H231606   6.254   7.086   5.549
10555TIP3   OH231607   5.133   7.452   6.344
10555TIP3    H131608   5.177   7.380   6.297
10555TIP3    H231609   5.173   7.451   6.431
10556TIP3   OH231610   8.251   6.953   3.744
10556TIP3    H131611   8.321   7.001   3.699
10556TIP3    H231612   8.170   6.993   3.713
10557TIP3   OH231613   8.082   5.424   3.871
10557TIP3    H131614   8.023   5.440   3.945
10557TIP3    H231615   8.160   5.385   3.911
10558TIP3   OH231616   3.424   0.998   2.436
10558TIP3    H131617   3.348   0.976   2.490
10558TIP3    H231618   3.444   0.918   2.388
10559TIP3   OH231619   0.477   2.968   3.594
10559TIP3    H131620   0.537   3.010   3.655
10559TIP3    H231621   0.530   2.903   3.548
10560TIP3   OH231622   3.947   3.606   5.007
10560TIP3    H131623   3.924   3.639   4.920
10560TIP3    H231624   4.008   3.534   4.989
10561TIP3   OH231625   5.176   3.795   2.509
10561TIP3    H131626   5.263   3.766   2.537
10561TIP3    H231627   5.135   3.716   2.475
10562TIP3   OH231628   0.885   1.192   5.180
10562TIP3    H131629   0.943   1.175   5.106
10562TIP3    H231630   0.820   1.253   5.146
10563TIP3   OH231631   6.080   7.574   4.840
10563TIP3    H131632   6.027   7.642   4.880
10563TIP3    H231633   6.095   7.511   4.910
10564TIP3   OH231634   3.506   0.172   0.388
10564TIP3    H131635   3.599   0.192   0.392
10564TIP3    H231636   3.470   0.236   0.327
10565TIP3   OH231637   5.409   2.091   3.615
10565TIP3    H131638   5.362   2.069   3.695
10565TIP3    H231639   5.388   2.021   3.554
10566TIP3   OH231640   0.901   3.856   3.380
10566TIP3    H131641   0.880   3.825   3.292
10566TIP3    H231642   0.997   3.858   3.382
10567TIP3   OH231643   1.227   1.447   0.124
10567TIP3    H131644   1.133   1.444   0.141
10567TIP3    H231645   1.266   1.470   0.208
10568TIP3   OH231646   2.223   0.751   4.420
10568TIP3    H131647   2.262   0.663   4.426
10568TIP3    H231648   2.272   0.794   4.351
10569TIP3   OH231649   1.272   5.640   4.769
10569TIP3    H131650   1.360   5.677   4.773
10569TIP3    H231651   1.215   5.712   4.797
10570TIP3   OH231652   0.645   1.337   3.730
10570TIP3    H131653   0.709   1.339   3.801
10570TIP3    H231654   0.587   1.264   3.751
10571TIP3   OH231655   5.783   7.642   5.182
10571TIP3    H131656   5.813   7.661   5.272
10571TIP3    H231657   5.688   7.633   5.190
10572TIP3   OH231658   7.813   5.068   4.567
10572TIP3    H131659   7.840   5.075   4.658
10572TIP3    H231660   7.806   4.973   4.551
10573TIP3   OH231661   0.633   0.685   4.388
10573TIP3    H131662   0.720   0.683   4.348
10573TIP3    H231663   0.604   0.594   4.387
10574TIP3   OH231664   3.694   3.089   1.234
10574TIP3    H131665   3.613   3.110   1.187
10574TIP3    H231666   3.691   2.994   1.246
10575TIP3   OH231667   3.005   1.339   2.333
10575TIP3    H131668   3.017   1.253   2.294
10575TIP3    H231669   3.083   1.388   2.306
10576TIP3   OH231670   7.834   5.091   2.118
10576TIP3    H131671   7.790   5.100   2.033
10576TIP3    H231672   7.779   5.141   2.179
10577TIP3   OH231673   1.426   7.708   4.638
10577TIP3    H131674   1.337   7.706   4.671
10577TIP3    H231675   1.475   7.649   4.694
10578TIP3   OH231676   3.551   2.971   3.306
10578TIP3    H131677   3.583   3.052   3.346
10578TIP3    H231678   3.550   2.989   3.212
10579TIP3   OH231679   6.731   3.355   6.583
10579TIP3    H131680   6.713   3.435   6.535
10579TIP3    H231681   6.727   3.286   6.517
10580TIP3   OH231682   7.107   2.168   5.819
10580TIP3    H131683   7.059   2.229   5.762
10580TIP3    H231684   7.040   2.126   5.872
10581TIP3   OH231685   1.479   2.579   3.963
10581TIP3    H131686   1.455   2.512   3.899
10581TIP3    H231687   1.538   2.535   4.024
10582TIP3   OH231688   1.931   7.563   1.670
10582TIP3    H131689   1.963   7.568   1.580
10582TIP3    H231690   1.997   7.511   1.717
10583TIP3   OH231691   0.517   2.474   2.582
10583TIP3    H131692   0.591   2.443   2.529
10583TIP3    H231693   0.534   2.567   2.595
10584TIP3   OH231694   0.350   6.116   2.561
10584TIP3    H131695   0.346   6.038   2.616
10584TIP3    H231696   0.272   6.166   2.583
10585TIP3   OH231697   7.031   5.890   1.545
10585TIP3    H131698   7.116   5.885   1.588
10585TIP3    H231699   7.048   5.936   1.463
10586TIP3   OH231700   1.278   2.900   6.439
10586TIP3    H131701   1.206   2.898   6.377
10586TIP3    H231702   1.356   2.881   6.387
10587TIP3   OH231703   2.367   5.074   1.084
10587TIP3    H131704   2.279   5.046   1.109
10587TIP3    H231705   2.404   4.999   1.037
10588TIP3   OH231706   1.428   1.755   2.006
10588TIP3    H131707   1.375   1.750   2.085
10588TIP3    H231708   1.478   1.837   2.016
10589TIP3   OH231709   4.725   7.199   6.337
10589TIP3    H131710   4.753   7.163   6.421
10589TIP3    H231711   4.770   7.283   6.330
10590TIP3   OH231712   4.341   3.888   5.881
10590TIP3    H131713   4.349   3.951   5.952
10590TIP3    H231714   4.369   3.936   5.803
10591TIP3   OH231715   0.613   4.291   3.021
10591TIP3    H131716   0.625   4.226   3.090
10591TIP3    H231717   0.592   4.241   2.943
10592TIP3   OH231718   2.882   4.252   3.976
10592TIP3    H131719   2.940   4.178   3.958
10592TIP3    H231720   2.812   4.243   3.911
10593TIP3   OH231721   5.336   1.487   3.124
10593TIP3    H131722   5.405   1.551   3.105
10593TIP3    H231723   5.326   1.490   3.219
10594TIP3   OH231724   2.305   5.548   5.252
10594TIP3    H131725   2.215   5.516   5.261
10594TIP3    H231726   2.310   5.623   5.312
10595TIP3   OH231727   0.197   1.908   2.862
10595TIP3    H131728   0.225   1.906   2.954
10595TIP3    H231729   0.186   2.001   2.843
10596TIP3   OH231730   7.526   0.280   6.719
10596TIP3    H131731   7.446   0.232   6.741
10596TIP3    H231732   7.502   0.332   6.642
10597TIP3   OH231733   3.677   7.412   4.213
10597TIP3    H131734   3.730   7.452   4.144
10597TIP3    H231735   3.600   7.378   4.168
10598TIP3   OH231736   4.035   0.885   2.303
10598TIP3    H131737   4.045   0.803   2.352
10598TIP3    H231738   4.056   0.862   2.213
10599TIP3   OH231739   3.373   1.246   5.147
10599TIP3    H131740   3.319   1.324   5.163
10599TIP3    H231741   3.463   1.278   5.152
10600TIP3   OH231742   6.634   3.132   1.183
10600TIP3    H131743   6.692   3.094   1.249
10600TIP3    H231744   6.651   3.226   1.187
10601TIP3   OH231745   2.213   1.515   4.139
10601TIP3    H131746   2.239   1.548   4.053
10601TIP3    H231747   2.120   1.538   4.146
10602TIP3   OH231748   7.502   6.075   5.226
10602TIP3    H131749   7.555   6.077   5.306
10602TIP3    H231750   7.478   5.983   5.215
10603TIP3   OH231751   4.224   1.348   2.869
10603TIP3    H131752   4.247   1.275   2.926
10603TIP3    H231753   4.148   1.317   2.820
10604TIP3   OH231754   4.730   3.609   6.597
10604TIP3    H131755   4.734   3.514   6.598
10604TIP3    H231756   4.800   3.636   6.538
10605TIP3   OH231757   0.221   4.524   6.768
10605TIP3    H131758   0.205   4.602   6.715
10605TIP3    H231759   0.287   4.552   6.832
10606TIP3   OH231760   4.079   6.208   5.613
10606TIP3    H131761   4.025   6.129   5.600
10606TIP3    H231762   4.040   6.252   5.689
10607TIP3   OH231763   2.196   7.082   0.415
10607TIP3    H131764   2.115   7.078   0.365
10607TIP3    H231765   2.177   7.037   0.497
10608TIP3   OH231766   2.968   4.778   3.042
10608TIP3    H131767   2.927   4.697   3.073
10608TIP3    H231768   2.926   4.847   3.094
10609TIP3   OH231769   4.793   2.219   5.343
10609TIP3    H131770   4.833   2.200   5.427
10609TIP3    H231771   4.722   2.155   5.334
10610TIP3   OH231772   1.746   4.059   1.809
10610TIP3    H131773   1.666   4.084   1.856
10610TIP3    H231774   1.717   3.996   1.743
10611TIP3   OH231775   8.237   2.167   4.735
10611TIP3    H131776   8.148   2.201   4.722
10611TIP3    H231777   8.273   2.222   4.806
10612TIP3   OH231778   1.286   5.761   1.597
10612TIP3    H131779   1.363   5.774   1.543
10612TIP3    H231780   1.291   5.829   1.664
10613TIP3   OH231781   4.057   3.147   1.595
10613TIP3    H131782   4.116   3.208   1.550
10613TIP3    H231783   3.971   3.188   1.592
10614TIP3   OH231784   3.335   6.006   4.382
10614TIP3    H131785   3.347   5.991   4.476
10614TIP3    H231786   3.250   6.050   4.375
10615TIP3   OH231787   4.344   6.056   5.522
10615TIP3    H131788   4.339   6.146   5.555
10615TIP3    H231789   4.278   6.008   5.571
10616TIP3   OH231790   2.634   4.516   5.055
10616TIP3    H131791   2.632   4.611   5.069
10616TIP3    H231792   2.726   4.495   5.044
10617TIP3   OH231793   0.898   6.038   6.326
10617TIP3    H131794   0.850   6.107   6.280
10617TIP3    H231795   0.979   6.028   6.276
10618TIP3   OH231796   4.404   3.804   1.835
10618TIP3    H131797   4.378   3.715   1.809
10618TIP3    H231798   4.465   3.791   1.908
10619TIP3   OH231799   1.441   2.591   2.275
10619TIP3    H131800   1.518   2.543   2.245
10619TIP3    H231801   1.467   2.629   2.359
10620TIP3   OH231802   1.032   6.498   4.312
10620TIP3    H131803   1.125   6.476   4.311
10620TIP3    H231804   1.027   6.586   4.276
10621TIP3   OH231805   2.580   3.263   0.926
10621TIP3    H131806   2.650   3.202   0.949
10621TIP3    H231807   2.503   3.230   0.971
10622TIP3   OH231808   1.886   5.952   0.353
10622TIP3    H131809   1.958   5.903   0.313
10622TIP3    H231810   1.892   5.932   0.446
10623TIP3   OH231811   6.331   3.706   1.915
10623TIP3    H131812   6.332   3.674   2.006
10623TIP3    H231813   6.254   3.763   1.910
10624TIP3   OH231814   7.835   2.016   5.990
10624TIP3    H131815   7.911   2.066   5.959
10624TIP3    H231816   7.765   2.081   5.996
10625TIP3   OH231817   3.152   1.923   2.578
10625TIP3    H131818   3.220   1.956   2.637
10625TIP3    H231819   3.178   1.955   2.492
10626TIP3   OH231820   5.002   7.769   4.818
10626TIP3    H131821   5.094   7.791   4.828
10626TIP3    H231822   4.976   7.811   4.735
10627TIP3   OH231823   4.536   5.600   1.606
10627TIP3    H131824   4.470   5.580   1.540
10627TIP3    H231825   4.607   5.642   1.558
10628TIP3   OH231826   7.362   0.503   5.738
10628TIP3    H131827   7.403   0.481   5.822
10628TIP3    H231828   7.386   0.431   5.680
10629TIP3   OH231829   8.076   7.030   3.122
10629TIP3    H131830   8.164   7.001   3.146
10629TIP3    H231831   8.083   7.126   3.117
10630TIP3   OH231832   4.213   2.098   0.935
10630TIP3    H131833   4.154   2.024   0.922
10630TIP3    H231834   4.190   2.132   1.022
10631TIP3   OH231835   0.483   7.724   1.255
10631TIP3    H131836   0.563   7.701   1.301
10631TIP3    H231837   0.447   7.797   1.305
10632TIP3   OH231838   6.019   5.951   2.504
10632TIP3    H131839   6.025   6.041   2.471
10632TIP3    H231840   6.087   5.946   2.571
10633TIP3   OH231841   3.601   1.717   4.356
10633TIP3    H131842   3.567   1.638   4.398
10633TIP3    H231843   3.629   1.687   4.269
10634TIP3   OH231844   0.442   6.035   6.276
10634TIP3    H131845   0.480   6.089   6.207
10634TIP3    H231846   0.473   6.074   6.357
10635TIP3   OH231847   1.900   1.525   4.861
10635TIP3    H131848   1.946   1.585   4.920
10635TIP3    H231849   1.970   1.482   4.812
10636TIP3   OH231850   5.021   1.988   0.430
10636TIP3    H131851   4.999   2.044   0.504
10636TIP3    H231852   5.044   1.904   0.469
10637TIP3   OH231853   1.240   6.239   2.495
10637TIP3    H131854   1.159   6.197   2.465
10637TIP3    H231855   1.290   6.253   2.415
10638TIP3   OH231856   6.276   0.401   0.648
10638TIP3    H131857   6.304   0.377   0.560
10638TIP3    H231858   6.198   0.348   0.664
10639TIP3   OH231859   0.676   2.001   5.029
10639TIP3    H131860   0.594   2.003   5.079
10639TIP3    H231861   0.668   1.925   4.972
10640TIP3   OH231862   3.501   4.556   0.054
10640TIP3    H131863   3.466   4.475   0.090
10640TIP3    H231864   3.455   4.568  -0.029
10641TIP3   OH231865   0.970   6.357   5.677
10641TIP3    H131866   0.996   6.438   5.632
10641TIP3    H231867   0.884   6.336   5.642
10642TIP3   OH231868   0.950   1.211   1.371
10642TIP3    H131869   0.881   1.181   1.430
10642TIP3    H231870   0.904   1.263   1.305
10643TIP3   OH231871   0.134   3.082   4.488
10643TIP3    H131872   0.203   3.062   4.423
10643TIP3    H231873   0.057   3.037   4.454
10644TIP3   OH231874   3.322   1.803   1.944
10644TIP3    H131875   3.374   1.823   1.866
10644TIP3    H231876   3.256   1.740   1.914
10645TIP3   OH231877   0.848   1.770   6.580
10645TIP3    H131878   0.784   1.717   6.626
10645TIP3    H231879   0.821   1.765   6.488
10646TIP3   OH231880   2.740   5.480   2.193
10646TIP3    H131881   2.764   5.482   2.101
10646TIP3    H231882   2.665   5.420   2.198
10647TIP3   OH231883   4.285   0.586   1.964
10647TIP3    H131884   4.346   0.575   2.037
10647TIP3    H231885   4.199   0.571   2.003
10648TIP3   OH231886   5.049   1.696   3.621
10648TIP3    H131887   5.073   1.605   3.606
10648TIP3    H231888   5.111   1.727   3.687
10649TIP3   OH231889   1.708   3.505   3.088
10649TIP3    H131890   1.649   3.471   3.021
10649TIP3    H231891   1.652   3.522   3.164
10650TIP3   OH231892   2.353   3.109   3.262
10650TIP3    H131893   2.283   3.119   3.197
10650TIP3    H231894   2.307   3.116   3.346
10651TIP3   OH231895   1.498   1.410   0.276
10651TIP3    H131896   1.516   1.320   0.301
10651TIP3    H231897   1.466   1.452   0.356
10652TIP3   OH231898   5.534   1.075   3.143
10652TIP3    H131899   5.613   1.092   3.194
10652TIP3    H231900   5.464   1.067   3.209
10653TIP3   OH231901   1.168   3.297   3.119
10653TIP3    H131902   1.147   3.389   3.103
10653TIP3    H231903   1.084   3.253   3.115
10654TIP3   OH231904   2.452   4.126   0.999
10654TIP3    H131905   2.371   4.158   0.961
10654TIP3    H231906   2.508   4.106   0.924
10655TIP3   OH231907   6.857   7.370   5.491
10655TIP3    H131908   6.772   7.393   5.453
10655TIP3    H231909   6.876   7.438   5.555
10656TIP3   OH231910   4.948   3.365   3.998
10656TIP3    H131911   5.008   3.340   4.069
10656TIP3    H231912   4.951   3.292   3.937
10657TIP3   OH231913   1.116   6.048   5.576
10657TIP3    H131914   1.174   6.119   5.548
10657TIP3    H231915   1.134   5.977   5.515
10658TIP3   OH231916   8.002   5.431   5.903
10658TIP3    H131917   8.043   5.352   5.940
10658TIP3    H231918   8.076   5.489   5.883
10659TIP3   OH231919   1.526   2.199   2.764
10659TIP3    H131920   1.550   2.225   2.675
10659TIP3    H231921   1.609   2.178   2.806
10660TIP3   OH231922   2.438   1.877   5.672
10660TIP3    H131923   2.392   1.864   5.755
10660TIP3    H231924   2.379   1.842   5.606
10661TIP3   OH231925   6.403   3.191   2.427
10661TIP3    H131926   6.413   3.178   2.521
10661TIP3    H231927   6.484   3.156   2.389
10662TIP3   OH231928   7.078   7.354   1.031
10662TIP3    H131929   7.170   7.371   1.013
10662TIP3    H231930   7.036   7.360   0.945
10663TIP3   OH231931   4.851   2.008   6.076
10663TIP3    H131932   4.871   2.099   6.097
10663TIP3    H231933   4.914   1.957   6.129
10664TIP3   OH231934   1.855   6.914   4.472
10664TIP3    H131935   1.849   6.978   4.544
10664TIP3    H231936   1.844   6.829   4.514
10665TIP3   OH231937   5.699   6.646   5.339
10665TIP3    H131938   5.718   6.699   5.417
10665TIP3    H231939   5.623   6.689   5.299
10666TIP3   OH231940   0.540   0.705   2.710
10666TIP3    H131941   0.631   0.712   2.681
10666TIP3    H231942   0.541   0.636   2.775
10667TIP3   OH231943   2.258   1.401   0.998
10667TIP3    H131944   2.222   1.315   0.975
10667TIP3    H231945   2.267   1.399   1.093
10668TIP3   OH231946   3.249   1.928   0.457
10668TIP3    H131947   3.201   1.926   0.375
10668TIP3    H231948   3.274   2.020   0.468
10669TIP3   OH231949   0.821   0.557   5.833
10669TIP3    H131950   0.808   0.641   5.790
10669TIP3    H231951   0.732   0.528   5.857
10670TIP3   OH231952   1.499   0.664   0.144
10670TIP3    H131953   1.589   0.634   0.154
10670TIP3    H231954   1.487   0.673   0.050
10671TIP3   OH231955   6.731   5.428   1.745
10671TIP3    H131956   6.764   5.515   1.768
10671TIP3    H231957   6.639   5.443   1.722
10672TIP3   OH231958   5.758   4.196   3.417
10672TIP3    H131959   5.846   4.195   3.380
10672TIP3    H231960   5.737   4.289   3.427
10673TIP3   OH231961   1.070   0.461   1.578
10673TIP3    H131962   1.035   0.373   1.563
10673TIP3    H231963   1.058   0.476   1.672
10674TIP3   OH231964   7.415   3.706   0.389
10674TIP3    H131965   7.436   3.641   0.323
10674TIP3    H231966   7.426   3.790   0.345
10675TIP3   OH231967   1.268   4.195   3.799
10675TIP3    H131968   1.341   4.187   3.860
10675TIP3    H231969   1.199   4.240   3.849
10676TIP3   OH231970   3.669   2.115   3.112
10676TIP3    H131971   3.664   2.205   3.145
10676TIP3    H231972   3.740   2.117   3.048
10677TIP3   OH231973   3.168   5.320   5.589
10677TIP3    H131974   3.118   5.382   5.535
10677TIP3    H231975   3.188   5.369   5.668
10678TIP3   OH231976   4.927   0.997   3.362
10678TIP3    H131977   4.834   1.014   3.379
10678TIP3    H231978   4.965   0.984   3.449
10679TIP3   OH231979   2.049   4.902   6.563
10679TIP3    H131980   2.010   4.821   6.596
10679TIP3    H231981   2.060   4.886   6.469
10680TIP3   OH231982   6.084   3.298   2.848
10680TIP3    H131983   6.098   3.344   2.765
10680TIP3    H231984   6.035   3.220   2.824
10681TIP3   OH231985   4.291   0.270   3.127
10681TIP3    H131986   4.206   0.309   3.105
10681TIP3    H231987   4.311   0.304   3.215
10682TIP3   OH231988   4.234   2.780   2.942
10682TIP3    H131989   4.232   2.726   3.020
10682TIP3    H231990   4.161   2.747   2.888
10683TIP3   OH231991   5.697   3.317   4.199
10683TIP3    H131992   5.605   3.331   4.223
10683TIP3    H231993   5.696   3.234   4.151
10684TIP3   OH231994   6.458   3.911   1.000
10684TIP3    H131995   6.438   3.989   0.948
10684TIP3    H231996   6.471   3.944   1.089
10685TIP3   OH231997   5.857   4.845   1.213
10685TIP3    H131998   5.807   4.792   1.151
10685TIP3    H231999   5.818   4.827   1.298
10686TIP3   OH232000   3.895   0.312   3.252
10686TIP3    H132001   3.875   0.406   3.254
10686TIP3    H232002   3.863   0.282   3.167
10687TIP3   OH232003   1.739   1.065   1.692
10687TIP3    H132004   1.809   1.125   1.665
10687TIP3    H232005   1.670   1.123   1.725
10688TIP3   OH232006   3.608   2.678   2.321
10688TIP3    H132007   3.576   2.589   2.337
10688TIP3    H232008   3.529   2.732   2.320
10689TIP3   OH232009   5.829   0.399   2.701
10689TIP3    H132010   5.908   0.360   2.739
10689TIP3    H232011   5.761   0.333   2.713
10690TIP3   OH232012   2.917   6.021   5.365
10690TIP3    H132013   2.944   6.044   5.454
10690TIP3    H232014   2.887   6.103   5.326
10691TIP3   OH232015   0.079   3.183   6.476
10691TIP3    H132016   0.112   3.240   6.407
10691TIP3    H232017   0.151   3.178   6.539
10692TIP3   OH232018   3.893   2.436   2.383
10692TIP3    H132019   3.962   2.377   2.351
10692TIP3    H232020   3.825   2.432   2.317
10693TIP3   OH232021   4.811   1.460   0.866
10693TIP3    H132022   4.763   1.539   0.844
10693TIP3    H232023   4.900   1.490   0.885
10694TIP3   OH232024   8.031   3.732   5.892
10694TIP3    H132025   8.101   3.797   5.897
10694TIP3    H232026   8.017   3.704   5.982
10695TIP3   OH232027   4.215   3.306   5.700
10695TIP3    H132028   4.171   3.234   5.656
10695TIP3    H232029   4.193   3.294   5.793
10696TIP3   OH232030   3.170   5.404   4.861
10696TIP3    H132031   3.196   5.491   4.893
10696TIP3    H232032   3.080   5.393   4.891
10697TIP3   OH232033   1.045   1.326   3.113
10697TIP3    H132034   1.124   1.277   3.088
10697TIP3    H232035   0.975   1.286   3.060
10698TIP3   OH232036   7.180   0.444   1.402
10698TIP3    H132037   7.086   0.429   1.393
10698TIP3    H232038   7.218   0.402   1.325
10699TIP3   OH232039   1.672   0.713   0.400
10699TIP3    H132040   1.580   0.687   0.408
10699TIP3    H232041   1.669   0.806   0.378
10700TIP3   OH232042   6.983   3.224   1.472
10700TIP3    H132043   6.970   3.179   1.555
10700TIP3    H232044   6.930   3.304   1.479
10701TIP3   OH232045   3.972   5.944   2.591
10701TIP3    H132046   3.938   5.949   2.502
10701TIP3    H232047   4.020   5.861   2.593
10702TIP3   OH232048   1.056   7.276   0.248
10702TIP3    H132049   0.980   7.300   0.301
10702TIP3    H232050   1.052   7.335   0.173
10703TIP3   OH232051   0.120   3.853   2.191
10703TIP3    H132052   0.068   3.778   2.161
10703TIP3    H232053   0.180   3.871   2.118
10704TIP3   OH232054   2.465   5.212   0.865
10704TIP3    H132055   2.415   5.169   0.934
10704TIP3    H232056   2.554   5.180   0.876
10705TIP3   OH232057   7.333   5.888   3.054
10705TIP3    H132058   7.344   5.978   3.023
10705TIP3    H232059   7.367   5.889   3.143
10706TIP3   OH232060   7.632   2.956   1.722
10706TIP3    H132061   7.660   2.902   1.648
10706TIP3    H232062   7.596   3.035   1.683
10707TIP3   OH232063   8.055   5.106   6.005
10707TIP3    H132064   8.016   5.025   6.037
10707TIP3    H232065   8.104   5.140   6.081
10708TIP3   OH232066   7.969   3.060   6.063
10708TIP3    H132067   8.052   3.054   6.110
10708TIP3    H232068   7.967   3.150   6.030
10709TIP3   OH232069   1.710   5.607   2.838
10709TIP3    H132070   1.652   5.530   2.841
10709TIP3    H232071   1.653   5.677   2.806
10710TIP3   OH232072   2.576   3.964   3.757
10710TIP3    H132073   2.557   3.890   3.815
10710TIP3    H232074   2.493   3.982   3.713
10711TIP3   OH232075   4.322   0.106   3.990
10711TIP3    H132076   4.292   0.143   4.073
10711TIP3    H232077   4.413   0.084   4.005
10712TIP3   OH232078   1.322   7.678   2.216
10712TIP3    H132079   1.337   7.636   2.300
10712TIP3    H232080   1.304   7.605   2.156
10713TIP3   OH232081   4.031   0.708   1.752
10713TIP3    H132082   4.008   0.626   1.709
10713TIP3    H232083   3.991   0.776   1.696
10714TIP3   OH232084   0.524   0.731   2.415
10714TIP3    H132085   0.460   0.664   2.437
10714TIP3    H232086   0.539   0.779   2.497
10715TIP3   OH232087   5.202   6.300   0.544
10715TIP3    H132088   5.122   6.327   0.500
10715TIP3    H232089   5.187   6.319   0.636
10716TIP3   OH232090   3.070   0.698   4.134
10716TIP3    H132091   3.038   0.644   4.062
10716TIP3    H232092   3.036   0.786   4.115
10717TIP3   OH232093   4.553   0.464   3.574
10717TIP3    H132094   4.516   0.537   3.623
10717TIP3    H232095   4.595   0.409   3.640
10718TIP3   OH232096   6.900   0.731   0.127
10718TIP3    H132097   6.967   0.756   0.063
10718TIP3    H232098   6.829   0.794   0.113
10719TIP3   OH232099   1.020   5.903   4.131
10719TIP3    H132100   1.019   5.963   4.206
10719TIP3    H232101   1.111   5.903   4.101
10720TIP3   OH232102   4.792   6.476   2.445
10720TIP3    H132103   4.864   6.530   2.476
10720TIP3    H232104   4.775   6.506   2.356
10721TIP3   OH232105   8.109   2.277   1.215
10721TIP3    H132106   8.063   2.358   1.236
10721TIP3    H232107   8.105   2.271   1.119
10722TIP3   OH232108   6.018   5.709   5.085
10722TIP3    H132109   6.081   5.696   5.157
10722TIP3    H232110   6.014   5.624   5.041
10723TIP3   OH232111   0.097   2.459   1.711
10723TIP3    H132112   0.193   2.453   1.718
10723TIP3    H232113   0.082   2.534   1.653
10724TIP3   OH232114   2.492   3.013   1.493
10724TIP3    H132115   2.568   3.070   1.479
10724TIP3    H232116   2.467   2.987   1.404
10725TIP3   OH232117   6.151   6.153   0.981
10725TIP3    H132118   6.131   6.094   1.054
10725TIP3    H232119   6.095   6.229   0.996
10726TIP3   OH232120   1.537   6.047   5.102
10726TIP3    H132121   1.580   5.965   5.079
10726TIP3    H232122   1.449   6.022   5.129
10727TIP3   OH232123   4.996   2.277   3.440
10727TIP3    H132124   4.929   2.345   3.447
10727TIP3    H232125   5.066   2.307   3.498
10728TIP3   OH232126   2.888   0.812   6.060
10728TIP3    H132127   2.972   0.823   6.104
10728TIP3    H232128   2.827   0.791   6.130
10729TIP3   OH232129   2.888   3.695   4.975
10729TIP3    H132130   2.795   3.719   4.979
10729TIP3    H232131   2.899   3.660   4.886
10730TIP3   OH232132   6.665   7.020   5.812
10730TIP3    H132133   6.651   7.104   5.856
10730TIP3    H232134   6.722   7.041   5.738
10731TIP3   OH232135   5.333   7.606   3.937
10731TIP3    H132136   5.330   7.547   3.862
10731TIP3    H232137   5.288   7.558   4.007
10732TIP3   OH232138   6.786   5.184   4.002
10732TIP3    H132139   6.847   5.184   4.076
10732TIP3    H232140   6.803   5.266   3.957
10733TIP3   OH232141   8.125   2.051   6.646
10733TIP3    H132142   8.034   2.055   6.616
10733TIP3    H232143   8.175   2.023   6.569
10734TIP3   OH232144   3.873   5.318   5.650
10734TIP3    H132145   3.835   5.404   5.636
10734TIP3    H232146   3.834   5.263   5.581
10735TIP3   OH232147   6.591   3.431   2.408
10735TIP3    H132148   6.501   3.402   2.397
10735TIP3    H232149   6.639   3.387   2.337
10736TIP3   OH232150   7.982   1.513   6.519
10736TIP3    H132151   7.939   1.595   6.543
10736TIP3    H232152   8.074   1.537   6.509
10737TIP3   OH232153   3.893   7.151   0.944
10737TIP3    H132154   3.932   7.104   0.870
10737TIP3    H232155   3.963   7.159   1.008
10738TIP3   OH232156   6.209   6.771   0.669
10738TIP3    H132157   6.145   6.734   0.608
10738TIP3    H232158   6.160   6.785   0.750
10739TIP3   OH232159   6.732   4.377   2.957
10739TIP3    H132160   6.825   4.363   2.941
10739TIP3    H232161   6.725   4.470   2.980
10740TIP3   OH232162   7.285   6.882   3.763
10740TIP3    H132163   7.322   6.927   3.687
10740TIP3    H232164   7.193   6.907   3.763
10741TIP3   OH232165   6.766   5.515   5.085
10741TIP3    H132166   6.814   5.529   5.166
10741TIP3    H232167   6.712   5.438   5.101
10742TIP3   OH232168   2.710   3.982   4.696
10742TIP3    H132169   2.805   3.991   4.701
10742TIP3    H232170   2.695   3.936   4.612
10743TIP3   OH232171   4.436   7.166   4.647
10743TIP3    H132172   4.375   7.103   4.686
10743TIP3    H232173   4.488   7.197   4.721
10744TIP3   OH232174   3.279   5.950   3.799
10744TIP3    H132175   3.218   5.947   3.872
10744TIP3    H232176   3.366   5.958   3.840
10745TIP3   OH232177   6.394   1.542   3.905
10745TIP3    H132178   6.331   1.590   3.851
10745TIP3    H232179   6.402   1.457   3.863
10746TIP3   OH232180   7.171   6.404   2.250
10746TIP3    H132181   7.097   6.345   2.262
10746TIP3    H232182   7.231   6.357   2.192
10747TIP3   OH232183   4.498   2.161   4.869
10747TIP3    H132184   4.481   2.070   4.844
10747TIP3    H232185   4.445   2.213   4.809
10748TIP3   OH232186   7.323   1.212   0.519
10748TIP3    H132187   7.414   1.198   0.546
10748TIP3    H232188   7.310   1.154   0.445
10749TIP3   OH232189   2.098   7.321   4.257
10749TIP3    H132190   2.137   7.345   4.173
10749TIP3    H232191   2.130   7.386   4.318
10750TIP3   OH232192   2.043   1.368   2.007
10750TIP3    H132193   1.948   1.361   1.998
10750TIP3    H232194   2.056   1.407   2.093
10751TIP3   OH232195   0.684   5.684   2.121
10751TIP3    H132196   0.693   5.762   2.176
10751TIP3    H232197   0.773   5.661   2.096
10752TIP3   OH232198   3.740   7.057   0.523
10752TIP3    H132199   3.654   7.096   0.538
10752TIP3    H232200   3.801   7.130   0.530
10753TIP3   OH232201   6.635   6.453   5.439
10753TIP3    H132202   6.616   6.545   5.456
10753TIP3    H232203   6.731   6.447   5.444
10754TIP3   OH232204   3.950   2.539   3.412
10754TIP3    H132205   3.941   2.584   3.328
10754TIP3    H232206   3.868   2.492   3.423
10755TIP3   OH232207   5.552   6.913   3.331
10755TIP3    H132208   5.534   6.994   3.379
10755TIP3    H232209   5.621   6.937   3.269
10756TIP3   OH232210   5.639   7.222   6.164
10756TIP3    H132211   5.620   7.231   6.070
10756TIP3    H232212   5.726   7.259   6.175
10757TIP3   OH232213   5.443   0.386   4.946
10757TIP3    H132214   5.488   0.430   5.018
10757TIP3    H232215   5.450   0.293   4.967
10758TIP3   OH232216   5.661   0.087   0.171
10758TIP3    H132217   5.695   0.169   0.136
10758TIP3    H232218   5.566   0.097   0.169
10759TIP3   OH232219   5.274   0.842   1.695
10759TIP3    H132220   5.255   0.932   1.723
10759TIP3    H232221   5.252   0.789   1.772
10760TIP3   OH232222   7.842   5.611   2.953
10760TIP3    H132223   7.796   5.622   2.869
10760TIP3    H232224   7.774   5.621   3.019
10761TIP3   OH232225   4.337   2.032   3.335
10761TIP3    H132226   4.401   2.078   3.390
10761TIP3    H232227   4.348   1.940   3.356
10762TIP3   OH232228   3.719   1.551   1.228
10762TIP3    H132229   3.715   1.605   1.148
10762TIP3    H232230   3.802   1.504   1.221
10763TIP3   OH232231   3.881   3.010   5.064
10763TIP3    H132232   3.828   3.061   5.125
10763TIP3    H232233   3.917   3.074   5.002
10764TIP3   OH232234   1.333   3.343   4.195
10764TIP3    H132235   1.241   3.371   4.191
10764TIP3    H232236   1.364   3.350   4.105
10765TIP3   OH232237   6.276   4.027   0.302
10765TIP3    H132238   6.324   4.079   0.368
10765TIP3    H232239   6.184   4.042   0.323
10766TIP3   OH232240   8.192   4.500   1.863
10766TIP3    H132241   8.201   4.505   1.768
10766TIP3    H232242   8.229   4.582   1.895
10767TIP3   OH232243   5.521   0.392   4.537
10767TIP3    H132244   5.520   0.429   4.626
10767TIP3    H232245   5.613   0.384   4.515
10768TIP3   OH232246   4.384   6.942   6.073
10768TIP3    H132247   4.456   7.005   6.068
10768TIP3    H232248   4.421   6.866   6.117
10769TIP3   OH232249   3.316   3.975   1.869
10769TIP3    H132250   3.371   3.937   1.801
10769TIP3    H232251   3.261   4.038   1.824
10770TIP3   OH232252   1.792   7.035   0.972
10770TIP3    H132253   1.744   6.978   1.031
10770TIP3    H232254   1.878   7.046   1.014
10771TIP3   OH232255   4.683   4.966   2.721
10771TIP3    H132256   4.676   5.061   2.730
10771TIP3    H232257   4.633   4.945   2.642
10772TIP3   OH232258   3.914   5.161   0.913
10772TIP3    H132259   3.891   5.094   0.977
10772TIP3    H232260   3.860   5.141   0.837
10773TIP3   OH232261   0.420   6.861   4.778
10773TIP3    H132262   0.393   6.818   4.859
10773TIP3    H232263   0.415   6.955   4.798
10774TIP3   OH232264   1.756   5.084   4.242
10774TIP3    H132265   1.784   4.995   4.260
10774TIP3    H232266   1.837   5.132   4.225
10775TIP3   OH232267   2.002   2.924   1.576
10775TIP3    H132268   1.971   2.860   1.640
10775TIP3    H232269   2.091   2.944   1.603
10776TIP3   OH232270   1.741   2.835   2.540
10776TIP3    H132271   1.784   2.804   2.460
10776TIP3    H232272   1.730   2.755   2.593
10777TIP3   OH232273   0.472   3.375   0.022
10777TIP3    H132274   0.550   3.322   0.036
10777TIP3    H232275   0.399   3.318   0.046
10778TIP3   OH232276   2.041   4.725   4.188
10778TIP3    H132277   1.999   4.679   4.115
10778TIP3    H232278   1.972   4.781   4.224
10779TIP3   OH232279   4.682   1.331   0.637
10779TIP3    H132280   4.745   1.379   0.691
10779TIP3    H232281   4.638   1.398   0.585
10780TIP3   OH232282   1.364   5.446   0.374
10780TIP3    H132283   1.329   5.378   0.432
10780TIP3    H232284   1.358   5.526   0.425
10781TIP3   OH232285   0.403   0.936   0.984
10781TIP3    H132286   0.443   0.852   0.962
10781TIP3    H232287   0.371   0.970   0.901
10782TIP3   OH232288   0.337   1.028   2.302
10782TIP3    H132289   0.426   1.042   2.267
10782TIP3    H232290   0.348   1.031   2.397
10783TIP3   OH232291   0.092   6.038   2.217
10783TIP3    H132292   0.136   5.953   2.216
10783TIP3    H232293   0.007   6.021   2.174
10784TIP3   OH232294   3.222   6.105   5.347
10784TIP3    H132295   3.206   6.041   5.416
10784TIP3    H232296   3.155   6.172   5.360
10785TIP3   OH232297   7.168   0.112   4.223
10785TIP3    H132298   7.236   0.112   4.156
10785TIP3    H232299   7.113   0.037   4.202
10786TIP3   OH232300   7.513   1.137   4.257
10786TIP3    H132301   7.459   1.125   4.179
10786TIP3    H232302   7.547   1.050   4.276
10787TIP3   OH232303   4.329   7.271   3.182
10787TIP3    H132304   4.412   7.305   3.149
10787TIP3    H232305   4.263   7.329   3.143
10788TIP3   OH232306   3.631   4.507   2.637
10788TIP3    H132307   3.646   4.450   2.561
10788TIP3    H232308   3.668   4.459   2.711
10789TIP3   OH232309   1.114   4.219   1.027
10789TIP3    H132310   1.163   4.297   1.003
10789TIP3    H232311   1.084   4.235   1.116
10790TIP3   OH232312   7.167   1.208   5.020
10790TIP3    H132313   7.179   1.129   5.072
10790TIP3    H232314   7.086   1.247   5.053
10791TIP3   OH232315   6.862   7.420   2.334
10791TIP3    H132316   6.780   7.463   2.310
10791TIP3    H232317   6.844   7.327   2.327
10792TIP3   OH232318   7.994   2.782   1.978
10792TIP3    H132319   7.993   2.748   2.068
10792TIP3    H232320   8.054   2.856   1.981
10793TIP3   OH232321   6.694   1.519   4.302
10793TIP3    H132322   6.685   1.583   4.231
10793TIP3    H232323   6.604   1.496   4.325
10794TIP3   OH232324   5.892   3.657   5.657
10794TIP3    H132325   5.925   3.736   5.699
10794TIP3    H232326   5.819   3.629   5.712
10795TIP3   OH232327   7.222   4.656   4.437
10795TIP3    H132328   7.307   4.635   4.400
10795TIP3    H232329   7.186   4.571   4.464
10796TIP3   OH232330   3.532   5.801   6.651
10796TIP3    H132331   3.607   5.854   6.679
10796TIP3    H232332   3.533   5.807   6.556
10797TIP3   OH232333   1.819   4.647   5.191
10797TIP3    H132334   1.780   4.572   5.147
10797TIP3    H232335   1.842   4.614   5.278
10798TIP3   OH232336   4.774   2.333   4.817
10798TIP3    H132337   4.786   2.240   4.836
10798TIP3    H232338   4.717   2.335   4.740
10799TIP3   OH232339   7.775   3.366   3.179
10799TIP3    H132340   7.698   3.309   3.181
10799TIP3    H232341   7.842   3.314   3.134
10800TIP3   OH232342   1.140   2.610   5.075
10800TIP3    H132343   1.227   2.576   5.054
10800TIP3    H232344   1.125   2.679   5.011
10801TIP3   OH232345   1.262   0.355   2.405
10801TIP3    H132346   1.191   0.333   2.465
10801TIP3    H232347   1.304   0.271   2.385
10802TIP3   OH232348   6.056   1.657   0.499
10802TIP3    H132349   6.141   1.690   0.529
10802TIP3    H232350   6.002   1.736   0.489
10803TIP3   OH232351   5.638   6.161   0.742
10803TIP3    H132352   5.567   6.182   0.802
10803TIP3    H232353   5.655   6.068   0.758
10804TIP3   OH232354   0.535   2.344   1.025
10804TIP3    H132355   0.528   2.373   0.934
10804TIP3    H232356   0.445   2.344   1.057
10805TIP3   OH232357   3.408   4.534   5.384
10805TIP3    H132358   3.327   4.540   5.435
10805TIP3    H232359   3.385   4.567   5.297
10806TIP3   OH232360   7.332   0.749   4.689
10806TIP3    H132361   7.413   0.718   4.730
10806TIP3    H232362   7.346   0.736   4.595
10807TIP3   OH232363   3.299   3.486   0.383
10807TIP3    H132364   3.219   3.474   0.436
10807TIP3    H232365   3.305   3.581   0.371
10808TIP3   OH232366   4.585   2.486   3.265
10808TIP3    H132367   4.496   2.471   3.234
10808TIP3    H232368   4.621   2.552   3.205
10809TIP3   OH232369   0.135   0.572   1.796
10809TIP3    H132370   0.177   0.594   1.879
10809TIP3    H232371   0.050   0.535   1.821
10810TIP3   OH232372   5.157   4.876   2.460
10810TIP3    H132373   5.068   4.879   2.494
10810TIP3    H232374   5.184   4.784   2.470
10811TIP3   OH232375   7.244   2.844   5.815
10811TIP3    H132376   7.235   2.753   5.785
10811TIP3    H232377   7.282   2.835   5.903
10812TIP3   OH232378   7.143   5.408   4.550
10812TIP3    H132379   7.190   5.329   4.524
10812TIP3    H232380   7.072   5.417   4.486
10813TIP3   OH232381   7.639   2.450   2.624
10813TIP3    H132382   7.553   2.465   2.584
10813TIP3    H232383   7.627   2.370   2.676
10814TIP3   OH232384   4.890   4.942   1.468
10814TIP3    H132385   4.899   4.945   1.373
10814TIP3    H232386   4.942   5.015   1.500
10815TIP3   OH232387   0.772   1.954   4.000
10815TIP3    H132388   0.795   1.907   3.920
10815TIP3    H232389   0.736   1.887   4.058
10816TIP3   OH232390   6.485   7.203   0.534
10816TIP3    H132391   6.448   7.117   0.514
10816TIP3    H232392   6.432   7.265   0.484
10817TIP3   OH232393   5.581   7.166   5.876
10817TIP3    H132394   5.665   7.141   5.838
10817TIP3    H232395   5.533   7.206   5.803
10818TIP3   OH232396   3.726   5.340   3.000
10818TIP3    H132397   3.746   5.383   3.084
10818TIP3    H232398   3.691   5.254   3.026
10819TIP3   OH232399   6.091   4.240   4.649
10819TIP3    H132400   6.150   4.213   4.719
10819TIP3    H232401   6.139   4.309   4.603
10820TIP3   OH232402   0.472   0.228   6.377
10820TIP3    H132403   0.551   0.187   6.411
10820TIP3    H232404   0.503   0.283   6.306
10821TIP3   OH232405   0.793   4.444   1.727
10821TIP3    H132406   0.778   4.445   1.633
10821TIP3    H232407   0.774   4.533   1.755
10822TIP3   OH232408   2.698   4.487   2.912
10822TIP3    H132409   2.768   4.478   2.847
10822TIP3    H232410   2.742   4.523   2.989
10823TIP3   OH232411   0.396   1.170   6.161
10823TIP3    H132412   0.329   1.112   6.126
10823TIP3    H232413   0.473   1.154   6.106
10824TIP3   OH232414   1.823   5.157   3.105
10824TIP3    H132415   1.908   5.191   3.078
10824TIP3    H232416   1.810   5.079   3.052
10825TIP3   OH232417   6.448   1.623   0.444
10825TIP3    H132418   6.483   1.576   0.369
10825TIP3    H232419   6.421   1.555   0.505
10826TIP3   OH232420   6.808   3.832   1.093
10826TIP3    H132421   6.770   3.786   1.018
10826TIP3    H232422   6.867   3.896   1.054
10827TIP3   OH232423   4.666   2.585   6.448
10827TIP3    H132424   4.663   2.645   6.373
10827TIP3    H232425   4.730   2.518   6.422
10828TIP3   OH232426   8.068   7.276   5.230
10828TIP3    H132427   8.015   7.301   5.155
10828TIP3    H232428   8.117   7.199   5.201
10829TIP3   OH232429   2.539   4.044   1.746
10829TIP3    H132430   2.453   4.038   1.787
10829TIP3    H232431   2.553   3.959   1.704
10830TIP3   OH232432   0.938   6.485   0.280
10830TIP3    H132433   0.993   6.434   0.221
10830TIP3    H232434   0.981   6.571   0.284
10831TIP3   OH232435   5.414   3.251   0.752
10831TIP3    H132436   5.392   3.160   0.768
10831TIP3    H232437   5.407   3.262   0.657
10832TIP3   OH232438   2.237   2.381   6.540
10832TIP3    H132439   2.321   2.343   6.564
10832TIP3    H232440   2.250   2.475   6.549
10833TIP3   OH232441   3.312   5.424   5.790
10833TIP3    H132442   3.402   5.453   5.800
10833TIP3    H232443   3.311   5.335   5.825
10834TIP3   OH232444   7.990   7.680   0.229
10834TIP3    H132445   8.070   7.732   0.241
10834TIP3    H232446   8.022   7.596   0.196
10835TIP3   OH232447   2.089   5.189   1.223
10835TIP3    H132448   1.997   5.185   1.196
10835TIP3    H232449   2.104   5.107   1.269
10836TIP3   OH232450   5.174   6.566   5.886
10836TIP3    H132451   5.086   6.537   5.909
10836TIP3    H232452   5.198   6.511   5.811
10837TIP3   OH232453   0.715   7.821   6.716
10837TIP3    H132454   0.796   7.868   6.738
10837TIP3    H232455   0.715   7.745   6.774
10838TIP3   OH232456   0.399   4.126   4.607
10838TIP3    H132457   0.391   4.220   4.617
10838TIP3    H232458   0.479   4.103   4.654
10839TIP3   OH232459   3.286   6.310   6.373
10839TIP3    H132460   3.325   6.256   6.441
10839TIP3    H232461   3.215   6.358   6.417
10840TIP3   OH232462   5.162   3.800   5.569
10840TIP3    H132463   5.204   3.853   5.501
10840TIP3    H232464   5.120   3.863   5.627
10841TIP3   OH232465   3.949   7.790   1.907
10841TIP3    H132466   3.874   7.743   1.870
10841TIP3    H232467   3.927   7.801   1.999
10842TIP3   OH232468   0.987   2.329   1.700
10842TIP3    H132469   1.051   2.308   1.768
10842TIP3    H232470   1.018   2.411   1.662
10843TIP3   OH232471   7.341   6.481   3.119
10843TIP3    H132472   7.430   6.448   3.130
10843TIP3    H232473   7.347   6.543   3.046
10844TIP3   OH232474   6.756   1.339   4.884
10844TIP3    H132475   6.757   1.245   4.902
10844TIP3    H232476   6.770   1.346   4.790
10845TIP3   OH232477   5.698   6.916   1.827
10845TIP3    H132478   5.761   6.850   1.797
10845TIP3    H232479   5.709   6.990   1.767
10846TIP3   OH232480   5.841   0.434   5.810
10846TIP3    H132481   5.805   0.501   5.753
10846TIP3    H232482   5.818   0.351   5.767
10847TIP3   OH232483   3.187   2.910   0.938
10847TIP3    H132484   3.274   2.872   0.929
10847TIP3    H232485   3.136   2.841   0.981
10848TIP3   OH232486   2.931   6.568   6.213
10848TIP3    H132487   2.970   6.528   6.291
10848TIP3    H232488   2.852   6.517   6.196
10849TIP3   OH232489   3.395   3.846   5.529
10849TIP3    H132490   3.318   3.810   5.484
10849TIP3    H232491   3.451   3.878   5.459
10850TIP3   OH232492   4.145   0.037   2.986
10850TIP3    H132493   4.110   0.080   2.908
10850TIP3    H232494   4.166   0.109   3.045
10851TIP3   OH232495   6.585   0.566   0.896
10851TIP3    H132496   6.563   0.541   0.806
10851TIP3    H232497   6.680   0.552   0.902
10852TIP3   OH232498   3.673   1.907   1.413
10852TIP3    H132499   3.713   1.905   1.326
10852TIP3    H232500   3.680   1.998   1.441
10853TIP3   OH232501   0.796   3.640   3.868
10853TIP3    H132502   0.733   3.599   3.928
10853TIP3    H232503   0.747   3.712   3.827
10854TIP3   OH232504   6.439   0.808   4.886
10854TIP3    H132505   6.360   0.766   4.852
10854TIP3    H232506   6.510   0.749   4.863
10855TIP3   OH232507   3.824   5.139   3.597
10855TIP3    H132508   3.906   5.137   3.646
10855TIP3    H232509   3.756   5.148   3.663
10856TIP3   OH232510   4.653   7.101   0.835
10856TIP3    H132511   4.626   7.178   0.785
10856TIP3    H232512   4.572   7.063   0.867
10857TIP3   OH232513   8.251   4.039   6.504
10857TIP3    H132514   8.259   4.005   6.414
10857TIP3    H232515   8.164   4.009   6.532
10858TIP3   OH232516   4.792   1.694   1.490
10858TIP3    H132517   4.774   1.600   1.487
10858TIP3    H232518   4.712   1.734   1.457
10859TIP3   OH232519   6.403   6.454   3.163
10859TIP3    H132520   6.466   6.399   3.211
10859TIP3    H232521   6.366   6.511   3.229
10860TIP3   OH232522   7.728   1.860   5.201
10860TIP3    H132523   7.705   1.767   5.199
10860TIP3    H232524   7.704   1.889   5.290
10861TIP3   OH232525   2.540   2.200   3.225
10861TIP3    H132526   2.523   2.106   3.219
10861TIP3    H232527   2.633   2.209   3.206
10862TIP3   OH232528   5.839   1.275   1.992
10862TIP3    H132529   5.872   1.357   1.955
10862TIP3    H232530   5.879   1.207   1.938
10863TIP3   OH232531   0.611   0.723   1.920
10863TIP3    H132532   0.554   0.716   1.843
10863TIP3    H232533   0.580   0.801   1.965
10864TIP3   OH232534   4.985   6.778   5.893
10864TIP3    H132535   4.998   6.771   5.988
10864TIP3    H232536   5.042   6.710   5.856
10865TIP3   OH232537   6.563   5.378   1.266
10865TIP3    H132538   6.491   5.438   1.288
10865TIP3    H232539   6.525   5.316   1.204
10866TIP3   OH232540   1.877   0.960   1.899
10866TIP3    H132541   1.820   0.997   1.832
10866TIP3    H232542   1.951   0.922   1.850
10867TIP3   OH232543   8.219   5.997   4.658
10867TIP3    H132544   8.172   6.079   4.639
10867TIP3    H232545   8.150   5.932   4.672
10868TIP3   OH232546   2.467   3.523   6.683
10868TIP3    H132547   2.540   3.461   6.691
10868TIP3    H232548   2.484   3.589   6.750
10869TIP3   OH232549   0.680   7.343   3.234
10869TIP3    H132550   0.587   7.319   3.231
10869TIP3    H232551   0.700   7.370   3.144
10870TIP3   OH232552   6.347   4.813   3.324
10870TIP3    H132553   6.385   4.732   3.358
10870TIP3    H232554   6.389   4.824   3.238
10871TIP3   OH232555   3.275   0.905   2.639
10871TIP3    H132556   3.349   0.855   2.674
10871TIP3    H232557   3.207   0.839   2.624
10872TIP3   OH232558   6.990   2.458   5.901
10872TIP3    H132559   6.940   2.505   5.968
10872TIP3    H232560   6.924   2.424   5.841
10873TIP3   OH232561   0.146   3.314   1.878
10873TIP3    H132562   0.141   3.310   1.783
10873TIP3    H232563   0.078   3.377   1.903
10874TIP3   OH232564   2.386   0.216   4.664
10874TIP3    H132565   2.421   0.255   4.744
10874TIP3    H232566   2.314   0.274   4.639
10875TIP3   OH232567   8.036   4.926   5.511
10875TIP3    H132568   7.974   4.854   5.503
10875TIP3    H232569   8.068   4.940   5.422
10876TIP3   OH232570   2.881   7.259   4.891
10876TIP3    H132571   2.789   7.285   4.902
10876TIP3    H232572   2.922   7.334   4.849
10877TIP3   OH232573   3.897   6.120   6.717
10877TIP3    H132574   3.893   6.025   6.729
10877TIP3    H232575   3.862   6.134   6.629
10878TIP3   OH232576   1.631   0.129   3.113
10878TIP3    H132577   1.718   0.103   3.081
10878TIP3    H232578   1.636   0.119   3.208
10879TIP3   OH232579   8.220   3.444   4.862
10879TIP3    H132580   8.227   3.371   4.800
10879TIP3    H232581   8.173   3.512   4.814
10880TIP3   OH232582   1.759   3.278   1.753
10880TIP3    H132583   1.815   3.206   1.784
10880TIP3    H232584   1.740   3.256   1.662
10881TIP3   OH232585   6.360   0.413   2.531
10881TIP3    H132586   6.288   0.355   2.555
10881TIP3    H232587   6.318   0.496   2.508
10882TIP3   OH232588   4.578   0.493   2.012
10882TIP3    H132589   4.628   0.456   1.939
10882TIP3    H232590   4.602   0.439   2.087
10883TIP3   OH232591   8.059   1.177   6.648
10883TIP3    H132592   8.092   1.191   6.737
10883TIP3    H232593   8.071   1.083   6.632
10884TIP3   OH232594   5.948   7.433   3.430
10884TIP3    H132595   5.865   7.431   3.477
10884TIP3    H232596   5.993   7.353   3.455
10885TIP3   OH232597   3.721   6.477   2.149
10885TIP3    H132598   3.673   6.395   2.135
10885TIP3    H232599   3.812   6.450   2.159
10886TIP3   OH232600   1.123   3.821   3.098
10886TIP3    H132601   1.185   3.758   3.062
10886TIP3    H232602   1.149   3.830   3.190
10887TIP3   OH232603   5.382   3.656   5.658
10887TIP3    H132604   5.302   3.707   5.647
10887TIP3    H232605   5.361   3.571   5.619
10888TIP3   OH232606   6.351   1.984   3.625
10888TIP3    H132607   6.328   1.976   3.533
10888TIP3    H232608   6.336   2.076   3.646
10889TIP3   OH232609   7.362   4.514   2.046
10889TIP3    H132610   7.303   4.588   2.035
10889TIP3    H232611   7.448   4.553   2.061
10890TIP3   OH232612   6.415   3.697   5.311
10890TIP3    H132613   6.371   3.763   5.257
10890TIP3    H232614   6.350   3.674   5.377
10891TIP3   OH232615   1.012   4.397   3.249
10891TIP3    H132616   1.015   4.407   3.153
10891TIP3    H232617   1.013   4.487   3.282
10892TIP3   OH232618   8.229   4.566   0.950
10892TIP3    H132619   8.251   4.488   1.001
10892TIP3    H232620   8.165   4.613   1.004
10893TIP3   OH232621   5.980   1.151   2.505
10893TIP3    H132622   5.887   1.131   2.511
10893TIP3    H232623   6.023   1.065   2.511
10894TIP3   OH232624   5.780   5.390   2.881
10894TIP3    H132625   5.793   5.296   2.892
10894TIP3    H232626   5.702   5.398   2.826
10895TIP3   OH232627   3.970   7.577   1.539
10895TIP3    H132628   4.052   7.584   1.589
10895TIP3    H232629   3.901   7.582   1.606
10896TIP3   OH232630   8.064   2.361   3.085
10896TIP3    H132631   7.990   2.321   3.041
10896TIP3    H232632   8.083   2.303   3.159
10897TIP3   OH232633   7.668   4.551   4.234
10897TIP3    H132634   7.762   4.554   4.252
10897TIP3    H232635   7.658   4.485   4.165
10898TIP3   OH232636   6.415   4.699   1.155
10898TIP3    H132637   6.321   4.712   1.137
10898TIP3    H232638   6.454   4.785   1.140
10899TIP3   OH232639   4.241   7.740   0.616
10899TIP3    H132640   4.279   7.744   0.528
10899TIP3    H232641   4.307   7.779   0.673
10900TIP3   OH232642   0.648   4.885   6.308
10900TIP3    H132643   0.554   4.893   6.292
10900TIP3    H232644   0.679   4.826   6.239
10901TIP3   OH232645   7.496   7.380   0.253
10901TIP3    H132646   7.570   7.392   0.194
10901TIP3    H232647   7.437   7.321   0.206
10902TIP3   OH232648   5.566   5.382   2.704
10902TIP3    H132649   5.492   5.430   2.668
10902TIP3    H232650   5.570   5.301   2.654
10903TIP3   OH232651   8.003   7.645   2.253
10903TIP3    H132652   7.960   7.707   2.194
10903TIP3    H232653   7.933   7.615   2.311
10904TIP3   OH232654   4.593   7.643   5.247
10904TIP3    H132655   4.587   7.716   5.186
10904TIP3    H232656   4.538   7.668   5.321
10905TIP3   OH232657   0.858   0.847   4.153
10905TIP3    H132658   0.790   0.914   4.162
10905TIP3    H232659   0.880   0.848   4.059
10906TIP3   OH232660   6.280   3.927   5.172
10906TIP3    H132661   6.280   3.927   5.077
10906TIP3    H232662   6.372   3.928   5.197
10907TIP3   OH232663   1.580   3.367   2.607
10907TIP3    H132664   1.640   3.429   2.565
10907TIP3    H232665   1.514   3.350   2.540
10908TIP3   OH232666   0.507   3.255   0.837
10908TIP3    H132667   0.426   3.220   0.799
10908TIP3    H232668   0.542   3.313   0.769
10909TIP3   OH232669   0.972   4.573   1.507
10909TIP3    H132670   0.911   4.530   1.447
10909TIP3    H232671   0.933   4.659   1.523
10910TIP3   OH232672   3.531   5.418   1.072
10910TIP3    H132673   3.586   5.384   1.142
10910TIP3    H232674   3.592   5.449   1.005
10911TIP3   OH232675   7.399   5.826   0.121
10911TIP3    H132676   7.481   5.779   0.136
10911TIP3    H232677   7.331   5.764   0.149
10912TIP3   OH232678   4.041   1.863   2.208
10912TIP3    H132679   4.002   1.779   2.231
10912TIP3    H232680   4.135   1.847   2.209
10913TIP3   OH232681   0.928   7.131   6.388
10913TIP3    H132682   0.913   7.197   6.455
10913TIP3    H232683   0.843   7.121   6.344
10914TIP3   OH232684   4.468   4.151   3.663
10914TIP3    H132685   4.374   4.135   3.673
10914TIP3    H232686   4.478   4.176   3.571
10915TIP3   OH232687   4.983   7.021   6.240
10915TIP3    H132688   4.907   7.028   6.298
10915TIP3    H232689   4.965   7.085   6.171
10916TIP3   OH232690   7.340   7.656   6.447
10916TIP3    H132691   7.362   7.722   6.513
10916TIP3    H232692   7.388   7.684   6.369
10917TIP3   OH232693   6.209   4.808   5.906
10917TIP3    H132694   6.246   4.728   5.869
10917TIP3    H232695   6.114   4.797   5.895
10918TIP3   OH232696   3.226   1.125   6.252
10918TIP3    H132697   3.246   1.173   6.332
10918TIP3    H232698   3.264   1.178   6.182
10919TIP3   OH232699   2.299   7.649   6.006
10919TIP3    H132700   2.334   7.561   6.019
10919TIP3    H232701   2.258   7.647   5.920
10920TIP3   OH232702   1.206   7.236   2.978
10920TIP3    H132703   1.238   7.149   3.001
10920TIP3    H232704   1.285   7.289   2.969
10921TIP3   OH232705   4.992   6.406   0.434
10921TIP3    H132706   4.953   6.446   0.511
10921TIP3    H232707   4.979   6.471   0.364
10922TIP3   OH232708   0.785   2.313   0.855
10922TIP3    H132709   0.792   2.368   0.933
10922TIP3    H232710   0.868   2.326   0.809
10923TIP3   OH232711   5.190   4.081   1.027
10923TIP3    H132712   5.260   4.087   0.963
10923TIP3    H232713   5.225   4.026   1.097
10924TIP3   OH232714   4.785   7.831   3.757
10924TIP3    H132715   4.840   7.875   3.693
10924TIP3    H232716   4.847   7.792   3.819
10925TIP3   OH232717   7.466   3.781   0.797
10925TIP3    H132718   7.520   3.852   0.831
10925TIP3    H232719   7.399   3.825   0.744
10926TIP3   OH232720   3.051   7.435   4.732
10926TIP3    H132721   3.027   7.397   4.648
10926TIP3    H232722   3.146   7.427   4.736
10927TIP3   OH232723   6.206   0.897   0.054
10927TIP3    H132724   6.129   0.939   0.013
10927TIP3    H232725   6.249   0.968   0.101
10928TIP3   OH232726   3.962   0.628   1.155
10928TIP3    H132727   3.929   0.539   1.169
10928TIP3    H232728   4.034   0.637   1.218
10929TIP3   OH232729   0.737   4.446   5.102
10929TIP3    H132730   0.797   4.381   5.139
10929TIP3    H232731   0.738   4.427   5.008
10930TIP3   OH232732   0.082   4.540   0.049
10930TIP3    H132733   0.044   4.622   0.081
10930TIP3    H232734   0.117   4.563  -0.038
10931TIP3   OH232735   1.324   7.787   6.102
10931TIP3    H132736   1.287   7.722   6.043
10931TIP3    H232737   1.249   7.828   6.144
10932TIP3   OH232738   5.637   6.511   4.746
10932TIP3    H132739   5.703   6.545   4.807
10932TIP3    H232740   5.586   6.588   4.720
10933TIP3   OH232741   7.752   3.398   0.111
10933TIP3    H132742   7.842   3.412   0.140
10933TIP3    H232743   7.732   3.308   0.139
10934TIP3   OH232744   7.566   0.662   4.785
10934TIP3    H132745   7.658   0.688   4.780
10934TIP3    H232746   7.569   0.566   4.789
10935TIP3   OH232747   6.367   6.223   6.104
10935TIP3    H132748   6.280   6.254   6.078
10935TIP3    H232749   6.414   6.209   6.022
10936TIP3   OH232750   0.606   5.594   3.147
10936TIP3    H132751   0.651   5.592   3.063
10936TIP3    H232752   0.671   5.626   3.210
10937TIP3   OH232753   6.598   5.634   6.194
10937TIP3    H132754   6.627   5.603   6.280
10937TIP3    H232755   6.676   5.672   6.155
10938TIP3   OH232756   0.540   4.645   0.623
10938TIP3    H132757   0.458   4.642   0.573
10938TIP3    H232758   0.577   4.557   0.614
10939TIP3   OH232759   4.634   5.290   3.027
10939TIP3    H132760   4.645   5.353   3.098
10939TIP3    H232761   4.708   5.230   3.036
10940TIP3   OH232762   4.694   3.054   6.673
10940TIP3    H132763   4.623   3.069   6.736
10940TIP3    H232764   4.679   2.965   6.642
10941TIP3   OH232765   3.591   1.472   2.614
10941TIP3    H132766   3.560   1.429   2.535
10941TIP3    H232767   3.622   1.557   2.584
10942TIP3   OH232768   5.517   0.058   4.057
10942TIP3    H132769   5.494   0.115   3.984
10942TIP3    H232770   5.595   0.099   4.095
10943TIP3   OH232771   5.597   2.860   6.004
10943TIP3    H132772   5.588   2.955   6.003
10943TIP3    H232773   5.508   2.826   5.998
10944TIP3   OH232774   6.029   4.443   3.095
10944TIP3    H132775   6.106   4.470   3.144
10944TIP3    H232776   5.972   4.520   3.094
10945TIP3   OH232777   0.461   4.530   1.214
10945TIP3    H132778   0.505   4.594   1.158
10945TIP3    H232779   0.411   4.584   1.276
10946TIP3   OH232780   6.537   6.649   6.038
10946TIP3    H132781   6.459   6.609   6.078
10946TIP3    H232782   6.519   6.743   6.040
10947TIP3   OH232783   6.567   1.883   6.678
10947TIP3    H132784   6.560   1.906   6.770
10947TIP3    H232785   6.552   1.788   6.675
10948TIP3   OH232786   1.140   3.540   3.442
10948TIP3    H132787   1.060   3.528   3.494
10948TIP3    H232788   1.172   3.451   3.426
10949TIP3   OH232789   4.212   0.721   5.336
10949TIP3    H132790   4.286   0.668   5.308
10949TIP3    H232791   4.200   0.785   5.267
10950TIP3   OH232792   6.760   1.172   1.015
10950TIP3    H132793   6.681   1.128   1.046
10950TIP3    H232794   6.782   1.234   1.084
10951TIP3   OH232795   7.011   5.265   2.708
10951TIP3    H132796   6.924   5.235   2.681
10951TIP3    H232797   7.003   5.282   2.802
10952TIP3   OH232798   7.127   4.912   3.121
10952TIP3    H132799   7.110   4.994   3.169
10952TIP3    H232800   7.212   4.883   3.154
10953TIP3   OH232801   7.877   5.809   1.533
10953TIP3    H132802   7.935   5.884   1.519
10953TIP3    H232803   7.935   5.733   1.529
10954TIP3   OH232804   2.131   4.286   0.911
10954TIP3    H132805   2.177   4.243   0.839
10954TIP3    H232806   2.062   4.337   0.869
10955TIP3   OH232807   5.846   6.419   4.967
10955TIP3    H132808   5.767   6.368   4.988
10955TIP3    H232809   5.863   6.469   5.047
10956TIP3   OH232810   0.847   3.951   0.441
10956TIP3    H132811   0.919   3.930   0.501
10956TIP3    H232812   0.795   3.871   0.436
10957TIP3   OH232813   5.189   3.910   3.367
10957TIP3    H132814   5.196   3.857   3.447
10957TIP3    H232815   5.241   3.862   3.302
10958TIP3   OH232816   6.686   5.837   0.120
10958TIP3    H132817   6.654   5.911   0.171
10958TIP3    H232818   6.660   5.856   0.030
10959TIP3   OH232819   3.906   6.089   6.295
10959TIP3    H132820   3.980   6.058   6.348
10959TIP3    H232821   3.933   6.075   6.205
10960TIP3   OH232822   1.259   4.806   5.521
10960TIP3    H132823   1.200   4.810   5.446
10960TIP3    H232824   1.291   4.715   5.522
10961TIP3   OH232825   6.747   6.243   2.746
10961TIP3    H132826   6.842   6.227   2.744
10961TIP3    H232827   6.729   6.289   2.664
10962TIP3   OH232828   4.888   4.368   0.401
10962TIP3    H132829   4.838   4.322   0.333
10962TIP3    H232830   4.910   4.299   0.465
10963TIP3   OH232831   4.033   5.876   0.938
10963TIP3    H132832   4.055   5.816   0.866
10963TIP3    H232833   3.990   5.950   0.896
10964TIP3   OH232834   4.157   6.223   0.355
10964TIP3    H132835   4.204   6.182   0.428
10964TIP3    H232836   4.065   6.213   0.377
10965TIP3   OH232837   3.883   5.536   2.897
10965TIP3    H132838   3.948   5.518   2.965
10965TIP3    H232839   3.815   5.470   2.911
10966TIP3   OH232840   3.344   1.762   1.083
10966TIP3    H132841   3.407   1.690   1.086
10966TIP3    H232842   3.385   1.831   1.134
10967TIP3   OH232843   2.368   1.140   0.125
10967TIP3    H132844   2.309   1.085   0.177
10967TIP3    H232845   2.311   1.205   0.085
10968TIP3   OH232846   3.124   2.961   0.218
10968TIP3    H132847   3.079   3.008   0.148
10968TIP3    H232848   3.144   3.028   0.283
10969TIP3   OH232849   5.257   2.847   5.528
10969TIP3    H132850   5.186   2.905   5.553
10969TIP3    H232851   5.219   2.789   5.462
10970TIP3   OH232852   4.110   6.134   4.543
10970TIP3    H132853   4.040   6.195   4.518
10970TIP3    H232854   4.123   6.150   4.636
10971TIP3   OH232855   8.022   7.476   3.940
10971TIP3    H132856   8.116   7.461   3.946
10971TIP3    H232857   7.984   7.389   3.930
10972TIP3   OH232858   7.436   7.830   5.380
10972TIP3    H132859   7.421   7.908   5.433
10972TIP3    H232860   7.350   7.787   5.375
10973TIP3   OH232861   2.829   6.159   2.017
10973TIP3    H132862   2.841   6.251   1.996
10973TIP3    H232863   2.918   6.123   2.021
10974TIP3   OH232864   1.504   3.111   1.947
10974TIP3    H132865   1.422   3.106   1.997
10974TIP3    H232866   1.523   3.205   1.943
10975TIP3   OH232867   5.465   1.715   3.394
10975TIP3    H132868   5.502   1.633   3.427
10975TIP3    H232869   5.465   1.705   3.299
10976TIP3   OH232870   7.474   1.425   0.843
10976TIP3    H132871   7.545   1.461   0.789
10976TIP3    H232872   7.516   1.359   0.897
10977TIP3   OH232873   4.260   1.616   1.135
10977TIP3    H132874   4.304   1.598   1.219
10977TIP3    H232875   4.326   1.661   1.083
10978TIP3   OH232876   7.905   0.073   0.752
10978TIP3    H132877   7.964   0.139   0.717
10978TIP3    H232878   7.840   0.059   0.683
10979TIP3   OH232879   7.959   7.498   1.729
10979TIP3    H132880   8.027   7.497   1.797
10979TIP3    H232881   7.881   7.464   1.772
10980TIP3   OH232882   1.340   6.155   1.990
10980TIP3    H132883   1.326   6.100   2.067
10980TIP3    H232884   1.410   6.215   2.015
10981TIP3   OH232885   1.305   6.494   5.997
10981TIP3    H132886   1.226   6.448   5.971
10981TIP3    H232887   1.278   6.584   6.009
10982TIP3   OH232888   4.805   0.734   2.835
10982TIP3    H132889   4.715   0.759   2.818
10982TIP3    H232890   4.842   0.717   2.748
10983TIP3   OH232891   7.607   4.046   6.200
10983TIP3    H132892   7.570   4.125   6.240
10983TIP3    H232893   7.533   3.987   6.191
10984TIP3   OH232894   7.063   4.820   4.814
10984TIP3    H132895   7.043   4.726   4.820
10984TIP3    H232896   7.113   4.829   4.733
10985TIP3   OH232897   2.764   6.234   5.332
10985TIP3    H132898   2.678   6.269   5.307
10985TIP3    H232899   2.748   6.184   5.411
10986TIP3   OH232900   7.356   4.802   3.232
10986TIP3    H132901   7.400   4.872   3.279
10986TIP3    H232902   7.426   4.744   3.203
10987TIP3   OH232903   3.433   4.424   6.638
10987TIP3    H132904   3.471   4.489   6.580
10987TIP3    H232905   3.369   4.378   6.584
10988TIP3   OH232906   5.577   6.414  -0.014
10988TIP3    H132907   5.647   6.417  -0.079
10988TIP3    H232908   5.622   6.421   0.070
10989TIP3   OH232909   3.825   0.036   1.911
10989TIP3    H132910   3.858   0.097   1.977
10989TIP3    H232911   3.812   0.090   1.833
10990TIP3   OH232912   6.762   2.162   1.352
10990TIP3    H132913   6.697   2.232   1.345
10990TIP3    H232914   6.711   2.085   1.378
10991TIP3   OH232915   2.469   5.399   1.598
10991TIP3    H132916   2.417   5.477   1.614
10991TIP3    H232917   2.489   5.365   1.685
10992TIP3   OH232918   3.814   4.355   4.064
10992TIP3    H132919   3.900   4.386   4.039
10992TIP3    H232920   3.756   4.381   3.992
10993TIP3   OH232921   1.301   3.360   6.144
10993TIP3    H132922   1.253   3.379   6.063
10993TIP3    H232923   1.350   3.280   6.125
10994TIP3   OH232924   6.144   0.936   3.469
10994TIP3    H132925   6.076   0.873   3.491
10994TIP3    H232926   6.107   1.021   3.492
10995TIP3   OH232927   5.021   1.773   0.178
10995TIP3    H132928   5.108   1.785   0.215
10995TIP3    H232929   4.998   1.682   0.198
10996TIP3   OH232930   6.760   2.588   3.701
10996TIP3    H132931   6.683   2.615   3.750
10996TIP3    H232932   6.726   2.529   3.633
10997TIP3   OH232933   1.196   7.040   5.017
10997TIP3    H132934   1.166   7.027   5.107
10997TIP3    H232935   1.117   7.039   4.965
10998TIP3   OH232936   7.746   1.462   1.174
10998TIP3    H132937   7.759   1.538   1.117
10998TIP3    H232938   7.809   1.474   1.245
10999TIP3   OH232939   7.115   2.317   4.097
10999TIP3    H132940   7.027   2.341   4.070
10999TIP3    H232941   7.156   2.400   4.123
11000TIP3   OH232942   1.299   2.388   4.136
11000TIP3    H132943   1.385   2.421   4.111
11000TIP3    H232944   1.294   2.404   4.231
11001TIP3   OH232945   0.163   7.284   2.730
11001TIP3    H132946   0.087   7.240   2.769
11001TIP3    H232947   0.210   7.320   2.805
11002TIP3   OH232948   3.374   6.867   1.221
11002TIP3    H132949   3.399   6.921   1.146
11002TIP3    H232950   3.457   6.832   1.254
11003TIP3   OH232951   3.441   3.318   0.189
11003TIP3    H132952   3.414   3.334   0.099
11003TIP3    H232953   3.373   3.360   0.243
11004TIP3   OH232954   0.796   7.413   0.313
11004TIP3    H132955   0.747   7.442   0.390
11004TIP3    H232956   0.730   7.407   0.243
11005TIP3   OH232957   3.653   6.940   2.624
11005TIP3    H132958   3.674   6.856   2.665
11005TIP3    H232959   3.571   6.924   2.577
11006TIP3   OH232960   4.803   0.458   2.840
11006TIP3    H132961   4.890   0.450   2.879
11006TIP3    H232962   4.802   0.547   2.803
11007TIP3   OH232963   2.385   1.984   1.345
11007TIP3    H132964   2.333   2.022   1.274
11007TIP3    H232965   2.474   2.016   1.329
11008TIP3   OH232966   0.626   3.468   2.371
11008TIP3    H132967   0.565   3.530   2.410
11008TIP3    H232968   0.620   3.485   2.277
11009TIP3   OH232969   0.867   7.230   0.554
11009TIP3    H132970   0.880   7.174   0.478
11009TIP3    H232971   0.835   7.171   0.622
11010TIP3   OH232972   1.584   2.375   4.147
11010TIP3    H132973   1.601   2.282   4.159
11010TIP3    H232974   1.632   2.417   4.219
11011TIP3   OH232975   2.370   4.895   1.619
11011TIP3    H132976   2.364   4.929   1.530
11011TIP3    H232977   2.368   4.974   1.674
11012TIP3   OH232978   7.638   3.320   5.209
11012TIP3    H132979   7.672   3.236   5.242
11012TIP3    H232980   7.687   3.386   5.257
11013TIP3   OH232981   1.041   6.788   0.533
11013TIP3    H132982   1.016   6.863   0.479
11013TIP3    H232983   0.962   6.734   0.535
11014TIP3   OH232984   0.357   5.677   3.571
11014TIP3    H132985   0.418   5.604   3.579
11014TIP3    H232986   0.311   5.680   3.656
11015TIP3   OH232987   1.999   3.568   3.153
11015TIP3    H132988   2.034   3.490   3.110
11015TIP3    H232989   1.904   3.563   3.139
11016TIP3   OH232990   7.362   1.706   5.986
11016TIP3    H132991   7.425   1.666   5.926
11016TIP3    H232992   7.414   1.770   6.035
11017TIP3   OH232993   1.242   0.309   6.095
11017TIP3    H132994   1.235   0.392   6.142
11017TIP3    H232995   1.326   0.314   6.049
11018TIP3   OH232996   5.453   2.127   5.649
11018TIP3    H132997   5.542   2.105   5.624
11018TIP3    H232998   5.431   2.064   5.718
11019TIP3   OH232999   5.142   5.004   4.345
11019TIP3    H133000   5.203   4.945   4.301
11019TIP3    H233001   5.088   4.946   4.399
11020TIP3   OH233002   4.332   5.193   3.498
11020TIP3    H133003   4.360   5.284   3.506
11020TIP3    H233004   4.365   5.166   3.412
11021TIP3   OH233005   1.455   2.099   6.493
11021TIP3    H133006   1.458   2.113   6.587
11021TIP3    H233007   1.493   2.178   6.456
11022TIP3   OH233008   3.881   0.497   3.917
11022TIP3    H133009   3.970   0.531   3.915
11022TIP3    H233010   3.827   0.567   3.880
11023TIP3   OH233011   7.164   2.039   4.488
11023TIP3    H133012   7.083   2.079   4.457
11023TIP3    H233013   7.154   1.946   4.468
11024TIP3   OH233014   5.519   1.281   2.429
11024TIP3    H133015   5.495   1.215   2.364
11024TIP3    H233016   5.438   1.299   2.477
11025TIP3   OH233017   4.613   0.564   2.587
11025TIP3    H133018   4.676   0.535   2.520
11025TIP3    H233019   4.637   0.655   2.604
11026TIP3   OH233020   6.743   2.135   6.649
11026TIP3    H133021   6.704   2.048   6.637
11026TIP3    H233022   6.816   2.137   6.587
11027TIP3   OH233023   3.161   5.681   1.899
11027TIP3    H133024   3.164   5.721   1.812
11027TIP3    H233025   3.167   5.756   1.959
11028TIP3   OH233026   7.971   0.517   3.532
11028TIP3    H133027   8.056   0.484   3.504
11028TIP3    H233028   7.931   0.444   3.579
11029TIP3   OH233029   0.416   4.099   3.476
11029TIP3    H133030   0.490   4.040   3.462
11029TIP3    H233031   0.386   4.078   3.565
11030TIP3   OH233032   3.399   0.076   4.440
11030TIP3    H133033   3.367   0.048   4.526
11030TIP3    H233034   3.459   0.148   4.460
11031TIP3   OH233035   6.118   5.423   5.272
11031TIP3    H133036   6.083   5.428   5.361
11031TIP3    H233037   6.168   5.504   5.262
11032TIP3   OH233038   5.132   2.771   3.565
11032TIP3    H133039   5.139   2.722   3.483
11032TIP3    H233040   5.065   2.837   3.548
11033TIP3   OH233041   2.760   1.135   6.720
11033TIP3    H133042   2.791   1.106   6.634
11033TIP3    H233043   2.689   1.196   6.700
11034TIP3   OH233044   2.002   1.478   1.445
11034TIP3    H133045   2.017   1.426   1.525
11034TIP3    H233046   2.055   1.557   1.457
11035TIP3   OH233047   4.705   5.028   4.958
11035TIP3    H133048   4.655   4.983   4.890
11035TIP3    H233049   4.685   4.982   5.039
11036TIP3   OH233050   0.416   5.616   6.643
11036TIP3    H133051   0.444   5.706   6.663
11036TIP3    H233052   0.364   5.625   6.563
11037TIP3   OH233053   3.193   4.169   4.108
11037TIP3    H133054   3.199   4.259   4.074
11037TIP3    H233055   3.156   4.118   4.036
11038TIP3   OH233056   7.655   5.746   1.136
11038TIP3    H133057   7.641   5.663   1.181
11038TIP3    H233058   7.572   5.793   1.145
11039TIP3   OH233059   4.576   3.392   0.288
11039TIP3    H133060   4.561   3.486   0.280
11039TIP3    H233061   4.552   3.371   0.378
11040TIP3   OH233062   0.949   4.744   6.492
11040TIP3    H133063   1.013   4.815   6.499
11040TIP3    H233064   0.935   4.733   6.398
11041TIP3   OH233065   1.795   2.264   3.070
11041TIP3    H133066   1.818   2.217   2.990
11041TIP3    H233067   1.867   2.246   3.130
11042TIP3   OH233068   6.861   7.391   4.292
11042TIP3    H133069   6.773   7.428   4.292
11042TIP3    H233070   6.847   7.297   4.282
11043TIP3   OH233071   0.284   6.191   3.999
11043TIP3    H133072   0.272   6.225   3.910
11043TIP3    H233073   0.239   6.107   3.998
11044TIP3   OH233074   3.928   0.052   0.146
11044TIP3    H133075   3.856   0.057   0.083
11044TIP3    H233076   3.971  -0.031   0.127
11045TIP3   OH233077   5.706   5.449   4.263
11045TIP3    H133078   5.676   5.447   4.172
11045TIP3    H233079   5.780   5.388   4.265
11046TIP3   OH233080   0.184   4.720   2.229
11046TIP3    H133081   0.227   4.756   2.151
11046TIP3    H233082   0.104   4.679   2.195
11047TIP3   OH233083   6.776   5.189   5.455
11047TIP3    H133084   6.682   5.178   5.440
11047TIP3    H233085   6.785   5.282   5.476
11048TIP3   OH233086   4.348   1.610   1.410
11048TIP3    H133087   4.354   1.693   1.457
11048TIP3    H233088   4.431   1.565   1.429
11049TIP3   OH233089   3.380   0.294   6.788
11049TIP3    H133090   3.421   0.306   6.702
11049TIP3    H233091   3.422   0.215   6.823
11050TIP3   OH233092   3.989   4.738   0.726
11050TIP3    H133093   3.987   4.677   0.800
11050TIP3    H233094   4.078   4.733   0.692
11051TIP3   OH233095   4.311   0.349   3.880
11051TIP3    H133096   4.325   0.258   3.906
11051TIP3    H233097   4.317   0.347   3.784
11052TIP3   OH233098   4.663   4.825   5.172
11052TIP3    H133099   4.697   4.889   5.235
11052TIP3    H233100   4.581   4.795   5.210
11053TIP3   OH233101   0.512   4.683   1.676
11053TIP3    H133102   0.514   4.768   1.719
11053TIP3    H233103   0.499   4.621   1.748
11054TIP3   OH233104   1.426   7.650   5.239
11054TIP3    H133105   1.490   7.721   5.244
11054TIP3    H233106   1.406   7.631   5.331
11055TIP3   OH233107   3.991   6.278   5.849
11055TIP3    H133108   4.062   6.258   5.910
11055TIP3    H233109   3.911   6.263   5.900
11056TIP3   OH233110   4.286   5.458   2.367
11056TIP3    H133111   4.336   5.486   2.443
11056TIP3    H233112   4.268   5.365   2.383
11057TIP3   OH233113   6.863   7.609   0.937
11057TIP3    H133114   6.951   7.570   0.941
11057TIP3    H233115   6.879   7.702   0.922
11058TIP3   OH233116   0.222   5.545   5.136
11058TIP3    H133117   0.160   5.597   5.085
11058TIP3    H233118   0.178   5.530   5.220
11059TIP3   OH233119   6.477   1.028   2.757
11059TIP3    H133120   6.512   1.103   2.710
11059TIP3    H233121   6.528   1.024   2.838
11060TIP3   OH233122   6.837   1.542   2.244
11060TIP3    H133123   6.795   1.619   2.206
11060TIP3    H233124   6.919   1.575   2.282
11061TIP3   OH233125   7.736   3.921   4.216
11061TIP3    H133126   7.743   4.013   4.243
11061TIP3    H233127   7.797   3.915   4.142
11062TIP3   OH233128   8.057   6.824   1.534
11062TIP3    H133129   8.000   6.751   1.560
11062TIP3    H233130   8.132   6.818   1.593
11063TIP3   OH233131   3.209   5.012   3.349
11063TIP3    H133132   3.264   5.007   3.271
11063TIP3    H233133   3.263   4.977   3.419
11064TIP3   OH233134   1.266   5.229   2.331
11064TIP3    H133135   1.297   5.139   2.335
11064TIP3    H233136   1.196   5.233   2.397
11065TIP3   OH233137   4.977   0.283   1.740
11065TIP3    H133138   4.945   0.204   1.696
11065TIP3    H233139   4.915   0.298   1.811
11066TIP3   OH233140   8.018   6.333   4.194
11066TIP3    H133141   8.104   6.366   4.165
11066TIP3    H233142   7.967   6.328   4.114
11067TIP3   OH233143   4.367   5.045   5.504
11067TIP3    H133144   4.341   4.996   5.426
11067TIP3    H233145   4.417   5.119   5.470
11068TIP3   OH233146   5.234   0.792   4.816
11068TIP3    H133147   5.232   0.744   4.899
11068TIP3    H233148   5.142   0.804   4.793
11069TIP3   OH233149   1.471   4.823   1.175
11069TIP3    H133150   1.515   4.876   1.109
11069TIP3    H233151   1.406   4.881   1.214
11070TIP3   OH233152   6.683   5.200   2.564
11070TIP3    H133153   6.741   5.126   2.585
11070TIP3    H233154   6.628   5.168   2.493
11071TIP3   OH233155   3.357   6.678   3.137
11071TIP3    H133156   3.447   6.656   3.161
11071TIP3    H233157   3.328   6.606   3.081
11072TIP3   OH233158   4.447   1.042   5.254
11072TIP3    H133159   4.541   1.028   5.261
11072TIP3    H233160   4.438   1.134   5.229
11073TIP3   OH233161   2.602   1.247   3.241
11073TIP3    H133162   2.647   1.279   3.162
11073TIP3    H233163   2.565   1.163   3.215
11074TIP3   OH233164   0.104   0.491   2.585
11074TIP3    H133165   0.030   0.432   2.572
11074TIP3    H233166   0.067   0.578   2.569
11075TIP3   OH233167   6.771   3.621   6.446
11075TIP3    H133168   6.853   3.655   6.481
11075TIP3    H233169   6.714   3.698   6.441
11076TIP3   OH233170   6.037   3.532   3.528
11076TIP3    H133171   5.979   3.598   3.567
11076TIP3    H233172   6.085   3.579   3.460
11077TIP3   OH233173   1.859   1.379   4.430
11077TIP3    H133174   1.926   1.433   4.472
11077TIP3    H233175   1.826   1.322   4.500
11078TIP3   OH233176   3.934   3.247  -0.006
11078TIP3    H133177   3.984   3.235   0.075
11078TIP3    H233178   3.891   3.162  -0.020
11079TIP3   OH233179   2.652   6.099   0.110
11079TIP3    H133180   2.696   6.028   0.157
11079TIP3    H233181   2.651   6.069   0.019
11080TIP3   OH233182   1.499   3.409   2.884
11080TIP3    H133183   1.534   3.378   2.800
11080TIP3    H233184   1.491   3.330   2.937
11081TIP3   OH233185   0.905   4.472   5.743
11081TIP3    H133186   0.947   4.541   5.691
11081TIP3    H233187   0.858   4.519   5.812
11082TIP3   OH233188   5.866   4.765   5.849
11082TIP3    H133189   5.788   4.820   5.840
11082TIP3    H233190   5.885   4.766   5.942
11083TIP3   OH233191   6.163   5.804   6.549
11083TIP3    H133192   6.142   5.725   6.500
11083TIP3    H233193   6.116   5.874   6.503
11084TIP3   OH233194   3.371   2.234   4.896
11084TIP3    H133195   3.440   2.285   4.853
11084TIP3    H233196   3.368   2.268   4.985
11085TIP3   OH233197   2.947   4.414   5.467
11085TIP3    H133198   2.914   4.325   5.453
11085TIP3    H233199   2.869   4.469   5.468
11086TIP3   OH233200   4.687   1.954   3.518
11086TIP3    H133201   4.704   1.880   3.459
11086TIP3    H233202   4.747   1.942   3.591
11087TIP3   OH233203   2.389   1.962   3.316
11087TIP3    H133204   2.437   1.882   3.293
11087TIP3    H233205   2.321   1.968   3.249
11088TIP3   OH233206   8.060   5.620   2.456
11088TIP3    H133207   8.009   5.574   2.523
11088TIP3    H233208   8.110   5.552   2.412
11089TIP3   OH233209   2.257   4.703   3.664
11089TIP3    H133210   2.246   4.736   3.575
11089TIP3    H233211   2.175   4.659   3.684
11090TIP3   OH233212   5.856   2.959   6.755
11090TIP3    H133213   5.808   3.041   6.759
11090TIP3    H233214   5.899   2.960   6.670
11091TIP3   OH233215   7.941   6.509   0.637
11091TIP3    H133216   7.857   6.521   0.681
11091TIP3    H233217   7.960   6.416   0.646
11092TIP3   OH233218   3.411   1.155   6.694
11092TIP3    H133219   3.377   1.198   6.614
11092TIP3    H233220   3.404   1.062   6.675
11093TIP3   OH233221   5.341   6.783   3.670
11093TIP3    H133222   5.318   6.849   3.605
11093TIP3    H233223   5.383   6.713   3.620
11094TIP3   OH233224   3.295   7.653   6.121
11094TIP3    H133225   3.322   7.643   6.212
11094TIP3    H233226   3.374   7.685   6.077
11095TIP3   OH233227   7.259   0.557   6.640
11095TIP3    H133228   7.317   0.629   6.663
11095TIP3    H233229   7.317   0.490   6.604
11096TIP3   OH233230   3.218   3.118   0.426
11096TIP3    H133231   3.186   3.202   0.392
11096TIP3    H233232   3.312   3.120   0.408
11097TIP3   OH233233   0.365   1.121   4.623
11097TIP3    H133234   0.323   1.100   4.540
11097TIP3    H233235   0.449   1.160   4.598
11098TIP3   OH233236   0.849   5.510   2.661
11098TIP3    H133237   0.860   5.579   2.596
11098TIP3    H233238   0.883   5.431   2.619
11099TIP3   OH233239   7.729   5.135   3.994
11099TIP3    H133240   7.741   5.200   4.063
11099TIP3    H233241   7.732   5.051   4.040
11100TIP3   OH233242   4.600   4.256   3.405
11100TIP3    H133243   4.695   4.266   3.394
11100TIP3    H233244   4.575   4.192   3.338
11101TIP3   OH233245   3.792   0.573   3.244
11101TIP3    H133246   3.737   0.631   3.295
11101TIP3    H233247   3.830   0.629   3.176
11102TIP3   OH233248   4.892   3.771   2.045
11102TIP3    H133249   4.883   3.821   1.964
11102TIP3    H233250   4.963   3.814   2.092
11103TIP3   OH233251   5.417   4.882   6.409
11103TIP3    H133252   5.437   4.824   6.483
11103TIP3    H233253   5.456   4.837   6.334
11104TIP3   OH233254   4.299   0.087   1.380
11104TIP3    H133255   4.378   0.076   1.433
11104TIP3    H233256   4.228   0.059   1.437
11105TIP3   OH233257   5.558   2.898   3.724
11105TIP3    H133258   5.637   2.929   3.679
11105TIP3    H233259   5.515   2.841   3.660
11106TIP3   OH233260   3.079   1.498   4.002
11106TIP3    H133261   3.126   1.545   4.071
11106TIP3    H233262   3.147   1.458   3.948
11107TIP3   OH233263   1.089   0.446   5.086
11107TIP3    H133264   1.141   0.515   5.128
11107TIP3    H233265   1.009   0.440   5.139
11108TIP3   OH233266   7.173   7.616   1.366
11108TIP3    H133267   7.218   7.701   1.367
11108TIP3    H233268   7.080   7.637   1.374
11109TIP3   OH233269   3.566   5.112   1.896
11109TIP3    H133270   3.484   5.145   1.862
11109TIP3    H233271   3.588   5.172   1.968
11110TIP3   OH233272   3.211   4.826   4.179
11110TIP3    H133273   3.300   4.790   4.177
11110TIP3    H233274   3.221   4.916   4.149
11111TIP3   OH233275   1.960   1.391   0.434
11111TIP3    H133276   1.936   1.453   0.365
11111TIP3    H233277   2.005   1.444   0.499
11112TIP3   OH233278   0.405   4.253   2.007
11112TIP3    H133279   0.315   4.287   2.002
11112TIP3    H233280   0.394   4.163   2.037
11113TIP3   OH233281   6.743   0.587   3.309
11113TIP3    H133282   6.649   0.604   3.314
11113TIP3    H233283   6.781   0.643   3.377
11114TIP3   OH233284   5.360   3.177   2.784
11114TIP3    H133285   5.438   3.155   2.835
11114TIP3    H233286   5.393   3.188   2.695
11115TIP3   OH233287   5.285   0.836   0.360
11115TIP3    H133288   5.254   0.793   0.280
11115TIP3    H233289   5.295   0.766   0.423
11116TIP3   OH233290   6.669   2.379   5.149
11116TIP3    H133291   6.708   2.291   5.148
11116TIP3    H233292   6.656   2.400   5.056
11117TIP3   OH233293   5.477   7.612   6.335
11117TIP3    H133294   5.562   7.618   6.292
11117TIP3    H233295   5.438   7.531   6.301
11118TIP3   OH233296   1.940   2.589   2.688
11118TIP3    H133297   2.012   2.641   2.653
11118TIP3    H233298   1.926   2.624   2.776
11119TIP3   OH233299   7.221   5.624   4.356
11119TIP3    H133300   7.269   5.581   4.285
11119TIP3    H233301   7.227   5.563   4.430
11120TIP3   OH233302   4.915   7.536   2.582
11120TIP3    H133303   4.943   7.597   2.651
11120TIP3    H233304   4.996   7.492   2.555
11121TIP3   OH233305   7.527   6.202   2.356
11121TIP3    H133306   7.495   6.292   2.347
11121TIP3    H233307   7.549   6.193   2.448
11122TIP3   OH233308   0.358   6.767   3.696
11122TIP3    H133309   0.373   6.675   3.675
11122TIP3    H233310   0.420   6.815   3.641
11123TIP3   OH233311   6.119   0.566   2.173
11123TIP3    H133312   6.201   0.569   2.123
11123TIP3    H233313   6.144   0.594   2.261
11124TIP3   OH233314   5.489   3.866   1.128
11124TIP3    H133315   5.561   3.927   1.144
11124TIP3    H233316   5.430   3.879   1.203
11125TIP3   OH233317   4.910   3.032   0.359
11125TIP3    H133318   4.978   2.991   0.412
11125TIP3    H233319   4.839   3.050   0.420
11126TIP3   OH233320   5.267   5.149   5.488
11126TIP3    H133321   5.246   5.081   5.552
11126TIP3    H233322   5.184   5.195   5.474
11127TIP3   OH233323   1.927   1.420   3.252
11127TIP3    H133324   2.007   1.381   3.217
11127TIP3    H233325   1.898   1.481   3.185
11128TIP3   OH233326   1.355   4.040   6.619
11128TIP3    H133327   1.339   4.037   6.525
11128TIP3    H233328   1.285   3.988   6.658
11129TIP3   OH233329   5.999   0.191   2.916
11129TIP3    H133330   6.037   0.112   2.878
11129TIP3    H233331   5.949   0.161   2.991
11130TIP3   OH233332   2.669   0.152   2.225
11130TIP3    H133333   2.640   0.179   2.312
11130TIP3    H233334   2.602   0.091   2.195
11131TIP3   OH233335   0.935   4.837   5.779
11131TIP3    H133336   0.916   4.783   5.702
11131TIP3    H233337   0.973   4.917   5.744
11132TIP3   OH233338   1.973   1.269   3.850
11132TIP3    H133339   1.929   1.318   3.919
11132TIP3    H233340   2.065   1.295   3.857
11133TIP3   OH233341   4.889   7.732   2.355
11133TIP3    H133342   4.862   7.696   2.439
11133TIP3    H233343   4.935   7.660   2.312
11134TIP3   OH233344   7.455   7.160   6.187
11134TIP3    H133345   7.443   7.183   6.095
11134TIP3    H233346   7.397   7.220   6.235
11135TIP3   OH233347   4.373   6.654   3.923
11135TIP3    H133348   4.353   6.692   3.837
11135TIP3    H233349   4.359   6.560   3.911
11136TIP3   OH233350   3.574   4.883   2.055
11136TIP3    H133351   3.561   4.898   2.149
11136TIP3    H233352   3.584   4.971   2.018
11137TIP3   OH233353   1.625   4.585   3.597
11137TIP3    H133354   1.587   4.662   3.556
11137TIP3    H233355   1.575   4.575   3.678
11138TIP3   OH233356   5.476   4.126   2.642
11138TIP3    H133357   5.397   4.133   2.588
11138TIP3    H233358   5.533   4.196   2.610
11139TIP3   OH233359   6.036   7.545   2.557
11139TIP3    H133360   6.064   7.611   2.619
11139TIP3    H233361   6.034   7.463   2.608
11140TIP3   OH233362   7.852   0.736   1.363
11140TIP3    H133363   7.938   0.755   1.399
11140TIP3    H233364   7.868   0.673   1.293
11141TIP3   OH233365   1.677   5.182   2.487
11141TIP3    H133366   1.596   5.131   2.484
11141TIP3    H233367   1.746   5.119   2.467
11142TIP3   OH233368   4.074   4.693   6.502
11142TIP3    H133369   4.096   4.666   6.413
11142TIP3    H233370   4.051   4.611   6.547
11143TIP3   OH233371   7.100   2.662   1.194
11143TIP3    H133372   7.044   2.600   1.148
11143TIP3    H233373   7.076   2.747   1.157
11144TIP3   OH233374   7.039   6.183   2.678
11144TIP3    H133375   7.093   6.110   2.649
11144TIP3    H233376   7.075   6.260   2.633
11145TIP3   OH233377   5.876   3.110   3.812
11145TIP3    H133378   5.837   3.042   3.756
11145TIP3    H233379   5.897   3.182   3.752
11146TIP3   OH233380   8.095   1.315   6.373
11146TIP3    H133381   8.101   1.247   6.440
11146TIP3    H233382   8.047   1.386   6.414
11147TIP3   OH233383   4.441   5.184   4.999
11147TIP3    H133384   4.500   5.200   4.924
11147TIP3    H233385   4.366   5.139   4.961
11148TIP3   OH233386   1.731   3.185   1.298
11148TIP3    H133387   1.757   3.122   1.231
11148TIP3    H233388   1.753   3.142   1.381
11149TIP3   OH233389   8.164   2.763   5.368
11149TIP3    H133390   8.154   2.792   5.278
11149TIP3    H233391   8.210   2.679   5.362
11150TIP3   OH233392   0.356   6.581   6.729
11150TIP3    H133393   0.409   6.582   6.649
11150TIP3    H233394   0.410   6.536   6.793
11151TIP3   OH233395   6.607   6.751   1.128
11151TIP3    H133396   6.560   6.805   1.191
11151TIP3    H233397   6.697   6.786   1.129
11152TIP3   OH233398   6.910   2.056   5.976
11152TIP3    H133399   6.830   2.004   5.966
11152TIP3    H233400   6.895   2.107   6.056
11153TIP3   OH233401   0.631   2.118   2.849
11153TIP3    H133402   0.581   2.199   2.857
11153TIP3    H233403   0.603   2.080   2.766
11154TIP3   OH233404   7.719   5.241   5.187
11154TIP3    H133405   7.640   5.263   5.237
11154TIP3    H233406   7.691   5.171   5.128
11155TIP3   OH233407   6.079   0.672   3.683
11155TIP3    H133408   6.040   0.713   3.606
11155TIP3    H233409   6.072   0.578   3.666
11156TIP3   OH233410   6.795   7.782   6.400
11156TIP3    H133411   6.716   7.756   6.353
11156TIP3    H233412   6.863   7.723   6.366
11157TIP3   OH233413   4.260  -0.018   1.715
11157TIP3    H133414   4.313   0.040   1.770
11157TIP3    H233415   4.195  -0.054   1.775
11158TIP3   OH233416   4.091   7.678   5.485
11158TIP3    H133417   4.139   7.599   5.513
11158TIP3    H233418   4.000   7.661   5.511
11159TIP3   OH233419   3.479   6.130   4.165
11159TIP3    H133420   3.442   6.088   4.243
11159TIP3    H233421   3.467   6.224   4.181
11160TIP3   OH233422   0.271   1.881   1.474
11160TIP3    H133423   0.301   1.964   1.437
11160TIP3    H233424   0.252   1.901   1.566
11161TIP3   OH233425   2.602   3.395   6.229
11161TIP3    H133426   2.552   3.476   6.238
11161TIP3    H233427   2.662   3.396   6.303
11162TIP3   OH233428   7.076   5.430   2.462
11162TIP3    H133429   7.154   5.393   2.421
11162TIP3    H233430   7.059   5.374   2.537
11163TIP3   OH233431   6.343   1.251   2.874
11163TIP3    H133432   6.354   1.156   2.881
11163TIP3    H233433   6.284   1.262   2.800
11164TIP3   OH233434   2.641   5.958   1.626
11164TIP3    H133435   2.679   5.986   1.709
11164TIP3    H233436   2.652   6.033   1.568
11165TIP3   OH233437   0.202   2.104   6.485
11165TIP3    H133438   0.219   2.156   6.564
11165TIP3    H233439   0.278   2.047   6.477
11166TIP3   OH233440   1.246   6.142   4.132
11166TIP3    H133441   1.277   6.060   4.169
11166TIP3    H233442   1.202   6.186   4.205
11167TIP3   OH233443   3.127   3.546   2.872
11167TIP3    H133444   3.119   3.639   2.852
11167TIP3    H233445   3.214   3.536   2.910
11168TIP3   OH233446   0.765   3.483   1.917
11168TIP3    H133447   0.854   3.510   1.892
11168TIP3    H233448   0.710   3.512   1.844
11169TIP3   OH233449   0.186   4.399   0.891
11169TIP3    H133450   0.180   4.351   0.809
11169TIP3    H233451   0.177   4.491   0.866
11170TIP3   OH233452   6.998   7.072   3.584
11170TIP3    H133453   6.923   7.032   3.539
11170TIP3    H233454   7.047   7.115   3.514
11171TIP3   OH233455   5.418   2.484   1.461
11171TIP3    H133456   5.374   2.469   1.545
11171TIP3    H233457   5.346   2.496   1.399
11172TIP3   OH233458   7.290   4.735   2.871
11172TIP3    H133459   7.302   4.710   2.963
11172TIP3    H233460   7.358   4.687   2.824
11173TIP3   OH233461   3.220   5.104   2.983
11173TIP3    H133462   3.235   5.019   2.942
11173TIP3    H233463   3.242   5.091   3.075
11174TIP3   OH233464   4.594   5.263   4.778
11174TIP3    H133465   4.589   5.350   4.737
11174TIP3    H233466   4.676   5.226   4.746
11175TIP3   OH233467   1.150   0.438   0.458
11175TIP3    H133468   1.098   0.377   0.405
11175TIP3    H233469   1.161   0.514   0.401
11176TIP3   OH233470   4.992   1.810   5.803
11176TIP3    H133471   4.897   1.800   5.813
11176TIP3    H233472   5.007   1.904   5.810
11177TIP3   OH233473   2.468   4.553   1.431
11177TIP3    H133474   2.512   4.544   1.515
11177TIP3    H233475   2.532   4.520   1.367
11178TIP3   OH233476   5.143   5.411   2.956
11178TIP3    H133477   5.125   5.327   3.000
11178TIP3    H233478   5.207   5.455   3.014
11179TIP3   OH233479   8.111   6.041   2.507
11179TIP3    H133480   8.150   6.107   2.450
11179TIP3    H233481   8.099   5.965   2.451
11180TIP3   OH233482   7.720   3.272   2.715
11180TIP3    H133483   7.725   3.340   2.648
11180TIP3    H233484   7.719   3.190   2.666
11181TIP3   OH233485   1.579   2.920   5.014
11181TIP3    H133486   1.615   2.866   4.943
11181TIP3    H233487   1.601   3.010   4.990
11182TIP3   OH233488   4.757   6.750   5.094
11182TIP3    H133489   4.832   6.691   5.097
11182TIP3    H233490   4.684   6.697   5.124
11183TIP3   OH233491   1.937   2.115   5.071
11183TIP3    H133492   1.863   2.108   5.131
11183TIP3    H233493   2.014   2.119   5.128
11184TIP3   OH233494   0.576   5.821   6.682
11184TIP3    H133495   0.616   5.820   6.594
11184TIP3    H233496   0.645   5.790   6.740
11185TIP3   OH233497   6.174   0.690   0.212
11185TIP3    H133498   6.175   0.748   0.136
11185TIP3    H233499   6.266   0.680   0.236
11186TIP3   OH233500   3.033   4.859   5.050
11186TIP3    H133501   3.124   4.859   5.080
11186TIP3    H233502   3.036   4.904   4.965
11187TIP3   OH233503   2.123   3.497   2.700
11187TIP3    H133504   2.172   3.505   2.618
11187TIP3    H233505   2.117   3.586   2.733
11188TIP3   OH233506   3.654   4.400   3.855
11188TIP3    H133507   3.680   4.338   3.787
11188TIP3    H233508   3.590   4.457   3.814
11189TIP3   OH233509   2.159   2.646   0.650
11189TIP3    H133510   2.224   2.599   0.703
11189TIP3    H233511   2.083   2.588   0.647
11190TIP3   OH233512   0.582   2.226   5.260
11190TIP3    H133513   0.503   2.242   5.207
11190TIP3    H233514   0.550   2.221   5.350
11191TIP3   OH233515   5.490   5.588   1.804
11191TIP3    H133516   5.555   5.518   1.815
11191TIP3    H233517   5.426   5.553   1.742
11192TIP3   OH233518   1.459   4.086   5.444
11192TIP3    H133519   1.518   4.010   5.445
11192TIP3    H233520   1.416   4.084   5.529
11193TIP3   OH233521   2.750   6.502   2.160
11193TIP3    H133522   2.746   6.524   2.254
11193TIP3    H233523   2.686   6.432   2.149
11194TIP3   OH233524   7.228   3.665   3.337
11194TIP3    H133525   7.235   3.639   3.428
11194TIP3    H233526   7.151   3.618   3.304
11195TIP3   OH233527   1.160   6.875   1.467
11195TIP3    H133528   1.159   6.813   1.540
11195TIP3    H233529   1.092   6.844   1.408
11196TIP3   OH233530   8.084   5.222   4.952
11196TIP3    H133531   8.171   5.199   4.983
11196TIP3    H233532   8.031   5.143   4.969
11197TIP3   OH233533   7.221   3.040   3.402
11197TIP3    H133534   7.251   3.109   3.343
11197TIP3    H233535   7.164   2.985   3.349
11198TIP3   OH233536   6.220   3.604   1.581
11198TIP3    H133537   6.313   3.620   1.562
11198TIP3    H233538   6.221   3.547   1.658
11199TIP3   OH233539   7.842   0.701   4.881
11199TIP3    H133540   7.831   0.787   4.921
11199TIP3    H233541   7.877   0.646   4.951
11200TIP3   OH233542   6.544   1.383   1.681
11200TIP3    H133543   6.574   1.392   1.771
11200TIP3    H233544   6.449   1.377   1.688
11201TIP3   OH233545   2.373   5.010   6.112
11201TIP3    H133546   2.290   5.044   6.145
11201TIP3    H233547   2.394   4.938   6.171
11202TIP3   OH233548   3.957   6.784   5.637
11202TIP3    H133549   3.893   6.799   5.707
11202TIP3    H233550   4.018   6.719   5.674
11203TIP3   OH233551   4.205   3.387   2.174
11203TIP3    H133552   4.230   3.445   2.103
11203TIP3    H233553   4.276   3.323   2.179
11204TIP3   OH233554   2.901   0.388   4.518
11204TIP3    H133555   2.976   0.371   4.460
11204TIP3    H233556   2.878   0.302   4.552
11205TIP3   OH233557   0.187   6.180   5.708
11205TIP3    H133558   0.215   6.271   5.717
11205TIP3    H233559   0.167   6.152   5.797
11206TIP3   OH233560   3.003   0.526   3.919
11206TIP3    H133561   3.076   0.463   3.919
11206TIP3    H233562   2.944   0.493   3.851
11207TIP3   OH233563   1.106   5.811   4.550
11207TIP3    H133564   1.065   5.744   4.604
11207TIP3    H233565   1.108   5.772   4.462
11208TIP3   OH233566   6.756   2.929   0.653
11208TIP3    H133567   6.852   2.925   0.653
11208TIP3    H233568   6.730   2.889   0.736
11209TIP3   OH233569   2.853   3.479   2.845
11209TIP3    H133570   2.945   3.485   2.871
11209TIP3    H233571   2.828   3.568   2.822
11210TIP3   OH233572   2.907   1.708   1.773
11210TIP3    H133573   2.921   1.725   1.866
11210TIP3    H233574   2.833   1.648   1.771
11211TIP3   OH233575   1.705   2.956   2.060
11211TIP3    H133576   1.685   2.865   2.038
11211TIP3    H233577   1.625   3.004   2.039
11212TIP3   OH233578   2.949   1.935   6.067
11212TIP3    H133579   2.921   1.954   5.977
11212TIP3    H233580   2.996   2.014   6.095
11213TIP3   OH233581   2.223   6.789   4.031
11213TIP3    H133582   2.182   6.807   3.947
11213TIP3    H233583   2.317   6.789   4.013
11214TIP3   OH233584   5.178   6.255   4.777
11214TIP3    H133585   5.183   6.179   4.719
11214TIP3    H233586   5.182   6.218   4.865
11215TIP3   OH233587   5.648   6.627   0.886
11215TIP3    H133588   5.606   6.555   0.838
11215TIP3    H233589   5.615   6.706   0.844
11216TIP3   OH233590   3.503   6.449   1.711
11216TIP3    H133591   3.529   6.520   1.769
11216TIP3    H233592   3.480   6.491   1.628
11217TIP3   OH233593   4.888   6.317   2.663
11217TIP3    H133594   4.851   6.343   2.747
11217TIP3    H233595   4.838   6.367   2.598
11218TIP3   OH233596   1.389   2.424   2.880
11218TIP3    H133597   1.444   2.351   2.852
11218TIP3    H233598   1.380   2.477   2.801
11219TIP3   OH233599   3.279   6.293   4.537
11219TIP3    H133600   3.225   6.372   4.533
11219TIP3    H233601   3.348   6.313   4.600
11220TIP3   OH233602   4.460   3.987   4.883
11220TIP3    H133603   4.424   3.935   4.812
11220TIP3    H233604   4.516   3.927   4.932
11221TIP3   OH233605   4.430   4.911   6.330
11221TIP3    H133606   4.509   4.871   6.366
11221TIP3    H233607   4.462   4.973   6.264
11222TIP3   OH233608   1.219   3.097   5.228
11222TIP3    H133609   1.203   3.161   5.159
11222TIP3    H233610   1.153   3.029   5.214
11223TIP3   OH233611   2.981   5.615   0.137
11223TIP3    H133612   3.042   5.554   0.180
11223TIP3    H233613   2.895   5.590   0.170
11224TIP3   OH233614   1.170   4.512   0.508
11224TIP3    H133615   1.158   4.556   0.592
11224TIP3    H233616   1.123   4.429   0.518
11225TIP3   OH233617   7.244   6.735   1.595
11225TIP3    H133618   7.157   6.695   1.598
11225TIP3    H233619   7.287   6.695   1.520
11226TIP3   OH233620   1.530   7.358   3.138
11226TIP3    H133621   1.442   7.338   3.168
11226TIP3    H233622   1.535   7.454   3.139
11227TIP3   OH233623   2.360   6.432   2.798
11227TIP3    H133624   2.330   6.366   2.736
11227TIP3    H233625   2.356   6.514   2.749
11228TIP3   OH233626   4.906   7.117   5.144
11228TIP3    H133627   5.001   7.126   5.149
11228TIP3    H233628   4.877   7.191   5.091
11229TIP3   OH233629   5.682   0.195   5.682
11229TIP3    H133630   5.622   0.246   5.629
11229TIP3    H233631   5.662   0.220   5.772
11230TIP3   OH233632   5.364   5.502   2.568
11230TIP3    H133633   5.375   5.461   2.482
11230TIP3    H233634   5.303   5.574   2.554
11231TIP3   OH233635   1.768   0.386   2.732
11231TIP3    H133636   1.846   0.394   2.787
11231TIP3    H233637   1.721   0.310   2.767
11232TIP3   OH233638   6.484   3.643   1.098
11232TIP3    H133639   6.547   3.654   1.027
11232TIP3    H233640   6.428   3.720   1.093
11233TIP3   OH233641   1.329   1.874   4.203
11233TIP3    H133642   1.305   1.963   4.180
11233TIP3    H233643   1.374   1.840   4.125
11234TIP3   OH233644   7.853   6.953   1.217
11234TIP3    H133645   7.833   6.980   1.128
11234TIP3    H233646   7.944   6.923   1.213
11235TIP3   OH233647   1.041   6.760   3.670
11235TIP3    H133648   1.135   6.779   3.675
11235TIP3    H233649   1.018   6.728   3.757
11236TIP3   OH233650   3.515   3.697   3.272
11236TIP3    H133651   3.426   3.666   3.256
11236TIP3    H233652   3.531   3.677   3.364
11237TIP3   OH233653   3.778   7.223   4.582
11237TIP3    H133654   3.869   7.199   4.599
11237TIP3    H233655   3.736   7.141   4.558
11238TIP3   OH233656   8.321   1.063   3.655
11238TIP3    H133657   8.388   1.127   3.679
11238TIP3    H233658   8.260   1.063   3.729
11239TIP3   OH233659   2.469   4.728   1.938
11239TIP3    H133660   2.463   4.750   1.845
11239TIP3    H233661   2.532   4.791   1.973
11240TIP3   OH233662   6.061   2.876   1.138
11240TIP3    H133663   6.042   2.900   1.048
11240TIP3    H233664   6.064   2.781   1.138
11241TIP3   OH233665   5.507   2.011   1.907
11241TIP3    H133666   5.425   2.055   1.885
11241TIP3    H233667   5.569   2.082   1.923
11242TIP3   OH233668   1.979   1.857   1.434
11242TIP3    H133669   1.884   1.862   1.440
11242TIP3    H233670   2.005   1.941   1.395
11243TIP3   OH233671   4.900   6.807   0.093
11243TIP3    H133672   4.887   6.902   0.098
11243TIP3    H233673   4.837   6.778   0.026
11244TIP3   OH233674   5.664   5.176   6.544
11244TIP3    H133675   5.570   5.192   6.541
11244TIP3    H233676   5.696   5.206   6.459
11245TIP3   OH233677   5.325   5.162   5.104
11245TIP3    H133678   5.234   5.156   5.133
11245TIP3    H233679   5.350   5.252   5.125
11246TIP3   OH233680   5.281   4.377   2.653
11246TIP3    H133681   5.200   4.378   2.602
11246TIP3    H233682   5.258   4.331   2.734
11247TIP3   OH233683   4.860   0.157   0.901
11247TIP3    H133684   4.951   0.185   0.902
11247TIP3    H233685   4.861   0.074   0.853
11248TIP3   OH233686   0.936   4.956   4.437
11248TIP3    H133687   0.863   4.949   4.499
11248TIP3    H233688   1.011   4.977   4.491
11249TIP3   OH233689   3.964   3.759   4.244
11249TIP3    H133690   3.899   3.689   4.254
11249TIP3    H233691   4.048   3.716   4.263
11250TIP3   OH233692   2.669   6.729   4.277
11250TIP3    H133693   2.672   6.809   4.224
11250TIP3    H233694   2.740   6.739   4.341
11251TIP3   OH233695   5.551   6.867   5.894
11251TIP3    H133696   5.575   6.959   5.883
11251TIP3    H233697   5.464   6.869   5.933
11252TIP3   OH233698   7.452   7.264   4.886
11252TIP3    H133699   7.511   7.274   4.961
11252TIP3    H233700   7.446   7.351   4.847
11253TIP3   OH233701   3.589   2.560   0.808
11253TIP3    H133702   3.609   2.492   0.744
11253TIP3    H233703   3.653   2.629   0.790
11254TIP3   OH233704   1.362   3.350   2.433
11254TIP3    H133705   1.329   3.384   2.516
11254TIP3    H233706   1.289   3.358   2.372
11255TIP3   OH233707   6.570   5.520   5.540
11255TIP3    H133708   6.639   5.491   5.480
11255TIP3    H233709   6.579   5.463   5.616
11256TIP3   OH233710   4.122   4.687   2.427
11256TIP3    H133711   4.196   4.646   2.471
11256TIP3    H233712   4.046   4.665   2.481
11257TIP3   OH233713   8.059   6.976   0.970
11257TIP3    H133714   8.113   6.996   1.047
11257TIP3    H233715   8.116   6.997   0.896
11258TIP3   OH233716   3.256   4.561   3.606
11258TIP3    H133717   3.212   4.546   3.689
11258TIP3    H233718   3.220   4.644   3.574
11259TIP3   OH233719   7.190   2.710   3.831
11259TIP3    H133720   7.266   2.653   3.818
11259TIP3    H233721   7.216   2.794   3.793
11260TIP3   OH233722   7.905   3.506   6.182
11260TIP3    H133723   7.990   3.467   6.201
11260TIP3    H233724   7.852   3.433   6.149
11261TIP3   OH233725   6.959   6.448   4.193
11261TIP3    H133726   6.906   6.445   4.113
11261TIP3    H233727   7.039   6.401   4.170
11262TIP3   OH233728   1.403   3.141   5.617
11262TIP3    H133729   1.365   3.075   5.675
11262TIP3    H233730   1.378   3.225   5.657
11263TIP3   OH233731   5.022   4.042   0.003
11263TIP3    H133732   5.090   4.026   0.069
11263TIP3    H233733   4.953   3.979   0.024
11264TIP3   OH233734   5.114   2.362   3.669
11264TIP3    H133735   5.083   2.287   3.720
11264TIP3    H233736   5.109   2.436   3.729
11265TIP3   OH233737   7.242   6.972   1.278
11265TIP3    H133738   7.245   6.956   1.184
11265TIP3    H233739   7.197   7.056   1.287
11266TIP3   OH233740   5.253   1.015   5.000
11266TIP3    H133741   5.285   0.938   4.954
11266TIP3    H233742   5.172   0.985   5.042
11267TIP3   OH233743   7.665   4.849   4.670
11267TIP3    H133744   7.582   4.822   4.708
11267TIP3    H233745   7.696   4.772   4.621
11268TIP3   OH233746   6.064   0.643   5.567
11268TIP3    H133747   6.107   0.728   5.581
11268TIP3    H233748   6.129   0.579   5.598
11269TIP3   OH233749   0.425   6.744   4.344
11269TIP3    H133750   0.339   6.721   4.308
11269TIP3    H233751   0.405   6.780   4.431
11270TIP3   OH233752   0.462   6.175   1.500
11270TIP3    H133753   0.404   6.174   1.424
11270TIP3    H233754   0.420   6.118   1.564
11271TIP3   OH233755   7.148   0.519   5.254
11271TIP3    H133756   7.056   0.493   5.264
11271TIP3    H233757   7.146   0.584   5.184
11272TIP3   OH233758   6.351   2.893   1.199
11272TIP3    H133759   6.258   2.871   1.191
11272TIP3    H233760   6.376   2.860   1.286
11273TIP3   OH233761   5.915   7.577   1.466
11273TIP3    H133762   5.841   7.570   1.526
11273TIP3    H233763   5.960   7.656   1.492
11274TIP3   OH233764   4.064   1.120   0.519
11274TIP3    H133765   3.985   1.174   0.515
11274TIP3    H233766   4.032   1.030   0.510
11275TIP3   OH233767   4.223   6.332   5.058
11275TIP3    H133768   4.209   6.420   5.021
11275TIP3    H233769   4.151   6.322   5.121
11276TIP3   OH233770   0.386   3.568   6.627
11276TIP3    H133771   0.456   3.599   6.684
11276TIP3    H233772   0.306   3.600   6.667
11277TIP3   OH233773   1.661   0.751   1.317
11277TIP3    H133774   1.697   0.833   1.350
11277TIP3    H233775   1.570   0.751   1.347
11278TIP3   OH233776   7.454   3.711   1.103
11278TIP3    H133777   7.444   3.790   1.156
11278TIP3    H233778   7.442   3.740   1.013
11279TIP3   OH233779   4.311   5.457   2.799
11279TIP3    H133780   4.225   5.487   2.769
11279TIP3    H233781   4.367   5.463   2.723
11280TIP3   OH233782   2.872   4.255   3.133
11280TIP3    H133783   2.958   4.223   3.160
11280TIP3    H233784   2.843   4.193   3.066
11281TIP3   OH233785   0.801   2.012   1.220
11281TIP3    H133786   0.817   2.049   1.306
11281TIP3    H233787   0.822   1.919   1.229
11282TIP3   OH233788   1.174   6.664   5.313
11282TIP3    H133789   1.261   6.676   5.274
11282TIP3    H233790   1.137   6.589   5.267
11283TIP3   OH233791   2.306   6.106   0.826
11283TIP3    H133792   2.315   6.022   0.870
11283TIP3    H233793   2.289   6.083   0.734
11284TIP3   OH233794   6.907   0.632   5.599
11284TIP3    H133795   6.861   0.550   5.581
11284TIP3    H233796   6.861   0.670   5.673
11285TIP3   OH233797   3.547   0.381   1.083
11285TIP3    H133798   3.550   0.470   1.047
11285TIP3    H233799   3.465   0.378   1.131
11286TIP3   OH233800   3.636   5.186   0.779
11286TIP3    H133801   3.640   5.116   0.845
11286TIP3    H233802   3.627   5.140   0.696
11287TIP3   OH233803   8.027   2.158   5.011
11287TIP3    H133804   8.016   2.190   4.922
11287TIP3    H233805   8.119   2.132   5.017
11288TIP3   OH233806   7.404   6.584   4.483
11288TIP3    H133807   7.331   6.541   4.439
11288TIP3    H233808   7.451   6.514   4.528
11289TIP3   OH233809   0.938   5.372   6.548
11289TIP3    H133810   1.033   5.367   6.541
11289TIP3    H233811   0.906   5.332   6.468
11290TIP3   OH233812   4.669   7.502   1.499
11290TIP3    H133813   4.588   7.552   1.485
11290TIP3    H233814   4.730   7.536   1.433
11291TIP3   OH233815   7.362   3.507   6.177
11291TIP3    H133816   7.427   3.438   6.163
11291TIP3    H233817   7.308   3.474   6.249
11292TIP3   OH233818   1.983   1.653   3.595
11292TIP3    H133819   1.889   1.665   3.577
11292TIP3    H233820   2.027   1.699   3.524
11293TIP3   OH233821   7.788   5.194   6.127
11293TIP3    H133822   7.731   5.174   6.201
11293TIP3    H233823   7.840   5.114   6.115
11294TIP3   OH233824   3.743   7.695   0.572
11294TIP3    H133825   3.791   7.688   0.655
11294TIP3    H233826   3.763   7.614   0.526
11295TIP3   OH233827   5.089   7.432   2.390
11295TIP3    H133828   5.176   7.472   2.391
11295TIP3    H233829   5.046   7.471   2.313
11296TIP3   OH233830   6.261   1.383   6.130
11296TIP3    H133831   6.274   1.446   6.201
11296TIP3    H233832   6.179   1.408   6.089
11297TIP3   OH233833   2.310   6.490   1.496
11297TIP3    H133834   2.289   6.550   1.424
11297TIP3    H233835   2.376   6.537   1.547
11298TIP3   OH233836   4.928   2.205   1.347
11298TIP3    H133837   5.005   2.225   1.294
11298TIP3    H233838   4.960   2.143   1.413
11299TIP3   OH233839   4.254   7.502   5.970
11299TIP3    H133840   4.194   7.492   5.896
11299TIP3    H233841   4.253   7.416   6.013
11300TIP3   OH233842   6.606   7.682   6.220
11300TIP3    H133843   6.573   7.597   6.249
11300TIP3    H233844   6.537   7.744   6.244
11301TIP3   OH233845   2.290   0.868   4.172
11301TIP3    H133846   2.212   0.914   4.139
11301TIP3    H233847   2.364   0.919   4.138
11302TIP3   OH233848   4.193   0.039  -0.022
11302TIP3    H133849   4.267   0.083   0.018
11302TIP3    H233850   4.133   0.021   0.050
11303TIP3   OH233851   4.892   0.109   0.467
11303TIP3    H133852   4.822   0.171   0.489
11303TIP3    H233853   4.968   0.164   0.450
11304TIP3   OH233854   2.427   3.818   3.529
11304TIP3    H133855   2.513   3.836   3.491
11304TIP3    H233856   2.380   3.902   3.522
11305TIP3   OH233857   3.702   2.931   0.977
11305TIP3    H133858   3.744   3.013   0.951
11305TIP3    H233859   3.665   2.896   0.896
11306TIP3   OH233860   3.848   1.743   2.939
11306TIP3    H133861   3.940   1.728   2.962
11306TIP3    H233862   3.826   1.671   2.879
11307TIP3   OH233863   4.451   5.546   2.566
11307TIP3    H133864   4.477   5.632   2.535
11307TIP3    H233865   4.534   5.496   2.569
11308TIP3   OH233866   2.187   7.313   1.705
11308TIP3    H133867   2.181   7.311   1.801
11308TIP3    H233868   2.101   7.281   1.676
11309TIP3   OH233869   8.278   4.334   2.156
11309TIP3    H133870   8.316   4.274   2.221
11309TIP3    H233871   8.190   4.353   2.189
11310TIP3   OH233872   5.730   3.155   1.230
11310TIP3    H133873   5.636   3.159   1.211
11310TIP3    H233874   5.772   3.156   1.144
11311TIP3   OH233875   3.779   7.084   2.856
11311TIP3    H133876   3.699   7.109   2.904
11311TIP3    H233877   3.747   7.049   2.773
11312TIP3   OH233878   3.082   0.672   2.318
11312TIP3    H133879   3.094   0.580   2.296
11312TIP3    H233880   3.136   0.719   2.255
11313TIP3   OH233881   6.607   0.644   6.040
11313TIP3    H133882   6.670   0.645   6.112
11313TIP3    H233883   6.573   0.554   6.039
11314TIP3   OH233884   6.407   6.524   0.215
11314TIP3    H133885   6.313   6.536   0.204
11314TIP3    H233886   6.420   6.520   0.310
11315TIP3   OH233887   7.437   2.867   6.044
11315TIP3    H133888   7.506   2.933   6.054
11315TIP3    H233889   7.479   2.796   5.995
11316TIP3   OH233890   0.314   7.565   0.239
11316TIP3    H133891   0.333   7.592   0.329
11316TIP3    H233892   0.392   7.519   0.211
11317TIP3   OH233893   2.023   2.006   3.806
11317TIP3    H133894   2.102   1.980   3.758
11317TIP3    H233895   1.961   1.936   3.788
11318TIP3   OH233896   5.275   1.717   5.858
11318TIP3    H133897   5.291   1.644   5.798
11318TIP3    H233898   5.181   1.716   5.873
11319TIP3   OH233899   4.447   5.301   2.104
11319TIP3    H133900   4.513   5.351   2.151
11319TIP3    H233901   4.425   5.229   2.163
11320TIP3   OH233902   2.967   7.373   5.647
11320TIP3    H133903   2.962   7.304   5.580
11320TIP3    H233904   2.896   7.433   5.624
11321TIP3   OH233905   6.032   6.591   0.562
11321TIP3    H133906   5.940   6.615   0.568
11321TIP3    H233907   6.032   6.509   0.512
11322TIP3   OH233908   4.387   2.639   2.732
11322TIP3    H133909   4.328   2.711   2.755
11322TIP3    H233910   4.369   2.571   2.797
11323TIP3   OH233911   0.235   6.501   3.899
11323TIP3    H133912   0.180   6.574   3.871
11323TIP3    H233913   0.253   6.519   3.992
11324TIP3   OH233914   0.134   0.381   6.732
11324TIP3    H133915   0.222   0.388   6.695
11324TIP3    H233916   0.095   0.306   6.686
11325TIP3   OH233917   5.653   5.353   0.791
11325TIP3    H133918   5.709   5.429   0.808
11325TIP3    H233919   5.713   5.285   0.760
11326TIP3   OH233920   5.347   0.495   2.795
11326TIP3    H133921   5.399   0.487   2.875
11326TIP3    H233922   5.383   0.430   2.735
11327TIP3   OH233923   1.525   5.018   1.857
11327TIP3    H133924   1.561   5.086   1.799
11327TIP3    H233925   1.441   4.994   1.816
11328TIP3   OH233926   1.327   6.878   1.836
11328TIP3    H133927   1.287   6.792   1.818
11328TIP3    H233928   1.401   6.883   1.776
11329TIP3   OH233929   5.635   7.600   4.808
11329TIP3    H133930   5.682   7.576   4.728
11329TIP3    H233931   5.584   7.522   4.831
11330TIP3   OH233932   5.205   7.311   1.327
11330TIP3    H133933   5.124   7.304   1.276
11330TIP3    H233934   5.211   7.404   1.350
11331TIP3   OH233935   8.040   0.004   2.150
11331TIP3    H133936   7.972   0.040   2.206
11331TIP3    H233937   8.117  -0.002   2.206
11332TIP3   OH233938   3.500   6.003   2.021
11332TIP3    H133939   3.470   5.928   1.970
11332TIP3    H233940   3.504   6.074   1.957
11333TIP3   OH233941   6.325   1.979   1.863
11333TIP3    H133942   6.354   1.998   1.774
11333TIP3    H233943   6.369   2.045   1.917
11334TIP3   OH233944   4.025   1.093   6.464
11334TIP3    H133945   4.066   1.164   6.513
11334TIP3    H233946   4.098   1.037   6.438
11335TIP3   OH233947   0.810   5.370   4.398
11335TIP3    H133948   0.874   5.439   4.379
11335TIP3    H233949   0.730   5.401   4.357
11336TIP3   OH233950   0.938   0.311   0.258
11336TIP3    H133951   0.869   0.250   0.285
11336TIP3    H233952   0.894   0.372   0.199
11337TIP3   OH233953   0.935   7.579   6.540
11337TIP3    H133954   0.974   7.658   6.575
11337TIP3    H233955   0.865   7.611   6.483
11338TIP3   OH233956   7.432   7.751   1.025
11338TIP3    H133957   7.488   7.693   1.078
11338TIP3    H233958   7.343   7.733   1.056
11339TIP3   OH233959   7.704   2.854   1.242
11339TIP3    H133960   7.685   2.826   1.331
11339TIP3    H233961   7.623   2.893   1.210
11340TIP3   OH233962   3.273   6.972   5.454
11340TIP3    H133963   3.216   6.975   5.377
11340TIP3    H233964   3.283   6.879   5.473
11341TIP3   OH233965   6.732   2.798   2.841
11341TIP3    H133966   6.721   2.889   2.870
11341TIP3    H233967   6.781   2.804   2.759
11342TIP3   OH233968   5.358   2.866   3.024
11342TIP3    H133969   5.395   2.843   2.939
11342TIP3    H233970   5.390   2.797   3.083
11343TIP3   OH233971   0.795   2.854   2.886
11343TIP3    H133972   0.852   2.916   2.931
11343TIP3    H233973   0.761   2.798   2.956
11344TIP3   OH233974   1.162   1.483   1.209
11344TIP3    H133975   1.219   1.554   1.242
11344TIP3    H233976   1.223   1.414   1.185
11345TIP3   OH233977   5.145   4.739   6.207
11345TIP3    H133978   5.054   4.717   6.188
11345TIP3    H233979   5.143   4.832   6.229
11346TIP3   OH233980   6.020   4.076   0.359
11346TIP3    H133981   5.981   4.056   0.274
11346TIP3    H233982   5.945   4.100   0.414
11347TIP3   OH233983   0.547   7.629   2.283
11347TIP3    H133984   0.537   7.666   2.196
11347TIP3    H233985   0.638   7.600   2.287
11348TIP3   OH233986   6.320   5.729   3.349
11348TIP3    H133987   6.265   5.777   3.411
11348TIP3    H233988   6.309   5.637   3.373
11349TIP3   OH233989   3.753   3.306   2.104
11349TIP3    H133990   3.832   3.319   2.051
11349TIP3    H233991   3.761   3.371   2.174
11350TIP3   OH233992   1.122   4.953   6.556
11350TIP3    H133993   1.182   5.018   6.520
11350TIP3    H233994   1.037   4.998   6.559
11351TIP3   OH233995   6.806   6.552   5.996
11351TIP3    H133996   6.723   6.594   6.021
11351TIP3    H233997   6.808   6.557   5.901
11352TIP3   OH233998   6.251   5.166   6.522
11352TIP3    H133999   6.203   5.204   6.449
11352TIP3    H234000   6.343   5.177   6.498
11353TIP3   OH234001   2.540   1.887   4.803
11353TIP3    H134002   2.535   1.980   4.825
11353TIP3    H234003   2.539   1.885   4.707
11354TIP3   OH234004   6.973   7.664   2.140
11354TIP3    H134005   6.925   7.726   2.195
11354TIP3    H234006   7.018   7.607   2.203
11355TIP3   OH234007   4.768   5.317   2.171
11355TIP3    H134008   4.860   5.311   2.146
11355TIP3    H234009   4.745   5.409   2.157
11356TIP3   OH234010   0.639   0.350   0.404
11356TIP3    H134011   0.678   0.262   0.404
11356TIP3    H234012   0.563   0.343   0.461
11357TIP3   OH234013   1.981   2.244   5.992
11357TIP3    H134014   1.915   2.313   5.991
11357TIP3    H234015   2.045   2.270   5.926
11358TIP3   OH234016   3.650   2.072   6.711
11358TIP3    H134017   3.722   2.057   6.649
11358TIP3    H234018   3.578   2.106   6.656
11359TIP3   OH234019   1.431   0.958   6.092
11359TIP3    H134020   1.425   0.929   6.183
11359TIP3    H234021   1.341   0.974   6.065
11360TIP3   OH234022   1.033   7.222   1.712
11360TIP3    H134023   0.968   7.177   1.659
11360TIP3    H234024   1.114   7.173   1.697
11361TIP3   OH234025   5.871   0.180   6.585
11361TIP3    H134026   5.892   0.207   6.495
11361TIP3    H234027   5.949   0.202   6.635
11362TIP3   OH234028   0.344   4.389   3.790
11362TIP3    H134029   0.334   4.403   3.696
11362TIP3    H234030   0.299   4.463   3.831
11363TIP3   OH234031   3.491   1.431   0.703
11363TIP3    H134032   3.448   1.422   0.618
11363TIP3    H234033   3.492   1.525   0.720
11364TIP3   OH234034   4.983   0.710   1.797
11364TIP3    H134035   4.923   0.639   1.776
11364TIP3    H234036   4.963   0.779   1.734
11365TIP3   OH234037   6.951   4.624   5.102
11365TIP3    H134038   6.870   4.588   5.066
11365TIP3    H234039   6.931   4.716   5.118
11366TIP3   OH234040   3.802   5.079   1.745
11366TIP3    H134041   3.720   5.082   1.793
11366TIP3    H234042   3.853   5.153   1.779
11367TIP3   OH234043   7.615   7.353   5.123
11367TIP3    H134044   7.671   7.425   5.151
11367TIP3    H234045   7.527   7.390   5.122
11368TIP3   OH234046   6.433   5.333   0.345
11368TIP3    H134047   6.344   5.333   0.381
11368TIP3    H234048   6.441   5.419   0.303
11369TIP3   OH234049   1.529   7.654   3.157
11369TIP3    H134050   1.472   7.694   3.092
11369TIP3    H234051   1.506   7.698   3.239
11370TIP3   OH234052   6.497   4.060   4.793
11370TIP3    H134053   6.560   4.014   4.849
11370TIP3    H234054   6.446   4.113   4.854
11371TIP3   OH234055   7.110   4.170   6.446
11371TIP3    H134056   7.165   4.134   6.377
11371TIP3    H234057   7.145   4.133   6.527
11372TIP3   OH234058   0.759   0.949   3.765
11372TIP3    H134059   0.709   1.025   3.794
11372TIP3    H234060   0.836   0.985   3.720
11373TIP3   OH234061   0.133   5.318   6.405
11373TIP3    H134062   0.094   5.394   6.362
11373TIP3    H234063   0.160   5.350   6.491
11374TIP3   OH234064   5.340   6.192   3.947
11374TIP3    H134065   5.415   6.223   3.896
11374TIP3    H234066   5.333   6.254   4.019
11375TIP3   OH234067   1.906   0.117   5.880
11375TIP3    H134068   1.961   0.190   5.912
11375TIP3    H234069   1.937   0.041   5.929
11376TIP3   OH234070   1.796   5.101   0.618
11376TIP3    H134071   1.771   5.192   0.604
11376TIP3    H234072   1.714   5.057   0.641
11377TIP3   OH234073   1.720   2.318   5.850
11377TIP3    H134074   1.656   2.298   5.919
11377TIP3    H234075   1.696   2.405   5.819
11378TIP3   OH234076   3.363   2.582   0.107
11378TIP3    H134077   3.313   2.663   0.099
11378TIP3    H234078   3.421   2.596   0.182
11379TIP3   OH234079   1.121   4.051   0.301
11379TIP3    H134080   1.035   4.047   0.261
11379TIP3    H234081   1.115   4.123   0.364
11380TIP3   OH234082   3.945   6.585   4.178
11380TIP3    H134083   3.962   6.673   4.146
11380TIP3    H234084   3.856   6.565   4.148
11381TIP3   OH234085   2.958   6.878   2.387
11381TIP3    H134086   3.008   6.929   2.450
11381TIP3    H234087   2.867   6.904   2.402
11382TIP3   OH234088   1.411   2.209   0.401
11382TIP3    H134089   1.432   2.292   0.358
11382TIP3    H234090   1.405   2.146   0.330
11383TIP3   OH234091   3.605   1.862   3.036
11383TIP3    H134092   3.626   1.943   3.083
11383TIP3    H234093   3.686   1.838   2.992
11384TIP3   OH234094   4.849   6.365   1.125
11384TIP3    H134095   4.868   6.277   1.156
11384TIP3    H234096   4.807   6.408   1.199
11385TIP3   OH234097   1.529   4.829   4.842
11385TIP3    H134098   1.489   4.858   4.759
11385TIP3    H234099   1.544   4.910   4.891
11386TIP3   OH234100   4.814   6.418   3.253
11386TIP3    H134101   4.863   6.364   3.191
11386TIP3    H234102   4.754   6.469   3.199
11387TIP3   OH234103   5.699   1.233   3.543
11387TIP3    H134104   5.737   1.289   3.611
11387TIP3    H234105   5.675   1.153   3.589
11388TIP3   OH234106   5.072   0.305   3.324
11388TIP3    H134107   5.137   0.305   3.394
11388TIP3    H234108   5.084   0.389   3.279
11389TIP3   OH234109   3.724   0.350   0.766
11389TIP3    H134110   3.788   0.279   0.768
11389TIP3    H234111   3.740   0.398   0.848
11390TIP3   OH234112   2.085   4.347   3.145
11390TIP3    H134113   2.090   4.262   3.101
11390TIP3    H234114   2.128   4.408   3.085
11391TIP3   OH234115   7.011   5.372   6.279
11391TIP3    H134116   6.970   5.352   6.364
11391TIP3    H234117   6.987   5.298   6.223
11392TIP3   OH234118   1.733   5.246   4.765
11392TIP3    H134119   1.801   5.313   4.766
11392TIP3    H234120   1.680   5.266   4.688
11393TIP3   OH234121   3.135   1.322   0.567
11393TIP3    H134122   3.097   1.402   0.532
11393TIP3    H234123   3.066   1.256   0.557
11394TIP3   OH234124   3.050   5.510   4.036
11394TIP3    H134125   3.072   5.423   4.068
11394TIP3    H234126   3.124   5.536   3.982
11395TIP3   OH234127   6.363   2.822   2.345
11395TIP3    H134128   6.403   2.751   2.395
11395TIP3    H234129   6.272   2.823   2.375
11396TIP3   OH234130   1.355   4.129   4.275
11396TIP3    H134131   1.295   4.054   4.271
11396TIP3    H234132   1.324   4.187   4.206
11397TIP3   OH234133   7.220   7.384   3.367
11397TIP3    H134134   7.225   7.292   3.392
11397TIP3    H234135   7.164   7.424   3.434
11398TIP3   OH234136   7.577   2.011   6.370
11398TIP3    H134137   7.510   2.078   6.384
11398TIP3    H234138   7.538   1.930   6.402
11399TIP3   OH234139   6.037   1.605   4.480
11399TIP3    H134140   6.061   1.677   4.539
11399TIP3    H234141   6.046   1.642   4.392
11400TIP3   OH234142   1.333   7.483   3.648
11400TIP3    H134143   1.318   7.532   3.568
11400TIP3    H234144   1.293   7.536   3.717
11401TIP3   OH234145   4.849   7.070   6.585
11401TIP3    H134146   4.833   7.151   6.634
11401TIP3    H234147   4.935   7.041   6.614
11402TIP3   OH234148   7.306   7.266   5.198
11402TIP3    H134149   7.247   7.326   5.246
11402TIP3    H234150   7.274   7.270   5.107
11403TIP3   OH234151   7.791   0.417   5.200
11403TIP3    H134152   7.747   0.430   5.116
11403TIP3    H234153   7.734   0.356   5.247
11404TIP3   OH234154   7.943   2.224   0.103
11404TIP3    H134155   7.918   2.291   0.039
11404TIP3    H234156   7.984   2.272   0.174
11405TIP3   OH234157   6.002   5.386   3.630
11405TIP3    H134158   5.907   5.394   3.631
11405TIP3    H234159   6.019   5.295   3.653
11406TIP3   OH234160   4.203   1.046   2.805
11406TIP3    H134161   4.203   0.961   2.761
11406TIP3    H234162   4.168   1.107   2.741
11407TIP3   OH234163   7.755   3.108   3.746
11407TIP3    H134164   7.811   3.066   3.811
11407TIP3    H234165   7.768   3.057   3.666
11408TIP3   OH234166   6.912   5.711   6.432
11408TIP3    H134167   6.857   5.633   6.441
11408TIP3    H234168   6.964   5.694   6.354
11409TIP3   OH234169   1.376   5.392   0.903
11409TIP3    H134170   1.442   5.427   0.963
11409TIP3    H234171   1.298   5.444   0.921
11410TIP3   OH234172   5.120   0.279   3.695
11410TIP3    H134173   5.148   0.370   3.695
11410TIP3    H234174   5.060   0.272   3.620
11411TIP3   OH234175   7.113   4.309   0.599
11411TIP3    H134176   7.091   4.399   0.623
11411TIP3    H234177   7.030   4.270   0.573
11412TIP3   OH234178   1.131   7.375   5.180
11412TIP3    H134179   1.194   7.306   5.203
11412TIP3    H234180   1.177   7.457   5.198
11413TIP3   OH234181   7.644   2.395   1.645
11413TIP3    H134182   7.606   2.345   1.718
11413TIP3    H234183   7.571   2.447   1.611
11414TIP3   OH234184   0.817   6.507   1.438
11414TIP3    H134185   0.772   6.584   1.402
11414TIP3    H234186   0.853   6.463   1.361
11415TIP3   OH234187   0.606   2.399   3.900
11415TIP3    H134188   0.567   2.484   3.921
11415TIP3    H234189   0.532   2.345   3.871
11416TIP3   OH234190   3.844   0.196   2.140
11416TIP3    H134191   3.753   0.225   2.149
11416TIP3    H234192   3.859   0.139   2.216
11417TIP3   OH234193   6.523   0.351   5.758
11417TIP3    H134194   6.476   0.410   5.816
11417TIP3    H234195   6.455   0.299   5.716
11418TIP3   OH234196   3.200   6.894   0.007
11418TIP3    H134197   3.163   6.929   0.088
11418TIP3    H234198   3.275   6.842   0.035
11419TIP3   OH234199   6.409   7.424   0.281
11419TIP3    H134200   6.501   7.449   0.294
11419TIP3    H234201   6.379   7.479   0.209
11420TIP3   OH234202   4.509   1.785   5.282
11420TIP3    H134203   4.414   1.788   5.283
11420TIP3    H234204   4.531   1.712   5.224
11421TIP3   OH234205   3.824   4.731   4.429
11421TIP3    H134206   3.814   4.798   4.496
11421TIP3    H234207   3.737   4.724   4.389
11422TIP3   OH234208   5.759   7.165   6.588
11422TIP3    H134209   5.785   7.255   6.570
11422TIP3    H234210   5.798   7.113   6.518
11423TIP3   OH234211   1.377   1.158   1.970
11423TIP3    H134212   1.400   1.070   1.997
11423TIP3    H234213   1.423   1.215   2.031
11424TIP3   OH234214   0.408   1.722   1.285
11424TIP3    H134215   0.374   1.791   1.341
11424TIP3    H234216   0.427   1.766   1.202
11425TIP3   OH234217   3.754   4.127   5.905
11425TIP3    H134218   3.724   4.121   5.814
11425TIP3    H234219   3.848   4.112   5.900
11426TIP3   OH234220   0.656   1.663   0.881
11426TIP3    H134221   0.747   1.690   0.882
11426TIP3    H234222   0.619   1.702   0.960
11427TIP3   OH234223   3.037   7.033   1.612
11427TIP3    H134224   3.068   6.957   1.661
11427TIP3    H234225   3.080   7.026   1.527
11428TIP3   OH234226   5.698   4.742   0.610
11428TIP3    H134227   5.636   4.759   0.682
11428TIP3    H234228   5.698   4.823   0.559
11429TIP3   OH234229   6.000   7.310   1.149
11429TIP3    H134230   5.958   7.325   1.234
11429TIP3    H234231   6.018   7.216   1.148
11430TIP3   OH234232   8.006   3.976   3.678
11430TIP3    H134233   8.048   3.915   3.738
11430TIP3    H234234   8.077   4.005   3.620
11431TIP3   OH234235   8.175   4.298   4.403
11431TIP3    H134236   8.260   4.257   4.388
11431TIP3    H234237   8.165   4.299   4.498
11432TIP3   OH234238   4.612   6.188   2.988
11432TIP3    H134239   4.550   6.182   2.915
11432TIP3    H234240   4.676   6.119   2.971
11433TIP3   OH234241   2.133   0.497   1.964
11433TIP3    H134242   2.070   0.570   1.964
11433TIP3    H234243   2.217   0.539   1.982
11434TIP3   OH234244   5.845   3.986   5.154
11434TIP3    H134245   5.795   3.980   5.235
11434TIP3    H234246   5.857   3.895   5.127
11435TIP3   OH234247   3.048   1.527   4.873
11435TIP3    H134248   3.026   1.531   4.966
11435TIP3    H234249   3.068   1.618   4.849
11436TIP3   OH234250   6.261   1.824   2.529
11436TIP3    H134251   6.306   1.817   2.445
11436TIP3    H234252   6.197   1.752   2.528
11437TIP3   OH234253   1.310   0.179   3.261
11437TIP3    H134254   1.219   0.174   3.291
11437TIP3    H234255   1.316   0.263   3.216
11438TIP3   OH234256   7.777   5.409   1.512
11438TIP3    H134257   7.735   5.374   1.434
11438TIP3    H234258   7.704   5.430   1.571
11439TIP3   OH234259   5.503   1.707   3.137
11439TIP3    H134260   5.498   1.735   3.046
11439TIP3    H234261   5.580   1.651   3.141
11440TIP3   OH234262   5.542   7.455   1.828
11440TIP3    H134263   5.611   7.390   1.819
11440TIP3    H234264   5.564   7.501   1.910
11441TIP3   OH234265   8.096   7.085   2.213
11441TIP3    H134266   8.006   7.080   2.245
11441TIP3    H234267   8.094   7.155   2.149
11442TIP3   OH234268   2.620   3.687   5.647
11442TIP3    H134269   2.625   3.667   5.741
11442TIP3    H234270   2.535   3.651   5.620
11443TIP3   OH234271   5.177   0.914   4.477
11443TIP3    H134272   5.255   0.882   4.523
11443TIP3    H234273   5.205   0.996   4.437
11444TIP3   OH234274   1.813   2.504   3.905
11444TIP3    H134275   1.908   2.516   3.904
11444TIP3    H234276   1.777   2.592   3.907
11445TIP3   OH234277   5.684   1.101   2.555
11445TIP3    H134278   5.616   1.057   2.606
11445TIP3    H234279   5.638   1.172   2.510
11446TIP3   OH234280   3.146   1.181   3.827
11446TIP3    H134281   3.194   1.152   3.905
11446TIP3    H234282   3.174   1.121   3.758
11447TIP3   OH234283   7.804   7.339   2.868
11447TIP3    H134284   7.805   7.376   2.956
11447TIP3    H234285   7.725   7.374   2.827
11448TIP3   OH234286   1.231   3.603   3.981
11448TIP3    H134287   1.195   3.641   4.061
11448TIP3    H234288   1.160   3.612   3.917
11449TIP3   OH234289   7.528   0.294   4.765
11449TIP3    H134290   7.563   0.300   4.675
11449TIP3    H234291   7.439   0.329   4.758
11450TIP3   OH234292   3.613   6.561   3.927
11450TIP3    H134293   3.647   6.559   4.017
11450TIP3    H234294   3.690   6.552   3.872
11451TIP3   OH234295   2.854   6.030   3.836
11451TIP3    H134296   2.771   6.078   3.845
11451TIP3    H234297   2.850   5.994   3.747
11452TIP3   OH234298   1.317   1.302   2.455
11452TIP3    H134299   1.381   1.373   2.465
11452TIP3    H234300   1.316   1.258   2.540
11453TIP3   OH234301   6.451   0.994   1.703
11453TIP3    H134302   6.440   1.024   1.793
11453TIP3    H234303   6.539   0.956   1.701
11454TIP3   OH234304   2.997   4.478   5.205
11454TIP3    H134305   2.951   4.556   5.236
11454TIP3    H234306   3.035   4.440   5.284
11455TIP3   OH234307   8.206   2.683   5.691
11455TIP3    H134308   8.232   2.722   5.608
11455TIP3    H234309   8.285   2.638   5.722
11456TIP3   OH234310   3.142   3.965   3.510
11456TIP3    H134311   3.204   3.968   3.437
11456TIP3    H234312   3.174   3.895   3.567
11457TIP3   OH234313   0.191   6.339   0.200
11457TIP3    H134314   0.267   6.311   0.149
11457TIP3    H234315   0.148   6.257   0.226
11458TIP3   OH234316   0.376   3.405   5.437
11458TIP3    H134317   0.406   3.481   5.387
11458TIP3    H234318   0.300   3.438   5.485
11459TIP3   OH234319   6.538   1.531   6.123
11459TIP3    H134320   6.575   1.444   6.137
11459TIP3    H234321   6.593   1.590   6.174
11460TIP3   OH234322   7.318   7.625   1.762
11460TIP3    H134323   7.314   7.561   1.833
11460TIP3    H234324   7.405   7.666   1.771
11461TIP3   OH234325   4.772   6.693   5.521
11461TIP3    H134326   4.773   6.633   5.595
11461TIP3    H234327   4.858   6.736   5.524
11462TIP3   OH234328   4.754   3.253   3.580
11462TIP3    H134329   4.810   3.330   3.573
11462TIP3    H234330   4.744   3.223   3.489
11463TIP3   OH234331   8.351   2.100   1.922
11463TIP3    H134332   8.260   2.130   1.916
11463TIP3    H234333   8.357   2.058   2.007
11464TIP3   OH234334   0.889   3.245   3.168
11464TIP3    H134335   0.869   3.317   3.228
11464TIP3    H234336   0.811   3.190   3.169
11465TIP3   OH234337   3.254   4.708   3.107
11465TIP3    H134338   3.167   4.732   3.074
11465TIP3    H234339   3.242   4.621   3.145
11466TIP3   OH234340   4.691   5.036   3.192
11466TIP3    H134341   4.736   4.981   3.257
11466TIP3    H234342   4.743   5.026   3.112
11467TIP3   OH234343   4.818   5.222   1.323
11467TIP3    H134344   4.840   5.309   1.289
11467TIP3    H234345   4.735   5.200   1.280
11468TIP3   OH234346   1.547   4.131   4.777
11468TIP3    H134347   1.491   4.199   4.814
11468TIP3    H234348   1.627   4.134   4.830
11469TIP3   OH234349   7.587   3.777   4.429
11469TIP3    H134350   7.650   3.802   4.497
11469TIP3    H234351   7.616   3.824   4.351
11470TIP3   OH234352   6.468   2.595   5.214
11470TIP3    H134353   6.434   2.580   5.302
11470TIP3    H234354   6.546   2.539   5.209
11471TIP3   OH234355   6.374   5.025   6.272
11471TIP3    H134356   6.354   4.962   6.342
11471TIP3    H234357   6.464   5.054   6.291
11472TIP3   OH234358   6.750   2.498   1.328
11472TIP3    H134359   6.800   2.502   1.410
11472TIP3    H234360   6.808   2.451   1.267
11473TIP3   OH234361   4.297   1.111   0.676
11473TIP3    H134362   4.228   1.133   0.614
11473TIP3    H234363   4.251   1.086   0.756
11474TIP3   OH234364   4.585   5.956   5.027
11474TIP3    H134365   4.637   6.010   4.968
11474TIP3    H234366   4.563   6.014   5.100
11475TIP3   OH234367   1.707   1.866   4.324
11475TIP3    H134368   1.786   1.899   4.281
11475TIP3    H234369   1.739   1.824   4.404
11476TIP3   OH234370   8.153   2.346   1.784
11476TIP3    H134371   8.083   2.328   1.721
11476TIP3    H234372   8.231   2.359   1.730
11477TIP3   OH234373   6.709   3.308   3.312
11477TIP3    H134374   6.729   3.314   3.405
11477TIP3    H234375   6.632   3.364   3.300
11478TIP3   OH234376   2.914   5.511   3.653
11478TIP3    H134377   2.939   5.593   3.694
11478TIP3    H234378   2.955   5.514   3.566
11479TIP3   OH234379   2.883   4.740   5.247
11479TIP3    H134380   2.955   4.787   5.206
11479TIP3    H234381   2.838   4.806   5.299
11480TIP3   OH234382   0.142   3.917   4.617
11480TIP3    H134383   0.078   3.965   4.565
11480TIP3    H234384   0.219   3.909   4.559
11481TIP3   OH234385   2.103   1.089   0.872
11481TIP3    H134386   2.136   1.153   0.809
11481TIP3    H234387   2.025   1.052   0.830
11482TIP3   OH234388   7.432   6.916   3.527
11482TIP3    H134389   7.402   6.859   3.457
11482TIP3    H234390   7.405   7.004   3.500
11483TIP3   OH234391   7.668   1.823   3.623
11483TIP3    H134392   7.689   1.917   3.623
11483TIP3    H234393   7.751   1.780   3.642
11484TIP3   OH234394   2.948   3.369   4.785
11484TIP3    H134395   2.897   3.421   4.723
11484TIP3    H234396   2.907   3.385   4.870
11485TIP3   OH234397   7.101   2.667   2.844
11485TIP3    H134398   7.145   2.747   2.873
11485TIP3    H234399   7.028   2.699   2.790
11486TIP3   OH234400   6.762   0.124   0.615
11486TIP3    H134401   6.704   0.118   0.539
11486TIP3    H234402   6.829   0.059   0.599
11487TIP3   OH234403   4.233   2.729   3.399
11487TIP3    H134404   4.251   2.678   3.478
11487TIP3    H234405   4.138   2.721   3.386
11488TIP3   OH234406   5.207   3.152   5.395
11488TIP3    H134407   5.173   3.088   5.333
11488TIP3    H234408   5.183   3.118   5.481
11489TIP3   OH234409   2.396   3.703   4.217
11489TIP3    H134410   2.305   3.724   4.196
11489TIP3    H234411   2.425   3.777   4.272
11490TIP3   OH234412   5.198   1.085   0.815
11490TIP3    H134413   5.275   1.136   0.842
11490TIP3    H234414   5.211   1.072   0.721
11491TIP3   OH234415   4.438   2.749   3.794
11491TIP3    H134416   4.372   2.696   3.839
11491TIP3    H234417   4.388   2.817   3.749
11492TIP3   OH234418   1.765   5.148   1.539
11492TIP3    H134419   1.755   5.062   1.580
11492TIP3    H234420   1.698   5.148   1.470
11493TIP3   OH234421   1.266   4.129   2.106
11493TIP3    H134422   1.205   4.102   2.037
11493TIP3    H234423   1.352   4.099   2.075
11494TIP3   OH234424   3.358   1.919   2.902
11494TIP3    H134425   3.437   1.891   2.948
11494TIP3    H234426   3.287   1.874   2.947
11495TIP3   OH234427   1.500   7.490   4.795
11495TIP3    H134428   1.500   7.427   4.867
11495TIP3    H234429   1.475   7.438   4.718
11496TIP3   OH234430   5.596   5.889   0.795
11496TIP3    H134431   5.534   5.816   0.797
11496TIP3    H234432   5.643   5.883   0.878
11497TIP3   OH234433   5.947   2.776   2.313
11497TIP3    H134434   6.011   2.846   2.321
11497TIP3    H234435   5.871   2.817   2.273
11498TIP3   OH234436   0.944   5.516   2.350
11498TIP3    H134437   0.927   5.587   2.288
11498TIP3    H234438   0.990   5.449   2.299
11499TIP3   OH234439   7.362   1.229   3.784
11499TIP3    H134440   7.295   1.165   3.762
11499TIP3    H234441   7.412   1.189   3.856
11500TIP3   OH234442   2.059   1.462   2.292
11500TIP3    H134443   2.027   1.418   2.371
11500TIP3    H234444   2.062   1.554   2.316
11501TIP3   OH234445   4.943   0.136   4.683
11501TIP3    H134446   4.855   0.172   4.675
11501TIP3    H234447   5.001   0.211   4.668
11502TIP3   OH234448   3.532   6.284   6.279
11502TIP3    H134449   3.519   6.244   6.193
11502TIP3    H234450   3.444   6.309   6.308
11503TIP3   OH234451   0.658   6.252   3.596
11503TIP3    H134452   0.587   6.250   3.532
11503TIP3    H234453   0.632   6.321   3.658
11504TIP3   OH234454   5.580   1.744   6.319
11504TIP3    H134455   5.540   1.763   6.404
11504TIP3    H234456   5.518   1.778   6.255
11505TIP3   OH234457   6.524   2.950   4.225
11505TIP3    H134458   6.573   2.993   4.295
11505TIP3    H234459   6.478   3.021   4.180
11506TIP3   OH234460   4.515   2.586   4.091
11506TIP3    H134461   4.566   2.656   4.049
11506TIP3    H234462   4.495   2.620   4.178
11507TIP3   OH234463   4.365   4.847   2.902
11507TIP3    H134464   4.341   4.820   2.814
11507TIP3    H234465   4.379   4.941   2.895
11508TIP3   OH234466   7.716   7.847   4.009
11508TIP3    H134467   7.686   7.757   4.006
11508TIP3    H234468   7.795   7.845   4.063
11509TIP3   OH234469   2.470   4.122   2.692
11509TIP3    H134470   2.468   4.214   2.718
11509TIP3    H234471   2.378   4.097   2.687
11510TIP3   OH234472   7.083   4.782   2.059
11510TIP3    H134473   7.041   4.711   2.010
11510TIP3    H234474   7.014   4.847   2.070
11511TIP3   OH234475   7.251   2.898   4.287
11511TIP3    H134476   7.185   2.913   4.219
11511TIP3    H234477   7.281   2.985   4.311
11512TIP3   OH234478   3.620   5.133   3.148
11512TIP3    H134479   3.545   5.075   3.136
11512TIP3    H234480   3.614   5.162   3.239
11513TIP3   OH234481   5.904   6.596   5.163
11513TIP3    H134482   5.986   6.633   5.194
11513TIP3    H234483   5.842   6.612   5.235
11514TIP3   OH234484   7.517   7.112   0.859
11514TIP3    H134485   7.465   7.032   0.849
11514TIP3    H234486   7.582   7.107   0.788
11515TIP3   OH234487   3.289   7.393   5.723
11515TIP3    H134488   3.204   7.431   5.698
11515TIP3    H234489   3.287   7.392   5.819
11516TIP3   OH234490   5.651   7.163   4.657
11516TIP3    H134491   5.629   7.084   4.607
11516TIP3    H234492   5.641   7.136   4.748
11517TIP3   OH234493   2.955   7.052   2.996
11517TIP3    H134494   3.028   7.085   3.049
11517TIP3    H234495   2.876   7.083   3.040
11518TIP3   OH234496   6.575   7.423   4.327
11518TIP3    H134497   6.586   7.503   4.379
11518TIP3    H234498   6.538   7.453   4.244
11519TIP3   OH234499   6.347   3.483   1.278
11519TIP3    H134500   6.286   3.435   1.223
11519TIP3    H234501   6.407   3.525   1.216
11520TIP3   OH234502   1.863   6.698   4.666
11520TIP3    H134503   1.942   6.685   4.718
11520TIP3    H234504   1.829   6.610   4.652
11521TIP3   OH234505   0.986   6.677   3.970
11521TIP3    H134506   1.058   6.714   4.021
11521TIP3    H234507   0.909   6.688   4.025
11522TIP3   OH234508   7.658   3.218   5.608
11522TIP3    H134509   7.566   3.224   5.631
11522TIP3    H234510   7.659   3.206   5.513
11523TIP3   OH234511   3.295   3.068   1.721
11523TIP3    H134512   3.251   3.153   1.720
11523TIP3    H234513   3.388   3.090   1.727
11524TIP3   OH234514   1.828   4.720   4.877
11524TIP3    H134515   1.768   4.786   4.843
11524TIP3    H234516   1.788   4.691   4.959
11525TIP3   OH234517   1.964   5.752   5.066
11525TIP3    H134518   2.058   5.737   5.062
11525TIP3    H234519   1.926   5.676   5.022
11526TIP3   OH234520   7.181   5.691   0.250
11526TIP3    H134521   7.195   5.598   0.237
11526TIP3    H234522   7.086   5.703   0.249
11527TIP3   OH234523   7.979   7.621   6.422
11527TIP3    H134524   7.925   7.601   6.346
11527TIP3    H234525   7.948   7.560   6.489
11528TIP3   OH234526   7.318   2.017   1.065
11528TIP3    H134527   7.343   1.926   1.080
11528TIP3    H234528   7.376   2.046   0.994
11529TIP3   OH234529   4.653   6.134   1.762
11529TIP3    H134530   4.571   6.181   1.745
11529TIP3    H234531   4.707   6.152   1.685
11530TIP3   OH234532   4.323   5.757   5.401
11530TIP3    H134533   4.397   5.776   5.343
11530TIP3    H234534   4.326   5.663   5.415
11531TIP3   OH234535   1.233   7.034   5.857
11531TIP3    H134536   1.267   7.059   5.943
11531TIP3    H234537   1.309   7.034   5.800
11532TIP3   OH234538   2.917   4.227   0.749
11532TIP3    H134539   2.877   4.141   0.734
11532TIP3    H234540   2.845   4.282   0.778
11533TIP3   OH234541   5.973   3.714   5.224
11533TIP3    H134542   5.934   3.728   5.138
11533TIP3    H234543   5.914   3.652   5.267
11534TIP3   OH234544   1.028   3.536   3.133
11534TIP3    H134545   1.022   3.629   3.156
11534TIP3    H234546   0.973   3.492   3.198
11535TIP3   OH234547   5.866   7.729   4.937
11535TIP3    H134548   5.841   7.701   5.025
11535TIP3    H234549   5.784   7.728   4.887
11536TIP3   OH234550   5.454   1.028   5.943
11536TIP3    H134551   5.508   1.107   5.934
11536TIP3    H234552   5.370   1.060   5.975
11537TIP3   OH234553   7.357   6.237   4.933
11537TIP3    H134554   7.306   6.156   4.938
11537TIP3    H234555   7.447   6.209   4.944
11538TIP3   OH234556   0.318   2.652   0.052
11538TIP3    H134557   0.235   2.613   0.080
11538TIP3    H234558   0.297   2.698  -0.029
11539TIP3   OH234559   6.495   0.822   4.530
11539TIP3    H134560   6.447   0.884   4.475
11539TIP3    H234561   6.485   0.855   4.619
11540TIP3   OH234562   1.093   0.615   4.032
11540TIP3    H134563   1.053   0.693   3.993
11540TIP3    H234564   1.023   0.550   4.032
11541TIP3   OH234565   6.709   0.841   1.436
11541TIP3    H134566   6.700   0.908   1.503
11541TIP3    H234567   6.778   0.783   1.468
11542TIP3   OH234568   3.605   7.704   6.109
11542TIP3    H134569   3.648   7.690   6.194
11542TIP3    H234570   3.571   7.793   6.114
11543TIP3   OH234571   0.730   7.827   0.065
11543TIP3    H134572   0.634   7.833   0.065
11543TIP3    H234573   0.752   7.799   0.154
11544TIP3   OH234574   4.099   5.704   2.604
11544TIP3    H134575   4.191   5.697   2.579
11544TIP3    H234576   4.066   5.615   2.601
11545TIP3   OH234577   4.323   2.736   0.369
11545TIP3    H134578   4.265   2.660   0.363
11545TIP3    H234579   4.300   2.790   0.293
11546TIP3   OH234580   6.127   3.460   1.840
11546TIP3    H134581   6.114   3.506   1.923
11546TIP3    H234582   6.125   3.367   1.863
11547TIP3   OH234583   4.706   4.430   3.850
11547TIP3    H134584   4.703   4.335   3.839
11547TIP3    H234585   4.620   4.461   3.820
11548TIP3   OH234586   2.977   6.661   1.855
11548TIP3    H134587   3.047   6.601   1.883
11548TIP3    H234588   2.898   6.628   1.898
11549TIP3   OH234589   7.031   6.696   3.678
11549TIP3    H134590   7.019   6.616   3.729
11549TIP3    H234591   7.043   6.665   3.588
11550TIP3   OH234592   6.692   3.270   1.793
11550TIP3    H134593   6.611   3.220   1.805
11550TIP3    H234594   6.666   3.361   1.808
11551TIP3   OH234595   0.559   5.797   4.117
11551TIP3    H134596   0.650   5.818   4.094
11551TIP3    H234597   0.556   5.701   4.115
11552TIP3   OH234598   6.684   7.543   3.598
11552TIP3    H134599   6.598   7.501   3.600
11552TIP3    H234600   6.733   7.501   3.668
11553TIP3   OH234601   6.916   7.397   0.134
11553TIP3    H134602   6.899   7.363   0.222
11553TIP3    H234603   7.008   7.423   0.136
11554TIP3   OH234604   8.226   3.967   5.855
11554TIP3    H134605   8.290   3.988   5.787
11554TIP3    H234606   8.264   4.001   5.936
11555TIP3   OH234607   4.408   1.776   3.475
11555TIP3    H134608   4.393   1.831   3.552
11555TIP3    H234609   4.359   1.695   3.493
11556TIP3   OH234610   4.436   7.026   2.722
11556TIP3    H134611   4.481   7.007   2.805
11556TIP3    H234612   4.460   7.116   2.702
11557TIP3   OH234613   4.195   0.946   4.507
11557TIP3    H134614   4.141   0.868   4.523
11557TIP3    H234615   4.134   1.019   4.509
11558TIP3   OH234616   0.871   7.005   3.616
11558TIP3    H134617   0.911   6.989   3.702
11558TIP3    H234618   0.934   7.062   3.571
11559TIP3   OH234619   4.909   0.655   2.595
11559TIP3    H134620   4.999   0.687   2.602
11559TIP3    H234621   4.872   0.706   2.522
11560TIP3   OH234622   4.211   2.519   1.001
11560TIP3    H134623   4.143   2.478   0.947
11560TIP3    H234624   4.183   2.503   1.091
11561TIP3   OH234625   6.909   1.266   2.177
11561TIP3    H134626   6.886   1.355   2.203
11561TIP3    H234627   6.945   1.276   2.089
11562TIP3   OH234628   8.083   3.683   1.837
11562TIP3    H134629   8.067   3.777   1.824
11562TIP3    H234630   8.039   3.641   1.763
11563TIP3   OH234631   0.419   4.756   3.751
11563TIP3    H134632   0.456   4.754   3.839
11563TIP3    H234633   0.347   4.692   3.753
11564TIP3   OH234634   3.150   3.721   4.547
11564TIP3    H134635   3.181   3.701   4.635
11564TIP3    H234636   3.136   3.816   4.548
11565TIP3   OH234637   1.810   3.911   1.066
11565TIP3    H134638   1.819   3.954   1.151
11565TIP3    H234639   1.889   3.934   1.019
11566TIP3   OH234640   0.973   3.680   0.412
11566TIP3    H134641   0.952   3.710   0.323
11566TIP3    H234642   0.921   3.600   0.422
11567TIP3   OH234643   3.821   5.738   6.369
11567TIP3    H134644   3.770   5.775   6.297
11567TIP3    H234645   3.906   5.718   6.329
11568TIP3   OH234646   1.586   0.795   0.883
11568TIP3    H134647   1.564   0.720   0.938
11568TIP3    H234648   1.625   0.758   0.805
11569TIP3   OH234649   4.526   5.920   3.193
11569TIP3    H134650   4.489   6.007   3.202
11569TIP3    H234651   4.451   5.861   3.194
11570TIP3   OH234652   3.824   5.999   3.487
11570TIP3    H134653   3.800   5.976   3.577
11570TIP3    H234654   3.919   5.996   3.485
11571TIP3   OH234655   4.085   0.810   5.919
11571TIP3    H134656   4.044   0.894   5.939
11571TIP3    H234657   4.014   0.746   5.926
11572TIP3   OH234658   0.336   3.002   1.735
11572TIP3    H134659   0.242   3.010   1.749
11572TIP3    H234660   0.356   2.911   1.754
11573TIP3   OH234661   2.984   3.631   2.430
11573TIP3    H134662   2.971   3.695   2.360
11573TIP3    H234663   3.075   3.642   2.457
11574TIP3   OH234664   4.244   5.084   6.083
11574TIP3    H134665   4.192   5.080   6.163
11574TIP3    H234666   4.230   4.999   6.041
11575TIP3   OH234667   0.952   4.399   3.719
11575TIP3    H134668   1.023   4.450   3.679
11575TIP3    H234669   0.996   4.346   3.786
11576TIP3   OH234670   5.027   0.827   5.792
11576TIP3    H134671   5.109   0.831   5.842
11576TIP3    H234672   4.959   0.812   5.857
11577TIP3   OH234673   5.541   7.812   3.978
11577TIP3    H134674   5.618   7.770   3.940
11577TIP3    H234675   5.471   7.748   3.967
11578TIP3   OH234676   8.192   6.603   3.931
11578TIP3    H134677   8.264   6.650   3.887
11578TIP3    H234678   8.228   6.517   3.950
11579TIP3   OH234679   6.805   4.975   2.660
11579TIP3    H134680   6.743   4.919   2.706
11579TIP3    H234681   6.890   4.931   2.671
11580TIP3   OH234682   3.811   3.811   3.953
11580TIP3    H134683   3.849   3.803   4.041
11580TIP3    H234684   3.800   3.906   3.941
11581TIP3   OH234685   3.796   6.070   0.083
11581TIP3    H134686   3.714   6.067   0.133
11581TIP3    H234687   3.772   6.037  -0.003
11582TIP3   OH234688   3.169   2.072   1.444
11582TIP3    H134689   3.086   2.025   1.455
11582TIP3    H234690   3.145   2.164   1.453
11583TIP3   OH234691   2.038   3.543   4.402
11583TIP3    H134692   2.104   3.492   4.356
11583TIP3    H234693   2.081   3.626   4.423
11584TIP3   OH234694   6.387   2.961   2.932
11584TIP3    H134695   6.391   2.889   2.869
11584TIP3    H234696   6.355   2.922   3.013
11585TIP3   OH234697   7.496   7.171   1.223
11585TIP3    H134698   7.573   7.114   1.215
11585TIP3    H234699   7.428   7.115   1.260
11586TIP3   OH234700   6.399   4.137   4.460
11586TIP3    H134701   6.493   4.124   4.467
11586TIP3    H234702   6.360   4.072   4.518
11587TIP3   OH234703   2.743   2.246   2.404
11587TIP3    H134704   2.829   2.203   2.404
11587TIP3    H234705   2.732   2.278   2.494
11588TIP3   OH234706   5.577   6.554   6.118
11588TIP3    H134707   5.523   6.630   6.095
11588TIP3    H234708   5.529   6.479   6.082
11589TIP3   OH234709   3.474   2.869   0.332
11589TIP3    H134710   3.558   2.844   0.293
11589TIP3    H234711   3.470   2.964   0.322
11590TIP3   OH234712   1.033   7.023   4.087
11590TIP3    H134713   1.090   7.035   4.163
11590TIP3    H234714   1.086   7.054   4.013
11591TIP3   OH234715   2.214   0.270   1.058
11591TIP3    H134716   2.211   0.187   1.012
11591TIP3    H234717   2.123   0.290   1.080
11592TIP3   OH234718   5.349   6.579   3.054
11592TIP3    H134719   5.254   6.575   3.042
11592TIP3    H234720   5.375   6.488   3.070
11593TIP3   OH234721   1.274   7.217   1.084
11593TIP3    H134722   1.187   7.231   1.048
11593TIP3    H234723   1.322   7.171   1.015
11594TIP3   OH234724   7.869   3.779   1.058
11594TIP3    H134725   7.866   3.862   1.105
11594TIP3    H234726   7.961   3.769   1.033
11595TIP3   OH234727   1.808   0.342   2.217
11595TIP3    H134728   1.740   0.282   2.184
11595TIP3    H234729   1.777   0.367   2.304
11596TIP3   OH234730   3.850   1.311   6.459
11596TIP3    H134731   3.945   1.312   6.447
11596TIP3    H234732   3.838   1.275   6.547
11597TIP3   OH234733   6.238   7.115   5.358
11597TIP3    H134734   6.150   7.143   5.384
11597TIP3    H234735   6.235   7.112   5.262
11598TIP3   OH234736   6.588   1.160   0.225
11598TIP3    H134737   6.609   1.101   0.153
11598TIP3    H234738   6.610   1.247   0.192
11599TIP3   OH234739   6.844   5.269   3.679
11599TIP3    H134740   6.932   5.284   3.715
11599TIP3    H234741   6.847   5.181   3.642
11600TIP3   OH234742   2.972   0.568   5.057
11600TIP3    H134743   3.053   0.609   5.088
11600TIP3    H234744   2.973   0.581   4.963
11601TIP3   OH234745   5.413   3.243   6.572
11601TIP3    H134746   5.418   3.209   6.661
11601TIP3    H234747   5.319   3.247   6.554
11602TIP3   OH234748   2.549   0.258   4.892
11602TIP3    H134749   2.627   0.206   4.913
11602TIP3    H234750   2.512   0.281   4.977
11603TIP3   OH234751   7.413   2.285   3.889
11603TIP3    H134752   7.464   2.291   3.809
11603TIP3    H234753   7.430   2.196   3.921
11604TIP3   OH234754   1.264   5.523   1.342
11604TIP3    H134755   1.203   5.588   1.378
11604TIP3    H234756   1.351   5.556   1.367
11605TIP3   OH234757   6.631   0.058   5.338
11605TIP3    H134758   6.726   0.063   5.328
11605TIP3    H234759   6.597   0.060   5.249
11606TIP3   OH234760   1.661   3.130   5.565
11606TIP3    H134761   1.632   3.061   5.505
11606TIP3    H234762   1.588   3.141   5.626
11607TIP3   OH234763   0.581   7.068   5.375
11607TIP3    H134764   0.673   7.087   5.357
11607TIP3    H234765   0.582   7.018   5.457
11608TIP3   OH234766   4.362   0.447   5.076
11608TIP3    H134767   4.441   0.397   5.054
11608TIP3    H234768   4.387   0.498   5.153
11609TIP3   OH234769   7.401   6.740   1.351
11609TIP3    H134770   7.359   6.819   1.318
11609TIP3    H234771   7.488   6.768   1.378
11610TIP3   OH234772   8.280   4.708   6.690
11610TIP3    H134773   8.295   4.801   6.673
11610TIP3    H234774   8.329   4.664   6.621
11611TIP3   OH234775   4.621   1.250   6.555
11611TIP3    H134776   4.597   1.342   6.568
11611TIP3    H234777   4.605   1.208   6.639
11612TIP3   OH234778   6.510   6.720   4.056
11612TIP3    H134779   6.516   6.686   4.145
11612TIP3    H234780   6.446   6.790   4.062
11613TIP3   OH234781   7.954   3.960   3.336
11613TIP3    H134782   8.036   3.917   3.360
11613TIP3    H234783   7.903   3.892   3.292
11614TIP3   OH234784   3.615   6.602   2.476
11614TIP3    H134785   3.564   6.673   2.437
11614TIP3    H234786   3.620   6.535   2.408
11615TIP3   OH234787   7.298   6.895   5.350
11615TIP3    H134788   7.377   6.945   5.331
11615TIP3    H234789   7.288   6.836   5.275
11616TIP3   OH234790   1.910   5.335   3.948
11616TIP3    H134791   1.956   5.318   4.030
11616TIP3    H234792   1.974   5.317   3.879
11617TIP3   OH234793   0.859   1.621   2.390
11617TIP3    H134794   0.911   1.697   2.414
11617TIP3    H234795   0.832   1.582   2.473
11618TIP3   OH234796   5.099   5.258   0.191
11618TIP3    H134797   5.124   5.249   0.283
11618TIP3    H234798   5.168   5.212   0.143
11619TIP3   OH234799   7.418   2.632   5.135
11619TIP3    H134800   7.347   2.693   5.117
11619TIP3    H234801   7.374   2.548   5.150
11620TIP3   OH234802   7.788   5.242   2.338
11620TIP3    H134803   7.796   5.242   2.433
11620TIP3    H234804   7.872   5.276   2.307
11621TIP3   OH234805   1.504   5.996   0.047
11621TIP3    H134806   1.513   5.933   0.119
11621TIP3    H234807   1.410   6.008   0.037
11622TIP3   OH234808   2.386   5.707   4.562
11622TIP3    H134809   2.446   5.778   4.541
11622TIP3    H234810   2.300   5.748   4.569
11623TIP3   OH234811   1.996   4.612   6.081
11623TIP3    H134812   1.914   4.659   6.083
11623TIP3    H234813   2.013   4.595   5.988
11624TIP3   OH234814   1.928   5.165   6.071
11624TIP3    H134815   1.950   5.136   5.983
11624TIP3    H234816   1.868   5.238   6.058
11625TIP3   OH234817   1.841   7.105   5.869
11625TIP3    H134818   1.799   7.175   5.820
11625TIP3    H234819   1.933   7.109   5.842
11626TIP3   OH234820   5.122   3.551   2.360
11626TIP3    H134821   5.027   3.546   2.352
11626TIP3    H234822   5.148   3.466   2.395
11627TIP3   OH234823   1.107   6.972   6.191
11627TIP3    H134824   1.098   7.013   6.105
11627TIP3    H234825   1.023   6.989   6.234
11628TIP3   OH234826   7.967   2.581   5.408
11628TIP3    H134827   8.029   2.654   5.410
11628TIP3    H234828   7.965   2.554   5.316
11629TIP3   OH234829   7.170   6.703   2.534
11629TIP3    H134830   7.126   6.775   2.579
11629TIP3    H234831   7.193   6.642   2.604
11630TIP3   OH234832   5.246   0.668   1.927
11630TIP3    H134833   5.158   0.657   1.892
11630TIP3    H234834   5.251   0.606   1.999
11631TIP3   OH234835   5.976   2.518   2.031
11631TIP3    H134836   6.014   2.433   2.009
11631TIP3    H234837   5.961   2.560   1.946
11632TIP3   OH234838   3.698   4.273   5.321
11632TIP3    H134839   3.778   4.237   5.360
11632TIP3    H234840   3.729   4.338   5.259
11633TIP3   OH234841   1.663   4.898   1.627
11633TIP3    H134842   1.696   4.829   1.685
11633TIP3    H234843   1.586   4.859   1.586
11634TIP3   OH234844   2.051   4.707   6.345
11634TIP3    H134845   2.042   4.682   6.253
11634TIP3    H234846   1.991   4.649   6.392
11635TIP3   OH234847   1.019   0.430   0.836
11635TIP3    H134848   0.945   0.486   0.859
11635TIP3    H234849   1.035   0.449   0.743
11636TIP3   OH234850   4.666   0.093   0.156
11636TIP3    H134851   4.655   0.188   0.149
11636TIP3    H234852   4.760   0.080   0.156
11637TIP3   OH234853   7.125   3.543   4.300
11637TIP3    H134854   7.071   3.603   4.249
11637TIP3    H234855   7.186   3.599   4.347
11638TIP3   OH234856   5.700   2.783   3.058
11638TIP3    H134857   5.703   2.688   3.046
11638TIP3    H234858   5.629   2.797   3.121
11639TIP3   OH234859   1.652   4.863   3.717
11639TIP3    H134860   1.664   4.958   3.724
11639TIP3    H234861   1.697   4.828   3.794
11640TIP3   OH234862   5.983   1.134   2.934
11640TIP3    H134863   5.957   1.226   2.942
11640TIP3    H234864   5.924   1.098   2.868
11641TIP3   OH234865   2.337   4.560   6.096
11641TIP3    H134866   2.259   4.536   6.045
11641TIP3    H234867   2.395   4.603   6.033
11642TIP3   OH234868   0.705   3.936   5.455
11642TIP3    H134869   0.799   3.927   5.438
11642TIP3    H234870   0.699   3.958   5.548
11643TIP3   OH234871   5.132   0.449   0.758
11643TIP3    H134872   5.063   0.429   0.821
11643TIP3    H234873   5.093   0.429   0.673
11644TIP3   OH234874   7.632   7.740   1.289
11644TIP3    H134875   7.571   7.814   1.297
11644TIP3    H234876   7.672   7.734   1.376
11645TIP3   OH234877   6.320   2.159   2.472
11645TIP3    H134878   6.250   2.135   2.412
11645TIP3    H234879   6.287   2.136   2.559
11646TIP3   OH234880   0.959   5.738   1.847
11646TIP3    H134881   0.981   5.648   1.823
11646TIP3    H234882   0.976   5.743   1.941
11647TIP3   OH234883   5.977   7.007   2.491
11647TIP3    H134884   6.064   6.988   2.457
11647TIP3    H234885   5.968   6.950   2.567
11648TIP3   OH234886   3.482   5.112   3.711
11648TIP3    H134887   3.477   5.206   3.727
11648TIP3    H234888   3.560   5.084   3.759
11649TIP3   OH234889   6.446   2.328   4.778
11649TIP3    H134890   6.536   2.351   4.801
11649TIP3    H234891   6.396   2.408   4.794
11650TIP3   OH234892   3.384   4.523   2.734
11650TIP3    H134893   3.404   4.466   2.807
11650TIP3    H234894   3.460   4.516   2.676
11651TIP3   OH234895   8.255   5.609   5.670
11651TIP3    H134896   8.258   5.515   5.688
11651TIP3    H234897   8.162   5.629   5.657
11652TIP3   OH234898   1.875   4.907   5.183
11652TIP3    H134899   1.797   4.940   5.226
11652TIP3    H234900   1.899   4.828   5.233
11653TIP3   OH234901   2.942   4.371   3.620
11653TIP3    H134902   2.925   4.280   3.593
11653TIP3    H234903   3.029   4.368   3.659
11654TIP3   OH234904   1.415   2.139   2.424
11654TIP3    H134905   1.358   2.212   2.450
11654TIP3    H234906   1.435   2.156   2.333
11655TIP3   OH234907   5.845   1.272   6.107
11655TIP3    H134908   5.926   1.229   6.133
11655TIP3    H234909   5.819   1.324   6.183
11656TIP3   OH234910   6.916   4.186   2.688
11656TIP3    H134911   6.951   4.196   2.776
11656TIP3    H234912   6.956   4.257   2.638
11657TIP3   OH234913   1.668   7.384   2.780
11657TIP3    H134914   1.690   7.453   2.717
11657TIP3    H234915   1.753   7.358   2.816
11658TIP3   OH234916   5.168   6.078   4.232
11658TIP3    H134917   5.120   6.158   4.208
11658TIP3    H234918   5.100   6.012   4.242
11659TIP3   OH234919   0.369   1.197   3.319
11659TIP3    H134920   0.380   1.195   3.224
11659TIP3    H234921   0.421   1.272   3.347
11660TIP3   OH234922   6.548   0.558   3.590
11660TIP3    H134923   6.515   0.471   3.612
11660TIP3    H234924   6.544   0.561   3.494
11661TIP3   OH234925   5.689   7.692   1.291
11661TIP3    H134926   5.678   7.709   1.198
11661TIP3    H234927   5.711   7.599   1.297
11662TIP3   OH234928   7.241   6.927   5.032
11662TIP3    H134929   7.160   6.972   5.055
11662TIP3    H234930   7.232   6.841   5.072
11663TIP3   OH234931   2.961   6.710   0.628
11663TIP3    H134932   3.027   6.656   0.672
11663TIP3    H234933   2.946   6.783   0.688
11664TIP3   OH234934   8.039   7.784   0.743
11664TIP3    H134935   8.132   7.797   0.763
11664TIP3    H234936   8.030   7.689   0.735
11665TIP3   OH234937   3.483   1.746   5.149
11665TIP3    H134938   3.504   1.815   5.211
11665TIP3    H234939   3.527   1.771   5.069
11666TIP3   OH234940   3.094   3.653   6.264
11666TIP3    H134941   3.020   3.669   6.323
11666TIP3    H234942   3.083   3.717   6.194
11667TIP3   OH234943   5.710   2.090   2.587
11667TIP3    H134944   5.758   2.012   2.614
11667TIP3    H234945   5.752   2.162   2.634
11668TIP3   OH234946   0.918   2.491   0.209
11668TIP3    H134947   0.863   2.440   0.150
11668TIP3    H234948   0.883   2.473   0.296
11669TIP3   OH234949   1.884   0.262   0.192
11669TIP3    H134950   1.874   0.192   0.127
11669TIP3    H234951   1.971   0.298   0.175
11670TIP3   OH234952   3.421   2.223   1.660
11670TIP3    H134953   3.504   2.235   1.706
11670TIP3    H234954   3.427   2.280   1.583
11671TIP3   OH234955   4.700   6.450   5.362
11671TIP3    H134956   4.702   6.529   5.416
11671TIP3    H234957   4.666   6.479   5.278
11672TIP3   OH234958   3.748   6.113   2.635
11672TIP3    H134959   3.681   6.068   2.686
11672TIP3    H234960   3.822   6.053   2.633
11673TIP3   OH234961   1.504   3.450   2.179
11673TIP3    H134962   1.457   3.403   2.247
11673TIP3    H234963   1.459   3.426   2.098
11674TIP3   OH234964   4.684   2.820   2.111
11674TIP3    H134965   4.635   2.738   2.114
11674TIP3    H234966   4.617   2.888   2.117
11675TIP3   OH234967   2.561   1.213   4.139
11675TIP3    H134968   2.515   1.169   4.067
11675TIP3    H234969   2.616   1.278   4.095
11676TIP3   OH234970   0.839   0.587   0.956
11676TIP3    H134971   0.764   0.530   0.939
11676TIP3    H234972   0.810   0.674   0.926
11677TIP3   OH234973   6.677   4.135   5.579
11677TIP3    H134974   6.666   4.041   5.563
11677TIP3    H234975   6.587   4.168   5.581
11678TIP3   OH234976   3.422   5.076   0.356
11678TIP3    H134977   3.363   5.052   0.428
11678TIP3    H234978   3.371   5.137   0.303
11679TIP3   OH234979   8.238   3.543   3.963
11679TIP3    H134980   8.242   3.464   3.908
11679TIP3    H234981   8.155   3.534   4.011
11680TIP3   OH234982   0.306   0.999   5.001
11680TIP3    H134983   0.224   0.950   5.002
11680TIP3    H234984   0.317   1.026   4.910
11681TIP3   OH234985   7.541   4.362   1.575
11681TIP3    H134986   7.520   4.443   1.528
11681TIP3    H234987   7.606   4.388   1.640
11682TIP3   OH234988   5.584   5.897   6.314
11682TIP3    H134989   5.592   5.809   6.277
11682TIP3    H234990   5.602   5.955   6.240
11683TIP3   OH234991   7.478   4.409   5.244
11683TIP3    H134992   7.393   4.394   5.202
11683TIP3    H234993   7.468   4.371   5.331
11684TIP3   OH234994   0.785   4.624   4.195
11684TIP3    H134995   0.849   4.632   4.266
11684TIP3    H234996   0.837   4.599   4.119
11685TIP3   OH234997   0.540   2.271   5.557
11685TIP3    H134998   0.594   2.194   5.575
11685TIP3    H234999   0.501   2.293   5.641
11686TIP3   OH235000   0.634   1.633   1.380
11686TIP3    H135001   0.551   1.675   1.361
11686TIP3    H235002   0.647   1.647   1.474
11687TIP3   OH235003   0.716   2.378   1.716
11687TIP3    H135004   0.811   2.383   1.706
11687TIP3    H235005   0.696   2.439   1.787
11688TIP3   OH235006   0.729   5.520   1.683
11688TIP3    H135007   0.740   5.455   1.614
11688TIP3    H235008   0.786   5.489   1.754
11689TIP3   OH235009   0.057   4.216   4.084
11689TIP3    H135010  -0.031   4.211   4.047
11689TIP3    H235011   0.096   4.131   4.063
11690TIP3   OH235012   3.855   2.984   4.402
11690TIP3    H135013   3.897   2.977   4.487
11690TIP3    H235014   3.814   2.899   4.388
11691TIP3   OH235015   3.096   6.173   1.340
11691TIP3    H135016   3.134   6.239   1.398
11691TIP3    H235017   3.171   6.131   1.299
11692TIP3   OH235018   0.276   6.078   3.606
11692TIP3    H135019   0.263   6.167   3.637
11692TIP3    H235020   0.370   6.063   3.614
11693TIP3   OH235021   6.981   3.667   2.452
11693TIP3    H135022   7.011   3.692   2.365
11693TIP3    H235023   7.060   3.640   2.499
11694TIP3   OH235024   7.605   6.866   0.627
11694TIP3    H135025   7.658   6.945   0.621
11694TIP3    H235026   7.612   6.825   0.541
11695TIP3   OH235027   1.509   0.267   5.899
11695TIP3    H135028   1.550   0.209   5.835
11695TIP3    H235029   1.456   0.327   5.847
11696TIP3   OH235030   2.158   6.830   5.682
11696TIP3    H135031   2.228   6.860   5.623
11696TIP3    H235032   2.084   6.815   5.624
11697TIP3   OH235033   3.985   7.220   6.644
11697TIP3    H135034   3.895   7.253   6.649
11697TIP3    H235035   3.987   7.146   6.705
11698TIP3   OH235036   4.957   3.132   6.612
11698TIP3    H135037   5.017   3.071   6.654
11698TIP3    H235038   4.874   3.085   6.609
11699TIP3   OH235039   8.252   7.531   0.948
11699TIP3    H135040   8.297   7.604   0.904
11699TIP3    H235041   8.241   7.562   1.039
11700TIP3   OH235042   7.188   6.272   5.679
11700TIP3    H135043   7.268   6.271   5.732
11700TIP3    H235044   7.205   6.207   5.610
11701TIP3   OH235045   1.711   0.362   3.609
11701TIP3    H135046   1.664   0.355   3.526
11701TIP3    H235047   1.715   0.456   3.627
11702TIP3   OH235048   3.165   6.682   3.631
11702TIP3    H135049   3.203   6.736   3.561
11702TIP3    H235050   3.220   6.700   3.707
11703TIP3   OH235051   4.236   7.561   3.430
11703TIP3    H135052   4.225   7.468   3.407
11703TIP3    H235053   4.316   7.587   3.384
11704TIP3   OH235054   0.775   7.333   2.925
11704TIP3    H135055   0.856   7.286   2.905
11704TIP3    H235056   0.797   7.426   2.912
11705TIP3   OH235057   7.963   4.729   2.438
11705TIP3    H135058   7.945   4.821   2.454
11705TIP3    H235059   8.031   4.707   2.502
11706TIP3   OH235060   1.583   5.971   1.231
11706TIP3    H135061   1.524   6.031   1.185
11706TIP3    H235062   1.667   6.017   1.232
11707TIP3   OH235063   5.461   1.891   2.539
11707TIP3    H135064   5.424   1.906   2.626
11707TIP3    H235065   5.429   1.805   2.512
11708TIP3   OH235066   6.261   1.386   3.097
11708TIP3    H135067   6.323   1.449   3.133
11708TIP3    H235068   6.308   1.345   3.024
11709TIP3   OH235069   3.512   1.630   5.835
11709TIP3    H135070   3.496   1.724   5.829
11709TIP3    H235071   3.607   1.622   5.827
11710TIP3   OH235072   7.746   5.357   5.838
11710TIP3    H135073   7.726   5.314   5.922
11710TIP3    H235074   7.838   5.382   5.846
11711TIP3   OH235075   6.410   2.231   4.356
11711TIP3    H135076   6.499   2.234   4.390
11711TIP3    H235077   6.420   2.233   4.261
11712TIP3   OH235078   2.539   4.125   6.084
11712TIP3    H135079   2.582   4.136   6.169
11712TIP3    H235080   2.484   4.047   6.095
11713TIP3   OH235081   7.779   5.622   3.891
11713TIP3    H135082   7.756   5.715   3.900
11713TIP3    H235083   7.861   5.612   3.939
11714TIP3   OH235084   3.385   7.482   1.969
11714TIP3    H135085   3.293   7.501   1.948
11714TIP3    H235086   3.418   7.434   1.894
11715TIP3   OH235087   4.570   1.400   4.170
11715TIP3    H135088   4.622   1.397   4.090
11715TIP3    H235089   4.635   1.407   4.240
11716TIP3   OH235090   3.551   7.237   0.642
11716TIP3    H135091   3.456   7.234   0.647
11716TIP3    H235092   3.574   7.320   0.685
11717TIP3   OH235093   2.449   6.135   5.378
11717TIP3    H135094   2.520   6.126   5.441
11717TIP3    H235095   2.377   6.174   5.427
11718TIP3   OH235096   6.381   5.605   6.454
11718TIP3    H135097   6.289   5.595   6.429
11718TIP3    H235098   6.383   5.587   6.548
11719TIP3   OH235099   0.854   2.464   3.729
11719TIP3    H135100   0.883   2.423   3.810
11719TIP3    H235101   0.789   2.404   3.693
11720TIP3   OH235102   4.270   4.056   4.273
11720TIP3    H135103   4.365   4.050   4.279
11720TIP3    H235104   4.245   3.987   4.211
11721TIP3   OH235105   0.971   6.933   6.588
11721TIP3    H135106   1.025   6.858   6.562
11721TIP3    H235107   0.983   6.998   6.519
11722TIP3   OH235108   5.999   5.982   6.401
11722TIP3    H135109   6.014   6.073   6.373
11722TIP3    H235110   5.928   5.951   6.345
11723TIP3   OH235111   5.293   4.499   6.100
11723TIP3    H135112   5.267   4.556   6.172
11723TIP3    H235113   5.375   4.537   6.068
11724TIP3   OH235114   4.545   6.663   3.411
11724TIP3    H135115   4.611   6.725   3.380
11724TIP3    H235116   4.465   6.689   3.366
11725TIP3   OH235117   1.535   5.027   2.129
11725TIP3    H135118   1.579   5.111   2.118
11725TIP3    H235119   1.514   5.000   2.040
11726TIP3   OH235120   2.694   0.530   1.878
11726TIP3    H135121   2.705   0.484   1.961
11726TIP3    H235122   2.629   0.478   1.830
11727TIP3   OH235123   7.357   0.110   4.027
11727TIP3    H135124   7.313   0.070   3.952
11727TIP3    H235125   7.369   0.201   4.002
11728TIP3   OH235126   7.367   5.880   4.766
11728TIP3    H135127   7.334   5.919   4.847
11728TIP3    H235128   7.436   5.939   4.737
11729TIP3   OH235129   0.391   4.408   6.254
11729TIP3    H135130   0.411   4.417   6.347
11729TIP3    H235131   0.335   4.330   6.248
11730TIP3   OH235132   7.980   3.211   0.419
11730TIP3    H135133   7.922   3.230   0.492
11730TIP3    H235134   7.940   3.136   0.375
11731TIP3   OH235135   7.314   5.642   5.922
11731TIP3    H135136   7.235   5.692   5.942
11731TIP3    H235137   7.382   5.683   5.975
11732TIP3   OH235138   0.125   1.360   3.466
11732TIP3    H135139   0.218   1.342   3.481
11732TIP3    H235140   0.098   1.411   3.542
11733TIP3   OH235141   4.708   3.204   3.307
11733TIP3    H135142   4.668   3.290   3.306
11733TIP3    H235143   4.669   3.158   3.233
11734TIP3   OH235144   3.131   5.951   1.985
11734TIP3    H135145   3.182   6.032   1.982
11734TIP3    H235146   3.138   5.922   2.076
11735TIP3   OH235147   3.567   3.661   3.536
11735TIP3    H135148   3.589   3.754   3.538
11735TIP3    H235149   3.573   3.633   3.627
11736TIP3   OH235150   3.448   0.736   2.334
11736TIP3    H135151   3.467   0.718   2.242
11736TIP3    H235152   3.445   0.650   2.376
11737TIP3   OH235153   4.367   2.344   6.633
11737TIP3    H135154   4.346   2.411   6.569
11737TIP3    H235155   4.352   2.385   6.718
11738TIP3   OH235156   3.123   4.036   5.642
11738TIP3    H135157   3.039   3.991   5.646
11738TIP3    H235158   3.180   3.984   5.699
11739TIP3   OH235159   6.901   6.916   3.291
11739TIP3    H135160   6.910   6.822   3.307
11739TIP3    H235161   6.964   6.935   3.221
11740TIP3   OH235162   1.753   4.578   2.640
11740TIP3    H135163   1.695   4.511   2.604
11740TIP3    H235164   1.693   4.639   2.684
11741TIP3   OH235165   5.587   1.052   5.318
11741TIP3    H135166   5.495   1.039   5.340
11741TIP3    H235167   5.595   1.020   5.228
11742TIP3   OH235168   7.379   3.206   2.885
11742TIP3    H135169   7.424   3.194   2.801
11742TIP3    H235170   7.428   3.275   2.929
11743TIP3   OH235171   3.854   2.773   2.398
11743TIP3    H135172   3.893   2.688   2.418
11743TIP3    H235173   3.760   2.756   2.390
11744TIP3   OH235174   8.051   4.235   3.005
11744TIP3    H135175   8.056   4.251   3.100
11744TIP3    H235176   7.995   4.157   2.998
11745TIP3   OH235177   2.534   4.858   5.043
11745TIP3    H135178   2.557   4.946   5.073
11745TIP3    H235179   2.605   4.834   4.983
11746TIP3   OH235180   3.839   3.166   0.928
11746TIP3    H135181   3.898   3.207   0.992
11746TIP3    H235182   3.756   3.213   0.938
11747TIP3   OH235183   5.630   2.702   0.093
11747TIP3    H135184   5.653   2.772   0.154
11747TIP3    H235185   5.707   2.692   0.036
11748TIP3   OH235186   6.779   7.186   1.002
11748TIP3    H135187   6.826   7.142   0.932
11748TIP3    H235188   6.814   7.274   1.004
11749TIP3   OH235189   6.769   4.481   5.422
11749TIP3    H135190   6.726   4.435   5.350
11749TIP3    H235191   6.862   4.469   5.407
11750TIP3   OH235192   4.495   4.376   1.193
11750TIP3    H135193   4.580   4.365   1.151
11750TIP3    H235194   4.513   4.360   1.286
11751TIP3   OH235195   1.429   0.220   2.963
11751TIP3    H135196   1.453   0.170   2.885
11751TIP3    H235197   1.505   0.215   3.019
11752TIP3   OH235198   2.815   7.365   6.380
11752TIP3    H135199   2.801   7.459   6.372
11752TIP3    H235200   2.898   7.357   6.427
11753TIP3   OH235201   5.310   3.483   1.683
11753TIP3    H135202   5.404   3.499   1.696
11753TIP3    H235203   5.272   3.570   1.672
11754TIP3   OH235204   0.107   3.154   1.361
11754TIP3    H135205   0.060   3.216   1.305
11754TIP3    H235206   0.041   3.089   1.385
11755TIP3   OH235207   6.742   1.529   3.626
11755TIP3    H135208   6.719   1.447   3.669
11755TIP3    H235209   6.838   1.528   3.620
11756TIP3   OH235210   0.930   7.601   3.873
11756TIP3    H135211   1.024   7.616   3.861
11756TIP3    H235212   0.893   7.607   3.785
11757TIP3   OH235213   1.173   0.607   4.547
11757TIP3    H135214   1.245   0.635   4.490
11757TIP3    H235215   1.177   0.666   4.622
11758TIP3   OH235216   8.043   4.617   4.755
11758TIP3    H135217   8.069   4.547   4.695
11758TIP3    H235218   8.006   4.685   4.699
11759TIP3   OH235219   0.056   4.101   2.319
11759TIP3    H135220   0.077   4.014   2.285
11759TIP3    H235221   0.014   4.083   2.403
11760TIP3   OH235222   2.920   7.631   3.809
11760TIP3    H135223   2.865   7.610   3.885
11760TIP3    H235224   2.878   7.709   3.770
11761TIP3   OH235225   0.077   7.363   1.243
11761TIP3    H135226   0.039   7.451   1.247
11761TIP3    H235227   0.033   7.314   1.313
11762TIP3   OH235228   0.687   5.333   3.108
11762TIP3    H135229   0.664   5.318   3.016
11762TIP3    H235230   0.647   5.416   3.130
11763TIP3   OH235231   4.667   3.017   5.021
11763TIP3    H135232   4.751   2.975   5.001
11763TIP3    H235233   4.629   2.963   5.090
11764TIP3   OH235234   6.866   5.720   2.108
11764TIP3    H135235   6.855   5.811   2.079
11764TIP3    H235236   6.938   5.723   2.171
11765TIP3   OH235237   2.522   6.622   1.605
11765TIP3    H135238   2.551   6.683   1.673
11765TIP3    H235239   2.570   6.649   1.527
11766TIP3   OH235240   8.106   2.720   0.583
11766TIP3    H135241   8.059   2.796   0.549
11766TIP3    H235242   8.165   2.755   0.650
11767TIP3   OH235243   1.012   1.008   2.878
11767TIP3    H135244   1.034   0.922   2.843
11767TIP3    H235245   1.086   1.030   2.935
11768TIP3   OH235246   1.131   5.358   5.803
11768TIP3    H135247   1.132   5.265   5.781
11768TIP3    H235248   1.042   5.375   5.832
11769TIP3   OH235249   2.223   3.038   3.011
11769TIP3    H135250   2.240   3.108   2.948
11769TIP3    H235251   2.280   2.967   2.982
11770TIP3   OH235252   5.350   0.212   1.195
11770TIP3    H135253   5.275   0.167   1.158
11770TIP3    H235254   5.399   0.144   1.241
11771TIP3   OH235255   2.028   5.343   5.846
11771TIP3    H135256   2.029   5.397   5.767
11771TIP3    H235257   2.014   5.405   5.918
11772TIP3   OH235258   5.181   7.323   6.605
11772TIP3    H135259   5.102   7.361   6.643
11772TIP3    H235260   5.154   7.237   6.573
11773TIP3   OH235261   5.122   1.806   5.098
11773TIP3    H135262   5.185   1.856   5.047
11773TIP3    H235263   5.063   1.872   5.135
11774TIP3   OH235264   5.474   5.020   3.619
11774TIP3    H135265   5.485   5.085   3.689
11774TIP3    H235266   5.516   5.060   3.542
11775TIP3   OH235267   1.788   7.098   2.678
11775TIP3    H135268   1.739   7.096   2.596
11775TIP3    H235269   1.720   7.106   2.746
11776TIP3   OH235270   6.723   7.658   1.690
11776TIP3    H135271   6.694   7.649   1.781
11776TIP3    H235272   6.642   7.671   1.641
11777TIP3   OH235273   1.244   1.996   0.131
11777TIP3    H135274   1.188   1.924   0.102
11777TIP3    H235275   1.333   1.964   0.120
11778TIP3   OH235276   7.690   3.366   6.081
11778TIP3    H135277   7.723   3.378   5.991
11778TIP3    H235278   7.605   3.325   6.069
11779TIP3   OH235279   1.982   4.877   3.272
11779TIP3    H135280   1.939   4.794   3.294
11779TIP3    H235281   1.956   4.937   3.342
11780TIP3   OH235282   6.914   3.141   1.728
11780TIP3    H135283   6.834   3.192   1.735
11780TIP3    H235284   6.910   3.080   1.802
11781TIP3   OH235285   6.430   6.638   1.380
11781TIP3    H135286   6.448   6.726   1.346
11781TIP3    H235287   6.517   6.599   1.394
11782TIP3   OH235288   0.230   2.711   4.592
11782TIP3    H135289   0.321   2.690   4.612
11782TIP3    H235290   0.210   2.659   4.514
11783TIP3   OH235291   1.768   1.558   2.373
11783TIP3    H135292   1.698   1.594   2.318
11783TIP3    H235293   1.794   1.478   2.328
11784TIP3   OH235294   4.148   2.605   1.273
11784TIP3    H135295   4.215   2.673   1.268
11784TIP3    H235296   4.110   2.614   1.361
11785TIP3   OH235297   1.395   4.745   5.058
11785TIP3    H135298   1.454   4.790   4.996
11785TIP3    H235299   1.439   4.756   5.143
11786TIP3   OH235300   0.858   4.299   6.071
11786TIP3    H135301   0.826   4.294   6.162
11786TIP3    H235302   0.810   4.230   6.025
11787TIP3   OH235303   2.788   1.074   2.829
11787TIP3    H135304   2.705   1.026   2.830
11787TIP3    H235305   2.836   1.039   2.904
11788TIP3   OH235306   3.512   2.867   4.245
11788TIP3    H135307   3.567   2.820   4.307
11788TIP3    H235308   3.429   2.880   4.291
11789TIP3   OH235309   5.322   1.348   0.879
11789TIP3    H135310   5.359   1.283   0.938
11789TIP3    H235311   5.397   1.386   0.834
11790TIP3   OH235312   7.703   4.630   2.442
11790TIP3    H135313   7.795   4.656   2.431
11790TIP3    H235314   7.656   4.681   2.377
11791TIP3   OH235315   3.125   6.510   0.765
11791TIP3    H135316   3.175   6.441   0.722
11791TIP3    H235317   3.052   6.465   0.808
11792TIP3   OH235318   4.458   1.802   1.575
11792TIP3    H135319   4.370   1.840   1.568
11792TIP3    H235320   4.466   1.776   1.667
11793TIP3   OH235321   1.657   2.672   2.730
11793TIP3    H135322   1.573   2.640   2.696
11793TIP3    H235323   1.689   2.602   2.786
11794TIP3   OH235324   2.249   4.811   3.932
11794TIP3    H135325   2.199   4.763   3.998
11794TIP3    H235326   2.251   4.753   3.856
11795TIP3   OH235327   7.749   0.407   4.873
11795TIP3    H135328   7.809   0.417   4.799
11795TIP3    H235329   7.669   0.372   4.834
11796TIP3   OH235330   7.899   3.546   2.150
11796TIP3    H135331   7.941   3.630   2.134
11796TIP3    H235332   7.953   3.504   2.217
11797TIP3   OH235333   6.509   6.940   0.076
11797TIP3    H135334   6.509   6.886   0.155
11797TIP3    H235335   6.420   6.976   0.072
11798TIP3   OH235336   3.511   2.617   5.139
11798TIP3    H135337   3.494   2.702   5.097
11798TIP3    H235338   3.605   2.606   5.133
11799TIP3   OH235339   6.830   2.387   3.394
11799TIP3    H135340   6.762   2.385   3.462
11799TIP3    H235341   6.859   2.478   3.392
11800TIP3   OH235342   3.743   2.775   4.954
11800TIP3    H135343   3.794   2.856   4.954
11800TIP3    H235344   3.673   2.790   4.890
11801TIP3   OH235345   0.785   0.157   2.413
11801TIP3    H135346   0.840   0.080   2.396
11801TIP3    H235347   0.794   0.173   2.506
11802TIP3   OH235348   1.352   7.645   0.374
11802TIP3    H135349   1.407   7.566   0.365
11802TIP3    H235350   1.304   7.649   0.292
11803TIP3   OH235351   5.910   1.544   1.893
11803TIP3    H135352   5.967   1.562   1.818
11803TIP3    H235353   5.970   1.543   1.968
11804TIP3   OH235354   7.536   0.460   5.389
11804TIP3    H135355   7.442   0.468   5.373
11804TIP3    H235356   7.576   0.521   5.327
11805TIP3   OH235357   5.676   6.344   4.359
11805TIP3    H135358   5.610   6.284   4.394
11805TIP3    H235359   5.708   6.301   4.279
11806TIP3   OH235360   6.926   3.523   1.720
11806TIP3    H135361   6.950   3.614   1.702
11806TIP3    H235362   7.010   3.478   1.732
11807TIP3   OH235363   5.891   5.522   3.313
11807TIP3    H135364   5.877   5.429   3.329
11807TIP3    H235365   5.950   5.525   3.238
11808TIP3   OH235366   6.406   1.184   6.212
11808TIP3    H135367   6.354   1.244   6.158
11808TIP3    H235368   6.413   1.229   6.296
11809TIP3   OH235369   6.619   1.298   2.972
11809TIP3    H135370   6.693   1.333   2.922
11809TIP3    H235371   6.542   1.323   2.920
11810TIP3   OH235372   7.810   7.815   0.426
11810TIP3    H135373   7.800   7.908   0.407
11810TIP3    H235374   7.885   7.787   0.373
11811TIP3   OH235375   6.459   6.908   1.297
11811TIP3    H135376   6.497   6.976   1.241
11811TIP3    H235377   6.450   6.949   1.383
11812TIP3   OH235378   3.507   0.186   3.656
11812TIP3    H135379   3.587   0.166   3.703
11812TIP3    H235380   3.438   0.179   3.721
11813TIP3   OH235381   2.209   1.281   0.702
11813TIP3    H135382   2.268   1.321   0.639
11813TIP3    H235383   2.164   1.354   0.744
11814TIP3   OH235384   7.887   6.376   4.985
11814TIP3    H135385   7.869   6.282   4.987
11814TIP3    H235386   7.801   6.417   4.997
11815TIP3   OH235387   6.071   7.394   0.705
11815TIP3    H135388   6.098   7.307   0.677
11815TIP3    H235389   6.135   7.453   0.665
11816TIP3   OH235390   3.828   6.291   1.891
11816TIP3    H135391   3.874   6.267   1.972
11816TIP3    H235392   3.898   6.299   1.826
11817TIP3   OH235393   1.922   6.090   3.218
11817TIP3    H135394   1.943   6.079   3.311
11817TIP3    H235395   1.848   6.032   3.204
11818TIP3   OH235396   5.687   0.693   3.773
11818TIP3    H135397   5.726   0.637   3.706
11818TIP3    H235398   5.762   0.723   3.825
11819TIP3   OH235399   2.187   6.385   0.896
11819TIP3    H135400   2.147   6.299   0.913
11819TIP3    H235401   2.115   6.438   0.861
11820TIP3   OH235402   0.145   7.165   5.896
11820TIP3    H135403   0.110   7.223   5.828
11820TIP3    H235404   0.197   7.223   5.952
11821TIP3   OH235405   7.987   6.551   1.238
11821TIP3    H135406   8.068   6.598   1.215
11821TIP3    H235407   8.015   6.488   1.305
11822TIP3   OH235408   0.168   2.581   0.598
11822TIP3    H135409   0.109   2.520   0.554
11822TIP3    H235410   0.116   2.616   0.671
11823TIP3   OH235411   3.687   7.792   0.226
11823TIP3    H135412   3.669   7.806   0.133
11823TIP3    H235413   3.749   7.719   0.228
11824TIP3   OH235414   7.070   4.036   4.116
11824TIP3    H135415   7.018   3.983   4.177
11824TIP3    H235416   7.159   4.002   4.124
11825TIP3   OH235417   1.393   0.668   0.488
11825TIP3    H135418   1.374   0.599   0.551
11825TIP3    H235419   1.320   0.729   0.497
11826TIP3   OH235420   2.915   3.208   2.148
11826TIP3    H135421   2.882   3.139   2.090
11826TIP3    H235422   2.869   3.194   2.231
11827TIP3   OH235423   7.525   4.731   5.487
11827TIP3    H135424   7.481   4.752   5.404
11827TIP3    H235425   7.522   4.813   5.536
11828TIP3   OH235426   7.636   6.691   4.715
11828TIP3    H135427   7.702   6.654   4.656
11828TIP3    H235428   7.657   6.654   4.801
11829TIP3   OH235429   1.480   0.022   6.668
11829TIP3    H135430   1.412   0.040   6.602
11829TIP3    H235431   1.458   0.080   6.741
11830TIP3   OH235432   0.390   2.938   0.373
11830TIP3    H135433   0.431   2.906   0.453
11830TIP3    H235434   0.350   2.860   0.334
11831TIP3   OH235435   1.573   5.553   1.439
11831TIP3    H135436   1.547   5.608   1.365
11831TIP3    H235437   1.658   5.588   1.467
11832TIP3   OH235438   3.354   3.659   1.302
11832TIP3    H135439   3.309   3.743   1.305
11832TIP3    H235440   3.287   3.597   1.273
11833TIP3   OH235441   6.871   6.779   1.184
11833TIP3    H135442   6.880   6.689   1.215
11833TIP3    H235443   6.913   6.832   1.252
11834TIP3   OH235444   7.337   3.935   4.175
11834TIP3    H135445   7.325   3.842   4.156
11834TIP3    H235446   7.321   3.942   4.269
11835TIP3   OH235447   0.741   1.117   3.414
11835TIP3    H135448   0.783   1.063   3.348
11835TIP3    H235449   0.668   1.064   3.447
11836TIP3   OH235450   0.186   6.600   2.259
11836TIP3    H135451   0.145   6.627   2.176
11836TIP3    H235452   0.236   6.522   2.237
11837TIP3   OH235453   5.279   7.077   3.180
11837TIP3    H135454   5.302   7.003   3.124
11837TIP3    H235455   5.312   7.154   3.134
11838TIP3   OH235456   3.252   1.705   6.658
11838TIP3    H135457   3.299   1.757   6.592
11838TIP3    H235458   3.254   1.616   6.624
11839TIP3   OH235459   4.555   4.932   1.847
11839TIP3    H135460   4.483   4.901   1.792
11839TIP3    H235461   4.606   4.989   1.790
11840TIP3   OH235462   5.708   7.123   5.440
11840TIP3    H135463   5.695   7.218   5.440
11840TIP3    H235464   5.632   7.089   5.487
11841TIP3   OH235465   6.687   2.004   4.306
11841TIP3    H135466   6.599   1.985   4.274
11841TIP3    H235467   6.675   2.078   4.365
11842TIP3   OH235468   3.515   0.725   0.324
11842TIP3    H135469   3.514   0.718   0.228
11842TIP3    H235470   3.422   0.726   0.349
11843TIP3   OH235471   1.413   6.791   3.864
11843TIP3    H135472   1.416   6.696   3.873
11843TIP3    H235473   1.406   6.823   3.953
11844TIP3   OH235474   6.368   4.090   3.738
11844TIP3    H135475   6.380   4.047   3.823
11844TIP3    H235476   6.421   4.038   3.677
11845TIP3   OH235477   2.162   3.655   1.165
11845TIP3    H135478   2.098   3.586   1.154
11845TIP3    H235479   2.127   3.710   1.235
11846TIP3   OH235480   5.709   6.453   3.638
11846TIP3    H135481   5.670   6.410   3.562
11846TIP3    H235482   5.752   6.531   3.601
11847TIP3   OH235483   7.087   2.691   0.099
11847TIP3    H135484   7.111   2.602   0.124
11847TIP3    H235485   7.005   2.682   0.051
11848TIP3   OH235486   5.861   3.728   3.602
11848TIP3    H135487   5.829   3.751   3.689
11848TIP3    H235488   5.894   3.811   3.566
11849TIP3   OH235489   7.372   4.289   5.820
11849TIP3    H135490   7.295   4.278   5.765
11849TIP3    H235491   7.427   4.352   5.773
11850TIP3   OH235492   0.563   6.302   6.217
11850TIP3    H135493   0.600   6.277   6.132
11850TIP3    H235494   0.638   6.333   6.268
11851TIP3   OH235495   3.137   1.791   5.837
11851TIP3    H135496   3.051   1.831   5.829
11851TIP3    H235497   3.121   1.711   5.888
11852TIP3   OH235498   2.876   2.354   2.631
11852TIP3    H135499   2.918   2.299   2.697
11852TIP3    H235500   2.852   2.434   2.678
11853TIP3   OH235501   2.599   3.709   2.863
11853TIP3    H135502   2.517   3.755   2.847
11853TIP3    H235503   2.622   3.671   2.778
11854TIP3   OH235504   1.755   2.020   1.818
11854TIP3    H135505   1.798   2.086   1.763
11854TIP3    H235506   1.785   1.937   1.782
11855TIP3   OH235507   7.999   4.186   0.674
11855TIP3    H135508   8.084   4.148   0.652
11855TIP3    H235509   7.940   4.154   0.607
11856TIP3   OH235510   3.384   3.599   4.301
11856TIP3    H135511   3.464   3.650   4.288
11856TIP3    H235512   3.392   3.566   4.391
11857TIP3   OH235513   0.178   4.756   0.785
11857TIP3    H135514   0.136   4.827   0.737
11857TIP3    H235515   0.193   4.688   0.719
11858TIP3   OH235516   3.302   4.339   0.197
11858TIP3    H135517   3.235   4.399   0.164
11858TIP3    H235518   3.311   4.361   0.290
11859TIP3   OH235519   4.250   7.212   1.992
11859TIP3    H135520   4.303   7.175   2.063
11859TIP3    H235521   4.298   7.190   1.912
11860TIP3   OH235522   6.001   3.696   0.693
11860TIP3    H135523   5.937   3.730   0.756
11860TIP3    H235524   5.949   3.667   0.619
11861TIP3   OH235525   5.766   6.241   1.979
11861TIP3    H135526   5.764   6.276   1.890
11861TIP3    H235527   5.774   6.318   2.035
11862TIP3   OH235528   1.283   4.706   1.794
11862TIP3    H135529   1.234   4.783   1.821
11862TIP3    H235530   1.217   4.636   1.790
11863TIP3   OH235531   0.240   5.854   1.303
11863TIP3    H135532   0.274   5.792   1.368
11863TIP3    H235533   0.230   5.802   1.223
11864TIP3   OH235534   7.606   3.860   1.904
11864TIP3    H135535   7.656   3.787   1.939
11864TIP3    H235536   7.548   3.821   1.839
11865TIP3   OH235537   4.751   2.013   5.814
11865TIP3    H135538   4.787   1.989   5.899
11865TIP3    H235539   4.684   1.947   5.797
11866TIP3   OH235540   1.520   4.021   6.246
11866TIP3    H135541   1.558   4.103   6.278
11866TIP3    H235542   1.582   3.990   6.180
11867TIP3   OH235543   4.318   7.231   6.042
11867TIP3    H135544   4.394   7.201   6.091
11867TIP3    H235545   4.245   7.179   6.076
11868TIP3   OH235546   6.750   6.128   5.494
11868TIP3    H135547   6.811   6.055   5.483
11868TIP3    H235548   6.800   6.205   5.472
11869TIP3   OH235549   2.752   1.079   4.511
11869TIP3    H135550   2.718   1.036   4.433
11869TIP3    H235551   2.791   1.008   4.563
11870TIP3   OH235552   3.775   4.359   1.499
11870TIP3    H135553   3.766   4.446   1.460
11870TIP3    H235554   3.775   4.375   1.593
11871TIP3   OH235555   3.378   7.769   4.861
11871TIP3    H135556   3.357   7.693   4.916
11871TIP3    H235557   3.460   7.803   4.898
11872TIP3   OH235558   0.608   4.212   6.528
11872TIP3    H135559   0.653   4.246   6.605
11872TIP3    H235560   0.531   4.268   6.517
11873TIP3   OH235561   1.806   5.398   2.381
11873TIP3    H135562   1.759   5.472   2.420
11873TIP3    H235563   1.780   5.322   2.434
11874TIP3   OH235564   4.751   5.243   4.196
11874TIP3    H135565   4.775   5.169   4.251
11874TIP3    H235566   4.656   5.251   4.207
11875TIP3   OH235567   1.223   2.882   5.532
11875TIP3    H135568   1.273   2.816   5.484
11875TIP3    H235569   1.281   2.907   5.605
11876TIP3   OH235570   0.128   7.579   6.536
11876TIP3    H135571   0.221   7.580   6.561
11876TIP3    H235572   0.107   7.486   6.529
11877TIP3   OH235573   5.376   5.432   0.092
11877TIP3    H135574   5.306   5.489   0.060
11877TIP3    H235575   5.368   5.435   0.187
11878TIP3   OH235576   7.061   5.010   4.466
11878TIP3    H135577   7.106   4.974   4.390
11878TIP3    H235578   6.971   5.024   4.436
11879TIP3   OH235579   4.260   2.467   5.002
11879TIP3    H135580   4.332   2.471   4.938
11879TIP3    H235581   4.261   2.377   5.034
11880TIP3   OH235582   6.206   1.298   0.779
11880TIP3    H135583   6.164   1.384   0.786
11880TIP3    H235584   6.185   1.255   0.862
11881TIP3   OH235585   4.822   2.341   2.644
11881TIP3    H135586   4.745   2.398   2.637
11881TIP3    H235587   4.834   2.330   2.739
11882TIP3   OH235588   7.277   2.648   1.857
11882TIP3    H135589   7.269   2.743   1.844
11882TIP3    H235590   7.187   2.616   1.861
11883TIP3   OH235591   6.833   5.210   1.610
11883TIP3    H135592   6.824   5.303   1.632
11883TIP3    H235593   6.893   5.210   1.535
11884TIP3   OH235594   0.786   7.085   1.826
11884TIP3    H135595   0.797   7.005   1.775
11884TIP3    H235596   0.852   7.145   1.792
11885TIP3   OH235597   4.849   5.948   2.375
11885TIP3    H135598   4.884   5.962   2.463
11885TIP3    H235599   4.810   6.032   2.351
11886TIP3   OH235600   6.836   2.959   4.306
11886TIP3    H135601   6.906   3.020   4.329
11886TIP3    H235602   6.761   2.988   4.357
11887TIP3   OH235603   3.378   5.926   4.705
11887TIP3    H135604   3.450   5.916   4.767
11887TIP3    H235605   3.321   5.992   4.746
11888TIP3   OH235606   6.094   0.108   4.114
11888TIP3    H135607   6.104   0.195   4.074
11888TIP3    H235608   6.175   0.095   4.164
11889TIP3   OH235609   1.891   7.659   0.001
11889TIP3    H135610   1.874   7.738   0.053
11889TIP3    H235611   1.912   7.692  -0.086
11890TIP3   OH235612   4.024   4.247   1.712
11890TIP3    H135613   3.987   4.204   1.788
11890TIP3    H235614   3.961   4.316   1.691
11891TIP3   OH235615   4.361   3.215   1.156
11891TIP3    H135616   4.439   3.270   1.155
11891TIP3    H235617   4.288   3.275   1.140
11892TIP3   OH235618   6.816   4.294   4.267
11892TIP3    H135619   6.806   4.368   4.207
11892TIP3    H235620   6.748   4.308   4.333
11893TIP3   OH235621   4.193   6.786   4.100
11893TIP3    H135622   4.221   6.705   4.057
11893TIP3    H235623   4.269   6.844   4.093
11894TIP3   OH235624   6.196   0.406   6.047
11894TIP3    H135625   6.207   0.448   5.962
11894TIP3    H235626   6.101   0.409   6.062
11895TIP3   OH235627   0.862   3.106   2.670
11895TIP3    H135628   0.810   3.174   2.713
11895TIP3    H235629   0.898   3.054   2.742
11896TIP3   OH235630   3.256   4.873   2.836
11896TIP3    H135631   3.340   4.829   2.846
11896TIP3    H235632   3.209   4.822   2.770
11897TIP3   OH235633   6.018   4.259   1.754
11897TIP3    H135634   6.006   4.313   1.832
11897TIP3    H235635   5.941   4.277   1.700
11898TIP3   OH235636   6.201   3.523   5.220
11898TIP3    H135637   6.142   3.596   5.197
11898TIP3    H235638   6.218   3.535   5.313
11899TIP3   OH235639   6.984   1.296   4.091
11899TIP3    H135640   7.068   1.341   4.082
11899TIP3    H235641   6.955   1.279   4.002
11900TIP3   OH235642   0.713   5.587   6.460
11900TIP3    H135643   0.803   5.556   6.450
11900TIP3    H235644   0.684   5.549   6.543
11901TIP3   OH235645   7.590   6.555   2.728
11901TIP3    H135646   7.613   6.474   2.774
11901TIP3    H235647   7.672   6.584   2.688
11902TIP3   OH235648   1.654   6.481   5.173
11902TIP3    H135649   1.647   6.392   5.208
11902TIP3    H235650   1.640   6.470   5.078
11903TIP3   OH235651   6.978   2.164   3.512
11903TIP3    H135652   7.071   2.183   3.497
11903TIP3    H235653   6.934   2.246   3.493
11904TIP3   OH235654   5.621   7.500   2.825
11904TIP3    H135655   5.714   7.487   2.804
11904TIP3    H235656   5.622   7.542   2.911
11905TIP3   OH235657   2.816   6.116   1.319
11905TIP3    H135658   2.906   6.146   1.329
11905TIP3    H235659   2.822   6.037   1.265
11906TIP3   OH235660   1.983   4.428   2.569
11906TIP3    H135661   2.045   4.446   2.640
11906TIP3    H235662   1.908   4.484   2.587
11907TIP3   OH235663   5.847   7.403   0.519
11907TIP3    H135664   5.767   7.456   0.514
11907TIP3    H235665   5.890   7.432   0.599
11908TIP3   OH235666   3.933   7.608   3.202
11908TIP3    H135667   3.905   7.613   3.293
11908TIP3    H235668   3.988   7.685   3.189
11909TIP3   OH235669   7.110   3.129   0.428
11909TIP3    H135670   7.192   3.087   0.401
11909TIP3    H235671   7.067   3.153   0.346
11910TIP3   OH235672   4.799   1.186   5.135
11910TIP3    H135673   4.872   1.142   5.091
11910TIP3    H235674   4.772   1.124   5.204
11911TIP3   OH235675   3.668   1.536   2.099
11911TIP3    H135676   3.599   1.565   2.040
11911TIP3    H235677   3.714   1.616   2.124
11912TIP3   OH235678   5.128   4.470   0.619
11912TIP3    H135679   5.116   4.511   0.533
11912TIP3    H235680   5.089   4.383   0.610
11913TIP3   OH235681   0.485   6.095   3.387
11913TIP3    H135682   0.390   6.085   3.384
11913TIP3    H235683   0.516   6.020   3.437
11914TIP3   OH235684   0.498   2.615   3.985
11914TIP3    H135685   0.453   2.691   3.949
11914TIP3    H235686   0.559   2.652   4.049
11915TIP3   OH235687   3.220   6.264   4.068
11915TIP3    H135688   3.234   6.299   3.980
11915TIP3    H235689   3.300   6.215   4.087
11916TIP3   OH235690   0.656   0.697   3.753
11916TIP3    H135691   0.608   0.709   3.670
11916TIP3    H235692   0.693   0.783   3.772
11917TIP3   OH235693   1.717   4.145   2.640
11917TIP3    H135694   1.787   4.195   2.682
11917TIP3    H235695   1.752   4.124   2.553
11918TIP3   OH235696   8.188   1.880   4.604
11918TIP3    H135697   8.140   1.962   4.591
11918TIP3    H235698   8.144   1.838   4.677
11919TIP3   OH235699   3.675   7.265   6.103
11919TIP3    H135700   3.680   7.321   6.026
11919TIP3    H235701   3.585   7.272   6.133
11920TIP3   OH235702   4.047   2.361   0.834
11920TIP3    H135703   4.038   2.276   0.877
11920TIP3    H235704   4.055   2.340   0.741
11921TIP3   OH235705   3.161   2.833   3.553
11921TIP3    H135706   3.226   2.859   3.619
11921TIP3    H235707   3.121   2.916   3.526
11922TIP3   OH235708   1.696   1.373   6.643
11922TIP3    H135709   1.736   1.435   6.582
11922TIP3    H235710   1.638   1.319   6.589
11923TIP3   OH235711   0.920   3.563   2.869
11923TIP3    H135712   0.945   3.654   2.852
11923TIP3    H235713   0.973   3.537   2.945
11924TIP3   OH235714   1.381   2.427   3.168
11924TIP3    H135715   1.382   2.383   3.083
11924TIP3    H235716   1.425   2.366   3.227
11925TIP3   OH235717   5.097   3.546   5.532
11925TIP3    H135718   5.121   3.639   5.531
11925TIP3    H235719   5.092   3.524   5.625
11926TIP3   OH235720   5.490   0.072   1.791
11926TIP3    H135721   5.530   0.081   1.705
11926TIP3    H235722   5.436   0.150   1.801
11927TIP3   OH235723   0.236   0.939   3.464
11927TIP3    H135724   0.173   0.970   3.529
11927TIP3    H235725   0.191   0.949   3.380
11928TIP3   OH235726   7.001   4.069   4.579
11928TIP3    H135727   7.079   4.090   4.629
11928TIP3    H235728   6.936   4.133   4.607
11929TIP3   OH235729   2.985   3.414   4.185
11929TIP3    H135730   2.891   3.396   4.192
11929TIP3    H235731   3.007   3.457   4.268
11930TIP3   OH235732   5.088   1.547   0.890
11930TIP3    H135733   5.134   1.609   0.946
11930TIP3    H235734   5.156   1.513   0.832
11931TIP3   OH235735   7.111   0.832   2.468
11931TIP3    H135736   7.184   0.776   2.440
11931TIP3    H235737   7.152   0.899   2.523
11932TIP3   OH235738   3.007   5.543   4.497
11932TIP3    H135739   2.954   5.482   4.548
11932TIP3    H235740   2.947   5.613   4.473
11933TIP3   OH235741   6.994   3.743   6.578
11933TIP3    H135742   6.981   3.829   6.618
11933TIP3    H235743   7.048   3.760   6.501
11934TIP3   OH235744   4.557   6.783   6.210
11934TIP3    H135745   4.598   6.735   6.282
11934TIP3    H235746   4.627   6.796   6.146
11935TIP3   OH235747   6.505   2.257   1.291
11935TIP3    H135748   6.508   2.244   1.386
11935TIP3    H235749   6.511   2.352   1.280
11936TIP3   OH235750   5.823   5.094   0.838
11936TIP3    H135751   5.859   5.168   0.886
11936TIP3    H235752   5.862   5.100   0.751
11937TIP3   OH235753   7.764   1.365   4.896
11937TIP3    H135754   7.677   1.376   4.934
11937TIP3    H235755   7.748   1.325   4.811
11938TIP3   OH235756   1.889   0.956   4.742
11938TIP3    H135757   1.973   0.913   4.730
11938TIP3    H235758   1.842   0.941   4.659
11939TIP3   OH235759   0.634   2.938   4.156
11939TIP3    H135760   0.614   2.995   4.082
11939TIP3    H235761   0.597   2.983   4.232
11940TIP3   OH235762   5.124   1.620   5.631
11940TIP3    H135763   5.171   1.665   5.561
11940TIP3    H235764   5.072   1.688   5.673
11941TIP3   OH235765   8.153   6.345   2.801
11941TIP3    H135766   8.184   6.338   2.892
11941TIP3    H235767   8.232   6.364   2.751
11942TIP3   OH235768   1.366   5.177   5.980
11942TIP3    H135769   1.273   5.173   6.002
11942TIP3    H235770   1.384   5.270   5.967
11943TIP3   OH235771   0.544   0.060   5.071
11943TIP3    H135772   0.583  -0.018   5.109
11943TIP3    H235773   0.482   0.027   5.005
11944TIP3   OH235774   2.282   7.720   0.289
11944TIP3    H135775   2.330   7.799   0.265
11944TIP3    H235776   2.198   7.753   0.322
11945TIP3   OH235777   8.334   0.131   6.654
11945TIP3    H135778   8.391   0.077   6.599
11945TIP3    H235779   8.269   0.070   6.689
11946TIP3   OH235780   6.607   2.280   0.057
11946TIP3    H135781   6.549   2.282  -0.019
11946TIP3    H235782   6.652   2.196   0.051
11947TIP3   OH235783   2.556   1.235   2.753
11947TIP3    H135784   2.599   1.189   2.826
11947TIP3    H235785   2.625   1.290   2.715
11948TIP3   OH235786   2.342   2.662   3.205
11948TIP3    H135787   2.394   2.741   3.190
11948TIP3    H235788   2.404   2.598   3.239
11949TIP3   OH235789   2.164   5.739   1.167
11949TIP3    H135790   2.241   5.689   1.141
11949TIP3    H235791   2.117   5.755   1.085
11950TIP3   OH235792   6.465   2.539   1.295
11950TIP3    H135793   6.441   2.563   1.205
11950TIP3    H235794   6.560   2.537   1.295
11951TIP3   OH235795   1.450   2.074   3.607
11951TIP3    H135796   1.380   2.136   3.628
11951TIP3    H235797   1.405   1.996   3.575
11952TIP3   OH235798   3.923   7.023   3.352
11952TIP3    H135799   3.939   6.949   3.410
11952TIP3    H235800   3.892   7.093   3.410
11953TIP3   OH235801   0.429   7.714   0.460
11953TIP3    H135802   0.517   7.692   0.430
11953TIP3    H235803   0.442   7.748   0.549
11954TIP3   OH235804   3.023   5.988   1.740
11954TIP3    H135805   3.044   5.955   1.828
11954TIP3    H235806   3.045   6.081   1.744
11955TIP3   OH235807   7.319   3.406   4.587
11955TIP3    H135808   7.382   3.348   4.544
11955TIP3    H235809   7.339   3.398   4.680
11956TIP3   OH235810   5.917   0.218   2.417
11956TIP3    H135811   5.939   0.226   2.324
11956TIP3    H235812   5.841   0.274   2.428
11957TIP3   OH235813   0.730   1.104   1.487
11957TIP3    H135814   0.695   1.045   1.420
11957TIP3    H235815   0.653   1.148   1.523
11958TIP3   OH235816   5.426   0.879   4.632
11958TIP3    H135817   5.512   0.837   4.622
11958TIP3    H235818   5.382   0.827   4.700
11959TIP3   OH235819   7.602   6.226   5.033
11959TIP3    H135820   7.574   6.154   5.090
11959TIP3    H235821   7.612   6.301   5.092
11960TIP3   OH235822   1.571   5.075   6.568
11960TIP3    H135823   1.615   5.157   6.590
11960TIP3    H235824   1.643   5.016   6.544
11961TIP3   OH235825   5.271   7.342   0.825
11961TIP3    H135826   5.296   7.306   0.910
11961TIP3    H235827   5.238   7.430   0.846
11962TIP3   OH235828   4.485   5.527   3.915
11962TIP3    H135829   4.549   5.547   3.984
11962TIP3    H235830   4.513   5.579   3.840
11963TIP3   OH235831   5.803   2.100   2.071
11963TIP3    H135832   5.894   2.122   2.090
11963TIP3    H235833   5.808   2.026   2.011
11964TIP3   OH235834   7.001   2.893   1.578
11964TIP3    H135835   6.986   2.978   1.619
11964TIP3    H235836   6.923   2.842   1.601
11965TIP3   OH235837   2.198   5.730   2.573
11965TIP3    H135838   2.150   5.715   2.491
11965TIP3    H235839   2.140   5.697   2.641
11966TIP3   OH235840   3.966   5.136   6.192
11966TIP3    H135841   3.947   5.183   6.273
11966TIP3    H235842   3.905   5.173   6.128
11967TIP3   OH235843   3.705   4.846   5.804
11967TIP3    H135844   3.711   4.768   5.748
11967TIP3    H235845   3.721   4.919   5.745
11968TIP3   OH235846   3.542   2.331   4.276
11968TIP3    H135847   3.511   2.277   4.203
11968TIP3    H235848   3.462   2.367   4.314
11969TIP3   OH235849   6.112   2.484   2.704
11969TIP3    H135850   6.044   2.417   2.695
11969TIP3    H235851   6.150   2.467   2.791
11970TIP3   OH235852   6.186   5.008   3.175
11970TIP3    H135853   6.257   4.979   3.232
11970TIP3    H235854   6.162   4.929   3.125
11971TIP3   OH235855   3.550   2.167   1.182
11971TIP3    H135856   3.542   2.239   1.120
11971TIP3    H235857   3.644   2.161   1.200
11972TIP3   OH235858   6.314   4.731   0.759
11972TIP3    H135859   6.219   4.728   0.769
11972TIP3    H235860   6.345   4.647   0.794
11973TIP3   OH235861   6.215   6.224   1.597
11973TIP3    H135862   6.249   6.172   1.525
11973TIP3    H235863   6.252   6.311   1.583
11974TIP3   OH235864   1.492   6.794   0.035
11974TIP3    H135865   1.492   6.705   0.000
11974TIP3    H235866   1.419   6.796   0.097
11975TIP3   OH235867   6.094   6.876   6.060
11975TIP3    H135868   6.089   6.939   5.989
11975TIP3    H235869   6.012   6.828   6.056
11976TIP3   OH235870   7.302   1.290   4.801
11976TIP3    H135871   7.266   1.276   4.888
11976TIP3    H235872   7.353   1.370   4.809
11977TIP3   OH235873   2.640   5.727   3.894
11977TIP3    H135874   2.666   5.804   3.944
11977TIP3    H235875   2.693   5.656   3.929
11978TIP3   OH235876   5.368   3.676   0.941
11978TIP3    H135877   5.413   3.675   0.856
11978TIP3    H235878   5.429   3.721   1.000
11979TIP3   OH235879   1.106   5.865   6.214
11979TIP3    H135880   1.075   5.792   6.160
11979TIP3    H235881   1.114   5.827   6.302
11980TIP3   OH235882   1.232   0.530   4.256
11980TIP3    H135883   1.261   0.443   4.231
11980TIP3    H235884   1.191   0.566   4.176
11981TIP3   OH235885   0.902   7.390   4.166
11981TIP3    H135886   0.844   7.439   4.108
11981TIP3    H235887   0.980   7.445   4.173
11982TIP3   OH235888   2.488   1.283   6.498
11982TIP3    H135889   2.507   1.372   6.468
11982TIP3    H235890   2.460   1.236   6.420
11983TIP3   OH235891   3.850   1.160   3.481
11983TIP3    H135892   3.806   1.210   3.412
11983TIP3    H235893   3.778   1.125   3.534
11984TIP3   OH235894   0.707   5.111   1.417
11984TIP3    H135895   0.740   5.035   1.465
11984TIP3    H235896   0.629   5.079   1.371
11985TIP3   OH235897   4.277   4.156   1.188
11985TIP3    H135898   4.333   4.230   1.209
11985TIP3    H235899   4.302   4.088   1.250
11986TIP3   OH235900   0.417   3.212   1.885
11986TIP3    H135901   0.394   3.127   1.848
11986TIP3    H235902   0.335   3.261   1.886
11987TIP3   OH235903   1.752   1.098   0.631
11987TIP3    H135904   1.657   1.093   0.620
11987TIP3    H235905   1.764   1.112   0.725
11988TIP3   OH235906   0.557   7.719   0.988
11988TIP3    H135907   0.519   7.729   1.075
11988TIP3    H235908   0.651   7.734   1.002
11989TIP3   OH235909   3.048   0.586   1.667
11989TIP3    H135910   3.073   0.612   1.578
11989TIP3    H235911   3.044   0.669   1.715
11990TIP3   OH235912   5.589   3.042   3.338
11990TIP3    H135913   5.524   2.974   3.354
11990TIP3    H235914   5.565   3.112   3.399
11991TIP3   OH235915   4.764   0.062   4.275
11991TIP3    H135916   4.802   0.040   4.190
11991TIP3    H235917   4.787   0.154   4.288
11992TIP3   OH235918   6.473   3.880   3.591
11992TIP3    H135919   6.396   3.830   3.566
11992TIP3    H235920   6.516   3.826   3.657
11993TIP3   OH235921   3.091   1.885   1.214
11993TIP3    H135922   3.163   1.836   1.174
11993TIP3    H235923   3.132   1.966   1.244
11994TIP3   OH235924   6.020   5.154   4.009
11994TIP3    H135925   6.034   5.062   3.988
11994TIP3    H235926   5.952   5.183   3.948
11995TIP3   OH235927   7.646   6.292   2.847
11995TIP3    H135928   7.717   6.331   2.796
11995TIP3    H235929   7.681   6.287   2.936
11996TIP3   OH235930   2.314   4.762   3.062
11996TIP3    H135931   2.365   4.727   2.989
11996TIP3    H235932   2.376   4.769   3.134
11997TIP3   OH235933   4.154   3.002   6.640
11997TIP3    H135934   4.141   3.077   6.697
11997TIP3    H235935   4.135   3.035   6.552
11998TIP3   OH235936   7.422   3.935   0.260
11998TIP3    H135937   7.357   3.965   0.196
11998TIP3    H235938   7.461   4.015   0.294
11999TIP3   OH235939   3.901   2.073   6.569
11999TIP3    H135940   3.979   2.122   6.594
11999TIP3    H235941   3.926   2.026   6.490
12000TIP3   OH235942   5.106   4.841   4.814
12000TIP3    H135943   5.022   4.883   4.793
12000TIP3    H235944   5.122   4.864   4.905
12001TIP3   OH235945   3.459   1.748   1.393
12001TIP3    H135946   3.550   1.775   1.408
12001TIP3    H235947   3.418   1.826   1.355
12002TIP3   OH235948   6.412   7.607   6.568
12002TIP3    H135949   6.360   7.676   6.527
12002TIP3    H235950   6.389   7.528   6.519
12003TIP3   OH235951   3.718   2.698   1.580
12003TIP3    H135952   3.651   2.686   1.647
12003TIP3    H235953   3.730   2.611   1.542
12004TIP3   OH235954   1.298   0.630   1.074
12004TIP3    H135955   1.224   0.600   1.126
12004TIP3    H235956   1.331   0.551   1.031
12005TIP3   OH235957   3.968   5.245   2.405
12005TIP3    H135958   3.888   5.296   2.425
12005TIP3    H235959   3.955   5.162   2.450
12006TIP3   OH235960   5.840   2.171   1.787
12006TIP3    H135961   5.875   2.168   1.875
12006TIP3    H235962   5.863   2.086   1.749
12007TIP3   OH235963   1.435   3.917   1.575
12007TIP3    H135964   1.387   3.971   1.638
12007TIP3    H235965   1.378   3.842   1.560
12008TIP3   OH235966   6.142   5.728   5.776
12008TIP3    H135967   6.051   5.755   5.782
12008TIP3    H235968   6.191   5.798   5.818
12009TIP3   OH235969   3.648   5.575   6.509
12009TIP3    H135970   3.717   5.626   6.468
12009TIP3    H235971   3.626   5.623   6.589
12010TIP3   OH235972   4.089   1.603   2.860
12010TIP3    H135973   4.011   1.592   2.805
12010TIP3    H235974   4.125   1.515   2.868
12011TIP3   OH235975   7.018   4.482   5.348
12011TIP3    H135976   6.989   4.535   5.274
12011TIP3    H235977   7.099   4.441   5.317
12012TIP3   OH235978   3.505   0.980   6.222
12012TIP3    H135979   3.512   0.925   6.300
12012TIP3    H235980   3.417   1.018   6.227
12013TIP3   OH235981   0.050   5.365   5.761
12013TIP3    H135982   0.001   5.292   5.722
12013TIP3    H235983   0.138   5.358   5.725
12014TIP3   OH235984   7.819   6.343   1.826
12014TIP3    H135985   7.740   6.291   1.836
12014TIP3    H235986   7.891   6.280   1.832
12015TIP3   OH235987   4.830   5.389   5.280
12015TIP3    H135988   4.770   5.329   5.324
12015TIP3    H235989   4.778   5.427   5.209
12016TIP3   OH235990   6.498   2.229   3.014
12016TIP3    H135991   6.592   2.242   3.017
12016TIP3    H235992   6.474   2.246   2.923
12017TIP3   OH235993   1.353   2.003   2.841
12017TIP3    H135994   1.405   1.963   2.910
12017TIP3    H235995   1.401   2.083   2.818
12018TIP3   OH235996   2.711   6.435   4.999
12018TIP3    H135997   2.739   6.347   4.973
12018TIP3    H235998   2.658   6.420   5.078
12019TIP3   OH235999   5.260   2.066   3.861
12019TIP3    H136000   5.337   2.107   3.902
12019TIP3    H236001   5.264   1.974   3.889
12020TIP3   OH236002   3.004   0.001   1.670
12020TIP3    H136003   3.066   0.010   1.598
12020TIP3    H236004   3.059  -0.006   1.748
12021TIP3   OH236005   7.678   5.151   3.304
12021TIP3    H136006   7.725   5.173   3.384
12021TIP3    H236007   7.721   5.203   3.236
12022TIP3   OH236008   7.015   7.134   5.805
12022TIP3    H136009   6.984   7.089   5.883
12022TIP3    H236010   6.958   7.103   5.734
12023TIP3   OH236011   5.827   0.486   3.591
12023TIP3    H136012   5.883   0.409   3.588
12023TIP3    H236013   5.809   0.506   3.499
12024TIP3   OH236014   6.640   6.810   2.716
12024TIP3    H136015   6.678   6.829   2.802
12024TIP3    H236016   6.714   6.817   2.655
12025TIP3   OH236017   4.063   4.140   2.826
12025TIP3    H136018   4.107   4.120   2.909
12025TIP3    H236019   4.128   4.188   2.775
12026TIP3   OH236020   2.429   3.957   4.300
12026TIP3    H136021   2.370   4.019   4.256
12026TIP3    H236022   2.514   3.972   4.259
12027TIP3   OH236023   7.623   2.041   5.409
12027TIP3    H136024   7.663   2.007   5.489
12027TIP3    H236025   7.533   2.008   5.412
12028TIP3   OH236026   0.251   4.706   3.139
12028TIP3    H136027   0.295   4.789   3.120
12028TIP3    H236028   0.311   4.639   3.107
12029TIP3   OH236029   6.202   2.275   5.817
12029TIP3    H136030   6.263   2.258   5.745
12029TIP3    H236031   6.253   2.325   5.880
12030TIP3   OH236032   4.254   3.621   0.763
12030TIP3    H136033   4.245   3.567   0.685
12030TIP3    H236034   4.165   3.633   0.795
12031TIP3   OH236035   6.888   2.712   2.211
12031TIP3    H136036   6.795   2.715   2.191
12031TIP3    H236037   6.892   2.699   2.306
12032TIP3   OH236038   3.957   6.286   2.139
12032TIP3    H136039   4.036   6.337   2.117
12032TIP3    H236040   3.983   6.235   2.216
12033TIP3   OH236041   6.104   3.887   1.965
12033TIP3    H136042   6.020   3.850   1.940
12033TIP3    H236043   6.116   3.961   1.905
12034TIP3   OH236044   0.791   7.350   1.199
12034TIP3    H136045   0.829   7.425   1.153
12034TIP3    H236046   0.709   7.384   1.235
12035TIP3   OH236047   6.485   3.458   3.408
12035TIP3    H136048   6.406   3.477   3.357
12035TIP3    H236049   6.460   3.473   3.499
12036TIP3   OH236050   7.661   0.788   3.557
12036TIP3    H136051   7.664   0.877   3.522
12036TIP3    H236052   7.636   0.799   3.649
12037TIP3   OH236053   5.008   2.694   6.683
12037TIP3    H136054   5.067   2.675   6.610
12037TIP3    H236055   5.062   2.685   6.761
12038TIP3   OH236056   2.641   1.170   2.086
12038TIP3    H136057   2.711   1.193   2.025
12038TIP3    H236058   2.676   1.096   2.136
12039TIP3   OH236059   2.971   4.219   2.207
12039TIP3    H136060   3.007   4.290   2.260
12039TIP3    H236061   3.034   4.148   2.216
12040TIP3   OH236062   6.835   7.720   0.386
12040TIP3    H136063   6.875   7.801   0.355
12040TIP3    H236064   6.742   7.740   0.395
12041TIP3   OH236065   1.902   5.560   1.181
12041TIP3    H136066   1.893   5.655   1.184
12041TIP3    H236067   1.995   5.546   1.160
12042TIP3   OH236068   3.178   3.691   5.917
12042TIP3    H136069   3.108   3.725   5.972
12042TIP3    H236070   3.230   3.767   5.893
12043TIP3   OH236071   4.073   5.130   0.189
12043TIP3    H136072   4.069   5.204   0.250
12043TIP3    H236073   3.982   5.100   0.183
12044TIP3   OH236074   1.367   3.381   3.929
12044TIP3    H136075   1.301   3.448   3.946
12044TIP3    H236076   1.411   3.410   3.849
12045TIP3   OH236077   1.965   7.194   1.597
12045TIP3    H136078   1.976   7.190   1.502
12045TIP3    H236079   1.989   7.106   1.627
12046TIP3   OH236080   7.780   6.508   6.726
12046TIP3    H136081   7.759   6.540   6.638
12046TIP3    H236082   7.868   6.472   6.718
12047TIP3   OH236083   0.287   5.807   2.346
12047TIP3    H136084   0.317   5.729   2.299
12047TIP3    H236085   0.207   5.779   2.391
12048TIP3   OH236086   7.399   0.133   3.400
12048TIP3    H136087   7.318   0.144   3.350
12048TIP3    H236088   7.371   0.091   3.481
12049TIP3   OH236089   5.565   6.371   1.768
12049TIP3    H136090   5.545   6.421   1.848
12049TIP3    H236091   5.479   6.348   1.732
12050TIP3   OH236092   7.289   3.111   5.973
12050TIP3    H136093   7.198   3.133   5.991
12050TIP3    H236094   7.286   3.021   5.940
12051TIP3   OH236095   3.699   2.837   5.852
12051TIP3    H136096   3.690   2.749   5.891
12051TIP3    H236097   3.610   2.862   5.828
12052TIP3   OH236098   0.158   0.019   1.717
12052TIP3    H136099   0.219   0.069   1.771
12052TIP3    H236100   0.075   0.023   1.764
12053TIP3   OH236101   7.645   0.140   2.006
12053TIP3    H136102   7.673   0.049   1.996
12053TIP3    H236103   7.551   0.139   1.985
12054TIP3   OH236104   0.133   3.676   3.457
12054TIP3    H136105   0.113   3.659   3.549
12054TIP3    H236106   0.216   3.724   3.459
12055TIP3   OH236107   2.071   3.223   3.767
12055TIP3    H136108   2.030   3.269   3.841
12055TIP3    H236109   2.051   3.278   3.691
12056TIP3   OH236110   3.666   1.795   3.815
12056TIP3    H136111   3.595   1.765   3.757
12056TIP3    H236112   3.623   1.811   3.899
12057TIP3   OH236113   2.055   5.021   2.539
12057TIP3    H136114   2.104   5.063   2.610
12057TIP3    H236115   2.088   5.063   2.460
12058TIP3   OH236116   6.095   0.237   4.712
12058TIP3    H136117   6.071   0.199   4.797
12058TIP3    H236118   6.075   0.168   4.649
12059TIP3   OH236119   1.566   4.953   0.640
12059TIP3    H136120   1.484   4.932   0.597
12059TIP3    H236121   1.548   4.941   0.733
12060TIP3   OH236122   5.081   6.081   6.026
12060TIP3    H136123   5.014   6.058   6.091
12060TIP3    H236124   5.161   6.038   6.057
12061TIP3   OH236125   5.484   1.841   3.861
12061TIP3    H136126   5.556   1.839   3.798
12061TIP3    H236127   5.502   1.917   3.916
12062TIP3   OH236128   7.276   1.826   2.161
12062TIP3    H136129   7.330   1.889   2.114
12062TIP3    H236130   7.186   1.854   2.144
12063TIP3   OH236131   5.661   4.246   6.483
12063TIP3    H136132   5.704   4.301   6.549
12063TIP3    H236133   5.589   4.205   6.529
12064TIP3   OH236134   2.223   0.487   6.309
12064TIP3    H136135   2.153   0.439   6.265
12064TIP3    H236136   2.279   0.419   6.346
12065TIP3   OH236137   2.736   6.420   2.537
12065TIP3    H136138   2.675   6.476   2.585
12065TIP3    H236139   2.779   6.479   2.475
12066TIP3   OH236140   7.648   2.888   2.938
12066TIP3    H136141   7.591   2.812   2.952
12066TIP3    H236142   7.692   2.901   3.021
12067TIP3   OH236143   4.093   6.370   0.716
12067TIP3    H136144   4.143   6.436   0.763
12067TIP3    H236145   4.039   6.420   0.654
12068TIP3   OH236146   2.148   1.496   5.128
12068TIP3    H136147   2.195   1.523   5.049
12068TIP3    H236148   2.087   1.567   5.146
12069TIP3   OH236149   1.248   4.832   5.798
12069TIP3    H136150   1.237   4.804   5.707
12069TIP3    H236151   1.179   4.786   5.846
12070TIP3   OH236152   4.712   3.545   0.535
12070TIP3    H136153   4.738   3.577   0.621
12070TIP3    H236154   4.671   3.621   0.493
12071TIP3   OH236155   1.908   5.439   4.391
12071TIP3    H136156   1.975   5.373   4.371
12071TIP3    H236157   1.956   5.521   4.402
12072TIP3   OH236158   4.291   5.104   5.767
12072TIP3    H136159   4.335   5.056   5.696
12072TIP3    H236160   4.351   5.096   5.841
12073TIP3   OH236161   0.875   3.110   4.201
12073TIP3    H136162   0.805   3.064   4.156
12073TIP3    H236163   0.920   3.043   4.252
12074TIP3   OH236164   7.533   6.918   4.804
12074TIP3    H136165   7.586   6.854   4.756
12074TIP3    H236166   7.463   6.942   4.744
12075TIP3   OH236167   6.924   0.499   1.333
12075TIP3    H136168   6.855   0.500   1.400
12075TIP3    H236169   6.965   0.585   1.340
12076TIP3   OH236170   7.826   7.244   6.095
12076TIP3    H136171   7.830   7.221   6.003
12076TIP3    H236172   7.759   7.185   6.131
12077TIP3   OH236173   3.419   7.775   5.814
12077TIP3    H136174   3.452   7.702   5.762
12077TIP3    H236175   3.328   7.786   5.785
12078TIP3   OH236176   0.678   1.051   4.113
12078TIP3    H136177   0.584   1.035   4.111
12078TIP3    H236178   0.686   1.142   4.142
12079TIP3   OH236179   3.874   4.359   4.336
12079TIP3    H136180   3.826   4.286   4.377
12079TIP3    H236181   3.847   4.356   4.244
12080TIP3   OH236182   8.079   4.759   1.429
12080TIP3    H136183   8.060   4.765   1.335
12080TIP3    H236184   8.160   4.809   1.440
12081TIP3   OH236185   1.565   0.116   5.696
12081TIP3    H136186   1.486   0.100   5.643
12081TIP3    H236187   1.589   0.030   5.730
12082TIP3   OH236188   4.538   0.934   2.285
12082TIP3    H136189   4.473   0.978   2.231
12082TIP3    H236190   4.543   0.986   2.365
12083TIP3   OH236191   1.074   4.903   4.093
12083TIP3    H136192   1.014   4.976   4.110
12083TIP3    H236193   1.024   4.843   4.037
12084TIP3   OH236194   0.025   2.464   6.586
12084TIP3    H136195   0.058   2.379   6.615
12084TIP3    H236196  -0.001   2.449   6.495
12085TIP3   OH236197   2.527   3.733   3.969
12085TIP3    H136198   2.521   3.739   4.064
12085TIP3    H236199   2.555   3.643   3.952
12086TIP3   OH236200   2.337   6.705   2.719
12086TIP3    H136201   2.325   6.765   2.646
12086TIP3    H236202   2.314   6.756   2.796
12087TIP3   OH236203   5.486   0.246   6.226
12087TIP3    H136204   5.574   0.212   6.212
12087TIP3    H236205   5.499   0.336   6.256
12088TIP3   OH236206   6.761   2.285   3.047
12088TIP3    H136207   6.757   2.363   3.103
12088TIP3    H236208   6.832   2.233   3.085
12089TIP3   OH236209   2.166   5.887   4.507
12089TIP3    H136210   2.103   5.946   4.548
12089TIP3    H236211   2.119   5.849   4.433
12090TIP3   OH236212   1.977   7.612   5.842
12090TIP3    H136213   2.022   7.664   5.775
12090TIP3    H236214   2.004   7.651   5.925
12091TIP3   OH236215   6.136   3.963   4.160
12091TIP3    H136216   6.054   3.956   4.113
12091TIP3    H236217   6.112   4.001   4.245
12092TIP3   OH236218   7.832   2.852   5.404
12092TIP3    H136219   7.862   2.789   5.471
12092TIP3    H236220   7.788   2.798   5.339
12093TIP3   OH236221   1.834   3.985   5.328
12093TIP3    H136222   1.807   4.039   5.403
12093TIP3    H236223   1.922   4.014   5.308
12094TIP3   OH236224   0.890   5.790   4.984
12094TIP3    H136225   0.798   5.765   4.997
12094TIP3    H236226   0.940   5.714   5.013
12095TIP3   OH236227   1.491   3.550   5.141
12095TIP3    H136228   1.497   3.644   5.124
12095TIP3    H236229   1.415   3.521   5.091
12096TIP3   OH236230   3.825   0.338   2.793
12096TIP3    H136231   3.786   0.328   2.707
12096TIP3    H236232   3.752   0.360   2.851
12097TIP3   OH236233   3.820   6.478   3.771
12097TIP3    H136234   3.798   6.387   3.789
12097TIP3    H236235   3.870   6.475   3.689
12098TIP3   OH236236   8.093   0.633   6.393
12098TIP3    H136237   8.037   0.657   6.320
12098TIP3    H236238   8.040   0.575   6.447
12099TIP3   OH236239   6.161   0.195   3.740
12099TIP3    H136240   6.072   0.192   3.705
12099TIP3    H236241   6.185   0.103   3.753
12100TIP3   OH236242   7.402   5.246   4.358
12100TIP3    H136243   7.314   5.243   4.319
12100TIP3    H236244   7.428   5.154   4.364
12101TIP3   OH236245   6.409   5.188   1.079
12101TIP3    H136246   6.408   5.147   1.166
12101TIP3    H236247   6.399   5.114   1.018
12102TIP3   OH236248   6.890   2.544   1.551
12102TIP3    H136249   6.977   2.575   1.528
12102TIP3    H236250   6.845   2.621   1.585
12103TIP3   OH236251   3.575   5.489   0.120
12103TIP3    H136252   3.664   5.478   0.088
12103TIP3    H236253   3.523   5.426   0.070
12104TIP3   OH236254   4.692   1.536   6.383
12104TIP3    H136255   4.775   1.582   6.384
12104TIP3    H236256   4.675   1.518   6.290
12105TIP3   OH236257   0.287   2.688   0.378
12105TIP3    H136258   0.357   2.635   0.341
12105TIP3    H236259   0.248   2.633   0.446
12106TIP3   OH236260   3.902   5.551   1.809
12106TIP3    H136261   3.810   5.573   1.819
12106TIP3    H236262   3.948   5.629   1.840
12107TIP3   OH236263   7.967   4.429   1.981
12107TIP3    H136264   8.049   4.464   1.948
12107TIP3    H236265   7.962   4.462   2.071
12108TIP3   OH236266  -0.008   4.545   2.478
12108TIP3    H136267  -0.054   4.503   2.551
12108TIP3    H236268   0.064   4.486   2.458
12109TIP3   OH236269   4.187   0.383   0.219
12109TIP3    H136270   4.116   0.361   0.280
12109TIP3    H236271   4.245   0.441   0.270
12110TIP3   OH236272   4.013   7.848   1.413
12110TIP3    H136273   3.997   7.780   1.479
12110TIP3    H236274   4.073   7.807   1.351
12111TIP3   OH236275   0.634   5.564   5.403
12111TIP3    H136276   0.575   5.561   5.478
12111TIP3    H236277   0.719   5.588   5.440
12112TIP3   OH236278   8.210   5.807   2.215
12112TIP3    H136279   8.239   5.734   2.270
12112TIP3    H236280   8.248   5.789   2.129
12113TIP3   OH236281   6.886   0.397   3.447
12113TIP3    H136282   6.831   0.452   3.391
12113TIP3    H236283   6.975   0.428   3.430
12114TIP3   OH236284   5.208   7.717   2.843
12114TIP3    H136285   5.154   7.735   2.921
12114TIP3    H236286   5.296   7.744   2.868
12115TIP3   OH236287   3.250   3.441   0.901
12115TIP3    H136288   3.155   3.444   0.916
12115TIP3    H236289   3.284   3.390   0.974
12116TIP3   OH236290   2.767   7.716   2.659
12116TIP3    H136291   2.811   7.707   2.743
12116TIP3    H236292   2.808   7.651   2.603
12117TIP3   OH236293   1.715   7.637   2.610
12117TIP3    H136294   1.719   7.700   2.683
12117TIP3    H236295   1.722   7.691   2.531
12118TIP3   OH236296   8.107   0.656   2.775
12118TIP3    H136297   8.041   0.636   2.709
12118TIP3    H236298   8.150   0.735   2.743
12119TIP3   OH236299   3.502   3.844   4.536
12119TIP3    H136300   3.528   3.852   4.444
12119TIP3    H236301   3.464   3.757   4.543
12120TIP3   OH236302   2.620   3.510   3.275
12120TIP3    H136303   2.606   3.601   3.300
12120TIP3    H236304   2.706   3.509   3.233
12121TIP3   OH236305   3.193   0.013   0.200
12121TIP3    H136306   3.193  -0.031   0.285
12121TIP3    H236307   3.137   0.089   0.213
12122TIP3   OH236308   7.825   1.911   1.073
12122TIP3    H136309   7.906   1.877   1.036
12122TIP3    H236310   7.832   2.006   1.061
12123TIP3   OH236311   6.448   3.484   1.740
12123TIP3    H136312   6.431   3.558   1.797
12123TIP3    H236313   6.399   3.412   1.780
12124TIP3   OH236314   6.457   4.417   1.854
12124TIP3    H136315   6.456   4.392   1.946
12124TIP3    H236316   6.550   4.420   1.831
12125TIP3   OH236317   4.714   2.393   0.926
12125TIP3    H136318   4.652   2.367   0.995
12125TIP3    H236319   4.701   2.328   0.857
12126TIP3   OH236320   5.581   3.227   1.560
12126TIP3    H136321   5.619   3.315   1.571
12126TIP3    H236322   5.655   3.172   1.535
12127TIP3   OH236323   2.341   2.404   1.441
12127TIP3    H136324   2.417   2.370   1.393
12127TIP3    H236325   2.358   2.379   1.532
12128TIP3   OH236326   5.469   4.920   5.362
12128TIP3    H136327   5.398   4.985   5.359
12128TIP3    H236328   5.527   4.945   5.289
12129TIP3   OH236329   7.814   1.104   0.837
12129TIP3    H136330   7.811   1.008   0.838
12129TIP3    H236331   7.900   1.125   0.801
12130TIP3   OH236332   5.307   4.672   1.771
12130TIP3    H136333   5.254   4.723   1.831
12130TIP3    H236334   5.261   4.588   1.764
12131TIP3   OH236335   7.134   3.464   0.154
12131TIP3    H136336   7.141   3.552   0.117
12131TIP3    H236337   7.041   3.455   0.175
12132TIP3   OH236338   7.003   6.693   0.395
12132TIP3    H136339   6.979   6.702   0.303
12132TIP3    H236340   7.098   6.694   0.396
12133TIP3   OH236341   6.586   4.828   2.729
12133TIP3    H136342   6.493   4.804   2.727
12133TIP3    H236343   6.631   4.750   2.696
12134TIP3   OH236344   6.864   3.964   0.118
12134TIP3    H136345   6.891   4.048   0.082
12134TIP3    H236346   6.940   3.907   0.108
12135TIP3   OH236347   0.316   5.667   6.068
12135TIP3    H136348   0.285   5.743   6.118
12135TIP3    H236349   0.270   5.674   5.984
12136TIP3   OH236350   3.270   5.430   2.028
12136TIP3    H136351   3.261   5.525   2.022
12136TIP3    H236352   3.313   5.414   2.112
12137TIP3   OH236353   5.173   4.756   3.109
12137TIP3    H136354   5.097   4.739   3.166
12137TIP3    H236355   5.248   4.748   3.168
12138TIP3   OH236356   1.116   5.346   6.154
12138TIP3    H136357   1.028   5.341   6.192
12138TIP3    H236358   1.103   5.391   6.071
12139TIP3   OH236359   2.337   0.661   3.373
12139TIP3    H136360   2.329   0.598   3.444
12139TIP3    H236361   2.421   0.704   3.388
12140TIP3   OH236362   3.059   7.010   6.323
12140TIP3    H136363   3.044   6.917   6.306
12140TIP3    H236364   3.047   7.052   6.238
12141TIP3   OH236365   1.534   4.733   6.633
12141TIP3    H136366   1.484   4.783   6.569
12141TIP3    H236367   1.624   4.762   6.621
12142TIP3   OH236368   1.634   5.582   2.560
12142TIP3    H136369   1.592   5.527   2.625
12142TIP3    H236370   1.562   5.615   2.506
12143TIP3   OH236371   0.700   2.740   1.450
12143TIP3    H136372   0.690   2.645   1.465
12143TIP3    H236373   0.629   2.762   1.390
12144TIP3   OH236374   3.065   6.896   5.267
12144TIP3    H136375   3.026   6.954   5.201
12144TIP3    H236376   2.992   6.843   5.298
12145TIP3   OH236377   6.820   3.046   3.078
12145TIP3    H136378   6.756   3.116   3.072
12145TIP3    H236379   6.884   3.067   3.010
12146TIP3   OH236380   1.895   7.241   3.345
12146TIP3    H136381   1.879   7.231   3.251
12146TIP3    H236382   1.969   7.302   3.350
12147TIP3   OH236383   0.323   7.699   2.714
12147TIP3    H136384   0.281   7.647   2.644
12147TIP3    H236385   0.260   7.768   2.732
12148TIP3   OH236386   3.437   1.608   3.284
12148TIP3    H136387   3.429   1.514   3.299
12148TIP3    H236388   3.517   1.617   3.231
12149TIP3   OH236389   2.194   3.202   1.525
12149TIP3    H136390   2.152   3.196   1.611
12149TIP3    H236391   2.276   3.154   1.535
12150TIP3   OH236392   7.276   6.959   0.347
12150TIP3    H136393   7.186   6.979   0.320
12150TIP3    H236394   7.299   7.029   0.408
12151TIP3   OH236395   6.671   3.075   2.478
12151TIP3    H136396   6.702   3.117   2.398
12151TIP3    H236397   6.695   2.983   2.468
12152TIP3   OH236398   1.912   2.680   3.104
12152TIP3    H136399   1.855   2.633   3.043
12152TIP3    H236400   1.935   2.761   3.058
12153TIP3   OH236401   7.413   4.763   5.963
12153TIP3    H136402   7.368   4.751   6.046
12153TIP3    H236403   7.343   4.760   5.897
12154TIP3   OH236404   6.074   1.140   6.162
12154TIP3    H136405   6.166   1.139   6.189
12154TIP3    H236406   6.074   1.097   6.077
12155TIP3   OH236407   0.201   0.600   1.491
12155TIP3    H136408   0.276   0.656   1.473
12155TIP3    H236409   0.154   0.593   1.408
12156TIP3   OH236410   4.577   1.250   2.932
12156TIP3    H136411   4.653   1.193   2.945
12156TIP3    H236412   4.589   1.287   2.845
12157TIP3   OH236413   6.499   0.836   4.188
12157TIP3    H136414   6.480   0.872   4.101
12157TIP3    H236415   6.427   0.866   4.243
12158TIP3   OH236416   2.333   5.719   0.134
12158TIP3    H136417   2.422   5.740   0.164
12158TIP3    H236418   2.324   5.625   0.150
12159TIP3   OH236419   8.167   3.342   4.491
12159TIP3    H136420   8.076   3.366   4.469
12159TIP3    H236421   8.159   3.288   4.570
12160TIP3   OH236422   5.350   7.518   5.454
12160TIP3    H136423   5.392   7.603   5.462
12160TIP3    H236424   5.264   7.536   5.416
12161TIP3   OH236425   2.558   7.619   5.412
12161TIP3    H136426   2.562   7.686   5.344
12161TIP3    H236427   2.537   7.667   5.492
12162TIP3   OH236428   2.451   7.310   3.086
12162TIP3    H136429   2.433   7.216   3.085
12162TIP3    H236430   2.471   7.333   2.995
12163TIP3   OH236431   7.973   2.567   1.208
12163TIP3    H136432   8.011   2.651   1.184
12163TIP3    H236433   7.892   2.561   1.158
12164TIP3   OH236434   1.144   7.145   4.316
12164TIP3    H136435   1.093   7.087   4.372
12164TIP3    H236436   1.082   7.210   4.284
12165TIP3   OH236437   5.475   2.781   3.486
12165TIP3    H136438   5.381   2.776   3.473
12165TIP3    H236439   5.510   2.708   3.435
12166TIP3   OH236440   2.832   6.185   3.274
12166TIP3    H136441   2.835   6.275   3.241
12166TIP3    H236442   2.906   6.180   3.335
12167TIP3   OH236443   3.120   4.606   1.636
12167TIP3    H136444   3.052   4.538   1.639
12167TIP3    H236445   3.176   4.580   1.563
12168TIP3   OH236446   4.617   6.531   3.126
12168TIP3    H136447   4.578   6.577   3.051
12168TIP3    H236448   4.565   6.559   3.201
12169TIP3   OH236449   5.405   5.189   3.823
12169TIP3    H136450   5.422   5.283   3.824
12169TIP3    H236451   5.414   5.161   3.914
12170TIP3   OH236452   0.592   5.547   3.985
12170TIP3    H136453   0.663   5.519   3.927
12170TIP3    H236454   0.518   5.492   3.960
12171TIP3   OH236455   4.754   4.837   0.795
12171TIP3    H136456   4.846   4.820   0.776
12171TIP3    H236457   4.755   4.891   0.874
12172TIP3   OH236458   0.471   2.347   2.851
12172TIP3    H136459   0.403   2.411   2.870
12172TIP3    H236460   0.494   2.364   2.760
12173TIP3   OH236461   0.317   4.930   5.318
12173TIP3    H136462   0.252   4.981   5.366
12173TIP3    H236463   0.389   4.992   5.303
12174TIP3   OH236464   3.110   3.775   5.450
12174TIP3    H136465   3.040   3.748   5.510
12174TIP3    H236466   3.068   3.839   5.392
12175TIP3   OH236467   3.763   7.298   5.758
12175TIP3    H136468   3.683   7.259   5.721
12175TIP3    H236469   3.731   7.375   5.805
12176TIP3   OH236470   4.396   0.534   4.721
12176TIP3    H136471   4.324   0.473   4.738
12176TIP3    H236472   4.386   0.602   4.787
12177TIP3   OH236473   2.508   6.825   5.357
12177TIP3    H136474   2.437   6.761   5.355
12177TIP3    H236475   2.511   6.862   5.269
12178TIP3   OH236476   7.107   3.933   1.139
12178TIP3    H136477   7.093   4.011   1.193
12178TIP3    H236478   7.163   3.963   1.068
12179TIP3   OH236479   5.087   6.595   2.997
12179TIP3    H136480   5.034   6.666   3.032
12179TIP3    H236481   5.049   6.577   2.911
12180TIP3   OH236482   4.664   4.203   2.416
12180TIP3    H136483   4.575   4.171   2.403
12180TIP3    H236484   4.654   4.278   2.476
12181TIP3   OH236485   7.949   6.806   2.664
12181TIP3    H136486   7.859   6.775   2.650
12181TIP3    H236487   7.941   6.874   2.731
12182TIP3   OH236488   6.397   2.643   1.019
12182TIP3    H136489   6.459   2.588   0.971
12182TIP3    H236490   6.406   2.730   0.980
12183TIP3   OH236491   3.528   0.690   0.056
12183TIP3    H136492   3.444   0.719   0.020
12183TIP3    H236493   3.554   0.617  -0.001
12184TIP3   OH236494   6.743   4.245   3.994
12184TIP3    H136495   6.762   4.336   4.019
12184TIP3    H236496   6.670   4.219   4.051
12185TIP3   OH236497   0.383   1.471   4.871
12185TIP3    H136498   0.314   1.420   4.826
12185TIP3    H236499   0.463   1.421   4.856
12186TIP3   OH236500   7.523   4.188   6.653
12186TIP3    H136501   7.593   4.132   6.687
12186TIP3    H236502   7.492   4.237   6.730
12187TIP3   OH236503   1.622   1.801   1.590
12187TIP3    H136504   1.645   1.711   1.567
12187TIP3    H236505   1.543   1.794   1.643
12188TIP3   OH236506   4.111   5.131   3.656
12188TIP3    H136507   4.150   5.177   3.582
12188TIP3    H236508   4.181   5.076   3.690
12189TIP3   OH236509   0.965   0.156   2.105
12189TIP3    H136510   1.057   0.179   2.093
12189TIP3    H236511   0.932   0.224   2.164
12190TIP3   OH236512   6.730   7.601   1.993
12190TIP3    H136513   6.692   7.642   2.071
12190TIP3    H236514   6.804   7.550   2.026
12191TIP3   OH236515   2.799   5.116   5.623
12191TIP3    H136516   2.847   5.059   5.683
12191TIP3    H236517   2.794   5.200   5.669
12192TIP3   OH236518   1.300   5.207   0.511
12192TIP3    H136519   1.310   5.188   0.605
12192TIP3    H236520   1.295   5.121   0.470
12193TIP3   OH236521   6.574   1.798   3.278
12193TIP3    H136522   6.598   1.880   3.322
12193TIP3    H236523   6.513   1.825   3.209
12194TIP3   OH236524   0.580   5.113   4.240
12194TIP3    H136525   0.493   5.128   4.204
12194TIP3    H236526   0.636   5.177   4.195
12195TIP3   OH236527   6.755   3.886   0.702
12195TIP3    H136528   6.761   3.957   0.766
12195TIP3    H236529   6.725   3.811   0.753
12196TIP3   OH236530   7.583   7.664   5.604
12196TIP3    H136531   7.634   7.740   5.632
12196TIP3    H236532   7.546   7.690   5.520
12197TIP3   OH236533   3.529   0.688   6.592
12197TIP3    H136534   3.621   0.693   6.619
12197TIP3    H236535   3.514   0.595   6.574
12198TIP3   OH236536   7.833   3.641   5.710
12198TIP3    H136537   7.806   3.572   5.771
12198TIP3    H236538   7.898   3.693   5.758
12199TIP3   OH236539   3.448   2.197   4.600
12199TIP3    H136540   3.356   2.221   4.595
12199TIP3    H236541   3.489   2.267   4.651
12200TIP3   OH236542   6.265   6.274   3.021
12200TIP3    H136543   6.313   6.354   3.040
12200TIP3    H236544   6.215   6.256   3.100
12201TIP3   OH236545   1.611   1.116   2.834
12201TIP3    H136546   1.703   1.142   2.837
12201TIP3    H236547   1.576   1.141   2.920
12202TIP3   OH236548   2.405   1.422   1.583
12202TIP3    H136549   2.382   1.386   1.668
12202TIP3    H236550   2.434   1.512   1.601
12203TIP3   OH236551   7.422   4.266   2.927
12203TIP3    H136552   7.366   4.318   2.984
12203TIP3    H236553   7.372   4.256   2.846
12204TIP3   OH236554   5.779   2.951   3.571
12204TIP3    H136555   5.823   2.891   3.511
12204TIP3    H236556   5.789   3.037   3.531
12205TIP3   OH236557   0.935   3.713   2.287
12205TIP3    H136558   1.013   3.658   2.277
12205TIP3    H236559   0.908   3.732   2.197
12206TIP3   OH236560   0.577   2.625   6.320
12206TIP3    H136561   0.526   2.698   6.287
12206TIP3    H236562   0.514   2.553   6.328
12207TIP3   OH236563   7.100   3.478   0.673
12207TIP3    H136564   7.117   3.505   0.582
12207TIP3    H236565   7.063   3.556   0.714
12208TIP3   OH236566   5.342   6.204   0.830
12208TIP3    H136567   5.248   6.216   0.815
12208TIP3    H236568   5.350   6.112   0.856
12209TIP3   OH236569   0.308   4.885   6.517
12209TIP3    H136570   0.354   4.932   6.586
12209TIP3    H236571   0.337   4.927   6.436
12210TIP3   OH236572   3.582   5.411   6.055
12210TIP3    H136573   3.665   5.436   6.015
12210TIP3    H236574   3.516   5.455   6.001
12211TIP3   OH236575   2.887   4.936   0.042
12211TIP3    H136576   2.976   4.906   0.062
12211TIP3    H236577   2.830   4.869   0.079
12212TIP3   OH236578   1.350   0.749   4.383
12212TIP3    H136579   1.415   0.774   4.317
12212TIP3    H236580   1.308   0.671   4.347
12213TIP3   OH236581   1.098   4.897   0.608
12213TIP3    H136582   1.130   4.820   0.655
12213TIP3    H236583   1.177   4.942   0.580
12214TIP3   OH236584   3.816   5.977   4.281
12214TIP3    H136585   3.904   5.949   4.254
12214TIP3    H236586   3.783   5.904   4.333
12215TIP3   OH236587   4.931   6.369   4.822
12215TIP3    H136588   5.015   6.325   4.807
12215TIP3    H236589   4.897   6.328   4.902
12216TIP3   OH236590   1.434   5.044   2.563
12216TIP3    H136591   1.423   5.010   2.474
12216TIP3    H236592   1.371   5.117   2.569
12217TIP3   OH236593   1.644   7.281   3.450
12217TIP3    H136594   1.737   7.265   3.434
12217TIP3    H236595   1.619   7.345   3.382
12218TIP3   OH236596   6.792   3.349   5.981
12218TIP3    H136597   6.762   3.383   6.065
12218TIP3    H236598   6.711   3.335   5.930
12219TIP3   OH236599   7.849   3.160   6.742
12219TIP3    H136600   7.789   3.232   6.723
12219TIP3    H236601   7.792   3.084   6.752
12220TIP3   OH236602   3.557   3.530   6.745
12220TIP3    H136603   3.538   3.515   6.652
12220TIP3    H236604   3.583   3.622   6.749
12221TIP3   OH236605   4.313   2.379   1.287
12221TIP3    H136606   4.337   2.371   1.379
12221TIP3    H236607   4.245   2.446   1.285
12222TIP3   OH236608   5.813   2.443   3.867
12222TIP3    H136609   5.835   2.491   3.787
12222TIP3    H236610   5.757   2.372   3.837
12223TIP3   OH236611   4.601   6.651   6.492
12223TIP3    H136612   4.518   6.696   6.512
12223TIP3    H236613   4.574   6.563   6.466
12224TIP3   OH236614   5.323   6.215   1.842
12224TIP3    H136615   5.320   6.215   1.938
12224TIP3    H236616   5.380   6.142   1.820
12225TIP3   OH236617   6.022   1.928   6.172
12225TIP3    H136618   5.951   1.943   6.109
12225TIP3    H236619   6.047   1.836   6.159
12226TIP3   OH236620   2.068   5.776   0.852
12226TIP3    H136621   2.161   5.791   0.872
12226TIP3    H236622   2.067   5.690   0.812
12227TIP3   OH236623   7.705   1.491   5.924
12227TIP3    H136624   7.792   1.530   5.923
12227TIP3    H236625   7.692   1.463   6.014
12228TIP3   OH236626   0.490   7.047   1.315
12228TIP3    H136627   0.511   7.138   1.293
12228TIP3    H236628   0.504   6.999   1.233
12229TIP3   OH236629   1.032   1.867   3.605
12229TIP3    H136630   1.049   1.928   3.533
12229TIP3    H236631   1.075   1.786   3.579
12230TIP3   OH236632   5.027   4.094   6.597
12230TIP3    H136633   5.006   4.186   6.615
12230TIP3    H236634   4.948   4.046   6.621
12231TIP3   OH236635   5.573   0.122   6.607
12231TIP3    H136636   5.562   0.217   6.601
12231TIP3    H236637   5.667   0.108   6.596
12232TIP3   OH236638   2.444   0.653   6.323
12232TIP3    H136639   2.359   0.608   6.328
12232TIP3    H236640   2.506   0.584   6.300
12233TIP3   OH236641   0.404   3.532   3.086
12233TIP3    H136642   0.491   3.494   3.070
12233TIP3    H236643   0.420   3.626   3.088
12234TIP3   OH236644   2.020   0.958   6.482
12234TIP3    H136645   2.035   1.026   6.417
12234TIP3    H236646   2.065   0.881   6.447
12235TIP3   OH236647   1.049   2.124   0.256
12235TIP3    H136648   1.031   2.040   0.300
12235TIP3    H236649   1.117   2.103   0.192
12236TIP3   OH236650   5.018   1.934   6.481
12236TIP3    H136651   4.995   1.890   6.399
12236TIP3    H236652   5.108   1.963   6.468
12237TIP3   OH236653   7.377   3.948   1.330
12237TIP3    H136654   7.339   3.962   1.243
12237TIP3    H236655   7.301   3.942   1.388
12238TIP3   OH236656   0.909   0.448   2.584
12238TIP3    H136657   1.001   0.449   2.611
12238TIP3    H236658   0.879   0.538   2.596
12239TIP3   OH236659   4.860   5.234   0.615
12239TIP3    H136660   4.813   5.150   0.624
12239TIP3    H236661   4.828   5.270   0.532
12240TIP3   OH236662   0.907   1.102   0.888
12240TIP3    H136663   0.925   1.138   0.801
12240TIP3    H236664   0.929   1.009   0.880
12241TIP3   OH236665   0.164   5.343   2.296
12241TIP3    H136666   0.187   5.263   2.248
12241TIP3    H236667   0.188   5.324   2.387
12242TIP3   OH236668   7.591   1.394   3.994
12242TIP3    H136669   7.600   1.489   3.999
12242TIP3    H236670   7.662   1.360   4.049
12243TIP3   OH236671   6.877   0.219   4.558
12243TIP3    H136672   6.897   0.303   4.599
12243TIP3    H236673   6.789   0.229   4.523
12244TIP3   OH236674   7.795   4.345   4.648
12244TIP3    H136675   7.881   4.304   4.657
12244TIP3    H236676   7.735   4.273   4.631
12245TIP3   OH236677   1.507   7.059   5.740
12245TIP3    H136678   1.532   7.142   5.781
12245TIP3    H236679   1.524   7.073   5.647
12246TIP3   OH236680   7.214   1.942   2.962
12246TIP3    H136681   7.149   1.987   2.909
12246TIP3    H236682   7.288   1.929   2.903
12247TIP3   OH236683   4.700   7.659   0.541
12247TIP3    H136684   4.787   7.638   0.508
12247TIP3    H236685   4.641   7.602   0.491
12248TIP3   OH236686   6.267   3.803   5.692
12248TIP3    H136687   6.204   3.784   5.761
12248TIP3    H236688   6.230   3.879   5.647
12249TIP3   OH236689   7.301   3.858   2.910
12249TIP3    H136690   7.286   3.871   3.004
12249TIP3    H236691   7.219   3.822   2.877
12250TIP3   OH236692   4.978   5.845   5.100
12250TIP3    H136693   4.947   5.875   5.015
12250TIP3    H236694   4.918   5.774   5.124
12251TIP3   OH236695   3.014   2.307   5.084
12251TIP3    H136696   3.067   2.330   5.160
12251TIP3    H236697   3.032   2.214   5.070
12252TIP3   OH236698   0.376   3.221   1.305
12252TIP3    H136699   0.286   3.188   1.314
12252TIP3    H236700   0.412   3.216   1.394
12253TIP3   OH236701   4.055   0.577   0.435
12253TIP3    H136702   4.122   0.589   0.503
12253TIP3    H236703   4.002   0.504   0.466
12254TIP3   OH236704   6.285   0.212   5.674
12254TIP3    H136705   6.238   0.129   5.671
12254TIP3    H236706   6.358   0.201   5.613
12255TIP3   OH236707   3.799   0.634   6.596
12255TIP3    H136708   3.827   0.648   6.686
12255TIP3    H236709   3.865   0.677   6.542
12256TIP3   OH236710   7.103   4.438   1.736
12256TIP3    H136711   7.043   4.372   1.772
12256TIP3    H236712   7.190   4.404   1.757
12257TIP3   OH236713   8.149   6.628   0.479
12257TIP3    H136714   8.080   6.596   0.538
12257TIP3    H236715   8.138   6.576   0.399
12258TIP3   OH236716   7.303   5.309   2.369
12258TIP3    H136717   7.374   5.281   2.427
12258TIP3    H236718   7.342   5.306   2.281
12259TIP3   OH236719   4.072   0.279   0.480
12259TIP3    H136720   4.116   0.216   0.421
12259TIP3    H236721   4.099   0.252   0.568
12260TIP3   OH236722   6.095   4.192   0.668
12260TIP3    H136723   6.108   4.149   0.752
12260TIP3    H236724   6.013   4.240   0.679
12261TIP3   OH236725   6.561   1.116   5.469
12261TIP3    H136726   6.638   1.075   5.510
12261TIP3    H236727   6.583   1.120   5.376
12262TIP3   OH236728   2.874   7.706   3.254
12262TIP3    H136729   2.833   7.642   3.312
12262TIP3    H236730   2.884   7.785   3.308
12263TIP3   OH236731   5.994   6.347   1.326
12263TIP3    H136732   6.036   6.261   1.325
12263TIP3    H236733   6.051   6.402   1.271
12264TIP3   OH236734   3.721   6.783   5.831
12264TIP3    H136735   3.665   6.809   5.904
12264TIP3    H236736   3.683   6.827   5.755
12265TIP3   OH236737   2.118   0.548   1.645
12265TIP3    H136738   2.033   0.569   1.607
12265TIP3    H236739   2.109   0.457   1.673
12266TIP3   OH236740   0.257   7.755   0.952
12266TIP3    H136741   0.241   7.847   0.974
12266TIP3    H236742   0.352   7.745   0.958
12267TIP3   OH236743   7.898   7.195   1.354
12267TIP3    H136744   7.828   7.132   1.336
12267TIP3    H236745   7.861   7.280   1.332
12268TIP3   OH236746   0.218   1.270   0.132
12268TIP3    H136747   0.241   1.356   0.098
12268TIP3    H236748   0.231   1.278   0.227
12269TIP3   OH236749   8.169   5.762   6.363
12269TIP3    H136750   8.084   5.753   6.405
12269TIP3    H236751   8.168   5.849   6.323
12270TIP3   OH236752   2.091   1.035   4.312
12270TIP3    H136753   2.127   1.068   4.394
12270TIP3    H236754   2.116   1.101   4.247
12271TIP3   OH236755   3.331   0.531   5.064
12271TIP3    H136756   3.425   0.551   5.057
12271TIP3    H236757   3.288   0.610   5.031
12272TIP3   OH236758   6.612   5.945   5.675
12272TIP3    H136759   6.586   5.892   5.600
12272TIP3    H236760   6.666   6.015   5.637
12273TIP3   OH236761   5.957   5.891   3.001
12273TIP3    H136762   6.010   5.846   2.935
12273TIP3    H236763   5.917   5.820   3.051
12274TIP3   OH236764   2.651   2.873   2.692
12274TIP3    H136765   2.635   2.902   2.781
12274TIP3    H236766   2.747   2.871   2.684
12275TIP3   OH236767   7.232   2.768   6.225
12275TIP3    H136768   7.148   2.809   6.204
12275TIP3    H236769   7.297   2.821   6.180
12276TIP3   OH236770   3.853   1.878   1.828
12276TIP3    H136771   3.935   1.828   1.826
12276TIP3    H236772   3.812   1.853   1.911
12277TIP3   OH236773   3.634   6.630   3.214
12277TIP3    H136774   3.636   6.625   3.310
12277TIP3    H236775   3.675   6.548   3.186
12278TIP3   OH236776   2.378   2.728   0.337
12278TIP3    H136777   2.352   2.730   0.245
12278TIP3    H236778   2.306   2.770   0.383
12279TIP3   OH236779   5.512   1.419   2.126
12279TIP3    H136780   5.417   1.413   2.125
12279TIP3    H236781   5.531   1.503   2.169
12280TIP3   OH236782   4.153   2.069   3.693
12280TIP3    H136783   4.099   2.094   3.618
12280TIP3    H236784   4.186   2.152   3.728
12281TIP3   OH236785   7.924   3.704   0.430
12281TIP3    H136786   7.863   3.732   0.361
12281TIP3    H236787   7.868   3.662   0.495
12282TIP3   OH236788   6.867   0.927   3.915
12282TIP3    H136789   6.808   0.992   3.877
12282TIP3    H236790   6.817   0.845   3.914
12283TIP3   OH236791   4.086   0.584   6.188
12283TIP3    H136792   4.038   0.652   6.141
12283TIP3    H236793   4.135   0.538   6.120
12284TIP3   OH236794   3.140   0.535   5.842
12284TIP3    H136795   3.094   0.527   5.926
12284TIP3    H236796   3.153   0.444   5.814
12285TIP3   OH236797   7.415   0.033   4.846
12285TIP3    H136798   7.478   0.095   4.808
12285TIP3    H236799   7.454  -0.053   4.831
12286TIP3   OH236800   4.062   4.130   5.855
12286TIP3    H136801   4.104   4.215   5.862
12286TIP3    H236802   4.082   4.085   5.937
12287TIP3   OH236803   3.215   4.372   3.068
12287TIP3    H136804   3.147   4.340   3.128
12287TIP3    H236805   3.290   4.315   3.086
12288TIP3   OH236806   6.863   1.515   3.140
12288TIP3    H136807   6.868   1.467   3.058
12288TIP3    H236808   6.852   1.607   3.114
12289TIP3   OH236809   2.969   1.709   1.405
12289TIP3    H136810   2.984   1.757   1.486
12289TIP3    H236811   3.048   1.725   1.352
12290TIP3   OH236812   5.359   5.407   6.582
12290TIP3    H136813   5.371   5.329   6.527
12290TIP3    H236814   5.341   5.373   6.669
12291TIP3   OH236815   5.516   2.875   6.517
12291TIP3    H136816   5.505   2.953   6.463
12291TIP3    H236817   5.502   2.905   6.607
12292TIP3   OH236818   5.957   6.949   5.570
12292TIP3    H136819   5.991   7.018   5.513
12292TIP3    H236820   5.862   6.949   5.555
12293TIP3   OH236821   4.244   0.936   6.420
12293TIP3    H136822   4.228   0.937   6.325
12293TIP3    H236823   4.284   0.851   6.437
12294TIP3   OH236824   3.929   2.038   4.633
12294TIP3    H136825   3.929   1.974   4.705
12294TIP3    H236826   4.005   2.093   4.651
12295TIP3   OH236827   3.602   0.594   5.012
12295TIP3    H136828   3.628   0.511   5.052
12295TIP3    H236829   3.679   0.623   4.965
12296TIP3   OH236830   2.670   0.638   1.083
12296TIP3    H136831   2.727   0.708   1.050
12296TIP3    H236832   2.582   0.666   1.059
12297TIP3   OH236833   7.724   3.169   2.974
12297TIP3    H136834   7.735   3.081   2.937
12297TIP3    H236835   7.704   3.225   2.900
12298TIP3   OH236836   7.293   2.241  -0.003
12298TIP3    H136837   7.287   2.177   0.069
12298TIP3    H236838   7.318   2.323   0.040
12299TIP3   OH236839   2.122   7.084   4.976
12299TIP3    H136840   2.057   7.142   5.018
12299TIP3    H236841   2.092   6.996   4.997
12300TIP3   OH236842   7.773   2.081   3.609
12300TIP3    H136843   7.862   2.114   3.599
12300TIP3    H236844   7.746   2.110   3.696
12301TIP3   OH236845   2.053   5.486   1.499
12301TIP3    H136846   2.102   5.410   1.468
12301TIP3    H236847   1.974   5.449   1.538
12302TIP3   OH236848   0.340   5.757   4.760
12302TIP3    H136849   0.282   5.798   4.824
12302TIP3    H236850   0.285   5.691   4.716
12303TIP3   OH236851   3.200   3.549   3.521
12303TIP3    H136852   3.122   3.572   3.471
12303TIP3    H236853   3.269   3.539   3.455
12304TIP3   OH236854   2.955   3.080   5.446
12304TIP3    H136855   2.896   3.044   5.512
12304TIP3    H236856   2.899   3.135   5.391
12305TIP3   OH236857   0.038   1.468   4.813
12305TIP3    H136858  -0.003   1.491   4.729
12305TIP3    H236859   0.067   1.377   4.802
12306TIP3   OH236860   3.998   1.946   3.903
12306TIP3    H136861   4.055   2.008   3.857
12306TIP3    H236862   3.944   1.907   3.834
12307TIP3   OH236863   1.243   7.114   3.852
12307TIP3    H136864   1.196   7.197   3.861
12307TIP3    H236865   1.233   7.090   3.760
12308TIP3   OH236866   1.121   5.082   4.718
12308TIP3    H136867   1.111   5.095   4.812
12308TIP3    H236868   1.065   5.149   4.678
12309TIP3   OH236869   0.772   7.293   1.559
12309TIP3    H136870   0.740   7.348   1.631
12309TIP3    H236871   0.692   7.255   1.522
12310TIP3   OH236872   0.604   1.665   3.788
12310TIP3    H136873   0.683   1.718   3.776
12310TIP3    H236874   0.625   1.581   3.747
12311TIP3   OH236875   3.608   4.935   4.191
12311TIP3    H136876   3.597   4.983   4.273
12311TIP3    H236877   3.534   4.962   4.137
12312TIP3   OH236878   5.671   3.348   4.490
12312TIP3    H136879   5.592   3.342   4.436
12312TIP3    H236880   5.729   3.279   4.456
12313TIP3   OH236881   2.558   0.853   2.361
12313TIP3    H136882   2.526   0.871   2.449
12313TIP3    H236883   2.501   0.783   2.329
12314TIP3   OH236884   4.189   3.963   6.572
12314TIP3    H136885   4.140   3.889   6.536
12314TIP3    H236886   4.211   3.936   6.661
12315TIP3   OH236887   0.681   3.672   6.025
12315TIP3    H136888   0.772   3.655   6.000
12315TIP3    H236889   0.687   3.724   6.105
12316TIP3   OH236890   6.441   1.510   4.397
12316TIP3    H136891   6.471   1.585   4.449
12316TIP3    H236892   6.374   1.468   4.451
12317TIP3   OH236893   0.989   0.710   3.677
12317TIP3    H136894   1.033   0.779   3.727
12317TIP3    H236895   0.915   0.683   3.732
12318TIP3   OH236896   6.670   4.397   1.683
12318TIP3    H136897   6.753   4.349   1.682
12318TIP3    H236898   6.677   4.461   1.612
12319TIP3   OH236899   6.216   3.294   6.216
12319TIP3    H136900   6.295   3.243   6.196
12319TIP3    H236901   6.197   3.342   6.135
12320TIP3   OH236902   0.491   1.712   4.943
12320TIP3    H136903   0.586   1.696   4.948
12320TIP3    H236904   0.456   1.635   4.899
12321TIP3   OH236905   0.492   4.637   3.295
12321TIP3    H136906   0.397   4.644   3.303
12321TIP3    H236907   0.506   4.584   3.217
12322TIP3   OH236908   1.385   4.814   0.817
12322TIP3    H136909   1.460   4.753   0.820
12322TIP3    H236910   1.393   4.864   0.898
12323TIP3   OH236911   3.535   1.942   0.565
12323TIP3    H136912   3.475   1.937   0.638
12323TIP3    H236913   3.481   1.924   0.488
12324TIP3   OH236914   2.809   5.829   5.179
12324TIP3    H136915   2.838   5.892   5.245
12324TIP3    H236916   2.787   5.883   5.103
12325TIP3   OH236917   6.406   0.963   5.627
12325TIP3    H136918   6.445   1.019   5.560
12325TIP3    H236919   6.434   1.002   5.710
12326TIP3   OH236920   4.831   3.538   5.808
12326TIP3    H136921   4.770   3.466   5.824
12326TIP3    H236922   4.775   3.610   5.778
12327TIP3   OH236923   3.842   7.045   6.168
12327TIP3    H136924   3.865   7.062   6.260
12327TIP3    H236925   3.795   7.124   6.140
12328TIP3   OH236926   6.706   4.954   1.626
12328TIP3    H136927   6.706   4.922   1.536
12328TIP3    H236928   6.776   5.018   1.629
12329TIP3   OH236929   7.941   1.209   1.943
12329TIP3    H136930   7.951   1.302   1.966
12329TIP3    H236931   7.978   1.202   1.855
12330TIP3   OH236932   3.657   7.541   3.750
12330TIP3    H136933   3.576   7.592   3.758
12330TIP3    H236934   3.660   7.516   3.658
12331TIP3   OH236935   1.131   4.832   3.648
12331TIP3    H136936   1.130   4.737   3.662
12331TIP3    H236937   1.224   4.853   3.633
12332TIP3   OH236938   4.762   0.696   5.232
12332TIP3    H136939   4.716   0.660   5.308
12332TIP3    H236940   4.700   0.687   5.160
12333TIP3   OH236941   2.192   1.231   6.740
12333TIP3    H136942   2.160   1.281   6.665
12333TIP3    H236943   2.251   1.165   6.702
12334TIP3   OH236944   0.334   3.998   1.722
12334TIP3    H136945   0.343   3.943   1.800
12334TIP3    H236946   0.379   3.948   1.653
12335TIP3   OH236947   2.293   6.785   5.064
12335TIP3    H136948   2.238   6.850   5.107
12335TIP3    H236949   2.379   6.828   5.056
12336TIP3   OH236950   7.908   4.694   6.344
12336TIP3    H136951   7.931   4.783   6.319
12336TIP3    H236952   7.821   4.680   6.307
12337TIP3   OH236953   8.245   5.005   2.912
12337TIP3    H136954   8.259   4.911   2.929
12337TIP3    H236955   8.263   5.015   2.819
12338TIP3   OH236956   3.818   1.493   2.803
12338TIP3    H136957   3.852   1.409   2.833
12338TIP3    H236958   3.733   1.473   2.764
12339TIP3   OH236959   4.225   7.012   1.534
12339TIP3    H136960   4.225   7.101   1.499
12339TIP3    H236961   4.137   7.001   1.571
12340TIP3   OH236962   2.667   7.230   6.613
12340TIP3    H136963   2.668   7.316   6.656
12340TIP3    H236964   2.735   7.237   6.546
12341TIP3   OH236965   5.668   1.887   1.602
12341TIP3    H136966   5.651   1.942   1.525
12341TIP3    H236967   5.590   1.896   1.656
12342TIP3   OH236968   2.479   6.003   2.745
12342TIP3    H136969   2.422   5.995   2.668
12342TIP3    H236970   2.440   6.074   2.796
12343TIP3   OH236971   2.641   3.527   2.628
12343TIP3    H136972   2.689   3.445   2.628
12343TIP3    H236973   2.674   3.575   2.552
12344TIP3   OH236974   0.306   5.237   6.213
12344TIP3    H136975   0.262   5.281   6.286
12344TIP3    H236976   0.240   5.235   6.143
12345TIP3   OH236977   2.774   3.448   3.588
12345TIP3    H136978   2.753   3.367   3.634
12345TIP3    H236979   2.689   3.485   3.564
12346TIP3   OH236980   6.833   3.916   2.788
12346TIP3    H136981   6.850   4.004   2.754
12346TIP3    H236982   6.752   3.925   2.838
12347TIP3   OH236983   2.492   5.456   0.512
12347TIP3    H136984   2.456   5.476   0.599
12347TIP3    H236985   2.576   5.415   0.530
12348TIP3   OH236986   6.368   7.280   1.053
12348TIP3    H136987   6.345   7.269   0.961
12348TIP3    H236988   6.305   7.345   1.086
12349TIP3   OH236989   3.686   0.929   0.383
12349TIP3    H136990   3.668   0.997   0.448
12349TIP3    H236991   3.612   0.869   0.390
12350TIP3   OH236992   1.069   6.735   0.223
12350TIP3    H136993   1.160   6.762   0.239
12350TIP3    H236994   1.024   6.816   0.199
12351TIP3   OH236995   1.988   0.645   3.682
12351TIP3    H136996   1.944   0.590   3.747
12351TIP3    H236997   1.923   0.711   3.659
12352TIP3   OH236998   6.860   4.952   3.875
12352TIP3    H136999   6.822   5.025   3.925
12352TIP3    H237000   6.882   4.991   3.791
12353TIP3   OH237001   5.625   5.749   2.398
12353TIP3    H137002   5.532   5.750   2.376
12353TIP3    H237003   5.664   5.693   2.331
12354TIP3   OH237004   4.467   3.282   2.073
12354TIP3    H137005   4.512   3.309   1.993
12354TIP3    H237006   4.534   3.285   2.141
12355TIP3   OH237007   1.976   7.737   3.297
12355TIP3    H137008   2.001   7.668   3.236
12355TIP3    H237009   2.055   7.789   3.309
12356TIP3   OH237010  -0.059   0.532   5.844
12356TIP3    H137011  -0.036   0.451   5.798
12356TIP3    H237012   0.021   0.585   5.842
12357TIP3   OH237013   3.844   4.623   4.884
12357TIP3    H137014   3.837   4.587   4.795
12357TIP3    H237015   3.937   4.618   4.905
12358TIP3   OH237016   5.404   2.557   4.265
12358TIP3    H137017   5.311   2.547   4.286
12358TIP3    H237018   5.415   2.510   4.182
12359TIP3   OH237019   1.239   5.934   2.842
12359TIP3    H137020   1.183   6.003   2.806
12359TIP3    H237021   1.283   5.975   2.916
12360TIP3   OH237022   3.647   6.397   4.414
12360TIP3    H137023   3.703   6.322   4.433
12360TIP3    H237024   3.567   6.359   4.377
12361TIP3   OH237025   4.671   2.491   5.940
12361TIP3    H137026   4.681   2.403   5.904
12361TIP3    H237027   4.748   2.503   5.996
12362TIP3   OH237028   6.157   5.687   2.509
12362TIP3    H137029   6.189   5.598   2.492
12362TIP3    H237030   6.084   5.698   2.448
12363TIP3   OH237031   5.119   4.684   3.483
12363TIP3    H137032   5.126   4.596   3.519
12363TIP3    H237033   5.150   4.741   3.553
12364TIP3   OH237034   2.771   5.881   0.212
12364TIP3    H137035   2.827   5.816   0.171
12364TIP3    H237036   2.743   5.840   0.294
12365TIP3   OH237037   1.336   4.412   6.282
12365TIP3    H137038   1.285   4.485   6.316
12365TIP3    H237039   1.270   4.352   6.245
12366TIP3   OH237040   7.331   6.266   2.073
12366TIP3    H137041   7.322   6.256   1.979
12366TIP3    H237042   7.424   6.284   2.087
12367TIP3   OH237043   8.186   3.987   4.485
12367TIP3    H137044   8.139   3.919   4.436
12367TIP3    H237045   8.236   4.034   4.418
12368TIP3   OH237046   4.295   4.681   2.207
12368TIP3    H137047   4.253   4.673   2.293
12368TIP3    H237048   4.325   4.592   2.187
12369TIP3   OH237049   7.656   5.826   4.941
12369TIP3    H137050   7.730   5.820   4.881
12369TIP3    H237051   7.600   5.752   4.918
12370TIP3   OH237052   1.385   2.058   4.535
12370TIP3    H137053   1.392   1.963   4.525
12370TIP3    H237054   1.445   2.080   4.606
12371TIP3   OH237055   2.570   0.577   5.576
12371TIP3    H137056   2.657   0.613   5.559
12371TIP3    H237057   2.569   0.493   5.529
12372TIP3   OH237058   3.437   5.704   6.093
12372TIP3    H137059   3.414   5.727   6.003
12372TIP3    H237060   3.532   5.695   6.093
12373TIP3   OH237061   6.987   6.511   4.971
12373TIP3    H137062   6.991   6.606   4.959
12373TIP3    H237063   6.898   6.495   5.005
12374TIP3   OH237064   5.254   7.415   4.115
12374TIP3    H137065   5.253   7.366   4.033
12374TIP3    H237066   5.219   7.353   4.179
12375TIP3   OH237067   5.247   2.673   3.792
12375TIP3    H137068   5.224   2.714   3.709
12375TIP3    H237069   5.338   2.644   3.780
12376TIP3   OH237070   4.213   6.494   6.699
12376TIP3    H137071   4.142   6.460   6.646
12376TIP3    H237072   4.259   6.416   6.731
12377TIP3   OH237073   6.811   6.778   4.734
12377TIP3    H137074   6.766   6.735   4.807
12377TIP3    H237075   6.900   6.791   4.765
12378TIP3   OH237076   7.141   1.583   4.583
12378TIP3    H137077   7.156   1.603   4.676
12378TIP3    H237078   7.066   1.524   4.584
12379TIP3   OH237079   1.239   6.756   5.891
12379TIP3    H137080   1.239   6.851   5.894
12379TIP3    H237081   1.307   6.733   5.828
12380TIP3   OH237082   2.355   6.086   3.681
12380TIP3    H137083   2.341   6.173   3.719
12380TIP3    H237084   2.443   6.090   3.645
12381TIP3   OH237085   0.425   6.730   6.054
12381TIP3    H137086   0.376   6.765   6.128
12381TIP3    H237087   0.512   6.712   6.090
12382TIP3   OH237088   4.844   4.209   2.081
12382TIP3    H137089   4.921   4.195   2.135
12382TIP3    H237090   4.782   4.142   2.109
12383TIP3   OH237091   4.553   2.278   2.231
12383TIP3    H137092   4.631   2.275   2.286
12383TIP3    H237093   4.587   2.260   2.142
12384TIP3   OH237094   1.500   5.125   5.490
12384TIP3    H137095   1.587   5.154   5.515
12384TIP3    H237096   1.466   5.080   5.567
12385TIP3   OH237097   2.675   5.510   4.968
12385TIP3    H137098   2.606   5.506   4.902
12385TIP3    H237099   2.745   5.455   4.933
12386TIP3   OH237100   3.163   2.121   0.166
12386TIP3    H137101   3.256   2.110   0.146
12386TIP3    H237102   3.160   2.192   0.230
12387TIP3   OH237103   4.889   0.954   6.202
12387TIP3    H137104   4.980   0.975   6.225
12387TIP3    H237105   4.861   1.028   6.147
12388TIP3   OH237106   4.263   2.404   6.201
12388TIP3    H137107   4.306   2.352   6.269
12388TIP3    H237108   4.272   2.494   6.231
12389TIP3   OH237109   1.561   7.376   5.378
12389TIP3    H137110   1.517   7.439   5.434
12389TIP3    H237111   1.654   7.389   5.396
12390TIP3   OH237112   0.905   0.212   4.284
12390TIP3    H137113   0.910   0.212   4.188
12390TIP3    H237114   0.890   0.120   4.307
12391TIP3   OH237115   5.910   2.370   3.455
12391TIP3    H137116   5.974   2.320   3.404
12391TIP3    H237117   5.859   2.303   3.501
12392TIP3   OH237118   0.008   4.919   1.446
12392TIP3    H137119   0.041   5.001   1.483
12392TIP3    H237120   0.086   4.874   1.413
12393TIP3   OH237121   3.242   7.290   0.640
12393TIP3    H137122   3.203   7.255   0.560
12393TIP3    H237123   3.180   7.356   0.671
12394TIP3   OH237124   1.358   2.050   3.293
12394TIP3    H137125   1.278   2.069   3.245
12394TIP3    H237126   1.342   1.964   3.333
12395TIP3   OH237127   7.736   1.089   4.699
12395TIP3    H137128   7.791   1.159   4.665
12395TIP3    H237129   7.646   1.119   4.682
12396TIP3   OH237130   0.003   0.041   4.773
12396TIP3    H137131   0.030  -0.051   4.775
12396TIP3    H237132   0.057   0.080   4.705
12397TIP3   OH237133   7.013   1.418   1.674
12397TIP3    H137134   7.004   1.385   1.763
12397TIP3    H237135   6.924   1.420   1.639
12398TIP3   OH237136   6.314   5.946   5.480
12398TIP3    H137137   6.353   6.032   5.499
12398TIP3    H237138   6.389   5.888   5.470
12399TIP3   OH237139   3.280   5.303   1.083
12399TIP3    H137140   3.277   5.228   1.142
12399TIP3    H237141   3.373   5.323   1.076
12400TIP3   OH237142   4.865   2.954   3.673
12400TIP3    H137143   4.787   3.007   3.658
12400TIP3    H237144   4.924   2.977   3.601
12401TIP3   OH237145   0.518   5.214   1.810
12401TIP3    H137146   0.487   5.221   1.720
12401TIP3    H237147   0.596   5.270   1.813
12402TIP3   OH237148   3.687   7.456   4.478
12402TIP3    H137149   3.712   7.371   4.514
12402TIP3    H237150   3.666   7.438   4.386
12403TIP3   OH237151   6.888   0.145   5.512
12403TIP3    H137152   6.962   0.145   5.573
12403TIP3    H237153   6.867   0.053   5.499
12404TIP3   OH237154   3.776   4.084   3.925
12404TIP3    H137155   3.793   4.098   3.832
12404TIP3    H237156   3.834   4.146   3.970
12405TIP3   OH237157   4.437   5.826   0.194
12405TIP3    H137158   4.432   5.918   0.222
12405TIP3    H237159   4.383   5.822   0.115
12406TIP3   OH237160   2.531   2.282   3.685
12406TIP3    H137161   2.464   2.252   3.623
12406TIP3    H237162   2.610   2.291   3.632
12407TIP3   OH237163   1.874   5.944   4.300
12407TIP3    H137164   1.786   5.933   4.264
12407TIP3    H237165   1.900   6.032   4.273
12408TIP3   OH237166   1.138   5.970   1.353
12408TIP3    H137167   1.167   5.962   1.443
12408TIP3    H237168   1.068   6.036   1.356
12409TIP3   OH237169   7.793   4.506   3.101
12409TIP3    H137170   7.703   4.539   3.100
12409TIP3    H237171   7.832   4.545   3.179
12410TIP3   OH237172   3.148   4.547   5.866
12410TIP3    H137173   3.164   4.635   5.833
12410TIP3    H237174   3.079   4.512   5.809
12411TIP3   OH237175   0.639   0.467   1.606
12411TIP3    H137176   0.667   0.476   1.697
12411TIP3    H237177   0.629   0.557   1.575
12412TIP3   OH237178   2.707   5.830   3.077
12412TIP3    H137179   2.798   5.827   3.106
12412TIP3    H237180   2.704   5.903   3.014
12413TIP3   OH237181   0.045   2.110   5.446
12413TIP3    H137182   0.021   2.156   5.365
12413TIP3    H237183   0.116   2.163   5.482
12414TIP3   OH237184   1.465   6.393   2.029
12414TIP3    H137185   1.438   6.377   2.120
12414TIP3    H237186   1.544   6.446   2.037
12415TIP3   OH237187   7.993   0.758   1.811
12415TIP3    H137188   8.023   0.744   1.721
12415TIP3    H237189   8.057   0.711   1.865
12416TIP3   OH237190   3.827   6.759   0.996
12416TIP3    H137191   3.776   6.802   0.928
12416TIP3    H237192   3.861   6.831   1.050
12417TIP3   OH237193   3.723   0.643   0.482
12417TIP3    H137194   3.749   0.573   0.422
12417TIP3    H237195   3.646   0.682   0.440
12418TIP3   OH237196   4.042   3.509   0.075
12418TIP3    H137197   4.116   3.453   0.098
12418TIP3    H237198   4.029   3.564   0.152
12419TIP3   OH237199   3.429   4.621   5.920
12419TIP3    H137200   3.346   4.581   5.892
12419TIP3    H237201   3.497   4.570   5.876
12420TIP3   OH237202   1.096   5.255   5.094
12420TIP3    H137203   1.142   5.173   5.080
12420TIP3    H237204   1.139   5.317   5.035
12421TIP3   OH237205   7.815   5.476   4.676
12421TIP3    H137206   7.822   5.557   4.624
12421TIP3    H237207   7.850   5.408   4.619
12422TIP3   OH237208   5.099   6.600   4.505
12422TIP3    H137209   5.095   6.583   4.410
12422TIP3    H237210   5.038   6.672   4.518
12423TIP3   OH237211   0.105   4.749   5.286
12423TIP3    H137212   0.187   4.794   5.269
12423TIP3    H237213   0.130   4.664   5.323
12424TIP3   OH237214   3.907   6.719   3.456
12424TIP3    H137215   3.813   6.701   3.458
12424TIP3    H237216   3.942   6.658   3.392
12425TIP3   OH237217   0.707   0.189   4.844
12425TIP3    H137218   0.722   0.152   4.931
12425TIP3    H237219   0.612   0.204   4.841
12426TIP3   OH237220   2.772   0.992   5.074
12426TIP3    H137221   2.772   0.921   5.010
12426TIP3    H237222   2.680   1.020   5.079
12427TIP3   OH237223   4.647   1.291   2.600
12427TIP3    H137224   4.720   1.234   2.575
12427TIP3    H237225   4.570   1.234   2.595
12428TIP3   OH237226   2.905   5.239   3.753
12428TIP3    H137227   2.974   5.198   3.702
12428TIP3    H237228   2.919   5.333   3.742
12429TIP3   OH237229   5.496   4.764   5.583
12429TIP3    H137230   5.586   4.738   5.564
12429TIP3    H237231   5.475   4.831   5.519
12430TIP3   OH237232   1.340   5.458   5.948
12430TIP3    H137233   1.344   5.550   5.975
12430TIP3    H237234   1.258   5.451   5.898
12431TIP3   OH237235   6.545   3.134   5.842
12431TIP3    H137236   6.515   3.225   5.836
12431TIP3    H237237   6.575   3.113   5.754
12432TIP3   OH237238   3.974   5.293   1.814
12432TIP3    H137239   3.998   5.289   1.907
12432TIP3    H237240   3.952   5.385   1.799
12433TIP3   OH237241   5.424   2.762   2.501
12433TIP3    H137242   5.448   2.835   2.444
12433TIP3    H237243   5.466   2.686   2.463
12434TIP3   OH237244   3.151   2.486   0.982
12434TIP3    H137245   3.149   2.525   0.894
12434TIP3    H237246   3.096   2.408   0.975
12435TIP3   OH237247   5.489   1.172   2.894
12435TIP3    H137248   5.427   1.133   2.833
12435TIP3    H237249   5.472   1.128   2.977
12436TIP3   OH237250   4.205   1.395   3.202
12436TIP3    H137251   4.273   1.413   3.138
12436TIP3    H237252   4.246   1.413   3.286
12437TIP3   OH237253   4.204   4.108   3.754
12437TIP3    H137254   4.134   4.094   3.690
12437TIP3    H237255   4.204   4.029   3.807
12438TIP3   OH237256   4.876   1.952   4.006
12438TIP3    H137257   4.784   1.940   4.030
12438TIP3    H237258   4.920   1.970   4.090
12439TIP3   OH237259   7.303   2.943   3.691
12439TIP3    H137260   7.262   2.954   3.605
12439TIP3    H237261   7.391   2.910   3.671
12440TIP3   OH237262   4.115   6.805   4.637
12440TIP3    H137263   4.119   6.727   4.582
12440TIP3    H237264   4.207   6.831   4.648
12441TIP3   OH237265   3.999   3.006   3.970
12441TIP3    H137266   4.034   3.021   4.058
12441TIP3    H237267   4.060   3.052   3.912
12442TIP3   OH237268   4.692   6.332   3.914
12442TIP3    H137269   4.709   6.426   3.909
12442TIP3    H237270   4.740   6.295   3.839
12443TIP3   OH237271   2.277   2.928   1.671
12443TIP3    H137272   2.313   2.988   1.736
12443TIP3    H237273   2.341   2.929   1.599
12444TIP3   OH237274   0.705   1.781   6.287
12444TIP3    H137275   0.683   1.818   6.202
12444TIP3    H237276   0.801   1.777   6.287
12445TIP3   OH237277   2.708   3.345   0.672
12445TIP3    H137278   2.636   3.315   0.616
12445TIP3    H237279   2.692   3.304   0.756
12446TIP3   OH237280   3.784   2.043   6.097
12446TIP3    H137281   3.788   2.126   6.051
12446TIP3    H237282   3.869   2.036   6.142
12447TIP3   OH237283   5.992   0.715   3.213
12447TIP3    H137284   6.005   0.808   3.195
12447TIP3    H237285   6.061   0.672   3.163
12448TIP3   OH237286   0.756   5.700   0.644
12448TIP3    H137287   0.680   5.641   0.646
12448TIP3    H237288   0.760   5.729   0.553
12449TIP3   OH237289   0.652   7.578   1.617
12449TIP3    H137290   0.606   7.644   1.669
12449TIP3    H237291   0.662   7.617   1.530
12450TIP3   OH237292   5.497   3.338   5.662
12450TIP3    H137293   5.436   3.334   5.588
12450TIP3    H237294   5.581   3.309   5.625
12451TIP3   OH237295   7.133   7.637   5.444
12451TIP3    H137296   7.089   7.568   5.494
12451TIP3    H237297   7.195   7.676   5.506
12452TIP3   OH237298   7.391   0.698   3.414
12452TIP3    H137299   7.374   0.761   3.484
12452TIP3    H237300   7.486   0.684   3.418
12453TIP3   OH237301   6.951   5.963   4.887
12453TIP3    H137302   6.869   5.947   4.840
12453TIP3    H237303   6.958   6.058   4.892
12454TIP3   OH237304   0.085   3.350   4.313
12454TIP3    H137305   0.053   3.319   4.228
12454TIP3    H237306   0.010   3.337   4.372
12455TIP3   OH237307   7.196   7.212   6.731
12455TIP3    H137308   7.244   7.274   6.675
12455TIP3    H237309   7.185   7.259   6.814
12456TIP3   OH237310   2.152   1.159   6.322
12456TIP3    H137311   2.239   1.181   6.288
12456TIP3    H237312   2.133   1.230   6.384
12457TIP3   OH237313   7.268   3.905   4.695
12457TIP3    H137314   7.353   3.901   4.738
12457TIP3    H237315   7.229   3.987   4.725
12458TIP3   OH237316   3.083   3.724   4.274
12458TIP3    H137317   3.087   3.665   4.349
12458TIP3    H237318   3.149   3.790   4.291
12459TIP3   OH237319   4.218   0.669   2.343
12459TIP3    H137320   4.313   0.673   2.355
12459TIP3    H237321   4.202   0.585   2.300
12460TIP3   OH237322   3.898   2.720   1.044
12460TIP3    H137323   3.933   2.722   0.955
12460TIP3    H237324   3.838   2.795   1.049
12461TIP3   OH237325   8.041   0.146   3.962
12461TIP3    H137326   7.991   0.105   4.032
12461TIP3    H237327   8.125   0.098   3.961
12462TIP3   OH237328   1.980   6.796   0.293
12462TIP3    H137329   1.999   6.877   0.245
12462TIP3    H237330   1.885   6.795   0.301
12463TIP3   OH237331   3.861   6.639   6.363
12463TIP3    H137332   3.819   6.561   6.326
12463TIP3    H237333   3.806   6.663   6.438
12464TIP3   OH237334   6.495   3.737   2.794
12464TIP3    H137335   6.513   3.709   2.705
12464TIP3    H237336   6.564   3.698   2.847
12465TIP3   OH237337   5.747   0.484   3.307
12465TIP3    H137338   5.781   0.400   3.336
12465TIP3    H237339   5.807   0.512   3.238
12466TIP3   OH237340   1.805   7.712   1.879
12466TIP3    H137341   1.855   7.659   1.817
12466TIP3    H237342   1.841   7.800   1.869
12467TIP3   OH237343   7.999   4.995   3.934
12467TIP3    H137344   7.956   5.080   3.944
12467TIP3    H237345   8.004   4.982   3.839
12468TIP3   OH237346   4.011   6.311   1.677
12468TIP3    H137347   3.989   6.304   1.584
12468TIP3    H237348   4.096   6.354   1.678
12469TIP3   OH237349   7.867   7.185   4.510
12469TIP3    H137350   7.836   7.105   4.551
12469TIP3    H237351   7.799   7.250   4.528
12470TIP3   OH237352   3.643   7.391   2.902
12470TIP3    H137353   3.592   7.430   2.831
12470TIP3    H237354   3.604   7.305   2.915
12471TIP3   OH237355   2.434   0.365   0.892
12471TIP3    H137356   2.374   0.439   0.881
12471TIP3    H237357   2.388   0.305   0.951
12472TIP3   OH237358   4.331   4.623   6.625
12472TIP3    H137359   4.409   4.673   6.603
12472TIP3    H237360   4.259   4.685   6.616
12473TIP3   OH237361   1.303   3.378   5.005
12473TIP3    H137362   1.287   3.284   4.991
12473TIP3    H237363   1.247   3.421   4.941
12474TIP3   OH237364   2.610   1.311   1.377
12474TIP3    H137365   2.566   1.332   1.460
12474TIP3    H237366   2.618   1.215   1.379
12475TIP3   OH237367   5.250   6.628   1.805
12475TIP3    H137368   5.343   6.644   1.824
12475TIP3    H237369   5.218   6.579   1.881
12476TIP3   OH237370   3.707   0.305   5.620
12476TIP3    H137371   3.786   0.343   5.580
12476TIP3    H237372   3.740   0.257   5.696
12477TIP3   OH237373   2.531   6.775   3.266
12477TIP3    H137374   2.452   6.721   3.261
12477TIP3    H237375   2.588   6.741   3.197
12478TIP3   OH237376   1.417   2.295   3.420
12478TIP3    H137377   1.388   2.209   3.388
12478TIP3    H237378   1.503   2.279   3.458
12479TIP3   OH237379   3.967   7.013   0.723
12479TIP3    H137380   3.972   6.918   0.715
12479TIP3    H237381   3.881   7.036   0.688
12480TIP3   OH237382   7.520   1.633   6.744
12480TIP3    H137383   7.474   1.648   6.826
12480TIP3    H237384   7.573   1.555   6.760
12481TIP3   OH237385   5.847   3.683   4.643
12481TIP3    H137386   5.868   3.768   4.682
12481TIP3    H237387   5.900   3.620   4.694
12482TIP3   OH237388   8.268   2.734   4.744
12482TIP3    H137389   8.201   2.744   4.676
12482TIP3    H237390   8.345   2.700   4.698
12483TIP3   OH237391   2.368   1.037   6.653
12483TIP3    H137392   2.403   1.005   6.570
12483TIP3    H237393   2.436   1.019   6.717
12484TIP3   OH237394   4.261   2.854   1.206
12484TIP3    H137395   4.178   2.901   1.213
12484TIP3    H237396   4.320   2.900   1.265
12485TIP3   OH237397   1.785   4.239   0.860
12485TIP3    H137398   1.706   4.189   0.881
12485TIP3    H237399   1.850   4.172   0.839
12486TIP3   OH237400   5.274   2.160   1.864
12486TIP3    H137401   5.276   2.249   1.899
12486TIP3    H237402   5.181   2.141   1.851
12487TIP3   OH237403   2.700   0.438   0.659
12487TIP3    H137404   2.748   0.368   0.703
12487TIP3    H237405   2.610   0.406   0.654
12488TIP3   OH237406   0.831   2.215   0.058
12488TIP3    H137407   0.779   2.163   0.119
12488TIP3    H237408   0.921   2.206   0.089
12489TIP3   OH237409   5.015   3.547   5.086
12489TIP3    H137410   4.963   3.517   5.011
12489TIP3    H237411   4.964   3.522   5.163
12490TIP3   OH237412   7.645   6.659   3.524
12490TIP3    H137413   7.619   6.684   3.435
12490TIP3    H237414   7.684   6.738   3.561
12491TIP3   OH237415   0.474   5.341   2.237
12491TIP3    H137416   0.398   5.359   2.182
12491TIP3    H237417   0.462   5.251   2.266
12492TIP3   OH237418   2.006   1.711   0.409
12492TIP3    H137419   2.007   1.669   0.323
12492TIP3    H237420   1.913   1.715   0.432
12493TIP3   OH237421   4.369   3.587   5.901
12493TIP3    H137422   4.330   3.675   5.902
12493TIP3    H237423   4.339   3.549   5.818
12494TIP3   OH237424   7.157   2.655   1.493
12494TIP3    H137425   7.146   2.654   1.398
12494TIP3    H237426   7.162   2.748   1.516
12495TIP3   OH237427   2.576   3.361   1.976
12495TIP3    H137428   2.646   3.395   2.032
12495TIP3    H237429   2.504   3.342   2.037
12496TIP3   OH237430   0.502   3.137   4.663
12496TIP3    H137431   0.409   3.112   4.668
12496TIP3    H237432   0.500   3.230   4.641
12497TIP3   OH237433   4.317   6.373   3.879
12497TIP3    H137434   4.362   6.292   3.903
12497TIP3    H237435   4.228   6.346   3.855
12498TIP3   OH237436   2.508   3.766   1.627
12498TIP3    H137437   2.426   3.723   1.603
12498TIP3    H237438   2.568   3.747   1.555
12499TIP3   OH237439   1.367   6.582   3.338
12499TIP3    H137440   1.281   6.580   3.295
12499TIP3    H237441   1.355   6.531   3.418
12500TIP3   OH237442   4.791   2.320   2.340
12500TIP3    H137443   4.802   2.415   2.344
12500TIP3    H237444   4.813   2.290   2.428
12501TIP3   OH237445   3.128   7.615   4.987
12501TIP3    H137446   3.064   7.683   5.008
12501TIP3    H237447   3.093   7.572   4.909
12502TIP3   OH237448   6.396   6.770   5.034
12502TIP3    H137449   6.333   6.703   5.010
12502TIP3    H237450   6.370   6.799   5.121
12503TIP3   OH237451   4.198   0.402   2.264
12503TIP3    H137452   4.158   0.325   2.304
12503TIP3    H237453   4.290   0.379   2.255
12504TIP3   OH237454   7.455   4.513   2.511
12504TIP3    H137455   7.483   4.456   2.582
12504TIP3    H237456   7.536   4.547   2.473
12505TIP3   OH237457   1.678   6.414   4.381
12505TIP3    H137458   1.678   6.504   4.414
12505TIP3    H237459   1.612   6.369   4.434
12506TIP3   OH237460   6.339   0.697   1.060
12506TIP3    H137461   6.385   0.698   1.144
12506TIP3    H237462   6.283   0.620   1.064
12507TIP3   OH237463   3.522   4.040   0.042
12507TIP3    H137464   3.481   4.127   0.041
12507TIP3    H237465   3.519   4.011  -0.049
12508TIP3   OH237466   1.928   6.667   6.373
12508TIP3    H137467   1.869   6.742   6.363
12508TIP3    H237468   1.877   6.593   6.341
12509TIP3   OH237469   5.631   1.445   5.675
12509TIP3    H137470   5.671   1.461   5.590
12509TIP3    H237471   5.606   1.353   5.674
12510TIP3   OH237472   1.678   1.146   1.189
12510TIP3    H137473   1.740   1.085   1.148
12510TIP3    H237474   1.659   1.107   1.274
12511TIP3   OH237475   5.108   6.176   2.847
12511TIP3    H137476   5.187   6.160   2.795
12511TIP3    H237477   5.061   6.245   2.800
12512TIP3   OH237478   7.091   6.297   1.136
12512TIP3    H137479   7.113   6.204   1.137
12512TIP3    H237480   6.997   6.299   1.155
12513TIP3   OH237481   1.481   4.178   2.812
12513TIP3    H137482   1.461   4.116   2.881
12513TIP3    H237483   1.568   4.154   2.782
12514TIP3   OH237484   3.518   4.589   1.803
12514TIP3    H137485   3.440   4.644   1.800
12514TIP3    H237486   3.497   4.515   1.746
12515TIP3   OH237487   0.061   6.942   6.499
12515TIP3    H137488   0.102   6.992   6.429
12515TIP3    H237489   0.128   6.880   6.527
12516TIP3   OH237490   1.751   3.949   5.731
12516TIP3    H137491   1.741   3.884   5.800
12516TIP3    H237492   1.663   3.987   5.721
12517TIP3   OH237493   6.887   5.935   2.364
12517TIP3    H137494   6.887   5.929   2.460
12517TIP3    H237495   6.800   5.904   2.338
12518TIP3   OH237496   2.543   2.472   3.255
12518TIP3    H137497   2.616   2.484   3.315
12518TIP3    H237498   2.539   2.377   3.240
12519TIP3   OH237499   7.024   0.659   1.822
12519TIP3    H137500   7.087   0.731   1.819
12519TIP3    H237501   7.072   0.587   1.862
12520TIP3   OH237502   5.057   2.873   2.975
12520TIP3    H137503   5.068   2.827   2.891
12520TIP3    H237504   5.127   2.838   3.030
12521TIP3   OH237505   5.082   1.767   0.591
12521TIP3    H137506   5.075   1.672   0.591
12521TIP3    H237507   5.131   1.788   0.671
12522TIP3   OH237508   1.180   3.861   3.364
12522TIP3    H137509   1.241   3.791   3.388
12522TIP3    H237510   1.184   3.923   3.437
12523TIP3   OH237511   5.399   0.456   0.626
12523TIP3    H137512   5.454   0.415   0.694
12523TIP3    H237513   5.321   0.485   0.674
12524TIP3   OH237514   1.641   5.818   2.240
12524TIP3    H137515   1.549   5.792   2.232
12524TIP3    H237516   1.667   5.840   2.150
12525TIP3   OH237517   0.872   2.509   3.182
12525TIP3    H137518   0.899   2.508   3.274
12525TIP3    H237519   0.953   2.524   3.134
12526TIP3   OH237520   2.230   1.197   4.563
12526TIP3    H137521   2.166   1.195   4.634
12526TIP3    H237522   2.212   1.278   4.516
12527TIP3   OH237523   5.769   1.222  -0.029
12527TIP3    H137524   5.741   1.314  -0.027
12527TIP3    H237525   5.842   1.218   0.032
12528TIP3   OH237526   1.974   6.552   5.014
12528TIP3    H137527   2.035   6.519   4.949
12528TIP3    H237528   1.903   6.487   5.016
12529TIP3   OH237529   1.080   6.467   5.169
12529TIP3    H137530   1.004   6.414   5.146
12529TIP3    H237531   1.109   6.504   5.086
12530TIP3   OH237532   3.608   0.253   4.451
12530TIP3    H137533   3.673   0.266   4.382
12530TIP3    H237534   3.621   0.326   4.510
12531TIP3   OH237535   1.992   5.006   3.967
12531TIP3    H137536   1.993   5.056   4.048
12531TIP3    H237537   2.041   5.060   3.905
12532TIP3   OH237538   6.682   2.784   0.447
12532TIP3    H137539   6.732   2.704   0.465
12532TIP3    H237540   6.705   2.843   0.519
12533TIP3   OH237541   0.353   6.527   1.725
12533TIP3    H137542   0.370   6.476   1.804
12533TIP3    H237543   0.258   6.538   1.724
12534TIP3   OH237544   7.609   5.501   4.882
12534TIP3    H137545   7.686   5.522   4.830
12534TIP3    H237546   7.562   5.436   4.830
12535TIP3   OH237547   5.879   5.017   2.081
12535TIP3    H137548   5.948   5.057   2.134
12535TIP3    H237549   5.883   5.063   1.997
12536TIP3   OH237550   1.562   2.380   1.951
12536TIP3    H137551   1.544   2.346   1.864
12536TIP3    H237552   1.655   2.404   1.949
12537TIP3   OH237553   2.873   3.100   3.235
12537TIP3    H137554   2.789   3.121   3.276
12537TIP3    H237555   2.890   3.009   3.259
12538TIP3   OH237556   1.225   4.005   2.368
12538TIP3    H137557   1.302   4.030   2.419
12538TIP3    H237558   1.241   4.041   2.281
12539TIP3   OH237559   7.348   7.181   1.585
12539TIP3    H137560   7.284   7.126   1.541
12539TIP3    H237561   7.310   7.268   1.586
12540TIP3   OH237562   0.100   4.110   5.454
12540TIP3    H137563   0.067   4.198   5.473
12540TIP3    H237564   0.192   4.123   5.431
12541TIP3   OH237565   6.244   7.635   1.437
12541TIP3    H137566   6.203   7.560   1.480
12541TIP3    H237567   6.174   7.698   1.426
12542TIP3   OH237568   3.409   5.142   5.333
12542TIP3    H137569   3.428   5.077   5.401
12542TIP3    H237570   3.485   5.200   5.333
12543TIP3   OH237571   1.514   4.566   0.826
12543TIP3    H137572   1.558   4.602   0.749
12543TIP3    H237573   1.484   4.480   0.799
12544TIP3   OH237574   8.072   0.437   5.156
12544TIP3    H137575   7.990   0.407   5.196
12544TIP3    H237576   8.141   0.389   5.202
12545TIP3   OH237577   1.568   0.347   3.364
12545TIP3    H137578   1.497   0.283   3.360
12545TIP3    H237579   1.589   0.366   3.273
12546TIP3   OH237580   5.389   4.257   6.215
12546TIP3    H137581   5.364   4.267   6.306
12546TIP3    H237582   5.340   4.326   6.169
12547TIP3   OH237583   1.798   3.519   4.021
12547TIP3    H137584   1.845   3.584   3.969
12547TIP3    H237585   1.764   3.457   3.957
12548TIP3   OH237586   7.112   3.663   5.316
12548TIP3    H137587   7.203   3.639   5.332
12548TIP3    H237588   7.061   3.589   5.349
12549TIP3   OH237589   7.589   1.671   3.859
12549TIP3    H137590   7.527   1.733   3.821
12549TIP3    H237591   7.583   1.594   3.802
12550TIP3   OH237592   4.383   2.116   0.732
12550TIP3    H137593   4.318   2.129   0.801
12550TIP3    H237594   4.382   2.022   0.715
12551TIP3   OH237595   2.179   3.155   2.325
12551TIP3    H137596   2.128   3.076   2.305
12551TIP3    H237597   2.151   3.179   2.413
12552TIP3   OH237598   2.990   5.601   0.874
12552TIP3    H137599   2.979   5.556   0.958
12552TIP3    H237600   2.917   5.664   0.871
12553TIP3   OH237601   4.238   4.377   2.414
12553TIP3    H137602   4.160   4.403   2.366
12553TIP3    H237603   4.311   4.422   2.371
12554TIP3   OH237604   4.085   3.755   5.900
12554TIP3    H137605   4.008   3.804   5.931
12554TIP3    H237606   4.142   3.822   5.862
12555TIP3   OH237607   2.596   1.048   3.048
12555TIP3    H137608   2.521   1.026   2.992
12555TIP3    H237609   2.638   0.964   3.066
12556TIP3   OH237610   2.166   0.256   0.636
12556TIP3    H137611   2.214   0.190   0.686
12556TIP3    H237612   2.075   0.246   0.665
12557TIP3   OH237613   2.937   2.836   5.781
12557TIP3    H137614   2.919   2.911   5.725
12557TIP3    H237615   2.869   2.772   5.758
12558TIP3   OH237616   7.658   7.425   4.814
12558TIP3    H137617   7.608   7.482   4.873
12558TIP3    H237618   7.739   7.473   4.798
12559TIP3   OH237619   4.772   4.502   6.432
12559TIP3    H137620   4.748   4.438   6.365
12559TIP3    H237621   4.718   4.480   6.508
12560TIP3   OH237622   7.147   0.540   2.266
12560TIP3    H137623   7.190   0.486   2.200
12560TIP3    H237624   7.216   0.600   2.296
12561TIP3   OH237625   4.430   1.450   6.037
12561TIP3    H137626   4.361   1.486   5.980
12561TIP3    H237627   4.413   1.356   6.037
12562TIP3   OH237628   7.707   6.310   1.237
12562TIP3    H137629   7.755   6.384   1.202
12562TIP3    H237630   7.702   6.248   1.164
12563TIP3   OH237631   5.086   1.156   0.021
12563TIP3    H137632   5.180   1.175   0.030
12563TIP3    H237633   5.059   1.203  -0.058
12564TIP3   OH237634   7.828   5.887   3.284
12564TIP3    H137635   7.794   5.806   3.245
12564TIP3    H237636   7.811   5.954   3.217
12565TIP3   OH237637   3.171   6.706   1.435
12565TIP3    H137638   3.154   6.800   1.436
12565TIP3    H237639   3.094   6.667   1.476
12566TIP3   OH237640   7.811   4.171   0.916
12566TIP3    H137641   7.836   4.188   0.825
12566TIP3    H237642   7.893   4.148   0.960
12567TIP3   OH237643   1.221   3.788   0.375
12567TIP3    H137644   1.149   3.725   0.378
12567TIP3    H237645   1.178   3.874   0.372
12568TIP3   OH237646  -0.023   1.159   4.580
12568TIP3    H137647  -0.016   1.064   4.587
12568TIP3    H237648  -0.096   1.174   4.519
12569TIP3   OH237649   5.996   4.301   0.203
12569TIP3    H137650   6.005   4.232   0.268
12569TIP3    H237651   6.041   4.267   0.126
12570TIP3   OH237652   6.892   5.971   6.154
12570TIP3    H137653   6.822   5.927   6.105
12570TIP3    H237654   6.863   6.063   6.159
12571TIP3   OH237655   7.804   4.813   2.073
12571TIP3    H137656   7.808   4.898   2.116
12571TIP3    H237657   7.721   4.814   2.026
12572TIP3   OH237658   6.951   6.778   5.170
12572TIP3    H137659   6.861   6.746   5.174
12572TIP3    H237660   6.942   6.874   5.165
12573TIP3   OH237661   5.483   7.751   5.197
12573TIP3    H137662   5.436   7.680   5.155
12573TIP3    H237663   5.451   7.752   5.287
12574TIP3   OH237664   2.355   3.445   0.426
12574TIP3    H137665   2.355   3.511   0.495
12574TIP3    H237666   2.353   3.494   0.344
12575TIP3   OH237667   5.485   6.770   4.936
12575TIP3    H137668   5.424   6.713   4.983
12575TIP3    H237669   5.469   6.751   4.843
12576TIP3   OH237670   6.241   6.096   4.692
12576TIP3    H137671   6.235   6.031   4.622
12576TIP3    H237672   6.188   6.169   4.660
12577TIP3   OH237673   7.624   2.968   0.760
12577TIP3    H137674   7.549   3.026   0.768
12577TIP3    H237675   7.659   2.961   0.849
12578TIP3   OH237676   3.953   7.777   3.935
12578TIP3    H137677   3.958   7.715   4.008
12578TIP3    H237678   4.019   7.745   3.873
12579TIP3   OH237679   2.306   4.046   5.110
12579TIP3    H137680   2.381   4.055   5.167
12579TIP3    H237681   2.231   4.069   5.164
12580TIP3   OH237682   2.239   4.462   6.613
12580TIP3    H137683   2.292   4.415   6.678
12580TIP3    H237684   2.182   4.394   6.575
12581TIP3   OH237685   1.516   3.485   1.114
12581TIP3    H137686   1.564   3.408   1.144
12581TIP3    H237687   1.584   3.543   1.079
12582TIP3   OH237688   3.727   4.782   1.695
12582TIP3    H137689   3.689   4.740   1.772
12582TIP3    H237690   3.732   4.875   1.719
12583TIP3   OH237691   2.449   2.026   0.215
12583TIP3    H137692   2.358   2.017   0.243
12583TIP3    H237693   2.483   2.099   0.267
12584TIP3   OH237694   5.435   0.380   0.969
12584TIP3    H137695   5.367   0.365   1.035
12584TIP3    H237696   5.511   0.410   1.019
12585TIP3   OH237697   0.908   3.971   6.730
12585TIP3    H137698   0.985   3.931   6.690
12585TIP3    H237699   0.941   4.053   6.768
12586TIP3   OH237700   3.283   2.466   4.060
12586TIP3    H137701   3.194   2.502   4.068
12586TIP3    H237702   3.272   2.373   4.081
12587TIP3   OH237703   4.642   5.751   5.265
12587TIP3    H137704   4.652   5.839   5.301
12587TIP3    H237705   4.635   5.764   5.171
12588TIP3   OH237706   8.087   1.354   1.103
12588TIP3    H137707   8.067   1.445   1.124
12588TIP3    H237708   8.074   1.348   1.008
12589TIP3   OH237709   4.991   3.444   4.669
12589TIP3    H137710   5.002   3.518   4.729
12589TIP3    H237711   4.903   3.412   4.687
12590TIP3   OH237712   7.403   4.804   2.561
12590TIP3    H137713   7.439   4.825   2.474
12590TIP3    H237714   7.430   4.714   2.577
12591TIP3   OH237715   4.475   2.587   4.867
12591TIP3    H137716   4.559   2.588   4.913
12591TIP3    H237717   4.428   2.664   4.900
12592TIP3   OH237718   4.975   3.272   2.977
12592TIP3    H137719   4.980   3.342   2.913
12592TIP3    H237720   4.917   3.207   2.938
12593TIP3   OH237721   7.809   7.477   3.149
12593TIP3    H137722   7.818   7.546   3.215
12593TIP3    H237723   7.747   7.414   3.188
12594TIP3   OH237724   7.692   6.085   0.365
12594TIP3    H137725   7.626   6.020   0.389
12594TIP3    H237726   7.776   6.041   0.379
12595TIP3   OH237727   5.511   1.402   0.645
12595TIP3    H137728   5.514   1.307   0.634
12595TIP3    H237729   5.583   1.435   0.590
12596TIP3   OH237730   5.456   1.387   5.024
12596TIP3    H137731   5.433   1.477   5.001
12596TIP3    H237732   5.544   1.375   4.990
12597TIP3   OH237733   5.995   2.043   3.126
12597TIP3    H137734   5.902   2.020   3.122
12597TIP3    H237735   6.041   1.959   3.126
12598TIP3   OH237736   3.040   0.915   1.271
12598TIP3    H137737   3.110   0.915   1.336
12598TIP3    H237738   2.976   0.852   1.304
12599TIP3   OH237739   5.409   4.579   5.386
12599TIP3    H137740   5.447   4.665   5.405
12599TIP3    H237741   5.428   4.565   5.293
12600TIP3   OH237742   2.246   5.920   4.170
12600TIP3    H137743   2.192   5.995   4.194
12600TIP3    H237744   2.256   5.927   4.075
12601TIP3   OH237745   6.215   3.364   4.903
12601TIP3    H137746   6.296   3.313   4.901
12601TIP3    H237747   6.179   3.349   4.991
12602TIP3   OH237748   6.912   1.333   2.946
12602TIP3    H137749   6.939   1.255   2.994
12602TIP3    H237750   6.985   1.350   2.886
12603TIP3   OH237751   3.607   5.147   6.117
12603TIP3    H137752   3.666   5.163   6.044
12603TIP3    H237753   3.535   5.209   6.105
12604TIP3   OH237754   6.513   2.697   0.683
12604TIP3    H137755   6.556   2.744   0.612
12604TIP3    H237756   6.486   2.614   0.644
12605TIP3   OH237757   5.060   6.862   5.006
12605TIP3    H137758   4.983   6.918   4.998
12605TIP3    H237759   5.024   6.775   5.025
12606TIP3   OH237760   6.455   0.711   1.337
12606TIP3    H137761   6.489   0.623   1.322
12606TIP3    H237762   6.533   0.767   1.338
12607TIP3   OH237763   2.554   0.059   6.556
12607TIP3    H137764   2.584  -0.011   6.614
12607TIP3    H237765   2.502   0.015   6.489
12608TIP3   OH237766   6.150   7.224   0.443
12608TIP3    H137767   6.143   7.152   0.379
12608TIP3    H237768   6.111   7.189   0.523
12609TIP3   OH237769   0.351   5.474   3.136
12609TIP3    H137770   0.417   5.541   3.153
12609TIP3    H237771   0.358   5.456   3.042
12610TIP3   OH237772   4.805   6.114   4.270
12610TIP3    H137773   4.784   6.029   4.231
12610TIP3    H237774   4.751   6.119   4.349
12611TIP3   OH237775   3.981   7.270   2.210
12611TIP3    H137776   4.034   7.234   2.281
12611TIP3    H237777   3.985   7.204   2.140
12612TIP3   OH237778   5.705   5.649   2.162
12612TIP3    H137779   5.793   5.611   2.153
12612TIP3    H237780   5.647   5.587   2.119
12613TIP3   OH237781   2.985   2.515   0.022
12613TIP3    H137782   2.896   2.550   0.033
12613TIP3    H237783   3.017   2.503   0.111
12614TIP3   OH237784   5.230   3.926   0.119
12614TIP3    H137785   5.277   4.010   0.116
12614TIP3    H237786   5.295   3.862   0.090
12615TIP3   OH237787   2.167   4.031   0.379
12615TIP3    H137788   2.151   4.122   0.354
12615TIP3    H237789   2.247   4.007   0.333
12616TIP3   OH237790   7.598   0.064   0.176
12616TIP3    H137791   7.624   0.153   0.154
12616TIP3    H237792   7.584   0.021   0.092
12617TIP3   OH237793   4.323   1.827   2.230
12617TIP3    H137794   4.399   1.773   2.251
12617TIP3    H237795   4.319   1.891   2.300
12618TIP3   OH237796   1.276   0.063   4.757
12618TIP3    H137797   1.290  -0.023   4.796
12618TIP3    H237798   1.192   0.092   4.793
12619TIP3   OH237799   0.567   2.033   3.804
12619TIP3    H137800   0.625   1.991   3.867
12619TIP3    H237801   0.622   2.046   3.726
12620TIP3   OH237802   3.251   7.615   1.252
12620TIP3    H137803   3.340   7.600   1.220
12620TIP3    H237804   3.213   7.527   1.260
12621TIP3   OH237805   1.122   3.529   0.198
12621TIP3    H137806   1.094   3.499   0.111
12621TIP3    H237807   1.065   3.481   0.259
12622TIP3   OH237808   3.210   4.280   5.297
12622TIP3    H137809   3.246   4.366   5.275
12622TIP3    H237810   3.165   4.251   5.218
12623TIP3   OH237811   3.956   5.284   5.169
12623TIP3    H137812   4.016   5.327   5.229
12623TIP3    H237813   3.908   5.355   5.127
12624TIP3   OH237814   6.928   5.226   0.424
12624TIP3    H137815   6.959   5.314   0.444
12624TIP3    H237816   6.832   5.233   0.430
12625TIP3   OH237817   6.279   1.859   0.401
12625TIP3    H137818   6.201   1.849   0.346
12625TIP3    H237819   6.325   1.775   0.391
12626TIP3   OH237820   1.043   0.998   5.590
12626TIP3    H137821   0.984   0.991   5.515
12626TIP3    H237822   1.042   1.090   5.614
12627TIP3   OH237823   7.472   0.209   0.791
12627TIP3    H137824   7.447   0.297   0.817
12627TIP3    H237825   7.542   0.185   0.853
12628TIP3   OH237826   2.989   0.550   1.272
12628TIP3    H137827   2.961   0.595   1.192
12628TIP3    H237828   2.940   0.594   1.342
12629TIP3   OH237829   6.962   7.034   5.310
12629TIP3    H137830   6.994   7.078   5.231
12629TIP3    H237831   7.023   7.062   5.378
12630TIP3   OH237832   6.309   2.415   2.459
12630TIP3    H137833   6.222   2.427   2.421
12630TIP3    H237834   6.309   2.325   2.491
12631TIP3   OH237835   5.963   3.976   4.613
12631TIP3    H137836   6.033   3.914   4.631
12631TIP3    H237837   5.981   4.050   4.671
12632TIP3   OH237838   2.412   1.895   3.918
12632TIP3    H137839   2.370   1.811   3.938
12632TIP3    H237840   2.499   1.871   3.885
12633TIP3   OH237841   0.926   0.885   0.007
12633TIP3    H137842   0.928   0.907  -0.087
12633TIP3    H237843   0.836   0.906   0.034
12634TIP3   OH237844   2.975   5.367   0.277
12634TIP3    H137845   3.027   5.430   0.327
12634TIP3    H237846   2.944   5.305   0.343
12635TIP3   OH237847   4.476   6.871   5.725
12635TIP3    H137848   4.396   6.898   5.770
12635TIP3    H237849   4.514   6.952   5.692
12636TIP3   OH237850   1.605   2.000   0.479
12636TIP3    H137851   1.687   2.006   0.529
12636TIP3    H237852   1.566   2.087   0.487
12637TIP3   OH237853  -0.050   5.685   6.614
12637TIP3    H137854   0.000   5.733   6.680
12637TIP3    H237855  -0.050   5.743   6.537
12638TIP3   OH237856   1.010   5.391   0.858
12638TIP3    H137857   1.040   5.300   0.859
12638TIP3    H237858   1.049   5.430   0.936
12639TIP3   OH237859   2.255   7.418   2.854
12639TIP3    H137860   2.316   7.488   2.880
12639TIP3    H237861   2.234   7.438   2.763
12640TIP3   OH237862   2.989   1.064   2.658
12640TIP3    H137863   2.898   1.080   2.681
12640TIP3    H237864   3.028   1.151   2.655
12641TIP3   OH237865   3.742   3.567   0.014
12641TIP3    H137866   3.703   3.607   0.092
12641TIP3    H237867   3.716   3.625  -0.058
12642TIP3   OH237868   4.723   7.371   0.091
12642TIP3    H137869   4.687   7.382   0.003
12642TIP3    H237870   4.707   7.454   0.134
12643TIP3   OH237871   1.222   2.224   5.834
12643TIP3    H137872   1.198   2.239   5.743
12643TIP3    H237873   1.265   2.305   5.861
12644TIP3   OH237874   5.924   1.176   5.262
12644TIP3    H137875   5.998   1.221   5.303
12644TIP3    H237876   5.910   1.098   5.317
12645TIP3   OH237877   7.246   3.822   5.666
12645TIP3    H137878   7.157   3.824   5.631
12645TIP3    H237879   7.266   3.914   5.684
12646TIP3   OH237880   5.960   6.782   2.652
12646TIP3    H137881   6.023   6.757   2.719
12646TIP3    H237882   6.004   6.763   2.569
12647TIP3   OH237883   5.143   6.545   4.252
12647TIP3    H137884   5.164   6.455   4.230
12647TIP3    H237885   5.228   6.588   4.263
12648TIP3   OH237886   7.422   3.771   5.144
12648TIP3    H137887   7.383   3.851   5.180
12648TIP3    H237888   7.485   3.802   5.078
12649TIP3   OH237889   1.811   7.048   5.534
12649TIP3    H137890   1.885   7.103   5.558
12649TIP3    H237891   1.846   6.959   5.533
12650TIP3   OH237892   3.054   6.512   2.657
12650TIP3    H137893   3.018   6.517   2.568
12650TIP3    H237894   3.010   6.582   2.705
12651TIP3   OH237895   7.178   1.355   5.952
12651TIP3    H137896   7.213   1.412   6.021
12651TIP3    H237897   7.084   1.376   5.950
12652TIP3   OH237898   0.600   1.376   1.618
12652TIP3    H137899   0.522   1.427   1.641
12652TIP3    H237900   0.664   1.442   1.591
12653TIP3   OH237901   3.724   2.496   6.415
12653TIP3    H137902   3.742   2.407   6.385
12653TIP3    H237903   3.781   2.508   6.490
12654TIP3   OH237904   5.704   5.527   1.049
12654TIP3    H137905   5.788   5.483   1.034
12654TIP3    H237906   5.679   5.560   0.962
12655TIP3   OH237907   7.629   4.988   5.321
12655TIP3    H137908   7.562   4.922   5.301
12655TIP3    H237909   7.690   4.983   5.248
12656TIP3   OH237910   6.296   1.144   1.512
12656TIP3    H137911   6.350   1.083   1.562
12656TIP3    H237912   6.331   1.139   1.423
12657TIP3   OH237913   1.233   2.924   0.344
12657TIP3    H137914   1.256   2.899   0.255
12657TIP3    H237915   1.317   2.935   0.388
12658TIP3   OH237916   5.312   4.851   2.159
12658TIP3    H137917   5.283   4.888   2.242
12658TIP3    H237918   5.232   4.834   2.110
12659TIP3   OH237919   4.073   7.267   6.404
12659TIP3    H137920   4.108   7.182   6.377
12659TIP3    H237921   4.066   7.261   6.499
12660TIP3   OH237922   3.179   7.821   4.663
12660TIP3    H137923   3.115   7.759   4.698
12660TIP3    H237924   3.262   7.773   4.664
12661TIP3   OH237925   0.790   7.579   3.087
12661TIP3    H137926   0.832   7.647   3.140
12661TIP3    H237927   0.834   7.584   3.002
12662TIP3   OH237928   2.031   4.293   6.620
12662TIP3    H137929   1.964   4.287   6.552
12662TIP3    H237930   1.982   4.315   6.700
12663TIP3   OH237931   7.407   4.372   4.651
12663TIP3    H137932   7.465   4.322   4.594
12663TIP3    H237933   7.323   4.375   4.604
12664TIP3   OH237934   6.600   5.067   0.820
12664TIP3    H137935   6.639   4.993   0.773
12664TIP3    H237936   6.510   5.039   0.838
12665TIP3   OH237937   1.917   0.136   3.032
12665TIP3    H137938   1.900   0.043   3.020
12665TIP3    H237939   2.013   0.143   3.035
12666TIP3   OH237940   6.523   4.465   1.207
12666TIP3    H137941   6.535   4.420   1.123
12666TIP3    H237942   6.497   4.554   1.183
12667TIP3   OH237943   7.254   1.444   0.636
12667TIP3    H137944   7.334   1.450   0.688
12667TIP3    H237945   7.242   1.350   0.622
12668TIP3   OH237946   5.441   6.184   0.436
12668TIP3    H137947   5.350   6.216   0.433
12668TIP3    H237948   5.442   6.121   0.508
12669TIP3   OH237949   3.437   2.862   5.028
12669TIP3    H137950   3.371   2.925   5.002
12669TIP3    H237951   3.516   2.913   5.041
12670TIP3   OH237952   7.811   4.046   5.424
12670TIP3    H137953   7.814   4.096   5.505
12670TIP3    H237954   7.812   3.955   5.452
12671TIP3   OH237955   8.258   2.885   5.888
12671TIP3    H137956   8.221   2.825   5.822
12671TIP3    H237957   8.266   2.968   5.842
12672TIP3   OH237958   6.990   5.253   1.394
12672TIP3    H137959   7.013   5.337   1.354
12672TIP3    H237960   6.982   5.193   1.320
12673TIP3   OH237961   1.910   5.195   0.092
12673TIP3    H137962   1.822   5.167   0.066
12673TIP3    H237963   1.958   5.204   0.009
12674TIP3   OH237964   2.140   6.430   6.726
12674TIP3    H137965   2.122   6.390   6.811
12674TIP3    H237966   2.211   6.377   6.689
12675TIP3   OH237967   7.101   3.974   5.884
12675TIP3    H137968   7.012   3.940   5.878
12675TIP3    H237969   7.133   3.945   5.969
12676TIP3   OH237970   5.554   6.340   1.176
12676TIP3    H137971   5.477   6.310   1.224
12676TIP3    H237972   5.519   6.404   1.113
12677TIP3   OH237973   1.930   0.054   2.052
12677TIP3    H137974   1.913   0.027   2.142
12677TIP3    H237975   2.004   0.114   2.059
12678TIP3   OH237976   0.556   6.272   0.414
12678TIP3    H137977   0.577   6.343   0.353
12678TIP3    H237978   0.640   6.250   0.454
12679TIP3   OH237979   3.204   6.822   3.983
12679TIP3    H137980   3.258   6.887   4.028
12679TIP3    H237981   3.120   6.865   3.971
12680TIP3   OH237982   7.963   7.257   0.437
12680TIP3    H137983   7.886   7.234   0.384
12680TIP3    H237984   7.966   7.190   0.505
12681TIP3   OH237985   7.607   7.591   2.884
12681TIP3    H137986   7.512   7.578   2.878
12681TIP3    H237987   7.618   7.643   2.964
12682TIP3   OH237988   3.525   6.966   0.137
12682TIP3    H137989   3.491   6.882   0.169
12682TIP3    H237990   3.517   7.026   0.211
12683TIP3   OH237991   4.028   5.801   3.413
12683TIP3    H137992   4.064   5.853   3.485
12683TIP3    H237993   4.056   5.847   3.334
12684TIP3   OH237994   6.344   2.259   3.659
12684TIP3    H137995   6.292   2.317   3.603
12684TIP3    H237996   6.346   2.304   3.744
12685TIP3   OH237997   3.187   4.709   4.874
12685TIP3    H137998   3.209   4.794   4.836
12685TIP3    H237999   3.266   4.656   4.862
12686TIP3   OH238000   3.821   0.047   4.615
12686TIP3    H138001   3.864   0.007   4.692
12686TIP3    H238002   3.757   0.108   4.652
12687TIP3   OH238003   7.372   3.794   2.612
12687TIP3    H138004   7.343   3.883   2.588
12687TIP3    H238005   7.309   3.765   2.678
12688TIP3   OH238006   4.496   5.990   4.341
12688TIP3    H138007   4.421   5.937   4.365
12688TIP3    H238008   4.492   6.065   4.401
12689TIP3   OH238009   6.877   2.344   1.137
12689TIP3    H138010   6.802   2.306   1.091
12689TIP3    H238011   6.916   2.270   1.184
12690TIP3   OH238012   6.194   4.023   5.933
12690TIP3    H138013   6.185   4.006   6.027
12690TIP3    H238014   6.285   3.999   5.913
12691TIP3   OH238015   4.259   4.345   0.126
12691TIP3    H138016   4.309   4.385   0.055
12691TIP3    H238017   4.226   4.263   0.090
12692TIP3   OH238018   1.356   5.979   3.331
12692TIP3    H138019   1.266   6.006   3.348
12692TIP3    H238020   1.390   6.045   3.270
12693TIP3   OH238021   3.698   5.273   4.200
12693TIP3    H138022   3.753   5.210   4.154
12693TIP3    H238023   3.627   5.221   4.237
12694TIP3   OH238024   1.210   5.330   6.553
12694TIP3    H138025   1.255   5.253   6.519
12694TIP3    H238026   1.279   5.397   6.557
12695TIP3   OH238027   0.672   5.855   3.303
12695TIP3    H138028   0.606   5.895   3.245
12695TIP3    H238029   0.624   5.832   3.382
12696TIP3   OH238030   6.811   2.791   5.380
12696TIP3    H138031   6.807   2.770   5.473
12696TIP3    H238032   6.829   2.707   5.337
12697TIP3   OH238033   4.360   2.611   6.519
12697TIP3    H138034   4.443   2.615   6.471
12697TIP3    H238035   4.365   2.685   6.579
12698TIP3   OH238036   0.621   2.700   5.052
12698TIP3    H138037   0.652   2.644   5.123
12698TIP3    H238038   0.699   2.749   5.025
12699TIP3   OH238039   4.860   5.755   0.572
12699TIP3    H138040   4.773   5.763   0.533
12699TIP3    H238041   4.892   5.845   0.580
12700TIP3   OH238042   5.489   3.252   1.157
12700TIP3    H138043   5.477   3.339   1.195
12700TIP3    H238044   5.516   3.269   1.067
12701TIP3   OH238045   2.741   1.466   5.393
12701TIP3    H138046   2.820   1.421   5.363
12701TIP3    H238047   2.734   1.443   5.486
12702TIP3   OH238048   1.677   1.067   6.007
12702TIP3    H138049   1.591   1.025   6.015
12702TIP3    H238050   1.665   1.152   6.048
12703TIP3   OH238051   6.284   7.321   2.598
12703TIP3    H138052   6.337   7.259   2.648
12703TIP3    H238053   6.193   7.301   2.622
12704TIP3   OH238054   5.803   3.146   2.293
12704TIP3    H138055   5.739   3.148   2.222
12704TIP3    H238056   5.886   3.124   2.251
12705TIP3   OH238057   6.784   2.262   2.771
12705TIP3    H138058   6.783   2.255   2.867
12705TIP3    H238059   6.779   2.356   2.754
12706TIP3   OH238060   5.118   0.135   0.784
12706TIP3    H138061   5.132   0.168   0.695
12706TIP3    H238062   5.176   0.188   0.839
12707TIP3   OH238063   6.287   1.226   3.349
12707TIP3    H138064   6.281   1.265   3.262
12707TIP3    H238065   6.374   1.250   3.380
12708TIP3   OH238066   8.072   3.097   0.112
12708TIP3    H138067   8.033   3.121   0.027
12708TIP3    H238068   8.099   3.181   0.150
12709TIP3   OH238069   1.630   1.605   2.903
12709TIP3    H138070   1.583   1.532   2.863
12709TIP3    H238071   1.646   1.577   2.993
12710TIP3   OH238072   1.652   2.827   3.274
12710TIP3    H138073   1.661   2.736   3.247
12710TIP3    H238074   1.681   2.878   3.199
12711TIP3   OH238075   7.387   5.374   5.989
12711TIP3    H138076   7.350   5.453   5.949
12711TIP3    H238077   7.310   5.324   6.017
12712TIP3   OH238078   3.302   0.138   4.150
12712TIP3    H138079   3.302   0.043   4.144
12712TIP3    H238080   3.298   0.157   4.243
12713TIP3   OH238081   1.389   4.212   0.926
12713TIP3    H138082   1.434   4.144   0.976
12713TIP3    H238083   1.396   4.183   0.835
12714TIP3   OH238084   2.508   0.186   2.438
12714TIP3    H138085   2.464   0.127   2.500
12714TIP3    H238086   2.566   0.238   2.493
12715TIP3   OH238087   6.997   1.208   4.361
12715TIP3    H138088   6.983   1.226   4.269
12715TIP3    H238089   6.919   1.242   4.405
12716TIP3   OH238090   0.886   1.655   5.530
12716TIP3    H138091   0.886   1.590   5.601
12716TIP3    H238092   0.973   1.649   5.491
12717TIP3   OH238093   4.135   0.289   6.724
12717TIP3    H138094   4.185   0.371   6.723
12717TIP3    H238095   4.150   0.251   6.637
12718TIP3   OH238096   0.896   6.204   1.830
12718TIP3    H138097   0.861   6.121   1.862
12718TIP3    H238098   0.831   6.234   1.766
12719TIP3   OH238099   5.849   6.530   6.505
12719TIP3    H138100   5.776   6.500   6.559
12719TIP3    H238101   5.810   6.548   6.420
12720TIP3   OH238102   1.171   4.081   4.918
12720TIP3    H138103   1.262   4.053   4.926
12720TIP3    H238104   1.153   4.075   4.824
12721TIP3   OH238105   3.657   1.878   4.939
12721TIP3    H138106   3.622   1.885   4.850
12721TIP3    H238107   3.744   1.917   4.933
12722TIP3   OH238108   1.080   3.961   2.651
12722TIP3    H138109   1.022   3.894   2.615
12722TIP3    H238110   1.104   4.016   2.577
12723TIP3   OH238111   5.504   2.738   4.998
12723TIP3    H138112   5.420   2.783   4.985
12723TIP3    H238113   5.569   2.797   4.959
12724TIP3   OH238114   2.500   1.546   1.016
12724TIP3    H138115   2.409   1.528   1.037
12724TIP3    H238116   2.499   1.575   0.925
12725TIP3   OH238117   3.734   3.359   4.839
12725TIP3    H138118   3.754   3.376   4.747
12725TIP3    H238119   3.638   3.362   4.844
12726TIP3   OH238120   8.011   3.771   6.175
12726TIP3    H138121   7.965   3.690   6.193
12726TIP3    H238122   7.945   3.827   6.134
12727TIP3   OH238123   7.769   6.548   2.526
12727TIP3    H138124   7.760   6.490   2.450
12727TIP3    H238125   7.775   6.636   2.488
12728TIP3   OH238126   0.720   1.292   6.350
12728TIP3    H138127   0.736   1.385   6.369
12728TIP3    H238128   0.672   1.293   6.267
12729TIP3   OH238129   3.094   4.333   2.829
12729TIP3    H138130   3.129   4.394   2.894
12729TIP3    H238131   3.122   4.247   2.860
12730TIP3   OH238132   2.279   5.145   4.017
12730TIP3    H138133   2.199   5.182   4.055
12730TIP3    H238134   2.341   5.218   4.016
12731TIP3   OH238135   5.678   1.701   2.856
12731TIP3    H138136   5.672   1.610   2.885
12731TIP3    H238137   5.640   1.701   2.768
12732TIP3   OH238138   5.163   0.807   3.182
12732TIP3    H138139   5.159   0.713   3.197
12732TIP3    H238140   5.114   0.845   3.256
12733TIP3   OH238141   3.810   0.436   3.566
12733TIP3    H138142   3.813   0.478   3.652
12733TIP3    H238143   3.790   0.507   3.505
12734TIP3   OH238144   0.220   4.866   2.447
12734TIP3    H138145   0.155   4.863   2.517
12734TIP3    H238146   0.191   4.802   2.383
12735TIP3   OH238147   6.171   4.068   2.312
12735TIP3    H138148   6.165   3.976   2.285
12735TIP3    H238149   6.166   4.117   2.230
12736TIP3   OH238150   7.769   7.544   2.395
12736TIP3    H138151   7.797   7.456   2.421
12736TIP3    H238152   7.675   7.547   2.415
12737TIP3   OH238153   4.378   1.629   0.442
12737TIP3    H138154   4.454   1.631   0.384
12737TIP3    H238155   4.351   1.720   0.449
12738TIP3   OH238156   0.366   5.406   5.787
12738TIP3    H138157   0.419   5.352   5.729
12738TIP3    H238158   0.373   5.364   5.873
12739TIP3   OH238159   0.849   6.066   3.266
12739TIP3    H138160   0.881   6.071   3.356
12739TIP3    H238161   0.779   6.001   3.269
12740TIP3   OH238162   0.597   0.930   6.046
12740TIP3    H138163   0.680   0.889   6.069
12740TIP3    H238164   0.538   0.857   6.028
12741TIP3   OH238165   5.086   6.316   6.404
12741TIP3    H138166   5.155   6.381   6.419
12741TIP3    H238167   5.113   6.240   6.455
12742TIP3   OH238168   2.521   7.774   1.329
12742TIP3    H138169   2.437   7.752   1.289
12742TIP3    H238170   2.581   7.707   1.298
12743TIP3   OH238171   1.267   5.553   2.038
12743TIP3    H138172   1.306   5.471   2.008
12743TIP3    H238173   1.178   5.529   2.064
12744TIP3   OH238174   1.480   7.156   1.680
12744TIP3    H138175   1.521   7.166   1.594
12744TIP3    H238176   1.392   7.122   1.661
12745TIP3   OH238177   0.682   4.548   2.302
12745TIP3    H138178   0.640   4.473   2.345
12745TIP3    H238179   0.775   4.525   2.301
12746TIP3   OH238180   8.132   6.882   6.281
12746TIP3    H138181   8.046   6.922   6.298
12746TIP3    H238182   8.180   6.894   6.362
12747TIP3   OH238183   8.359   7.376   5.732
12747TIP3    H138184   8.291   7.422   5.684
12747TIP3    H238185   8.436   7.431   5.724
12748TIP3   OH238186   8.014   2.077   2.387
12748TIP3    H138187   8.092   2.056   2.439
12748TIP3    H238188   7.945   2.022   2.425
12749TIP3   OH238189   4.942   0.261   5.963
12749TIP3    H138190   5.019   0.223   5.919
12749TIP3    H238191   4.977   0.338   6.008
12750TIP3   OH238192   2.790   0.128   4.957
12750TIP3    H138193   2.844   0.207   4.962
12750TIP3    H238194   2.853   0.056   4.956
12751TIP3   OH238195   2.554   2.410   1.633
12751TIP3    H138196   2.520   2.409   1.723
12751TIP3    H238197   2.589   2.498   1.621
12752TIP3   OH238198   0.372   4.172   0.887
12752TIP3    H138199   0.414   4.258   0.883
12752TIP3    H238200   0.302   4.182   0.951
12753TIP3   OH238201   6.793   7.647   2.553
12753TIP3    H138202   6.823   7.732   2.520
12753TIP3    H238203   6.827   7.584   2.489
12754TIP3   OH238204   0.728   5.980   1.558
12754TIP3    H138205   0.691   6.068   1.561
12754TIP3    H238206   0.707   5.943   1.643
12755TIP3   OH238207   2.330   1.766   6.137
12755TIP3    H138208   2.417   1.736   6.111
12755TIP3    H238209   2.269   1.711   6.087
12756TIP3   OH238210   2.349   4.211   1.938
12756TIP3    H138211   2.311   4.291   1.903
12756TIP3    H238212   2.277   4.170   1.988
12757TIP3   OH238213   1.476   7.366   4.506
12757TIP3    H138214   1.392   7.320   4.499
12757TIP3    H238215   1.468   7.440   4.445
12758TIP3   OH238216   5.651   0.709   4.930
12758TIP3    H138217   5.612   0.789   4.966
12758TIP3    H238218   5.735   0.737   4.894
12759TIP3   OH238219   5.098   5.680   5.734
12759TIP3    H138220   5.039   5.606   5.720
12759TIP3    H238221   5.087   5.734   5.655
12760TIP3   OH238222   4.715   6.464   1.349
12760TIP3    H138223   4.701   6.415   1.430
12760TIP3    H238224   4.757   6.545   1.377
12761TIP3   OH238225   3.670   4.843   6.196
12761TIP3    H138226   3.745   4.899   6.217
12761TIP3    H238227   3.618   4.896   6.135
12762TIP3   OH238228   3.138   4.257   2.562
12762TIP3    H138229   3.088   4.175   2.557
12762TIP3    H238230   3.139   4.279   2.655
12763TIP3   OH238231   8.100   3.427   2.269
12763TIP3    H138232   8.169   3.392   2.324
12763TIP3    H238233   8.078   3.356   2.209
12764TIP3   OH238234   8.031   5.736   4.024
12764TIP3    H138235   8.006   5.790   4.100
12764TIP3    H238236   8.095   5.789   3.977
12765TIP3   OH238237   4.231   2.900   2.656
12765TIP3    H138238   4.170   2.970   2.676
12765TIP3    H238239   4.317   2.942   2.654
12766TIP3   OH238240   0.581   0.906   5.282
12766TIP3    H138241   0.509   0.968   5.289
12766TIP3    H238242   0.548   0.826   5.322
12767TIP3   OH238243   4.257   6.742   1.503
12767TIP3    H138244   4.184   6.730   1.443
12767TIP3    H238245   4.263   6.837   1.514
12768TIP3   OH238246   2.506   5.109   2.927
12768TIP3    H138247   2.552   5.042   2.877
12768TIP3    H238248   2.534   5.192   2.889
12769TIP3   OH238249   1.883   3.227   4.372
12769TIP3    H138250   1.890   3.320   4.390
12769TIP3    H238251   1.805   3.199   4.419
12770TIP3   OH238252   5.144   4.561   3.868
12770TIP3    H138253   5.167   4.653   3.878
12770TIP3    H238254   5.057   4.563   3.826
12771TIP3   OH238255   2.308   4.331   6.260
12771TIP3    H138256   2.335   4.420   6.236
12771TIP3    H238257   2.218   4.324   6.229
12772TIP3   OH238258   2.044   7.751   6.631
12772TIP3    H138259   2.064   7.670   6.678
12772TIP3    H238260   2.118   7.809   6.650
12773TIP3   OH238261   2.705   0.143   5.225
12773TIP3    H138262   2.723   0.105   5.139
12773TIP3    H238263   2.614   0.120   5.242
12774TIP3   OH238264   4.826   3.885   3.994
12774TIP3    H138265   4.739   3.914   4.024
12774TIP3    H238266   4.808   3.828   3.919
12775TIP3   OH238267   3.351   4.974   5.125
12775TIP3    H138268   3.355   5.036   5.198
12775TIP3    H238269   3.302   4.899   5.159
12776TIP3   OH238270   6.087   4.466   4.252
12776TIP3    H138271   6.176   4.476   4.287
12776TIP3    H238272   6.030   4.491   4.325
12777TIP3   OH238273   7.354   4.179   4.000
12777TIP3    H138274   7.381   4.087   3.997
12777TIP3    H238275   7.323   4.197   3.911
12778TIP3   OH238276   5.523   7.484   1.127
12778TIP3    H138277   5.552   7.426   1.197
12778TIP3    H238278   5.443   7.525   1.161
12779TIP3   OH238279   3.785   0.835   5.771
12779TIP3    H138280   3.722   0.906   5.780
12779TIP3    H238281   3.847   0.866   5.705
12780TIP3   OH238282   6.397   6.479   3.950
12780TIP3    H138283   6.304   6.469   3.972
12780TIP3    H238284   6.427   6.552   4.003
12781TIP3   OH238285   4.163   2.640   3.900
12781TIP3    H138286   4.110   2.561   3.896
12781TIP3    H238287   4.117   2.703   3.844
12782TIP3   OH238288   2.023   7.265   2.566
12782TIP3    H138289   1.979   7.334   2.515
12782TIP3    H238290   1.967   7.253   2.643
12783TIP3   OH238291   7.589   2.242   1.039
12783TIP3    H138292   7.552   2.217   0.955
12783TIP3    H238293   7.684   2.243   1.025
12784TIP3   OH238294   7.583   7.053   0.146
12784TIP3    H138295   7.594   6.960   0.128
12784TIP3    H238296   7.511   7.080   0.090
12785TIP3   OH238297   3.748   7.370   6.356
12785TIP3    H138298   3.822   7.316   6.385
12785TIP3    H238299   3.729   7.338   6.267
12786TIP3   OH238300   2.605   0.471   1.300
12786TIP3    H138301   2.646   0.543   1.253
12786TIP3    H238302   2.513   0.497   1.308
12787TIP3   OH238303   7.070   0.146   2.116
12787TIP3    H138304   7.077   0.052   2.097
12787TIP3    H238305   7.135   0.161   2.185
12788TIP3   OH238306   5.846   1.715   3.352
12788TIP3    H138307   5.779   1.783   3.359
12788TIP3    H238308   5.809   1.649   3.293
12789TIP3   OH238309   3.654   0.328   3.999
12789TIP3    H138310   3.723   0.376   3.954
12789TIP3    H238311   3.694   0.243   4.020
12790TIP3   OH238312   6.257   4.338   5.337
12790TIP3    H138313   6.182   4.292   5.300
12790TIP3    H238314   6.325   4.332   5.269
12791TIP3   OH238315   7.373   2.459   2.516
12791TIP3    H138316   7.298   2.517   2.506
12791TIP3    H238317   7.348   2.400   2.587
12792TIP3   OH238318   1.358   1.780   1.747
12792TIP3    H138319   1.356   1.745   1.836
12792TIP3    H238320   1.296   1.725   1.698
12793TIP3   OH238321   6.548   4.373   0.712
12793TIP3    H138322   6.610   4.442   0.688
12793TIP3    H238323   6.475   4.384   0.651
12794TIP3   OH238324   6.814   2.567   6.591
12794TIP3    H138325   6.728   2.529   6.609
12794TIP3    H238326   6.809   2.656   6.626
12795TIP3   OH238327   6.989   7.319   0.780
12795TIP3    H138328   6.913   7.347   0.729
12795TIP3    H238329   7.061   7.370   0.745
12796TIP3   OH238330   7.590   0.333   0.235
12796TIP3    H138331   7.575   0.419   0.272
12796TIP3    H238332   7.650   0.290   0.296
12797TIP3   OH238333   0.286   1.512   3.853
12797TIP3    H138334   0.260   1.544   3.939
12797TIP3    H238335   0.245   1.573   3.792
12798TIP3   OH238336   5.246   3.460   4.234
12798TIP3    H138337   5.275   3.524   4.299
12798TIP3    H238338   5.164   3.425   4.270
12799TIP3   OH238339   1.392   1.628   6.138
12799TIP3    H138340   1.385   1.533   6.151
12799TIP3    H238341   1.472   1.652   6.184
12800TIP3   OH238342   6.019   5.665   4.389
12800TIP3    H138343   6.075   5.589   4.403
12800TIP3    H238344   5.930   5.634   4.409
12801TIP3   OH238345   4.069   0.757   1.421
12801TIP3    H138346   3.993   0.769   1.478
12801TIP3    H238347   4.091   0.845   1.391
12802TIP3   OH238348   6.714   7.026   5.213
12802TIP3    H138349   6.792   7.056   5.261
12802TIP3    H238350   6.640   7.061   5.264
12803TIP3   OH238351   1.559   4.478   6.009
12803TIP3    H138352   1.615   4.524   6.072
12803TIP3    H238353   1.618   4.415   5.967
12804TIP3   OH238354   2.554   4.409   6.598
12804TIP3    H138355   2.623   4.367   6.650
12804TIP3    H238356   2.473   4.389   6.645
12805TIP3   OH238357   1.334   5.116   6.441
12805TIP3    H138358   1.427   5.126   6.461
12805TIP3    H238359   1.332   5.090   6.349
12806TIP3   OH238360   5.405   7.694   0.514
12806TIP3    H138361   5.397   7.789   0.517
12806TIP3    H238362   5.477   7.677   0.453
12807TIP3   OH238363   6.266   6.721   4.383
12807TIP3    H138364   6.279   6.627   4.397
12807TIP3    H238365   6.355   6.757   4.383
12808TIP3   OH238366   3.074   6.325   5.898
12808TIP3    H138367   3.060   6.270   5.821
12808TIP3    H238368   3.005   6.298   5.959
12809TIP3   OH238369   6.468   2.680   4.208
12809TIP3    H138370   6.456   2.642   4.295
12809TIP3    H238371   6.489   2.772   4.225
12810TIP3   OH238372   2.230   2.206   4.328
12810TIP3    H138373   2.259   2.118   4.307
12810TIP3    H238374   2.281   2.230   4.406
12811TIP3   OH238375   1.792   2.982   3.067
12811TIP3    H138376   1.790   3.077   3.054
12811TIP3    H238377   1.787   2.946   2.979
12812TIP3   OH238378   1.649   7.558   0.847
12812TIP3    H138379   1.713   7.501   0.889
12812TIP3    H238380   1.699   7.605   0.780
12813TIP3   OH238381   5.417   5.036   0.494
12813TIP3    H138382   5.434   5.067   0.405
12813TIP3    H238383   5.500   5.051   0.541
12814TIP3   OH238384   3.397   2.864   2.324
12814TIP3    H138385   3.310   2.858   2.284
12814TIP3    H238386   3.381   2.863   2.418
12815TIP3   OH238387   0.720   0.718   1.488
12815TIP3    H138388   0.720   0.750   1.398
12815TIP3    H238389   0.790   0.767   1.531
12816TIP3   OH238390   7.832   1.752   3.218
12816TIP3    H138391   7.850   1.661   3.242
12816TIP3    H238392   7.740   1.765   3.242
12817TIP3   OH238393   5.003   2.142   3.805
12817TIP3    H138394   5.088   2.099   3.816
12817TIP3    H238395   4.941   2.069   3.797
12818TIP3   OH238396   3.537   6.210   1.413
12818TIP3    H138397   3.507   6.268   1.343
12818TIP3    H238398   3.523   6.260   1.493
12819TIP3   OH238399   1.115   6.129   2.708
12819TIP3    H138400   1.061   6.206   2.724
12819TIP3    H238401   1.187   6.160   2.653
12820TIP3   OH238402   0.131   5.735   4.408
12820TIP3    H138403   0.187   5.734   4.330
12820TIP3    H238404   0.174   5.676   4.470
12821TIP3   OH238405   7.853   0.004   4.564
12821TIP3    H138406   7.877   0.096   4.553
12821TIP3    H238407   7.776  -0.007   4.509
12822TIP3   OH238408   2.959   3.547   5.719
12822TIP3    H138409   3.036   3.556   5.775
12822TIP3    H238410   2.990   3.496   5.644
12823TIP3   OH238411   5.001   0.176   6.656
12823TIP3    H138412   4.988   0.233   6.580
12823TIP3    H238413   4.946   0.215   6.724
12824TIP3   OH238414   6.856   4.250   4.724
12824TIP3    H138415   6.787   4.316   4.733
12824TIP3    H238416   6.900   4.250   4.809
12825TIP3   OH238417   1.048   1.795   3.138
12825TIP3    H138418   1.074   1.878   3.098
12825TIP3    H238419   0.977   1.763   3.082
12826TIP3   OH238420   2.430  -0.003   1.119
12826TIP3    H138421   2.521   0.024   1.125
12826TIP3    H238422   2.420  -0.071   1.186
12827TIP3   OH238423   0.314   1.807   2.216
12827TIP3    H138424   0.223   1.810   2.187
12827TIP3    H238425   0.309   1.815   2.312
12828TIP3   OH238426   4.025   1.564   5.480
12828TIP3    H138427   3.997   1.655   5.492
12828TIP3    H238428   4.108   1.571   5.431
12829TIP3   OH238429   2.887   2.637   5.468
12829TIP3    H138430   2.926   2.550   5.456
12829TIP3    H238431   2.951   2.697   5.430
12830TIP3   OH238432   2.518   5.905   6.746
12830TIP3    H138433   2.491   5.973   6.807
12830TIP3    H238434   2.495   5.939   6.659
12831TIP3   OH238435   6.532   5.172   1.566
12831TIP3    H138436   6.508   5.190   1.657
12831TIP3    H238437   6.613   5.122   1.573
12832TIP3   OH238438   3.886   2.282   6.321
12832TIP3    H138439   3.910   2.330   6.243
12832TIP3    H238440   3.948   2.310   6.388
12833TIP3   OH238441   5.149   7.642   5.905
12833TIP3    H138442   5.054   7.633   5.902
12833TIP3    H238443   5.178   7.629   5.815
12834TIP3   OH238444   3.433   6.602   5.959
12834TIP3    H138445   3.398   6.681   6.001
12834TIP3    H238446   3.396   6.529   6.008
12835TIP3   OH238447   4.294   7.409   3.760
12835TIP3    H138448   4.366   7.348   3.778
12835TIP3    H238449   4.307   7.435   3.668
12836TIP3   OH238450   0.352   3.959   2.087
12836TIP3    H138451   0.406   3.945   2.165
12836TIP3    H238452   0.385   3.897   2.023
12837TIP3   OH238453   0.388   4.606   2.755
12837TIP3    H138454   0.461   4.549   2.732
12837TIP3    H238455   0.311   4.550   2.748
12838TIP3   OH238456   5.909   0.877   5.402
12838TIP3    H138457   5.884   0.951   5.458
12838TIP3    H238458   5.996   0.852   5.433
12839TIP3   OH238459   6.596   7.185   1.372
12839TIP3    H138460   6.574   7.167   1.281
12839TIP3    H238461   6.533   7.252   1.399
12840TIP3   OH238462   7.735   4.535   5.267
12840TIP3    H138463   7.735   4.562   5.358
12840TIP3    H238464   7.644   4.510   5.249
12841TIP3   OH238465   1.834   5.433   6.291
12841TIP3    H138466   1.853   5.499   6.358
12841TIP3    H238467   1.835   5.350   6.339
12842TIP3   OH238468   1.202   4.559   3.655
12842TIP3    H138469   1.278   4.574   3.712
12842TIP3    H238470   1.214   4.471   3.620
12843TIP3   OH238471   2.242   5.068   1.831
12843TIP3    H138472   2.194   5.100   1.755
12843TIP3    H238473   2.207   5.119   1.904
12844TIP3   OH238474   0.440   2.266   3.232
12844TIP3    H138475   0.411   2.285   3.321
12844TIP3    H238476   0.374   2.205   3.198
12845TIP3   OH238477   1.176   5.840   5.396
12845TIP3    H138478   1.174   5.810   5.305
12845TIP3    H238479   1.246   5.790   5.437
12846TIP3   OH238480   0.316   2.172   0.833
12846TIP3    H138481   0.336   2.124   0.913
12846TIP3    H238482   0.399   2.212   0.807
12847TIP3   OH238483   7.638   6.154   0.101
12847TIP3    H138484   7.579   6.219   0.140
12847TIP3    H238485   7.675   6.107   0.175
12848TIP3   OH238486   2.818   1.086   6.469
12848TIP3    H138487   2.870   1.035   6.407
12848TIP3    H238488   2.810   1.172   6.428
12849TIP3   OH238489   4.465   1.864   6.183
12849TIP3    H138490   4.521   1.895   6.255
12849TIP3    H238491   4.520   1.805   6.132
12850TIP3   OH238492   4.448   4.492   1.638
12850TIP3    H138493   4.358   4.461   1.644
12850TIP3    H238494   4.488   4.437   1.570
12851TIP3   OH238495   7.524   5.697   6.141
12851TIP3    H138496   7.448   5.716   6.196
12851TIP3    H238497   7.599   5.716   6.197
12852TIP3   OH238498   7.536   1.565   0.099
12852TIP3    H138499   7.465   1.503   0.113
12852TIP3    H238500   7.519   1.635   0.162
12853TIP3   OH238501   7.080   5.603   1.044
12853TIP3    H138502   7.148   5.537   1.050
12853TIP3    H238503   7.106   5.659   0.971
12854TIP3   OH238504   4.745   6.845   3.373
12854TIP3    H138505   4.732   6.938   3.354
12854TIP3    H238506   4.839   6.836   3.388
12855TIP3   OH238507   1.735   1.764   3.558
12855TIP3    H138508   1.767   1.842   3.513
12855TIP3    H238509   1.758   1.779   3.650
12856TIP3   OH238510   6.647   1.320   3.769
12856TIP3    H138511   6.654   1.224   3.763
12856TIP3    H238512   6.663   1.339   3.862
12857TIP3   OH238513   6.511   6.720   5.492
12857TIP3    H138514   6.596   6.764   5.489
12857TIP3    H238515   6.477   6.740   5.580
12858TIP3   OH238516   5.960   3.654   4.370
12858TIP3    H138517   6.054   3.638   4.368
12858TIP3    H238518   5.938   3.656   4.463
12859TIP3   OH238519   6.612   4.548   5.885
12859TIP3    H138520   6.667   4.615   5.925
12859TIP3    H238521   6.617   4.565   5.791
12860TIP3   OH238522   8.253   5.244   3.995
12860TIP3    H138523   8.239   5.159   4.036
12860TIP3    H238524   8.304   5.293   4.059
12861TIP3   OH238525   1.078   0.801   1.425
12861TIP3    H138526   1.027   0.845   1.493
12861TIP3    H238527   1.102   0.717   1.463
12862TIP3   OH238528   2.083   6.586   3.817
12862TIP3    H138529   2.169   6.589   3.774
12862TIP3    H238530   2.021   6.610   3.748
12863TIP3   OH238531   2.618   4.615   6.328
12863TIP3    H138532   2.559   4.613   6.253
12863TIP3    H238533   2.578   4.554   6.391
12864TIP3   OH238534   0.276   3.538   1.997
12864TIP3    H138535   0.210   3.476   1.966
12864TIP3    H238536   0.280   3.604   1.928
12865TIP3   OH238537   2.610   5.142   2.028
12865TIP3    H138538   2.580   5.212   2.087
12865TIP3    H238539   2.595   5.061   2.077
12866TIP3   OH238540   4.781   5.077   0.960
12866TIP3    H138541   4.756   5.157   0.915
12866TIP3    H238542   4.832   5.106   1.036
12867TIP3   OH238543   1.151   3.397   2.285
12867TIP3    H138544   1.056   3.393   2.281
12867TIP3    H238545   1.175   3.461   2.217
12868TIP3   OH238546   3.097   2.790   4.114
12868TIP3    H138547   3.016   2.741   4.130
12868TIP3    H238548   3.145   2.785   4.196
12869TIP3   OH238549   6.313   4.896   4.844
12869TIP3    H138550   6.361   4.888   4.926
12869TIP3    H238551   6.243   4.959   4.863
12870TIP3   OH238552   3.978   1.576   4.826
12870TIP3    H138553   3.926   1.528   4.762
12870TIP3    H238554   3.940   1.664   4.827
12871TIP3   OH238555   7.971   3.231   2.433
12871TIP3    H138556   7.905   3.210   2.368
12871TIP3    H238557   7.954   3.322   2.456
12872TIP3   OH238558   3.918   6.624   3.070
12872TIP3    H138559   3.924   6.716   3.043
12872TIP3    H238560   3.877   6.580   2.996
12873TIP3   OH238561   5.099   3.415   2.079
12873TIP3    H138562   5.189   3.401   2.050
12873TIP3    H238563   5.050   3.426   1.997
12874TIP3   OH238564   2.791   3.113   6.239
12874TIP3    H138565   2.815   3.036   6.188
12874TIP3    H238566   2.695   3.114   6.238
12875TIP3   OH238567   8.251   6.664   0.825
12875TIP3    H138568   8.260   6.642   0.918
12875TIP3    H238569   8.159   6.687   0.815
12876TIP3   OH238570   0.852   7.257   3.407
12876TIP3    H138571   0.912   7.326   3.436
12876TIP3    H238572   0.794   7.301   3.344
12877TIP3   OH238573   3.068   0.403   2.116
12877TIP3    H138574   3.094   0.405   2.024
12877TIP3    H238575   2.973   0.414   2.115
12878TIP3   OH238576   5.604   3.169   4.801
12878TIP3    H138577   5.546   3.223   4.747
12878TIP3    H238578   5.611   3.086   4.754
12879TIP3   OH238579   3.703   3.942   2.305
12879TIP3    H138580   3.624   3.946   2.250
12879TIP3    H238581   3.671   3.960   2.394
12880TIP3   OH238582   6.896   0.672   3.687
12880TIP3    H138583   6.919   0.599   3.745
12880TIP3    H238584   6.815   0.708   3.725
12881TIP3   OH238585   5.633   2.499   0.605
12881TIP3    H138586   5.667   2.477   0.518
12881TIP3    H238587   5.643   2.594   0.610
12882TIP3   OH238588   7.574   6.751   0.393
12882TIP3    H138589   7.503   6.804   0.357
12882TIP3    H238590   7.652   6.782   0.347
12883TIP3   OH238591   1.451   0.504   5.761
12883TIP3    H138592   1.453   0.580   5.819
12883TIP3    H238593   1.402   0.534   5.684
12884TIP3   OH238594   4.035   0.621   4.976
12884TIP3    H138595   3.948   0.636   4.939
12884TIP3    H238596   4.024   0.635   5.070
12885TIP3   OH238597   7.620   2.632   4.591
12885TIP3    H138598   7.564   2.621   4.514
12885TIP3    H238599   7.559   2.653   4.662
12886TIP3   OH238600   3.555   2.410   4.764
12886TIP3    H138601   3.593   2.444   4.683
12886TIP3    H238602   3.578   2.475   4.830
12887TIP3   OH238603   6.895   3.424   5.635
12887TIP3    H138604   6.901   3.457   5.545
12887TIP3    H238605   6.978   3.379   5.650
12888TIP3   OH238606   2.011   4.127   4.952
12888TIP3    H138607   2.012   4.143   5.046
12888TIP3    H238608   2.103   4.108   4.931
12889TIP3   OH238609   6.577   7.742   0.418
12889TIP3    H138610   6.534   7.691   0.487
12889TIP3    H238611   6.504   7.777   0.366
12890TIP3   OH238612   0.372   4.081   2.378
12890TIP3    H138613   0.411   3.993   2.377
12890TIP3    H238614   0.279   4.066   2.394
12891TIP3   OH238615   4.935   3.132   5.252
12891TIP3    H138616   5.009   3.074   5.238
12891TIP3    H238617   4.908   3.115   5.343
12892TIP3   OH238618   4.145   0.292   5.729
12892TIP3    H138619   4.056   0.321   5.710
12892TIP3    H238620   4.151   0.293   5.824
12893TIP3   OH238621   7.468   2.984   2.259
12893TIP3    H138622   7.483   2.983   2.164
12893TIP3    H238623   7.552   2.961   2.297
12894TIP3   OH238624   1.896   3.621   6.038
12894TIP3    H138625   1.961   3.646   5.973
12894TIP3    H238626   1.944   3.626   6.122
12895TIP3   OH238627   6.028   6.323   0.434
12895TIP3    H138628   5.960   6.273   0.478
12895TIP3    H238629   6.005   6.318   0.341
12896TIP3   OH238630   3.673   2.605   3.587
12896TIP3    H138631   3.697   2.540   3.653
12896TIP3    H238632   3.602   2.563   3.538
12897TIP3   OH238633   7.903   1.263   4.605
12897TIP3    H138634   7.933   1.350   4.632
12897TIP3    H238635   7.953   1.244   4.525
12898TIP3   OH238636   6.237   3.028   5.737
12898TIP3    H138637   6.267   3.118   5.733
12898TIP3    H238638   6.278   2.985   5.662
12899TIP3   OH238639   0.574   5.733   4.918
12899TIP3    H138640   0.569   5.706   5.010
12899TIP3    H238641   0.482   5.749   4.893
12900TIP3   OH238642   5.495   5.305   4.736
12900TIP3    H138643   5.547   5.273   4.662
12900TIP3    H238644   5.434   5.234   4.754
12901TIP3   OH238645   3.897   5.598   0.692
12901TIP3    H138646   3.976   5.651   0.705
12901TIP3    H238647   3.884   5.597   0.597
12902TIP3   OH238648   7.535   4.910   2.025
12902TIP3    H138649   7.466   4.862   1.980
12902TIP3    H238650   7.505   5.001   2.025
12903TIP3   OH238651   4.237   6.731   2.419
12903TIP3    H138652   4.190   6.709   2.338
12903TIP3    H238653   4.167   6.748   2.483
12904TIP3   OH238654   5.842   3.373   0.272
12904TIP3    H138655   5.919   3.317   0.259
12904TIP3    H238656   5.875   3.462   0.264
12905TIP3   OH238657   3.591   7.786   1.911
12905TIP3    H138658   3.523   7.852   1.925
12905TIP3    H238659   3.592   7.734   1.991
12906TIP3   OH238660   8.248   7.272   0.924
12906TIP3    H138661   8.164   7.249   0.963
12906TIP3    H238662   8.253   7.368   0.930
12907TIP3   OH238663   5.616   3.617   4.487
12907TIP3    H138664   5.658   3.532   4.500
12907TIP3    H238665   5.672   3.679   4.535
12908TIP3   OH238666   0.392   5.915   4.288
12908TIP3    H138667   0.441   5.870   4.219
12908TIP3    H238668   0.429   6.003   4.291
12909TIP3   OH238669   2.532   1.636   2.024
12909TIP3    H138670   2.579   1.592   2.095
12909TIP3    H238671   2.561   1.727   2.029
12910TIP3   OH238672   2.969   3.218   3.996
12910TIP3    H138673   2.981   3.273   4.073
12910TIP3    H238674   3.054   3.219   3.952
12911TIP3   OH238675   1.082   7.789   0.973
12911TIP3    H138676   1.111   7.700   0.993
12911TIP3    H238677   1.161   7.842   0.976
12912TIP3   OH238678   6.742   6.368   0.910
12912TIP3    H138679   6.675   6.414   0.859
12912TIP3    H238680   6.824   6.409   0.884
12913TIP3   OH238681   0.664   6.512   0.241
12913TIP3    H138682   0.758   6.496   0.248
12913TIP3    H238683   0.642   6.483   0.152
12914TIP3   OH238684   0.231   6.910   1.902
12914TIP3    H138685   0.310   6.922   1.955
12914TIP3    H238686   0.207   6.999   1.875
12915TIP3   OH238687   1.052   3.662   4.173
12915TIP3    H138688   0.969   3.712   4.176
12915TIP3    H238689   1.025   3.571   4.160
12916TIP3   OH238690   4.354   1.854   0.724
12916TIP3    H138691   4.420   1.785   0.734
12916TIP3    H238692   4.287   1.832   0.789
12917TIP3   OH238693   0.800   4.868   1.535
12917TIP3    H138694   0.888   4.903   1.520
12917TIP3    H238695   0.805   4.823   1.619
12918TIP3   OH238696   2.678   4.204   1.904
12918TIP3    H138697   2.626   4.163   1.835
12918TIP3    H238698   2.618   4.264   1.947
12919TIP3   OH238699   3.313   3.887   5.776
12919TIP3    H138700   3.337   3.867   5.685
12919TIP3    H238701   3.389   3.933   5.811
12920TIP3   OH238702   6.091   4.875   3.460
12920TIP3    H138703   6.158   4.847   3.398
12920TIP3    H238704   6.022   4.808   3.452
12921TIP3   OH238705   5.443   7.344   2.227
12921TIP3    H138706   5.447   7.312   2.317
12921TIP3    H238707   5.534   7.356   2.202
12922TIP3   OH238708   1.379   5.523   2.711
12922TIP3    H138709   1.425   5.448   2.747
12922TIP3    H238710   1.310   5.542   2.774
12923TIP3   OH238711   4.177   3.301   4.065
12923TIP3    H138712   4.148   3.220   4.106
12923TIP3    H238713   4.116   3.315   3.992
12924TIP3   OH238714   6.907   5.106   6.164
12924TIP3    H138715   6.983   5.073   6.213
12924TIP3    H238716   6.916   5.066   6.078
12925TIP3   OH238717   3.641   7.736   3.495
12925TIP3    H138718   3.685   7.659   3.458
12925TIP3    H238719   3.552   7.732   3.461
12926TIP3   OH238720   4.462   3.340   1.400
12926TIP3    H138721   4.524   3.308   1.465
12926TIP3    H238722   4.515   3.386   1.336
12927TIP3   OH238723   2.003   7.665   2.117
12927TIP3    H138724   1.958   7.744   2.147
12927TIP3    H238725   2.066   7.697   2.052
12928TIP3   OH238726   6.221   2.431   3.254
12928TIP3    H138727   6.280   2.502   3.229
12928TIP3    H238728   6.208   2.442   3.348
12929TIP3   OH238729   7.472   5.055   3.012
12929TIP3    H138730   7.386   5.063   2.971
12929TIP3    H238731   7.453   5.037   3.104
12930TIP3   OH238732   3.950   2.965   0.397
12930TIP3    H138733   4.021   2.944   0.336
12930TIP3    H238734   3.875   2.985   0.341
12931TIP3   OH238735   7.094   1.447   1.389
12931TIP3    H138736   7.073   1.446   1.482
12931TIP3    H238737   7.009   1.441   1.345
12932TIP3   OH238738   1.117   0.446   1.887
12932TIP3    H138739   1.145   0.382   1.952
12932TIP3    H238740   1.183   0.514   1.890
12933TIP3   OH238741   1.262   3.049   4.403
12933TIP3    H138742   1.322   3.039   4.329
12933TIP3    H238743   1.175   3.055   4.363
12934TIP3   OH238744   6.984   0.496   5.023
12934TIP3    H138745   6.938   0.420   4.987
12934TIP3    H238746   7.031   0.534   4.948
12935TIP3   OH238747   4.021   6.345   6.522
12935TIP3    H138748   3.941   6.298   6.545
12935TIP3    H238749   4.088   6.278   6.514
12936TIP3   OH238750   7.062   5.423   2.134
12936TIP3    H138751   7.020   5.490   2.188
12936TIP3    H238752   7.057   5.458   2.045
12937TIP3   OH238753   1.079   1.752   4.245
12937TIP3    H138754   1.046   1.832   4.286
12937TIP3    H238755   1.171   1.770   4.227
12938TIP3   OH238756   7.364   1.358   2.521
12938TIP3    H138757   7.300   1.334   2.454
12938TIP3    H238758   7.340   1.302   2.596
12939TIP3   OH238759   3.144   1.009   0.994
12939TIP3    H138760   3.127   1.088   1.045
12939TIP3    H238761   3.125   0.937   1.055
12940TIP3   OH238762   2.632   4.766   1.594
12940TIP3    H138763   2.687   4.788   1.518
12940TIP3    H238764   2.552   4.816   1.582
12941TIP3   OH238765   2.495   7.203   3.819
12941TIP3    H138766   2.438   7.268   3.778
12941TIP3    H238767   2.543   7.252   3.886
12942TIP3   OH238768   1.726   4.872   6.475
12942TIP3    H138769   1.743   4.925   6.397
12942TIP3    H238770   1.801   4.813   6.482
12943TIP3   OH238771   5.712   6.261   6.313
12943TIP3    H138772   5.672   6.184   6.273
12943TIP3    H238773   5.769   6.297   6.245
12944TIP3   OH238774   5.731   7.647   6.229
12944TIP3    H138775   5.749   7.561   6.191
12944TIP3    H238776   5.815   7.675   6.265
12945TIP3   OH238777   1.795   0.915   1.474
12945TIP3    H138778   1.885   0.946   1.465
12945TIP3    H238779   1.761   0.960   1.552
12946TIP3   OH238780   5.201   4.322   0.383
12946TIP3    H138781   5.269   4.257   0.401
12946TIP3    H238782   5.124   4.270   0.360
12947TIP3   OH238783   8.222   3.215   4.732
12947TIP3    H138784   8.231   3.177   4.819
12947TIP3    H238785   8.226   3.141   4.672
12948TIP3   OH238786   0.545   1.228   2.877
12948TIP3    H138787   0.586   1.215   2.962
12948TIP3    H238788   0.491   1.150   2.863
12949TIP3   OH238789   4.239   2.652   5.455
12949TIP3    H138790   4.288   2.577   5.487
12949TIP3    H238791   4.242   2.644   5.359
12950TIP3   OH238792   4.894   1.166   6.464
12950TIP3    H138793   4.916   1.232   6.530
12950TIP3    H238794   4.806   1.191   6.434
12951TIP3   OH238795   7.584   7.731   3.702
12951TIP3    H138796   7.611   7.725   3.794
12951TIP3    H238797   7.645   7.675   3.655
12952TIP3   OH238798   4.273   6.494   3.524
12952TIP3    H138799   4.323   6.444   3.589
12952TIP3    H238800   4.301   6.585   3.537
12953TIP3   OH238801   1.036   0.073   2.654
12953TIP3    H138802   1.092   0.143   2.688
12953TIP3    H238803   1.032   0.009   2.725
12954TIP3   OH238804   5.855   2.426   1.662
12954TIP3    H138805   5.843   2.341   1.706
12954TIP3    H238806   5.809   2.417   1.579
12955TIP3   OH238807   2.695   3.998   4.189
12955TIP3    H138808   2.744   3.939   4.131
12955TIP3    H238809   2.746   4.079   4.190
12956TIP3   OH238810   2.664   5.398   5.954
12956TIP3    H138811   2.656   5.482   5.998
12956TIP3    H238812   2.580   5.354   5.969
12957TIP3   OH238813   1.721   3.533   0.744
12957TIP3    H138814   1.673   3.466   0.792
12957TIP3    H238815   1.708   3.511   0.652
12958TIP3   OH238816   0.500   0.394   3.188
12958TIP3    H138817   0.576   0.341   3.211
12958TIP3    H238818   0.505   0.470   3.246
12959TIP3   OH238819   5.311   5.511   6.321
12959TIP3    H138820   5.286   5.465   6.401
12959TIP3    H238821   5.246   5.484   6.257
12960TIP3   OH238822   1.014   7.380   1.393
12960TIP3    H138823   0.930   7.352   1.356
12960TIP3    H238824   1.027   7.323   1.469
12961TIP3   OH238825   0.259   6.326   2.201
12961TIP3    H138826   0.180   6.337   2.149
12961TIP3    H238827   0.264   6.232   2.218
12962TIP3   OH238828   5.448   1.396   6.305
12962TIP3    H138829   5.486   1.309   6.318
12962TIP3    H238830   5.397   1.388   6.225
12963TIP3   OH238831   8.053   2.501   6.232
12963TIP3    H138832   8.085   2.429   6.287
12963TIP3    H238833   8.060   2.578   6.289
12964TIP3   OH238834   1.140   0.515   2.190
12964TIP3    H138835   1.181   0.451   2.247
12964TIP3    H238836   1.212   0.560   2.147
12965TIP3   OH238837   1.876   3.667   0.248
12965TIP3    H138838   1.956   3.618   0.266
12965TIP3    H238839   1.809   3.599   0.236
12966TIP3   OH238840   1.246   7.118   1.580
12966TIP3    H138841   1.210   7.032   1.557
12966TIP3    H238842   1.236   7.171   1.501
12967TIP3   OH238843   7.605   1.765   1.500
12967TIP3    H138844   7.529   1.781   1.443
12967TIP3    H238845   7.614   1.669   1.500
12968TIP3   OH238846   6.441   0.116   2.744
12968TIP3    H138847   6.457   0.209   2.732
12968TIP3    H238848   6.527   0.078   2.761
12969TIP3   OH238849   1.099   6.025   0.566
12969TIP3    H138850   1.065   6.052   0.651
12969TIP3    H238851   1.167   5.960   0.587
12970TIP3   OH238852   1.080   1.786   2.756
12970TIP3    H138853   1.021   1.737   2.813
12970TIP3    H238854   1.041   1.873   2.749
12971TIP3   OH238855   1.999   3.574   0.747
12971TIP3    H138856   1.905   3.592   0.741
12971TIP3    H238857   2.005   3.479   0.757
12972TIP3   OH238858   7.698   6.984   6.151
12972TIP3    H138859   7.674   6.943   6.068
12972TIP3    H238860   7.636   7.057   6.161
12973TIP3   OH238861   7.369   5.527   5.676
12973TIP3    H138862   7.441   5.465   5.692
12973TIP3    H238863   7.346   5.559   5.763
12974TIP3   OH238864   5.261   4.502   4.948
12974TIP3    H138865   5.322   4.454   5.005
12974TIP3    H238866   5.286   4.594   4.958
12975TIP3   OH238867   2.161   5.802   3.447
12975TIP3    H138868   2.140   5.842   3.363
12975TIP3    H238869   2.135   5.710   3.436
12976TIP3   OH238870   2.707   2.200   3.481
12976TIP3    H138871   2.655   2.214   3.402
12976TIP3    H238872   2.759   2.122   3.462
12977TIP3   OH238873   1.112   4.334   5.019
12977TIP3    H138874   1.057   4.353   4.943
12977TIP3    H238875   1.141   4.244   5.006
12978TIP3   OH238876   6.587   4.823   6.626
12978TIP3    H138877   6.565   4.822   6.719
12978TIP3    H238878   6.503   4.808   6.581
12979TIP3   OH238879   4.566   2.786   0.425
12979TIP3    H138880   4.572   2.708   0.369
12979TIP3    H238881   4.473   2.805   0.430
12980TIP3   OH238882   3.859   0.698   6.055
12980TIP3    H138883   3.818   0.761   5.996
12980TIP3    H238884   3.787   0.644   6.088
12981TIP3   OH238885   5.015   7.702   5.596
12981TIP3    H138886   5.071   7.770   5.632
12981TIP3    H238887   4.961   7.673   5.670
12982TIP3   OH238888   7.665   7.617   5.258
12982TIP3    H138889   7.636   7.704   5.287
12982TIP3    H238890   7.724   7.587   5.328
12983TIP3   OH238891   6.920   3.168   2.385
12983TIP3    H138892   6.844   3.223   2.406
12983TIP3    H238893   6.989   3.200   2.443
12984TIP3   OH238894   5.072   5.156   2.855
12984TIP3    H138895   5.150   5.198   2.818
12984TIP3    H238896   4.999   5.193   2.805
12985TIP3   OH238897   5.271   2.434   0.297
12985TIP3    H138898   5.187   2.471   0.325
12985TIP3    H238899   5.314   2.505   0.250
12986TIP3   OH238900   2.040   2.543   6.737
12986TIP3    H138901   1.995   2.528   6.654
12986TIP3    H238902   2.128   2.572   6.712
12987TIP3   OH238903   5.410   5.742   3.584
12987TIP3    H138904   5.350   5.780   3.648
12987TIP3    H238905   5.428   5.654   3.617
12988TIP3   OH238906   1.359   6.403   1.117
12988TIP3    H138907   1.381   6.476   1.175
12988TIP3    H238908   1.316   6.445   1.042
12989TIP3   OH238909   1.121   2.525   0.880
12989TIP3    H138910   1.182   2.581   0.831
12989TIP3    H238911   1.139   2.545   0.972
12990TIP3   OH238912   6.428   6.983   5.965
12990TIP3    H138913   6.498   6.960   5.903
12990TIP3    H238914   6.348   6.960   5.919
12991TIP3   OH238915   1.152   4.682   0.789
12991TIP3    H138916   1.163   4.603   0.842
12991TIP3    H238917   1.224   4.740   0.816
12992TIP3   OH238918   4.029   3.741   6.501
12992TIP3    H138919   3.963   3.706   6.561
12992TIP3    H238920   3.983   3.756   6.419
12993TIP3   OH238921   0.813   1.723   0.343
12993TIP3    H138922   0.717   1.721   0.348
12993TIP3    H238923   0.838   1.631   0.350
12994TIP3   OH238924   6.943   0.793   1.060
12994TIP3    H138925   7.023   0.806   1.009
12994TIP3    H238926   6.961   0.836   1.144
12995TIP3   OH238927   7.708   6.189   4.025
12995TIP3    H138928   7.749   6.267   3.986
12995TIP3    H238929   7.715   6.203   4.119
12996TIP3   OH238930   2.351   6.523   5.942
12996TIP3    H138931   2.336   6.617   5.952
12996TIP3    H238932   2.281   6.482   5.993
12997TIP3   OH238933   5.418   2.367   3.214
12997TIP3    H138934   5.396   2.373   3.307
12997TIP3    H238935   5.508   2.333   3.213
12998TIP3   OH238936   4.337   7.018   6.644
12998TIP3    H138937   4.425   7.019   6.684
12998TIP3    H238938   4.353   7.034   6.551
12999TIP3   OH238939   0.352   3.166   2.628
12999TIP3    H138940   0.404   3.108   2.683
12999TIP3    H238941   0.394   3.162   2.542
13000TIP3   OH238942   7.235   4.547   3.531
13000TIP3    H138943   7.306   4.611   3.542
13000TIP3    H238944   7.202   4.533   3.619
13001TIP3   OH238945   3.191   6.207   1.908
13001TIP3    H138946   3.204   6.283   1.851
13001TIP3    H238947   3.216   6.238   1.995
13002TIP3   OH238948   4.498   7.676   3.370
13002TIP3    H138949   4.588   7.674   3.339
13002TIP3    H238950   4.504   7.711   3.459
13003TIP3   OH238951   6.583   4.418   2.719
13003TIP3    H138952   6.581   4.329   2.684
13003TIP3    H238953   6.645   4.415   2.792
13004TIP3   OH238954   1.430   1.558   2.528
13004TIP3    H138955   1.481   1.634   2.498
13004TIP3    H238956   1.363   1.596   2.585
13005TIP3   OH238957   1.298   0.053   5.554
13005TIP3    H138958   1.206   0.075   5.568
13005TIP3    H238959   1.298  -0.002   5.475
13006TIP3   OH238960   5.345   6.122   6.434
13006TIP3    H138961   5.265   6.103   6.482
13006TIP3    H238962   5.412   6.067   6.475
13007TIP3   OH238963   4.641   7.020   2.939
13007TIP3    H138964   4.577   6.999   3.007
13007TIP3    H238965   4.717   7.052   2.987
13008TIP3   OH238966   3.518   2.420   1.060
13008TIP3    H138967   3.430   2.435   1.025
13008TIP3    H238968   3.577   2.447   0.989
13009TIP3   OH238969   2.468   2.105   0.590
13009TIP3    H138970   2.494   2.149   0.509
13009TIP3    H238971   2.387   2.059   0.568
13010TIP3   OH238972   2.617   4.471   0.128
13010TIP3    H138973   2.692   4.514   0.087
13010TIP3    H238974   2.573   4.425   0.056
13011TIP3   OH238975   4.146   7.443   4.553
13011TIP3    H138976   4.140   7.537   4.537
13011TIP3    H238977   4.155   7.436   4.648
13012TIP3   OH238978   7.607   7.715   2.571
13012TIP3    H138979   7.568   7.635   2.607
13012TIP3    H238980   7.700   7.694   2.562
13013TIP3   OH238981   5.810   0.018   2.552
13013TIP3    H138982   5.834  -0.050   2.489
13013TIP3    H238983   5.848   0.098   2.516
13014TIP3   OH238984   4.585   7.224   4.873
13014TIP3    H138985   4.566   7.310   4.909
13014TIP3    H238986   4.571   7.164   4.946
13015TIP3   OH238987   5.650   4.774   4.494
13015TIP3    H138988   5.687   4.706   4.438
13015TIP3    H238989   5.561   4.744   4.512
13016TIP3   OH238990   6.540   0.389   2.748
13016TIP3    H138991   6.635   0.396   2.741
13016TIP3    H238992   6.506   0.455   2.687
13017TIP3   OH238993   6.794   1.985   2.834
13017TIP3    H138994   6.775   2.075   2.804
13017TIP3    H238995   6.776   1.931   2.757
13018TIP3   OH238996   8.001   3.821   4.792
13018TIP3    H138997   7.997   3.754   4.861
13018TIP3    H238998   7.928   3.880   4.811
13019TIP3   OH238999   0.194   0.780   2.540
13019TIP3    H139000   0.262   0.748   2.481
13019TIP3    H239001   0.113   0.770   2.490
13020TIP3   OH239002   5.736   1.482   4.243
13020TIP3    H139003   5.722   1.511   4.333
13020TIP3    H239004   5.706   1.555   4.189
13021TIP3   OH239005   7.715   4.147   5.652
13021TIP3    H139006   7.738   4.220   5.709
13021TIP3    H239007   7.769   4.074   5.683
13022TIP3   OH239008  -0.021   7.036   0.779
13022TIP3    H139009   0.000   7.112   0.834
13022TIP3    H239010   0.061   6.987   0.773
13023TIP3   OH239011   0.977   1.784   6.322
13023TIP3    H139012   1.029   1.816   6.249
13023TIP3    H239013   1.040   1.745   6.382
13024TIP3   OH239014   6.386   7.612   2.945
13024TIP3    H139015   6.404   7.604   2.852
13024TIP3    H239016   6.431   7.692   2.972
13025TIP3   OH239017   0.838   5.460   3.887
13025TIP3    H139018   0.887   5.458   3.805
13025TIP3    H239019   0.898   5.499   3.950
13026TIP3   OH239020   1.536   6.873   2.899
13026TIP3    H139021   1.611   6.814   2.893
13026TIP3    H239022   1.564   6.940   2.962
13027TIP3   OH239023   2.819   3.476   0.433
13027TIP3    H139024   2.803   3.421   0.510
13027TIP3    H239025   2.779   3.560   0.456
13028TIP3   OH239026   6.863   7.612   4.812
13028TIP3    H139027   6.838   7.571   4.729
13028TIP3    H239028   6.819   7.560   4.879
13029TIP3   OH239029   5.775   1.866   4.060
13029TIP3    H139030   5.695   1.817   4.038
13029TIP3    H239031   5.781   1.861   4.155
13030TIP3   OH239032   8.079   0.280   0.670
13030TIP3    H139033   8.150   0.238   0.719
13030TIP3    H239034   8.086   0.373   0.694
13031TIP3   OH239035   3.715   2.279   2.244
13031TIP3    H139036   3.789   2.222   2.261
13031TIP3    H239037   3.725   2.306   2.153
13032TIP3   OH239038   2.603   4.868   2.142
13032TIP3    H139039   2.542   4.802   2.174
13032TIP3    H239040   2.685   4.850   2.188
13033TIP3   OH239041   7.471   7.051   5.188
13033TIP3    H139042   7.434   7.012   5.108
13033TIP3    H239043   7.415   7.127   5.206
13034TIP3   OH239044   8.079   2.568   2.626
13034TIP3    H139045   8.036   2.534   2.704
13034TIP3    H239046   8.027   2.536   2.553
13035TIP3   OH239047   2.437   3.161   2.438
13035TIP3    H139048   2.419   3.228   2.505
13035TIP3    H239049   2.352   3.143   2.398
13036TIP3   OH239050   1.513   5.141   0.284
13036TIP3    H139051   1.501   5.173   0.374
13036TIP3    H239052   1.562   5.211   0.241
13037TIP3   OH239053   4.595   3.780   5.965
13037TIP3    H139054   4.596   3.747   5.875
13037TIP3    H239055   4.505   3.767   5.993
13038TIP3   OH239056   6.444   4.651   4.528
13038TIP3    H139057   6.454   4.625   4.620
13038TIP3    H239058   6.395   4.734   4.532
13039TIP3   OH239059   4.834   0.572   0.007
13039TIP3    H139060   4.925   0.602   0.002
13039TIP3    H239061   4.810   0.586   0.099
13040TIP3   OH239062   3.286   2.951   6.454
13040TIP3    H139063   3.272   2.952   6.548
13040TIP3    H239064   3.199   2.965   6.416
13041TIP3   OH239065   4.935   0.148   4.033
13041TIP3    H139066   4.991   0.213   4.075
13041TIP3    H239067   4.989   0.110   3.964
13042TIP3   OH239068   2.517   1.730   0.776
13042TIP3    H139069   2.562   1.811   0.799
13042TIP3    H239070   2.572   1.691   0.708
13043TIP3   OH239071   5.819   3.020   4.664
13043TIP3    H139072   5.823   3.069   4.582
13043TIP3    H239073   5.869   3.074   4.726
13044TIP3   OH239074   7.068   4.262   3.943
13044TIP3    H139075   7.015   4.316   4.002
13044TIP3    H239076   7.086   4.182   3.993
13045TIP3   OH239077   0.163   0.253   2.311
13045TIP3    H139078   0.177   0.159   2.326
13045TIP3    H239079   0.239   0.295   2.352
13046TIP3   OH239080   2.201   5.888   5.181
13046TIP3    H139081   2.154   5.959   5.137
13046TIP3    H239082   2.253   5.846   5.113
13047TIP3   OH239083   7.029   2.111   2.765
13047TIP3    H139084   6.986   2.114   2.680
13047TIP3    H239085   6.958   2.125   2.828
13048TIP3   OH239086   7.011   0.896   5.793
13048TIP3    H139087   7.007   0.848   5.876
13048TIP3    H239088   7.066   0.842   5.736
13049TIP3   OH239089   8.024   3.784   2.098
13049TIP3    H139090   8.058   3.758   2.013
13049TIP3    H239091   8.066   3.868   2.117
13050TIP3   OH239092   6.037   5.487   3.080
13050TIP3    H139093   6.017   5.518   2.992
13050TIP3    H239094   6.013   5.394   3.079
13051TIP3   OH239095   4.129   3.943   1.902
13051TIP3    H139096   4.225   3.945   1.905
13051TIP3    H239097   4.104   3.885   1.974
13052TIP3   OH239098   4.518   3.209   5.770
13052TIP3    H139099   4.441   3.177   5.723
13052TIP3    H239100   4.589   3.153   5.740
13053TIP3   OH239101   1.697   7.557   3.624
13053TIP3    H139102   1.645   7.634   3.647
13053TIP3    H239103   1.708   7.563   3.529
13054TIP3   OH239104   3.036   4.651   0.810
13054TIP3    H139105   2.996   4.712   0.872
13054TIP3    H239106   3.072   4.581   0.865
13055TIP3   OH239107   6.476   6.740   0.878
13055TIP3    H139108   6.384   6.769   0.882
13055TIP3    H239109   6.505   6.738   0.969
13056TIP3   OH239110   0.718  -0.014   5.708
13056TIP3    H139111   0.773   0.035   5.769
13056TIP3    H239112   0.666   0.053   5.662
13057TIP3   OH239113   0.874   6.061   0.395
13057TIP3    H139114   0.822   6.135   0.428
13057TIP3    H239115   0.950   6.058   0.452
13058TIP3   OH239116   5.378   1.923   0.989
13058TIP3    H139117   5.305   1.860   0.993
13058TIP3    H239118   5.446   1.877   0.939
13059TIP3   OH239119   2.278   7.479   5.015
13059TIP3    H139120   2.310   7.556   4.969
13059TIP3    H239121   2.314   7.405   4.967
13060TIP3   OH239122   3.116   2.613   4.652
13060TIP3    H139123   3.172   2.605   4.729
13060TIP3    H239124   3.033   2.573   4.678
13061TIP3   OH239125   4.621   0.737   1.819
13061TIP3    H139126   4.563   0.737   1.895
13061TIP3    H239127   4.627   0.645   1.794
13062TIP3   OH239128   3.325   0.671   0.810
13062TIP3    H139129   3.336   0.765   0.821
13062TIP3    H239130   3.402   0.643   0.762
13063TIP3   OH239131   3.740   3.268   0.220
13063TIP3    H139132   3.753   3.312   0.304
13063TIP3    H239133   3.659   3.305   0.186
13064TIP3   OH239134   6.337   6.022   2.378
13064TIP3    H139135   6.345   6.011   2.473
13064TIP3    H239136   6.326   6.117   2.366
13065TIP3   OH239137   6.366   5.192   1.894
13065TIP3    H139138   6.369   5.101   1.864
13065TIP3    H239139   6.275   5.208   1.917
13066TIP3   OH239140   1.203   0.509   3.241
13066TIP3    H139141   1.185   0.526   3.148
13066TIP3    H239142   1.257   0.583   3.269
13067TIP3   OH239143   2.572   0.626   0.459
13067TIP3    H139144   2.597   0.677   0.382
13067TIP3    H239145   2.559   0.537   0.425
13068TIP3   OH239146   2.965   1.283   1.329
13068TIP3    H139147   2.888   1.227   1.341
13068TIP3    H239148   2.994   1.265   1.240
13069TIP3   OH239149   7.626   5.316   4.200
13069TIP3    H139150   7.688   5.331   4.271
13069TIP3    H239151   7.549   5.279   4.243
13070TIP3   OH239152   7.415   1.015   5.814
13070TIP3    H139153   7.424   0.946   5.880
13070TIP3    H239154   7.417   0.968   5.731
13071TIP3   OH239155   4.394   6.749   3.657
13071TIP3    H139156   4.448   6.766   3.580
13071TIP3    H239157   4.315   6.802   3.643
13072TIP3   OH239158   2.039   4.776   2.997
13072TIP3    H139159   2.027   4.788   3.092
13072TIP3    H239160   2.128   4.743   2.988
13073TIP3   OH239161   5.899   6.263   6.610
13073TIP3    H139162   5.854   6.291   6.530
13073TIP3    H239163   5.863   6.318   6.679
13074TIP3   OH239164   3.523   6.887   6.589
13074TIP3    H139165   3.504   6.795   6.571
13074TIP3    H239166   3.449   6.918   6.641
13075TIP3   OH239167   6.789   4.168   2.183
13075TIP3    H139168   6.728   4.175   2.257
13075TIP3    H239169   6.834   4.253   2.182
13076TIP3   OH239170   1.681   1.610   5.110
13076TIP3    H139171   1.688   1.690   5.057
13076TIP3    H239172   1.759   1.560   5.087
13077TIP3   OH239173   0.705   7.478   0.023
13077TIP3    H139174   0.707   7.407  -0.041
13077TIP3    H239175   0.628   7.458   0.077
13078TIP3   OH239176   2.411   4.910   2.628
13078TIP3    H139177   2.486   4.872   2.582
13078TIP3    H239178   2.369   4.965   2.562
13079TIP3   OH239179   2.519   5.128   3.544
13079TIP3    H139180   2.506   5.200   3.482
13079TIP3    H239181   2.607   5.096   3.526
13080TIP3   OH239182   1.663   6.235   3.898
13080TIP3    H139183   1.752   6.221   3.866
13080TIP3    H239184   1.674   6.272   3.985
13081TIP3   OH239185   6.414   0.865   6.012
13081TIP3    H139186   6.478   0.794   6.013
13081TIP3    H239187   6.461   0.939   5.972
13082TIP3   OH239188   2.906   5.857   1.232
13082TIP3    H139189   2.987   5.810   1.211
13082TIP3    H239190   2.899   5.852   1.327
13083TIP3   OH239191   5.658   4.102   1.103
13083TIP3    H139192   5.625   4.169   1.163
13083TIP3    H239193   5.739   4.139   1.068
13084TIP3   OH239194   7.396   1.120   1.142
13084TIP3    H139195   7.484   1.145   1.112
13084TIP3    H239196   7.399   1.024   1.146
13085TIP3   OH239197   4.441   5.114   2.923
13085TIP3    H139198   4.506   5.168   2.967
13085TIP3    H239199   4.450   5.136   2.830
13086TIP3   OH239200   3.616   2.593   5.916
13086TIP3    H139201   3.589   2.528   5.851
13086TIP3    H239202   3.578   2.561   5.998
13087TIP3   OH239203   0.777   5.792   0.390
13087TIP3    H139204   0.827   5.873   0.396
13087TIP3    H239205   0.698   5.816   0.340
13088TIP3   OH239206   2.354   1.693   4.287
13088TIP3    H139207   2.446   1.679   4.265
13088TIP3    H239208   2.306   1.637   4.226
13089TIP3   OH239209   4.262   0.188   4.510
13089TIP3    H139210   4.223   0.132   4.578
13089TIP3    H239211   4.346   0.146   4.491
13090TIP3   OH239212   8.069   4.753   2.717
13090TIP3    H139213   8.101   4.716   2.800
13090TIP3    H239214   7.975   4.763   2.730
13091TIP3   OH239215   3.364   1.988   1.286
13091TIP3    H139216   3.427   2.060   1.273
13091TIP3    H239217   3.311   2.015   1.360
13092TIP3   OH239218   5.627   6.473   2.712
13092TIP3    H139219   5.650   6.380   2.719
13092TIP3    H239220   5.670   6.503   2.632
13093TIP3   OH239221   2.633   0.533   5.045
13093TIP3    H139222   2.572   0.546   5.118
13093TIP3    H239223   2.717   0.514   5.087
13094TIP3   OH239224   4.667   7.711  -0.007
13094TIP3    H139225   4.625   7.680   0.073
13094TIP3    H239226   4.625   7.795  -0.025
13095TIP3   OH239227   4.908   0.391   5.043
13095TIP3    H139228   5.000   0.410   5.028
13095TIP3    H239229   4.903   0.296   5.049
13096TIP3   OH239230   2.616   5.697   1.457
13096TIP3    H139231   2.563   5.699   1.536
13096TIP3    H239232   2.670   5.776   1.463
13097TIP3   OH239233   4.175   5.550   6.459
13097TIP3    H139234   4.174   5.495   6.381
13097TIP3    H239235   4.144   5.493   6.530
13098TIP3   OH239236   4.057   4.482   3.995
13098TIP3    H139237   4.016   4.551   4.047
13098TIP3    H239238   4.150   4.485   4.018
13099TIP3   OH239239   4.828   2.663   1.241
13099TIP3    H139240   4.903   2.660   1.300
13099TIP3    H239241   4.824   2.755   1.212
13100TIP3   OH239242   0.574   4.694   4.842
13100TIP3    H139243   0.559   4.766   4.903
13100TIP3    H239244   0.530   4.619   4.883
13101TIP3   OH239245   1.410   4.989   6.198
13101TIP3    H139246   1.413   4.898   6.170
13101TIP3    H239247   1.416   5.039   6.116
13102TIP3   OH239248   2.872   2.514   2.365
13102TIP3    H139249   2.910   2.459   2.433
13102TIP3    H239250   2.819   2.454   2.313
13103TIP3   OH239251   6.573   1.322   1.978
13103TIP3    H139252   6.554   1.379   2.053
13103TIP3    H239253   6.521   1.243   1.994
13104TIP3   OH239254   8.237   3.219   4.113
13104TIP3    H139255   8.142   3.213   4.120
13104TIP3    H239256   8.255   3.206   4.019
13105TIP3   OH239257   1.758   6.980   6.384
13105TIP3    H139258   1.801   6.966   6.299
13105TIP3    H239259   1.823   7.027   6.436
13106TIP3   OH239260   7.474   3.433   1.958
13106TIP3    H139261   7.423   3.410   2.036
13106TIP3    H239262   7.435   3.514   1.926
13107TIP3   OH239263   3.570   3.290   3.589
13107TIP3    H139264   3.650   3.239   3.576
13107TIP3    H239265   3.574   3.358   3.522
13108TIP3   OH239266   5.712   2.404   1.422
13108TIP3    H139267   5.619   2.418   1.437
13108TIP3    H239268   5.727   2.434   1.332
13109TIP3   OH239269   6.766   0.989   5.956
13109TIP3    H139270   6.798   1.065   5.907
13109TIP3    H239271   6.815   0.915   5.921
13110TIP3   OH239272   5.870   7.786   2.595
13110TIP3    H139273   5.927   7.835   2.536
13110TIP3    H239274   5.877   7.696   2.566
13111TIP3   OH239275   6.635   6.523   1.552
13111TIP3    H139276   6.633   6.567   1.637
13111TIP3    H239277   6.609   6.433   1.571
13112TIP3   OH239278   3.043   5.127   6.422
13112TIP3    H139279   3.015   5.049   6.374
13112TIP3    H239280   3.033   5.104   6.514
13113TIP3   OH239281   1.792   5.882   5.219
13113TIP3    H139282   1.865   5.831   5.183
13113TIP3    H239283   1.771   5.944   5.150
13114TIP3   OH239284   0.388   1.411   3.593
13114TIP3    H139285   0.372   1.424   3.686
13114TIP3    H239286   0.468   1.359   3.589
13115TIP3   OH239287   3.440   3.385   5.135
13115TIP3    H139288   3.521   3.417   5.095
13115TIP3    H239289   3.469   3.337   5.212
13116TIP3   OH239290   0.559   0.450   4.714
13116TIP3    H139291   0.646   0.413   4.699
13116TIP3    H239292   0.506   0.415   4.643
13117TIP3   OH239293   3.137   1.286   1.060
13117TIP3    H139294   3.188   1.331   1.128
13117TIP3    H239295   3.170   1.321   0.978
13118TIP3   OH239296   5.018   5.359   3.222
13118TIP3    H139297   5.069   5.279   3.234
13118TIP3    H239298   5.085   5.427   3.206
13119TIP3   OH239299   7.725   4.438   6.432
13119TIP3    H139300   7.695   4.482   6.512
13119TIP3    H239301   7.656   4.374   6.413
13120TIP3   OH239302   7.535   2.217   1.841
13120TIP3    H139303   7.583   2.259   1.913
13120TIP3    H239304   7.557   2.124   1.848
13121TIP3   OH239305   3.243   3.191   6.701
13121TIP3    H139306   3.219   3.247   6.775
13121TIP3    H239307   3.234   3.248   6.624
13122TIP3   OH239308   4.882   7.392   3.207
13122TIP3    H139309   4.857   7.323   3.146
13122TIP3    H239310   4.958   7.358   3.254
13123TIP3   OH239311   4.530   2.077   1.089
13123TIP3    H139312   4.451   2.030   1.116
13123TIP3    H239313   4.501   2.168   1.080
13124TIP3   OH239314   7.363   2.521   0.083
13124TIP3    H139315   7.331   2.558   0.001
13124TIP3    H239316   7.411   2.593   0.124
13125TIP3   OH239317   6.367   3.100   6.082
13125TIP3    H139318   6.297   3.037   6.063
13125TIP3    H239319   6.405   3.121   5.997
13126TIP3   OH239320   1.575   2.784   4.367
13126TIP3    H139321   1.500   2.757   4.420
13126TIP3    H239322   1.628   2.838   4.425
13127TIP3   OH239323   1.460   6.541   3.936
13127TIP3    H139324   1.518   6.530   4.011
13127TIP3    H239325   1.488   6.473   3.874
13128TIP3   OH239326   6.648   4.364   5.214
13128TIP3    H139327   6.687   4.402   5.135
13128TIP3    H239328   6.572   4.316   5.183
13129TIP3   OH239329   7.811   5.974   3.545
13129TIP3    H139330   7.830   5.934   3.460
13129TIP3    H239331   7.716   5.979   3.548
13130TIP3   OH239332   7.557   4.449   1.279
13130TIP3    H139333   7.545   4.423   1.188
13130TIP3    H239334   7.507   4.530   1.288
13131TIP3   OH239335   6.294   4.785   0.470
13131TIP3    H139336   6.269   4.877   0.465
13131TIP3    H239337   6.291   4.764   0.564
13132TIP3   OH239338   5.299   4.974   4.597
13132TIP3    H139339   5.207   4.952   4.586
13132TIP3    H239340   5.300   5.038   4.669
13133TIP3   OH239341   3.306   3.116   4.957
13133TIP3    H139342   3.397   3.134   4.981
13133TIP3    H239343   3.255   3.164   5.022
13134TIP3   OH239344   6.745   1.524   1.606
13134TIP3    H139345   6.702   1.439   1.610
13134TIP3    H239346   6.684   1.583   1.652
13135TIP3   OH239347   0.177   7.079   3.577
13135TIP3    H139348   0.212   7.056   3.663
13135TIP3    H239349   0.248   7.059   3.516
13136TIP3   OH239350   2.048   4.046   1.057
13136TIP3    H139351   2.080   4.117   1.001
13136TIP3    H239352   2.090   4.061   1.141
13137TIP3   OH239353   6.990   5.413   4.784
13137TIP3    H139354   6.987   5.507   4.803
13137TIP3    H239355   7.025   5.408   4.695
13138TIP3   OH239356   5.098   6.158   3.787
13138TIP3    H139357   5.177   6.206   3.812
13138TIP3    H239358   5.090   6.089   3.854
13139TIP3   OH239359   3.439   4.655   2.222
13139TIP3    H139360   3.503   4.584   2.222
13139TIP3    H239361   3.479   4.724   2.170
13140TIP3   OH239362   4.929   3.365   2.460
13140TIP3    H139363   4.857   3.396   2.516
13140TIP3    H239364   5.003   3.358   2.520
13141TIP3   OH239365   1.321   5.035   3.356
13141TIP3    H139366   1.271   4.972   3.305
13141TIP3    H239367   1.322   5.000   3.445
13142TIP3   OH239368   1.449   5.766   2.834
13142TIP3    H139369   1.393   5.704   2.787
13142TIP3    H239370   1.391   5.840   2.855
13143TIP3   OH239371   1.594   2.041   3.849
13143TIP3    H139372   1.563   2.076   3.765
13143TIP3    H239373   1.643   2.113   3.888
13144TIP3   OH239374   1.406   4.595   5.482
13144TIP3    H139375   1.325   4.554   5.513
13144TIP3    H239376   1.469   4.524   5.479
13145TIP3   OH239377   5.584   0.081   3.439
13145TIP3    H139378   5.518   0.150   3.437
13145TIP3    H239379   5.604   0.070   3.532
13146TIP3   OH239380   4.455   0.459   5.359
13146TIP3    H139381   4.490   0.384   5.409
13146TIP3    H239382   4.506   0.534   5.390
13147TIP3   OH239383   3.003   7.322   2.053
13147TIP3    H139384   3.072   7.258   2.069
13147TIP3    H239385   3.030   7.368   1.973
13148TIP3   OH239386   5.686   5.417   1.818
13148TIP3    H139387   5.745   5.463   1.878
13148TIP3    H239388   5.659   5.339   1.866
13149TIP3   OH239389   2.454   7.066   6.612
13149TIP3    H139390   2.524   7.131   6.607
13149TIP3    H239391   2.374   7.117   6.607
13150TIP3   OH239392   3.910   0.317   1.039
13150TIP3    H139393   3.990   0.280   1.075
13150TIP3    H239394   3.864   0.354   1.114
13151TIP3   OH239395   3.489   3.970   4.282
13151TIP3    H139396   3.531   4.055   4.270
13151TIP3    H239397   3.525   3.915   4.213
13152TIP3   OH239398   1.277   6.206   4.454
13152TIP3    H139399   1.345   6.266   4.485
13152TIP3    H239400   1.289   6.127   4.506
13153TIP3   OH239401   4.450   3.993   3.876
13153TIP3    H139402   4.484   4.006   3.964
13153TIP3    H239403   4.482   4.069   3.826
13154TIP3   OH239404   7.134   4.263   2.386
13154TIP3    H139405   7.102   4.173   2.378
13154TIP3    H239406   7.134   4.296   2.296
13155TIP3   OH239407   0.180   6.316   3.713
13155TIP3    H139408   0.213   6.380   3.777
13155TIP3    H239409   0.112   6.362   3.665
13156TIP3   OH239410   1.200   3.831   1.302
13156TIP3    H139411   1.235   3.911   1.262
13156TIP3    H239412   1.274   3.770   1.304
13157TIP3   OH239413   6.558   1.340   2.705
13157TIP3    H139414   6.480   1.307   2.659
13157TIP3    H239415   6.526   1.415   2.755
13158TIP3   OH239416   0.974   4.521   0.204
13158TIP3    H139417   0.889   4.508   0.161
13158TIP3    H239418   0.954   4.523   0.297
13159TIP3   OH239419   1.946   3.584   6.308
13159TIP3    H139420   1.981   3.621   6.389
13159TIP3    H239421   2.012   3.522   6.279
13160TIP3   OH239422   4.254   3.946   2.546
13160TIP3    H139423   4.262   3.880   2.477
13160TIP3    H239424   4.233   3.896   2.624
13161TIP3   OH239425   5.095   7.331   3.366
13161TIP3    H139426   5.098   7.406   3.426
13161TIP3    H239427   5.176   7.335   3.317
13162TIP3   OH239428   2.034   5.721   5.953
13162TIP3    H139429   2.043   5.711   5.859
13162TIP3    H239430   1.988   5.642   5.982
13163TIP3   OH239431   0.674   4.825   2.400
13163TIP3    H139432   0.680   4.752   2.338
13163TIP3    H239433   0.600   4.803   2.456
13164TIP3   OH239434   7.270   0.212   6.300
13164TIP3    H139435   7.310   0.129   6.326
13164TIP3    H239436   7.281   0.216   6.205
13165TIP3   OH239437   4.990   0.053   3.248
13165TIP3    H139438   5.034   0.135   3.270
13165TIP3    H239439   5.033   0.023   3.168
13166TIP3   OH239440   2.354   7.380   6.059
13166TIP3    H139441   2.310   7.311   6.009
13166TIP3    H239442   2.351   7.350   6.150
13167TIP3   OH239443   3.594   5.847   3.008
13167TIP3    H139444   3.638   5.841   3.092
13167TIP3    H239445   3.503   5.824   3.026
13168TIP3   OH239446   2.011   4.259   3.672
13168TIP3    H139447   2.012   4.321   3.598
13168TIP3    H239448   1.931   4.208   3.659
13169TIP3   OH239449   6.727   3.518   1.911
13169TIP3    H139450   6.807   3.505   1.860
13169TIP3    H239451   6.687   3.596   1.874
13170TIP3   OH239452   4.220   4.567   2.728
13170TIP3    H139453   4.231   4.656   2.694
13170TIP3    H239454   4.253   4.570   2.817
13171TIP3   OH239455   2.434   4.420   4.501
13171TIP3    H139456   2.456   4.377   4.418
13171TIP3    H239457   2.514   4.468   4.525
13172TIP3   OH239458   7.932   7.216   3.961
13172TIP3    H139459   7.926   7.188   3.870
13172TIP3    H239460   7.873   7.158   4.009
13173TIP3   OH239461   5.659   4.034   0.164
13173TIP3    H139462   5.743   3.989   0.150
13173TIP3    H239463   5.665   4.113   0.111
13174TIP3   OH239464   1.664   2.859   6.623
13174TIP3    H139465   1.676   2.778   6.572
13174TIP3    H239466   1.583   2.844   6.672
13175TIP3   OH239467   1.799   4.609   4.085
13175TIP3    H139468   1.769   4.688   4.039
13175TIP3    H239469   1.755   4.612   4.170
13176TIP3   OH239470   3.294   6.009   0.120
13176TIP3    H139471   3.224   6.042   0.175
13176TIP3    H239472   3.347   6.087   0.100
13177TIP3   OH239473   7.966   4.967   6.445
13177TIP3    H139474   8.034   5.031   6.469
13177TIP3    H239475   7.885   5.018   6.445
13178TIP3   OH239476   3.230   1.586   2.390
13178TIP3    H139477   3.270   1.505   2.421
13178TIP3    H239478   3.288   1.655   2.422
13179TIP3   OH239479   1.346   2.320   3.841
13179TIP3    H139480   1.430   2.339   3.799
13179TIP3    H239481   1.287   2.303   3.768
13180TIP3   OH239482   2.814   5.398   5.347
13180TIP3    H139483   2.723   5.419   5.324
13180TIP3    H239484   2.840   5.330   5.285
13181TIP3   OH239485   0.851   0.832   5.685
13181TIP3    H139486   0.783   0.896   5.706
13181TIP3    H239487   0.927   0.885   5.659
13182TIP3   OH239488   5.684   5.352   2.228
13182TIP3    H139489   5.754   5.370   2.165
13182TIP3    H239490   5.728   5.350   2.313
13183TIP3   OH239491   5.061   1.412   3.620
13183TIP3    H139492   5.059   1.339   3.682
13183TIP3    H239493   5.006   1.383   3.547
13184TIP3   OH239494   7.612   3.790   5.953
13184TIP3    H139495   7.534   3.818   6.000
13184TIP3    H239496   7.579   3.748   5.873
13185TIP3   OH239497   3.552   5.835   0.605
13185TIP3    H139498   3.465   5.874   0.598
13185TIP3    H239499   3.571   5.837   0.699
13186TIP3   OH239500   7.099   0.621   4.520
13186TIP3    H139501   7.100   0.631   4.425
13186TIP3    H239502   7.144   0.698   4.554
13187TIP3   OH239503   2.040   1.025   3.474
13187TIP3    H139504   2.089   1.036   3.392
13187TIP3    H239505   1.959   1.074   3.460
13188TIP3   OH239506   6.443   1.912   4.254
13188TIP3    H139507   6.375   1.887   4.316
13188TIP3    H239508   6.413   1.876   4.170
13189TIP3   OH239509   4.731   0.397   4.016
13189TIP3    H139510   4.815   0.420   3.975
13189TIP3    H239511   4.752   0.385   4.109
13190TIP3   OH239512   4.921   5.234   2.646
13190TIP3    H139513   4.847   5.232   2.585
13190TIP3    H239514   4.911   5.318   2.692
13191TIP3   OH239515   0.015   4.733   4.183
13191TIP3    H139516  -0.031   4.687   4.253
13191TIP3    H239517   0.044   4.663   4.124
13192TIP3   OH239518   1.948   5.923   2.779
13192TIP3    H139519   1.977   5.959   2.696
13192TIP3    H239520   1.982   5.833   2.780
13193TIP3   OH239521   3.202   2.236   4.159
13193TIP3    H139522   3.157   2.274   4.234
13193TIP3    H239523   3.183   2.142   4.165
13194TIP3   OH239524   7.449   5.344   3.173
13194TIP3    H139525   7.468   5.427   3.129
13194TIP3    H239526   7.447   5.280   3.102
13195TIP3   OH239527   7.779   0.921   1.061
13195TIP3    H139528   7.688   0.948   1.074
13195TIP3    H239529   7.829   1.003   1.065
13196TIP3   OH239530   0.668   6.024   5.086
13196TIP3    H139531   0.730   5.995   5.153
13196TIP3    H239532   0.723   6.064   5.018
13197TIP3   OH239533   1.626   5.324   2.122
13197TIP3    H139534   1.635   5.311   2.217
13197TIP3    H239535   1.684   5.397   2.102
13198TIP3   OH239536   8.002   1.519   4.298
13198TIP3    H139537   7.958   1.463   4.361
13198TIP3    H239538   7.966   1.606   4.314
13199TIP3   OH239539   2.546   7.063   0.128
13199TIP3    H139540   2.459   7.068   0.090
13199TIP3    H239541   2.606   7.077   0.055
13200TIP3   OH239542   3.972   3.465   3.515
13200TIP3    H139543   3.982   3.455   3.420
13200TIP3    H239544   3.903   3.530   3.525
13201TIP3   OH239545   5.645   0.932   3.936
13201TIP3    H139546   5.708   0.949   4.005
13201TIP3    H239547   5.642   0.836   3.929
13202TIP3   OH239548   6.236   4.444   0.285
13202TIP3    H139549   6.214   4.441   0.378
13202TIP3    H239550   6.156   4.419   0.240
13203TIP3   OH239551   6.935   6.830   5.705
13203TIP3    H139552   6.936   6.868   5.792
13203TIP3    H239553   7.027   6.827   5.679
13204TIP3   OH239554   3.660   2.137   5.041
13204TIP3    H139555   3.644   2.049   5.006
13204TIP3    H239556   3.708   2.122   5.122
13205TIP3   OH239557   2.545   5.346   3.355
13205TIP3    H139558   2.489   5.417   3.385
13205TIP3    H239559   2.625   5.389   3.326
13206TIP3   OH239560   2.349   5.778   5.388
13206TIP3    H139561   2.293   5.824   5.324
13206TIP3    H239562   2.382   5.848   5.445
13207TIP3   OH239563   4.233   2.512   4.284
13207TIP3    H139564   4.244   2.601   4.250
13207TIP3    H239565   4.138   2.499   4.285
13208TIP3   OH239566   1.391   1.086   1.327
13208TIP3    H139567   1.433   1.037   1.256
13208TIP3    H239568   1.299   1.090   1.302
13209TIP3   OH239569   7.322   2.475   1.196
13209TIP3    H139570   7.278   2.414   1.256
13209TIP3    H239571   7.257   2.542   1.178
13210TIP3   OH239572   0.634   1.556   4.610
13210TIP3    H139573   0.593   1.526   4.529
13210TIP3    H239574   0.649   1.650   4.597
13211TIP3   OH239575   2.947   0.753   4.840
13211TIP3    H139576   2.857   0.754   4.873
13211TIP3    H239577   2.938   0.746   4.745
13212TIP3   OH239578   0.602   3.086   5.276
13212TIP3    H139579   0.641   3.035   5.348
13212TIP3    H239580   0.509   3.092   5.299
13213TIP3   OH239581   8.064   7.727   1.479
13213TIP3    H139582   8.037   7.635   1.488
13213TIP3    H239583   8.158   7.726   1.493
13214TIP3   OH239584   3.142   7.033   0.238
13214TIP3    H139585   3.047   7.020   0.240
13214TIP3    H239586   3.155   7.122   0.268
13215TIP3   OH239587   3.792   4.465   0.780
13215TIP3    H139588   3.734   4.419   0.840
13215TIP3    H239589   3.877   4.465   0.823
13216TIP3   OH239590   6.744   5.748   1.026
13216TIP3    H139591   6.814   5.798   1.068
13216TIP3    H239592   6.790   5.678   0.979
13217TIP3   OH239593   6.137   5.263   1.117
13217TIP3    H139594   6.203   5.204   1.081
13217TIP3    H239595   6.111   5.222   1.200
13218TIP3   OH239596   6.209   2.654   3.029
13218TIP3    H139597   6.229   2.569   2.988
13218TIP3    H239598   6.291   2.683   3.067
13219TIP3   OH239599   3.884   4.329   3.354
13219TIP3    H139600   3.850   4.418   3.358
13219TIP3    H239601   3.807   4.275   3.335
13220TIP3   OH239602   5.571   4.922   4.170
13220TIP3    H139603   5.560   4.828   4.184
13220TIP3    H239604   5.650   4.944   4.219
13221TIP3   OH239605   8.062   2.888   0.293
13221TIP3    H139606   8.137   2.828   0.294
13221TIP3    H239607   8.054   2.914   0.201
13222TIP3   OH239608   4.178   6.445   2.676
13222TIP3    H139609   4.116   6.494   2.623
13222TIP3    H239610   4.132   6.364   2.700
13223TIP3   OH239611   4.819   7.411   5.521
13223TIP3    H139612   4.739   7.375   5.483
13223TIP3    H239613   4.789   7.474   5.587
13224TIP3   OH239614   3.947   0.455   5.691
13224TIP3    H139615   3.871   0.494   5.734
13224TIP3    H239616   3.987   0.527   5.643
13225TIP3   OH239617   0.126   5.256   6.001
13225TIP3    H139618   0.112   5.288   5.912
13225TIP3    H239619   0.039   5.249   6.039
13226TIP3   OH239620   4.874   6.307   5.660
13226TIP3    H139621   4.831   6.387   5.629
13226TIP3    H239622   4.803   6.250   5.687
13227TIP3   OH239623   7.611   2.989   6.702
13227TIP3    H139624   7.615   3.068   6.648
13227TIP3    H239625   7.574   2.922   6.645
13228TIP3   OH239626   1.543   3.561   6.632
13228TIP3    H139627   1.537   3.543   6.538
13228TIP3    H239628   1.524   3.655   6.639
13229TIP3   OH239629   3.009   6.334   1.663
13229TIP3    H139630   3.068   6.336   1.587
13229TIP3    H239631   2.926   6.366   1.630
13230TIP3   OH239632   5.056   6.187   3.328
13230TIP3    H139633   5.135   6.240   3.338
13230TIP3    H239634   5.032   6.197   3.235
13231TIP3   OH239635   7.360   5.488   0.442
13231TIP3    H139636   7.428   5.427   0.472
13231TIP3    H239637   7.313   5.440   0.374
13232TIP3   OH239638   5.383   1.850   4.188
13232TIP3    H139639   5.304   1.882   4.233
13232TIP3    H239640   5.446   1.836   4.259
13233TIP3   OH239641   7.152   5.987   3.529
13233TIP3    H139642   7.216   5.938   3.580
13233TIP3    H239643   7.111   6.046   3.593
13234TIP3   OH239644   3.085   7.535   0.759
13234TIP3    H139645   3.027   7.606   0.733
13234TIP3    H239646   3.053   7.508   0.845
13235TIP3   OH239647   3.267   6.983   6.661
13235TIP3    H139648   3.181   6.983   6.619
13235TIP3    H239649   3.247   6.986   6.755
13236TIP3   OH239650   5.161   2.506   1.300
13236TIP3    H139651   5.110   2.577   1.338
13236TIP3    H239652   5.098   2.456   1.248
13237TIP3   OH239653   1.543   3.859   6.669
13237TIP3    H139654   1.489   3.937   6.655
13237TIP3    H239655   1.528   3.835   6.760
13238TIP3   OH239656   5.612   0.163   1.573
13238TIP3    H139657   5.687   0.196   1.523
13238TIP3    H239658   5.536   0.187   1.521
13239TIP3   OH239659   7.195   0.105   4.490
13239TIP3    H139660   7.120   0.148   4.532
13239TIP3    H239661   7.176   0.109   4.397
13240TIP3   OH239662   1.597   4.791   3.022
13240TIP3    H139663   1.588   4.728   2.951
13240TIP3    H239664   1.665   4.851   2.992
13241TIP3   OH239665   5.298   0.635   3.970
13241TIP3    H139666   5.237   0.645   4.043
13241TIP3    H239667   5.261   0.691   3.901
13242TIP3   OH239668   8.071   3.971   0.217
13242TIP3    H139669   8.005   3.906   0.239
13242TIP3    H239670   8.038   4.013   0.138
13243TIP3   OH239671   0.216   1.054   4.371
13243TIP3    H139672   0.123   1.040   4.388
13243TIP3    H239673   0.232   1.010   4.288
13244TIP3   OH239674   4.048   1.520   1.965
13244TIP3    H139675   4.096   1.561   1.893
13244TIP3    H239676   3.959   1.511   1.934
13245TIP3   OH239677   2.726   5.878   2.753
13245TIP3    H139678   2.641   5.919   2.734
13245TIP3    H239679   2.771   5.877   2.668
13246TIP3   OH239680   5.036   6.739   6.173
13246TIP3    H139681   4.999   6.821   6.206
13246TIP3    H239682   5.065   6.693   6.252
13247TIP3   OH239683   5.850   0.413   5.152
13247TIP3    H139684   5.852   0.352   5.226
13247TIP3    H239685   5.887   0.494   5.187
13248TIP3   OH239686   7.302   4.813   1.405
13248TIP3    H139687   7.209   4.805   1.429
13248TIP3    H239688   7.343   4.853   1.482
13249TIP3   OH239689   6.390   4.629   4.041
13249TIP3    H139690   6.342   4.578   3.976
13249TIP3    H239691   6.456   4.677   3.991
13250TIP3   OH239692   5.163   4.063   0.368
13250TIP3    H139693   5.169   3.997   0.299
13250TIP3    H239694   5.205   4.022   0.444
13251TIP3   OH239695   6.160   7.030   1.854
13251TIP3    H139696   6.153   7.124   1.836
13251TIP3    H239697   6.131   7.020   1.944
13252TIP3   OH239698   8.027   2.216   4.101
13252TIP3    H139699   7.977   2.282   4.053
13252TIP3    H239700   7.984   2.133   4.081
13253TIP3   OH239701   2.937   2.950   2.642
13253TIP3    H139702   2.909   3.023   2.698
13253TIP3    H239703   3.031   2.964   2.630
13254TIP3   OH239704   6.363   4.516   5.504
13254TIP3    H139705   6.298   4.583   5.523
13254TIP3    H239706   6.316   4.450   5.454
13255TIP3   OH239707   2.755   0.404   0.012
13255TIP3    H139708   2.732   0.485   0.058
13255TIP3    H239709   2.843   0.421  -0.024
13256TIP3   OH239710   3.072   0.517   0.701
13256TIP3    H139711   3.123   0.442   0.670
13256TIP3    H239712   3.137   0.577   0.739
13257TIP3   OH239713   4.256   6.124   0.622
13257TIP3    H139714   4.222   6.191   0.681
13257TIP3    H239715   4.334   6.090   0.665
13258TIP3   OH239716   2.978   2.458   3.349
13258TIP3    H139717   2.893   2.452   3.393
13258TIP3    H239718   2.989   2.551   3.330
13259TIP3   OH239719   2.628   5.717   5.354
13259TIP3    H139720   2.553   5.740   5.300
13259TIP3    H239721   2.704   5.725   5.296
13260TIP3   OH239722   2.224   1.822   4.710
13260TIP3    H139723   2.164   1.797   4.641
13260TIP3    H239724   2.311   1.806   4.674
13261TIP3   OH239725   0.093   2.335   0.787
13261TIP3    H139726   0.092   2.296   0.700
13261TIP3    H239727   0.159   2.284   0.835
13262TIP3   OH239728   2.303   6.154   2.924
13262TIP3    H139729   2.239   6.085   2.940
13262TIP3    H239730   2.364   6.148   2.998
13263TIP3   OH239731   5.668   4.609   4.852
13263TIP3    H139732   5.694   4.687   4.803
13263TIP3    H239733   5.657   4.542   4.785
13264TIP3   OH239734   4.390   7.423   0.964
13264TIP3    H139735   4.394   7.389   1.053
13264TIP3    H239736   4.384   7.346   0.909
13265TIP3   OH239737   4.260   2.566   3.631
13265TIP3    H139738   4.194   2.629   3.659
13265TIP3    H239739   4.321   2.561   3.705
13266TIP3   OH239740   1.382   5.390   3.130
13266TIP3    H139741   1.475   5.405   3.111
13266TIP3    H239742   1.347   5.477   3.146
13267TIP3   OH239743   7.759   7.650   0.686
13267TIP3    H139744   7.786   7.712   0.754
13267TIP3    H239745   7.791   7.688   0.604
13268TIP3   OH239746   0.544   7.261   2.808
13268TIP3    H139747   0.513   7.339   2.762
13268TIP3    H239748   0.630   7.285   2.841
13269TIP3   OH239749   1.457   6.242   2.706
13269TIP3    H139750   1.422   6.261   2.619
13269TIP3    H239751   1.550   6.263   2.700
13270TIP3   OH239752   0.027   0.585   2.943
13270TIP3    H139753   0.105   0.594   2.889
13270TIP3    H239754  -0.044   0.620   2.889
13271TIP3   OH239755   2.234   0.543   5.403
13271TIP3    H139756   2.325   0.572   5.403
13271TIP3    H239757   2.234   0.464   5.456
13272TIP3   OH239758   7.915   4.838   0.284
13272TIP3    H139759   7.870   4.850   0.200
13272TIP3    H239760   7.964   4.919   0.297
13273TIP3   OH239761   5.255   5.596   5.468
13273TIP3    H139762   5.299   5.514   5.448
13273TIP3    H239763   5.177   5.596   5.412
13274TIP3   OH239764   5.643   0.224   1.184
13274TIP3    H139765   5.554   0.255   1.201
13274TIP3    H239766   5.632   0.132   1.162
13275TIP3   OH239767   5.399   7.180   0.604
13275TIP3    H139768   5.369   7.188   0.694
13275TIP3    H239769   5.493   7.164   0.612
13276TIP3   OH239770   2.300   3.243   2.840
13276TIP3    H139771   2.318   3.282   2.755
13276TIP3    H239772   2.324   3.311   2.904
13277TIP3   OH239773   3.007   0.061   3.103
13277TIP3    H139774   2.955   0.077   3.024
13277TIP3    H239775   3.024  -0.033   3.101
13278TIP3   OH239776   1.404   3.658   1.309
13278TIP3    H139777   1.425   3.592   1.243
13278TIP3    H239778   1.487   3.700   1.328
13279TIP3   OH239779   5.995   6.007   3.275
13279TIP3    H139780   5.920   6.022   3.332
13279TIP3    H239781   5.959   5.962   3.199
13280TIP3   OH239782   0.520   0.081   3.210
13280TIP3    H139783   0.584   0.133   3.258
13280TIP3    H239784   0.502   0.006   3.267
13281TIP3   OH239785   5.282   1.921   2.863
13281TIP3    H139786   5.355   1.977   2.892
13281TIP3    H239787   5.207   1.980   2.859
13282TIP3   OH239788   6.353   3.364   1.975
13282TIP3    H139789   6.430   3.408   2.011
13282TIP3    H239790   6.284   3.382   2.038
13283TIP3   OH239791   2.411   4.715   2.276
13283TIP3    H139792   2.339   4.694   2.217
13283TIP3    H239793   2.382   4.684   2.362
13284TIP3   OH239794   7.791   1.201   1.419
13284TIP3    H139795   7.830   1.174   1.336
13284TIP3    H239796   7.727   1.133   1.439
13285TIP3   OH239797   6.400   4.231   1.625
13285TIP3    H139798   6.452   4.159   1.589
13285TIP3    H239799   6.458   4.271   1.691
13286TIP3   OH239800   3.427   6.168   4.894
13286TIP3    H139801   3.339   6.142   4.866
13286TIP3    H239802   3.417   6.193   4.986
13287TIP3   OH239803   7.074   2.408   0.772
13287TIP3    H139804   7.114   2.362   0.845
13287TIP3    H239805   6.981   2.384   0.776
13288TIP3   OH239806   7.713   3.141   0.204
13288TIP3    H139807   7.691   3.073   0.140
13288TIP3    H239808   7.761   3.095   0.273
13289TIP3   OH239809   7.482   6.814   2.225
13289TIP3    H139810   7.518   6.865   2.152
13289TIP3    H239811   7.391   6.799   2.201
13290TIP3   OH239812   1.145   6.958   2.462
13290TIP3    H139813   1.122   6.866   2.452
13290TIP3    H239814   1.068   7.006   2.429
13291TIP3   OH239815   2.969   0.654   0.995
13291TIP3    H139816   2.966   0.636   0.901
13291TIP3    H239817   2.919   0.735   1.006
13292TIP3   OH239818   2.646   5.455   2.496
13292TIP3    H139819   2.565   5.404   2.499
13292TIP3    H239820   2.634   5.516   2.423
13293TIP3   OH239821   4.771   3.262   2.016
13293TIP3    H139822   4.774   3.356   2.029
13293TIP3    H239823   4.779   3.225   2.104
13294TIP3   OH239824   2.758   0.124   3.537
13294TIP3    H139825   2.807   0.135   3.618
13294TIP3    H239826   2.742   0.030   3.530
13295TIP3   OH239827   2.788   6.218   0.699
13295TIP3    H139828   2.744   6.147   0.654
13295TIP3    H239829   2.876   6.186   0.716
13296TIP3   OH239830   1.354   6.544   1.339
13296TIP3    H139831   1.398   6.540   1.424
13296TIP3    H239832   1.272   6.496   1.353
13297TIP3   OH239833   3.300   6.716   2.250
13297TIP3    H139834   3.278   6.650   2.316
13297TIP3    H239835   3.216   6.753   2.224
13298TIP3   OH239836   0.217   2.011   0.345
13298TIP3    H139837   0.122   1.999   0.347
13298TIP3    H239838   0.234   2.043   0.256
13299TIP3   OH239839   3.930   4.352   0.049
13299TIP3    H139840   4.017   4.358   0.089
13299TIP3    H239841   3.877   4.417   0.094
13300TIP3   OH239842   1.893   3.738   5.283
13300TIP3    H139843   1.984   3.746   5.311
13300TIP3    H239844   1.851   3.818   5.315
13301TIP3   OH239845   2.492   5.760   0.627
13301TIP3    H139846   2.537   5.731   0.547
13301TIP3    H239847   2.410   5.711   0.627
13302TIP3   OH239848   6.696   2.173   1.005
13302TIP3    H139849   6.637   2.128   0.945
13302TIP3    H239850   6.668   2.144   1.092
13303TIP3   OH239851   7.560   1.780   3.262
13303TIP3    H139852   7.495   1.761   3.330
13303TIP3    H239853   7.516   1.841   3.203
13304TIP3   OH239854   0.920   4.801   0.418
13304TIP3    H139855   1.003   4.825   0.458
13304TIP3    H239856   0.857   4.802   0.491
13305TIP3   OH239857   2.269   0.271   1.326
13305TIP3    H139858   2.190   0.221   1.348
13305TIP3    H239859   2.269   0.277   1.231
13306TIP3   OH239860   0.661   3.868   5.774
13306TIP3    H139861   0.661   3.783   5.817
13306TIP3    H239862   0.753   3.883   5.750
13307TIP3   OH239863   1.056   1.627   2.090
13307TIP3    H139864   1.096   1.589   2.011
13307TIP3    H239865   1.086   1.570   2.161
13308TIP3   OH239866   4.568   3.535   2.489
13308TIP3    H139867   4.620   3.597   2.540
13308TIP3    H239868   4.493   3.586   2.458
13309TIP3   OH239869   7.113   1.034   3.518
13309TIP3    H139870   7.185   1.054   3.458
13309TIP3    H239871   7.085   0.946   3.493
13310TIP3   OH239872   2.508   4.935   4.049
13310TIP3    H139873   2.511   4.902   4.139
13310TIP3    H239874   2.598   4.927   4.018
13311TIP3   OH239875   7.761   6.074   4.831
13311TIP3    H139876   7.753   6.009   4.901
13311TIP3    H239877   7.740   6.157   4.874
13312TIP3   OH239878   6.753   2.833   4.817
13312TIP3    H139879   6.769   2.745   4.852
13312TIP3    H239880   6.676   2.823   4.761
13313TIP3   OH239881   0.570   7.617   3.526
13313TIP3    H139882   0.502   7.561   3.489
13313TIP3    H239883   0.523   7.697   3.552
13314TIP3   OH239884   3.439   2.325   1.395
13314TIP3    H139885   3.492   2.264   1.344
13314TIP3    H239886   3.441   2.406   1.344
13315TIP3   OH239887   1.304   0.346   4.030
13315TIP3    H139888   1.368   0.345   3.960
13315TIP3    H239889   1.227   0.301   3.993
13316TIP3   OH239890   2.896   3.164   1.862
13316TIP3    H139891   2.935   3.251   1.848
13316TIP3    H239892   2.921   3.115   1.784
13317TIP3   OH239893   6.631   3.759   3.784
13317TIP3    H139894   6.717   3.792   3.811
13317TIP3    H239895   6.637   3.664   3.796
13318TIP3   OH239896   7.253   2.353   1.771
13318TIP3    H139897   7.288   2.426   1.720
13318TIP3    H239898   7.311   2.280   1.749
13319TIP3   OH239899   2.866   6.901   0.810
13319TIP3    H139900   2.796   6.838   0.828
13319TIP3    H239901   2.916   6.905   0.892
13320TIP3   OH239902   5.966   6.204   4.631
13320TIP3    H139903   5.944   6.297   4.628
13320TIP3    H239904   5.893   6.163   4.677
13321TIP3   OH239905   4.813   5.056   2.964
13321TIP3    H139906   4.812   4.960   2.968
13321TIP3    H239907   4.883   5.076   2.902
13322TIP3   OH239908   0.543   7.617   2.998
13322TIP3    H139909   0.490   7.646   3.072
13322TIP3    H239910   0.629   7.598   3.036
13323TIP3   OH239911   6.475   5.914   1.411
13323TIP3    H139912   6.435   5.999   1.392
13323TIP3    H239913   6.482   5.871   1.325
13324TIP3   OH239914   4.480   6.165   5.931
13324TIP3    H139915   4.532   6.186   6.008
13324TIP3    H239916   4.454   6.251   5.896
13325TIP3   OH239917   4.431   0.734   3.239
13325TIP3    H139918   4.365   0.667   3.256
13325TIP3    H239919   4.470   0.708   3.155
13326TIP3   OH239920   0.629   5.235   2.852
13326TIP3    H139921   0.616   5.163   2.791
13326TIP3    H239922   0.640   5.312   2.797
13327TIP3   OH239923   3.765   0.683   3.747
13327TIP3    H139924   3.683   0.725   3.722
13327TIP3    H239925   3.832   0.746   3.724
13328TIP3   OH239926   0.382   1.580   3.091
13328TIP3    H139927   0.406   1.554   3.002
13328TIP3    H239928   0.454   1.636   3.120
13329TIP3   OH239929   1.846   0.714   4.940
13329TIP3    H139930   1.783   0.756   4.999
13329TIP3    H239931   1.876   0.785   4.882
13330TIP3   OH239932   3.213   0.237   6.242
13330TIP3    H139933   3.197   0.150   6.278
13330TIP3    H239934   3.126   0.273   6.225
13331TIP3   OH239935   2.255   6.316   0.031
13331TIP3    H139936   2.319   6.386   0.042
13331TIP3    H239937   2.171   6.356   0.055
13332TIP3   OH239938   2.244   1.017   3.671
13332TIP3    H139939   2.315   0.966   3.632
13332TIP3    H239940   2.168   0.997   3.617
13333TIP3   OH239941   1.551   3.384   4.841
13333TIP3    H139942   1.490   3.390   4.914
13333TIP3    H239943   1.525   3.456   4.782
13334TIP3   OH239944   1.235   1.121   4.307
13334TIP3    H139945   1.317   1.074   4.323
13334TIP3    H239946   1.174   1.053   4.279
13335TIP3   OH239947   0.850   5.036   1.178
13335TIP3    H139948   0.809   5.022   1.092
13335TIP3    H239949   0.802   4.978   1.237
13336TIP3   OH239950   4.074   4.202   6.661
13336TIP3    H139951   4.007   4.215   6.594
13336TIP3    H239952   4.101   4.111   6.651
13337TIP3   OH239953   6.444   5.182   3.926
13337TIP3    H139954   6.482   5.121   3.862
13337TIP3    H239955   6.456   5.139   4.010
13338TIP3   OH239956   2.604   2.525   0.342
13338TIP3    H139957   2.666   2.598   0.335
13338TIP3    H239958   2.518   2.567   0.344
13339TIP3   OH239959   4.578   7.135   6.096
13339TIP3    H139960   4.644   7.083   6.051
13339TIP3    H239961   4.629   7.202   6.142
13340TIP3   OH239962   7.605   4.508   4.848
13340TIP3    H139963   7.574   4.526   4.759
13340TIP3    H239964   7.697   4.534   4.847
13341TIP3   OH239965   2.889   3.164   6.638
13341TIP3    H139966   2.876   3.070   6.638
13341TIP3    H239967   2.898   3.188   6.730
13342TIP3   OH239968   3.849   5.699   4.424
13342TIP3    H139969   3.788   5.641   4.469
13342TIP3    H239970   3.909   5.728   4.493
13343TIP3   OH239971   1.519   2.155   5.602
13343TIP3    H139972   1.498   2.143   5.695
13343TIP3    H239973   1.500   2.247   5.585
13344TIP3   OH239974   6.815   1.907   0.872
13344TIP3    H139975   6.904   1.913   0.907
13344TIP3    H239976   6.827   1.909   0.777
13345TIP3   OH239977   0.779   5.500   6.776
13345TIP3    H139978   0.824   5.464   6.699
13345TIP3    H239979   0.699   5.449   6.783
13346TIP3   OH239980   1.466   6.131   0.788
13346TIP3    H139981   1.388   6.187   0.789
13346TIP3    H239982   1.500   6.141   0.699
13347TIP3   OH239983   1.516   4.172   3.938
13347TIP3    H139984   1.579   4.242   3.956
13347TIP3    H239985   1.561   4.092   3.964
13348TIP3   OH239986   4.315   7.852   0.373
13348TIP3    H139987   4.404   7.874   0.348
13348TIP3    H239988   4.282   7.799   0.301
13349TIP3   OH239989   6.681   4.186   6.691
13349TIP3    H139990   6.739   4.142   6.629
13349TIP3    H239991   6.615   4.121   6.714
13350TIP3   OH239992   5.026   2.423   4.865
13350TIP3    H139993   5.059   2.393   4.950
13350TIP3    H239994   4.939   2.385   4.858
13351TIP3   OH239995   3.846   1.342   0.645
13351TIP3    H139996   3.842   1.375   0.555
13351TIP3    H239997   3.918   1.390   0.685
13352TIP3   OH239998   7.748   4.927   0.081
13352TIP3    H139999   7.711   4.976   0.155
13352TIP3    H240000   7.675   4.917   0.020
13353TIP3   OH240001   3.588   7.251   1.504
13353TIP3    H140002   3.584   7.156   1.493
13353TIP3    H240003   3.675   7.267   1.541
13354TIP3   OH240004   1.009   1.248   0.614
13354TIP3    H140005   0.989   1.324   0.668
13354TIP3    H240006   1.089   1.211   0.653
13355TIP3   OH240007   7.173   2.571   2.168
13355TIP3    H140008   7.257   2.594   2.129
13355TIP3    H240009   7.193   2.500   2.229
13356TIP3   OH240010   2.810   6.994   1.297
13356TIP3    H140011   2.803   6.972   1.390
13356TIP3    H240012   2.722   6.979   1.262
13357TIP3   OH240013   1.122   0.772   0.155
13357TIP3    H140014   1.202   0.808   0.117
13357TIP3    H240015   1.051   0.814   0.107
13358TIP3   OH240016   7.725   6.232   6.488
13358TIP3    H140017   7.655   6.275   6.537
13358TIP3    H240018   7.698   6.240   6.396
13359TIP3   OH240019   2.430   3.107   4.458
13359TIP3    H140020   2.473   3.066   4.383
13359TIP3    H240021   2.447   3.201   4.446
13360TIP3   OH240022   6.350   1.733   0.737
13360TIP3    H140023   6.412   1.779   0.680
13360TIP3    H240024   6.404   1.674   0.789
13361TIP3   OH240025   6.441   3.464   6.547
13361TIP3    H140026   6.502   3.480   6.475
13361TIP3    H240027   6.362   3.513   6.523
13362TIP3   OH240028   5.165   7.172   2.449
13362TIP3    H140029   5.138   7.253   2.406
13362TIP3    H240030   5.245   7.196   2.495
13363TIP3   OH240031   3.054   2.031   6.440
13363TIP3    H140032   3.059   2.071   6.353
13363TIP3    H240033   3.022   2.101   6.497
13364TIP3   OH240034   0.219   6.232   4.473
13364TIP3    H140035   0.155   6.162   4.461
13364TIP3    H240036   0.288   6.193   4.526
13365TIP3   OH240037   7.475   3.671   5.695
13365TIP3    H140038   7.486   3.608   5.624
13365TIP3    H240039   7.409   3.732   5.662
13366TIP3   OH240040   0.312   1.900   3.374
13366TIP3    H140041   0.221   1.877   3.356
13366TIP3    H240042   0.348   1.822   3.416
13367TIP3   OH240043   0.223   6.309   0.870
13367TIP3    H140044   0.283   6.241   0.902
13367TIP3    H240045   0.241   6.384   0.927
13368TIP3   OH240046   4.852   0.132   4.965
13368TIP3    H140047   4.914   0.128   4.892
13368TIP3    H240048   4.820   0.043   4.974
13369TIP3   OH240049   2.339   2.186   4.030
13369TIP3    H140050   2.351   2.106   3.979
13369TIP3    H240051   2.408   2.245   3.999
13370TIP3   OH240052   6.097   6.498   0.181
13370TIP3    H140053   6.002   6.498   0.185
13370TIP3    H240054   6.119   6.420   0.130
13371TIP3   OH240055   8.044   7.411   0.144
13371TIP3    H140056   8.023   7.319   0.129
13371TIP3    H240057   8.046   7.449   0.056
13372TIP3   OH240058   3.466   4.703   3.958
13372TIP3    H140059   3.462   4.631   3.895
13372TIP3    H240060   3.551   4.691   4.002
13373TIP3   OH240061   7.188   1.657   6.791
13373TIP3    H140062   7.239   1.634   6.713
13373TIP3    H240063   7.105   1.689   6.756
13374TIP3   OH240064   1.019   7.441   0.760
13374TIP3    H140065   1.096   7.457   0.706
13374TIP3    H240066   0.959   7.513   0.739
13375TIP3   OH240067   3.533   6.509   0.818
13375TIP3    H140068   3.463   6.560   0.860
13375TIP3    H240069   3.564   6.450   0.887
13376TIP3   OH240070   6.974   2.123   0.037
13376TIP3    H140071   7.049   2.100   0.091
13376TIP3    H240072   6.961   2.048  -0.020
13377TIP3   OH240073   7.007   4.555   4.741
13377TIP3    H140074   7.045   4.479   4.697
13377TIP3    H240075   6.969   4.519   4.822
13378TIP3   OH240076   0.134   5.482   6.668
13378TIP3    H140077   0.074   5.546   6.629
13378TIP3    H240078   0.193   5.534   6.723
13379TIP3   OH240079   3.436   2.097   2.494
13379TIP3    H140080   3.443   2.137   2.407
13379TIP3    H240081   3.418   2.004   2.476
13380TIP3   OH240082   1.302   6.731   4.667
13380TIP3    H140083   1.370   6.788   4.704
13380TIP3    H240084   1.220   6.767   4.700
13381TIP3   OH240085   1.777   2.987   6.299
13381TIP3    H140086   1.870   2.974   6.285
13381TIP3    H240087   1.765   3.082   6.300
13382TIP3   OH240088   7.940   5.993   0.395
13382TIP3    H140089   7.991   6.068   0.363
13382TIP3    H240090   7.985   5.917   0.359
13383TIP3   OH240091   5.998   1.097   2.194
13383TIP3    H140092   5.918   1.131   2.155
13383TIP3    H240093   6.041   1.174   2.231
13384TIP3   OH240094   2.527   2.941   4.269
13384TIP3    H140095   2.570   2.935   4.184
13384TIP3    H240096   2.561   2.867   4.319
13385TIP3   OH240097   7.805   3.378   5.813
13385TIP3    H140098   7.900   3.361   5.807
13385TIP3    H240099   7.767   3.327   5.742
13386TIP3   OH240100   2.879   2.855   3.668
13386TIP3    H140101   2.954   2.799   3.648
13386TIP3    H240102   2.871   2.852   3.763
13387TIP3   OH240103   2.931   4.139   6.163
13387TIP3    H140104   3.012   4.190   6.167
13387TIP3    H240105   2.861   4.205   6.170
13388TIP3   OH240106   4.887   2.201   0.665
13388TIP3    H140107   4.919   2.283   0.627
13388TIP3    H240108   4.792   2.207   0.658
13389TIP3   OH240109   4.528   0.157   0.466
13389TIP3    H140110   4.586   0.095   0.420
13389TIP3    H240111   4.474   0.102   0.522
13390TIP3   OH240112   4.488   5.251   4.233
13390TIP3    H140113   4.494   5.157   4.213
13390TIP3    H240114   4.405   5.259   4.281
13391TIP3   OH240115   4.296   7.471   5.496
13391TIP3    H140116   4.356   7.450   5.425
13391TIP3    H240117   4.330   7.423   5.572
13392TIP3   OH240118   2.744   4.840   6.659
13392TIP3    H140119   2.692   4.879   6.588
13392TIP3    H240120   2.778   4.758   6.621
13393TIP3   OH240121   8.368   0.075   6.168
13393TIP3    H140122   8.422  -0.001   6.191
13393TIP3    H240123   8.286   0.061   6.216
13394TIP3   OH240124   6.959   2.883   5.125
13394TIP3    H140125   6.978   2.922   5.210
13394TIP3    H240126   6.872   2.844   5.136
13395TIP3   OH240127   2.372   3.213   1.122
13395TIP3    H140128   2.341   3.299   1.094
13395TIP3    H240129   2.294   3.168   1.153
13396TIP3   OH240130   0.437   3.838   1.523
13396TIP3    H140131   0.417   3.749   1.495
13396TIP3    H240132   0.527   3.854   1.493
13397TIP3   OH240133   3.561   0.034   4.819
13397TIP3    H140134   3.563   0.129   4.806
13397TIP3    H240135   3.602   0.021   4.905
13398TIP3   OH240136   7.968   0.262   4.350
13398TIP3    H140137   7.968   0.206   4.272
13398TIP3    H240138   8.054   0.246   4.390
13399TIP3   OH240139   4.577   1.185   6.271
13399TIP3    H140140   4.584   1.090   6.273
13399TIP3    H240141   4.569   1.210   6.363
13400TIP3   OH240142   1.859   3.254   3.075
13400TIP3    H140143   1.793   3.323   3.066
13400TIP3    H240144   1.939   3.292   3.039
13401TIP3   OH240145   6.527   1.917   0.600
13401TIP3    H140146   6.469   1.920   0.524
13401TIP3    H240147   6.601   1.863   0.571
13402TIP3   OH240148   5.833   1.054   3.315
13402TIP3    H140149   5.781   0.981   3.349
13402TIP3    H240150   5.828   1.121   3.383
13403TIP3   OH240151   4.549   1.975   2.675
13403TIP3    H140152   4.476   1.946   2.729
13403TIP3    H240153   4.544   2.070   2.675
13404TIP3   OH240154   3.910   2.000   2.577
13404TIP3    H140155   3.824   1.996   2.619
13404TIP3    H240156   3.958   1.926   2.613
13405TIP3   OH240157   5.945   4.845   6.707
13405TIP3    H140158   5.867   4.900   6.719
13405TIP3    H240159   6.011   4.884   6.765
13406TIP3   OH240160   7.908   4.589   2.207
13406TIP3    H140161   7.862   4.659   2.161
13406TIP3    H240162   7.951   4.633   2.280
13407TIP3   OH240163   3.870   4.187   0.268
13407TIP3    H140164   3.875   4.218   0.178
13407TIP3    H240165   3.804   4.242   0.310
13408TIP3   OH240166   4.704   6.797   2.364
13408TIP3    H140167   4.619   6.817   2.324
13408TIP3    H240168   4.681   6.756   2.448
13409TIP3   OH240169   6.961   4.256   1.900
13409TIP3    H140170   6.928   4.177   1.858
13409TIP3    H240171   6.927   4.253   1.989
13410TIP3   OH240172   0.389   7.299   3.220
13410TIP3    H140173   0.398   7.335   3.308
13410TIP3    H240174   0.358   7.210   3.233
13411TIP3   OH240175   6.821   6.628   3.400
13411TIP3    H140176   6.865   6.548   3.371
13411TIP3    H240177   6.762   6.650   3.327
13412TIP3   OH240178   3.501   1.018   0.871
13412TIP3    H140179   3.431   0.993   0.811
13412TIP3    H240180   3.582   0.990   0.828
13413TIP3   OH240181   1.185   2.264   5.415
13413TIP3    H140182   1.263   2.240   5.364
13413TIP3    H240183   1.129   2.309   5.352
13414TIP3   OH240184   6.566   3.823   5.537
13414TIP3    H140185   6.620   3.751   5.571
13414TIP3    H240186   6.530   3.789   5.455
13415TIP3   OH240187   5.975   7.487   0.271
13415TIP3    H140188   6.000   7.440   0.350
13415TIP3    H240189   6.056   7.528   0.241
13416TIP3   OH240190   5.261   5.202   1.903
13416TIP3    H140191   5.205   5.255   1.960
13416TIP3    H240192   5.202   5.164   1.839
13417TIP3   OH240193   8.124   4.058   2.577
13417TIP3    H140194   8.100   4.138   2.529
13417TIP3    H240195   8.049   4.040   2.633
13418TIP3   OH240196   2.147   2.151   2.880
13418TIP3    H140197   2.182   2.184   2.963
13418TIP3    H240198   2.078   2.213   2.857
13419TIP3   OH240199   6.194   7.767   4.035
13419TIP3    H140200   6.248   7.689   4.023
13419TIP3    H240201   6.220   7.801   4.121
13420TIP3   OH240202   8.209   5.976   2.749
13420TIP3    H140203   8.173   6.040   2.688
13420TIP3    H240204   8.294   6.012   2.774
13421TIP3   OH240205   0.014   2.331   5.715
13421TIP3    H140206  -0.009   2.273   5.788
13421TIP3    H240207   0.035   2.414   5.757
13422TIP3   OH240208   0.370   3.105   3.263
13422TIP3    H140209   0.442   3.042   3.252
13422TIP3    H240210   0.297   3.053   3.297
13423TIP3   OH240211   5.910   0.058   5.729
13423TIP3    H140212   5.978   0.089   5.669
13423TIP3    H240213   5.835   0.115   5.712
13424TIP3   OH240214   0.984   5.496   3.334
13424TIP3    H140215   0.916   5.479   3.399
13424TIP3    H240216   0.984   5.591   3.323
13425TIP3   OH240217   2.416   5.607   1.129
13425TIP3    H140218   2.491   5.666   1.126
13425TIP3    H240219   2.446   5.531   1.179
13426TIP3   OH240220   3.527   0.805   4.035
13426TIP3    H140221   3.571   0.731   4.076
13426TIP3    H240222   3.598   0.863   4.007
13427TIP3   OH240223   8.029   3.831   6.482
13427TIP3    H140224   8.048   3.738   6.472
13427TIP3    H240225   7.948   3.844   6.431
13428TIP3   OH240226   1.499   0.726   5.951
13428TIP3    H140227   1.547   0.688   6.025
13428TIP3    H240228   1.472   0.812   5.983
13429TIP3   OH240229   7.952   6.973   2.451
13429TIP3    H140230   7.924   6.913   2.520
13429TIP3    H240231   8.022   7.024   2.491
13430TIP3   OH240232   2.969   2.426   6.217
13430TIP3    H140233   2.876   2.450   6.217
13430TIP3    H240234   3.007   2.477   6.288
13431TIP3   OH240235   8.136   4.846   5.243
13431TIP3    H140236   8.127   4.826   5.150
13431TIP3    H240237   8.223   4.814   5.266
13432TIP3   OH240238   8.034   1.047   1.543
13432TIP3    H140239   8.005   1.073   1.455
13432TIP3    H240240   8.047   1.129   1.590
13433TIP3   OH240241   6.040   3.949   3.637
13433TIP3    H140242   5.993   4.006   3.697
13433TIP3    H240243   6.063   4.005   3.563
13434TIP3   OH240244   2.848   7.637   1.690
13434TIP3    H140245   2.776   7.574   1.695
13434TIP3    H240246   2.811   7.719   1.723
13435TIP3   OH240247   2.968   0.036   6.417
13435TIP3    H140248   2.922  -0.044   6.440
13435TIP3    H240249   3.028   0.010   6.347
13436TIP3   OH240250   5.143   7.586   0.880
13436TIP3    H140251   5.157   7.637   0.959
13436TIP3    H240252   5.105   7.647   0.818
13437TIP3   OH240253   1.521   0.497   0.699
13437TIP3    H140254   1.564   0.532   0.777
13437TIP3    H240255   1.590   0.447   0.654
13438TIP3   OH240256   2.163   2.756   1.010
13438TIP3    H140257   2.079   2.721   0.980
13438TIP3    H240258   2.212   2.773   0.930
13439TIP3   OH240259   3.395   4.875   3.589
13439TIP3    H140260   3.415   4.930   3.665
13439TIP3    H240261   3.479   4.864   3.545
13440TIP3   OH240262   0.578   0.367   2.229
13440TIP3    H140263   0.661   0.393   2.270
13440TIP3    H240264   0.525   0.447   2.230
13441TIP3   OH240265   2.954   5.031   4.413
13441TIP3    H140266   2.961   4.939   4.435
13441TIP3    H240267   2.876   5.036   4.356
13442TIP3   OH240268   3.475   2.662   3.356
13442TIP3    H140269   3.389   2.636   3.390
13442TIP3    H240270   3.496   2.741   3.405
13443TIP3   OH240271   2.096   2.815   2.019
13443TIP3    H140272   2.141   2.787   1.940
13443TIP3    H240273   2.154   2.788   2.090
13444TIP3   OH240274   1.243   7.272   1.348
13444TIP3    H140275   1.277   7.265   1.259
13444TIP3    H240276   1.163   7.324   1.339
13445TIP3   OH240277   4.079   2.290   4.647
13445TIP3    H140278   4.103   2.383   4.649
13445TIP3    H240279   4.081   2.263   4.739
13446TIP3   OH240280   5.789   7.091   3.262
13446TIP3    H140281   5.841   7.133   3.331
13446TIP3    H240282   5.853   7.048   3.206
13447TIP3   OH240283   6.176   4.735   1.997
13447TIP3    H140284   6.209   4.819   2.027
13447TIP3    H240285   6.088   4.728   2.035
13448TIP3   OH240286   4.993   5.193   6.108
13448TIP3    H140287   5.021   5.104   6.084
13448TIP3    H240288   5.036   5.210   6.192
13449TIP3   OH240289   5.576   3.750   3.413
13449TIP3    H140290   5.613   3.664   3.433
13449TIP3    H240291   5.496   3.732   3.363
13450TIP3   OH240292   1.070   5.341   2.173
13450TIP3    H140293   1.154   5.308   2.205
13450TIP3    H240294   1.065   5.312   2.082
13451TIP3   OH240295   7.651   2.797   1.488
13451TIP3    H140296   7.558   2.778   1.478
13451TIP3    H240297   7.685   2.722   1.538
13452TIP3   OH240298   2.170   2.573   2.458
13452TIP3    H140299   2.168   2.663   2.490
13452TIP3    H240300   2.160   2.581   2.363
13453TIP3   OH240301   5.812   0.140   1.751
13453TIP3    H140302   5.748   0.135   1.681
13453TIP3    H240303   5.873   0.068   1.734
13454TIP3   OH240304   2.795   0.097   6.093
13454TIP3    H140305   2.819   0.163   6.158
13454TIP3    H240306   2.751   0.029   6.143
13455TIP3   OH240307   1.128   4.026   4.643
13455TIP3    H140308   1.114   3.983   4.559
13455TIP3    H240309   1.145   4.118   4.621
13456TIP3   OH240310   1.010   5.590   0.664
13456TIP3    H140311   0.928   5.632   0.686
13456TIP3    H240312   1.013   5.511   0.718
13457TIP3   OH240313   2.913   5.105   2.152
13457TIP3    H140314   2.893   5.026   2.202
13457TIP3    H240315   2.956   5.073   2.073
13458TIP3   OH240316   6.185   2.458   3.546
13458TIP3    H140317   6.092   2.449   3.523
13458TIP3    H240318   6.187   2.529   3.610
13459TIP3   OH240319   7.343   3.545   5.268
13459TIP3    H140320   7.421   3.510   5.312
13459TIP3    H240321   7.373   3.625   5.225
13460TIP3   OH240322   2.559   0.385   0.279
13460TIP3    H140323   2.474   0.412   0.245
13460TIP3    H240324   2.621   0.442   0.235
13461TIP3   OH240325   7.810   2.732   3.657
13461TIP3    H140326   7.863   2.745   3.735
13461TIP3    H240327   7.802   2.637   3.648
13462TIP3   OH240328   7.781   4.326   2.872
13462TIP3    H140329   7.858   4.269   2.872
13462TIP3    H240330   7.788   4.375   2.954
13463TIP3   OH240331   3.685   3.764   5.018
13463TIP3    H140332   3.684   3.798   4.929
13463TIP3    H240333   3.711   3.839   5.073
13464TIP3   OH240334   0.704   2.115   3.564
13464TIP3    H140335   0.624   2.121   3.511
13464TIP3    H240336   0.775   2.134   3.503
13465TIP3   OH240337  -0.018   1.603   6.523
13465TIP3    H140338  -0.036   1.682   6.573
13465TIP3    H240339   0.034   1.548   6.582
13466TIP3   OH240340   1.153   6.528   3.805
13466TIP3    H140341   1.206   6.468   3.858
13466TIP3    H240342   1.084   6.558   3.865
13467TIP3   OH240343   0.828  -0.080   2.195
13467TIP3    H140344   0.884  -0.142   2.148
13467TIP3    H240345   0.881   0.000   2.200
13468TIP3   OH240346   7.906   4.841   1.619
13468TIP3    H140347   7.970   4.810   1.555
13468TIP3    H240348   7.956   4.857   1.699
13469TIP3   OH240349   0.483   2.106   2.217
13469TIP3    H140350   0.451   2.100   2.127
13469TIP3    H240351   0.422   2.054   2.268
13470TIP3   OH240352   0.899   2.551   5.492
13470TIP3    H140353   0.942   2.473   5.527
13470TIP3    H240354   0.945   2.625   5.531
13471TIP3   OH240355   4.702   0.974   5.313
13471TIP3    H140356   4.694   0.947   5.404
13471TIP3    H240357   4.741   0.898   5.269
13472TIP3   OH240358   7.323   6.490   6.559
13472TIP3    H140359   7.340   6.407   6.604
13472TIP3    H240360   7.365   6.480   6.473
13473TIP3   OH240361   2.385   2.237   2.512
13473TIP3    H140362   2.470   2.235   2.555
13473TIP3    H240363   2.351   2.148   2.521
13474TIP3   OH240364   7.926   2.477   0.234
13474TIP3    H140365   7.975   2.454   0.313
13474TIP3    H240366   7.835   2.479   0.263
13475TIP3   OH240367   6.576   3.724   1.816
13475TIP3    H140368   6.611   3.774   1.890
13475TIP3    H240369   6.482   3.722   1.830
13476TIP3   OH240370   0.806   3.028   3.703
13476TIP3    H140371   0.902   3.027   3.697
13476TIP3    H240372   0.784   2.942   3.740
13477TIP3   OH240373   6.184   4.718   5.514
13477TIP3    H140374   6.228   4.802   5.530
13477TIP3    H240375   6.161   4.721   5.421
13478TIP3   OH240376   3.914   2.926   6.025
13478TIP3    H140377   3.920   2.849   6.082
13478TIP3    H240378   3.834   2.912   5.974
13479TIP3   OH240379   7.327   3.030   0.216
13479TIP3    H140380   7.351   2.944   0.251
13479TIP3    H240381   7.261   3.011   0.150
13480TIP3   OH240382   7.520   2.931   4.122
13480TIP3    H140383   7.435   2.896   4.150
13480TIP3    H240384   7.501   2.979   4.042
13481TIP3   OH240385   5.242   7.050   2.736
13481TIP3    H140386   5.310   7.117   2.743
13481TIP3    H240387   5.162   7.093   2.765
13482TIP3   OH240388   1.644   1.329   6.119
13482TIP3    H140389   1.640   1.412   6.167
13482TIP3    H240390   1.576   1.337   6.052
13483TIP3   OH240391   0.177   3.965   1.453
13483TIP3    H140392   0.243   3.982   1.519
13483TIP3    H240393   0.099   3.938   1.503
13484TIP3   OH240394   2.168   3.389   6.268
13484TIP3    H140395   2.130   3.337   6.197
13484TIP3    H240396   2.165   3.331   6.344
13485TIP3   OH240397   7.456   2.445   0.778
13485TIP3    H140398   7.368   2.451   0.814
13485TIP3    H240399   7.500   2.525   0.809
13486TIP3   OH240400   0.842   2.575   6.307
13486TIP3    H140401   0.751   2.589   6.282
13486TIP3    H240402   0.880   2.527   6.233
13487TIP3   OH240403   6.243   5.853   3.874
13487TIP3    H140404   6.177   5.922   3.880
13487TIP3    H240405   6.313   5.891   3.821
13488TIP3   OH240406   5.185   2.997   6.696
13488TIP3    H140407   5.222   2.985   6.784
13488TIP3    H240408   5.226   2.929   6.643
13489TIP3   OH240409   6.823   1.413   6.338
13489TIP3    H140410   6.785   1.326   6.327
13489TIP3    H240411   6.752   1.465   6.375
13490TIP3   OH240412   2.005   0.712   1.057
13490TIP3    H140413   1.958   0.661   1.123
13490TIP3    H240414   2.068   0.650   1.019
13491TIP3   OH240415   4.054   2.990   1.852
13491TIP3    H140416   4.112   3.054   1.895
13491TIP3    H240417   4.053   3.017   1.760
13492TIP3   OH240418   1.566   6.993   0.547
13492TIP3    H140419   1.482   6.948   0.545
13492TIP3    H240420   1.564   7.051   0.471
13493TIP3   OH240421   1.531   0.117   4.726
13493TIP3    H140422   1.564   0.092   4.813
13493TIP3    H240423   1.436   0.112   4.735
13494TIP3   OH240424   5.226   4.743   5.624
13494TIP3    H140425   5.196   4.703   5.706
13494TIP3    H240426   5.316   4.713   5.615
13495TIP3   OH240427   6.077   6.999   5.814
13495TIP3    H140428   6.142   7.031   5.752
13495TIP3    H240429   6.008   6.961   5.759
13496TIP3   OH240430   4.836   2.715   0.434
13496TIP3    H140431   4.757   2.768   0.436
13496TIP3    H240432   4.811   2.636   0.386
13497TIP3   OH240433   4.655   4.610   1.754
13497TIP3    H140434   4.562   4.588   1.744
13497TIP3    H240435   4.696   4.528   1.782
13498TIP3   OH240436   0.814   0.809   2.729
13498TIP3    H140437   0.802   0.772   2.816
13498TIP3    H240438   0.909   0.807   2.715
13499TIP3   OH240439   7.744   4.983   4.246
13499TIP3    H140440   7.689   4.905   4.252
13499TIP3    H240441   7.708   5.043   4.312
13500TIP3   OH240442   2.876   6.405   1.291
13500TIP3    H140443   2.968   6.420   1.267
13500TIP3    H240444   2.880   6.368   1.379
13501TIP3   OH240445   4.023   3.427   4.303
13501TIP3    H140446   4.081   3.503   4.304
13501TIP3    H240447   4.060   3.367   4.368
13502TIP3   OH240448   5.832   1.897   1.903
13502TIP3    H140449   5.908   1.841   1.918
13502TIP3    H240450   5.764   1.838   1.871
13503TIP3   OH240451   1.051   0.963   2.179
13503TIP3    H140452   1.132   0.999   2.214
13503TIP3    H240453   0.995   1.039   2.166
13504TIP3   OH240454   1.925   4.827   0.573
13504TIP3    H140455   1.853   4.764   0.579
13504TIP3    H240456   1.892   4.905   0.618
13505TIP3   OH240457   5.889   5.273   5.227
13505TIP3    H140458   5.880   5.292   5.134
13505TIP3    H240459   5.951   5.339   5.259
13506TIP3   OH240460   4.266   5.233   4.380
13506TIP3    H140461   4.211   5.156   4.391
13506TIP3    H240462   4.249   5.286   4.459
13507TIP3   OH240463   0.848   1.040   0.531
13507TIP3    H140464   0.897   0.988   0.468
13507TIP3    H240465   0.906   1.113   0.552
13508TIP3   OH240466   0.846   0.509   4.025
13508TIP3    H140467   0.806   0.490   4.110
13508TIP3    H240468   0.772   0.528   3.967
13509TIP3   OH240469   0.374   6.767   5.073
13509TIP3    H140470   0.456   6.719   5.083
13509TIP3    H240471   0.346   6.786   5.163
13510TIP3   OH240472   7.508   5.939   4.326
13510TIP3    H140473   7.536   5.872   4.388
13510TIP3    H240474   7.504   5.894   4.242
13511TIP3   OH240475   4.162   7.616   2.205
13511TIP3    H140476   4.108   7.592   2.280
13511TIP3    H240477   4.123   7.697   2.172
13512TIP3   OH240478   3.678   0.179   6.761
13512TIP3    H140479   3.699   0.239   6.689
13512TIP3    H240480   3.705   0.226   6.840
13513TIP3   OH240481   4.653   3.989   2.154
13513TIP3    H140482   4.566   4.027   2.138
13513TIP3    H240483   4.653   3.971   2.248
13514TIP3   OH240484   3.367   7.595   0.771
13514TIP3    H140485   3.381   7.680   0.730
13514TIP3    H240486   3.285   7.563   0.734
13515TIP3   OH240487   7.709   5.751   4.183
13515TIP3    H140488   7.798   5.785   4.195
13515TIP3    H240489   7.687   5.774   4.092
13516TIP3   OH240490   7.922   6.989   5.543
13516TIP3    H140491   7.929   6.933   5.619
13516TIP3    H240492   8.007   6.982   5.500
13517TIP3   OH240493   4.083   1.866   5.075
13517TIP3    H140494   4.082   1.774   5.047
13517TIP3    H240495   4.096   1.862   5.170
13518TIP3   OH240496   5.558   0.218   2.311
13518TIP3    H140497   5.519   0.149   2.365
13518TIP3    H240498   5.522   0.203   2.224
13519TIP3   OH240499   5.943   4.387   1.978
13519TIP3    H140500   5.936   4.316   2.042
13519TIP3    H240501   5.948   4.467   2.030
13520TIP3   OH240502   1.478   7.107   0.917
13520TIP3    H140503   1.478   7.012   0.906
13520TIP3    H240504   1.568   7.134   0.899
13521TIP3   OH240505   5.468   0.532   5.363
13521TIP3    H140506   5.388   0.481   5.351
13521TIP3    H240507   5.504   0.541   5.274
13522TIP3   OH240508   1.000   4.496   2.078
13522TIP3    H140509   1.093   4.514   2.083
13522TIP3    H240510   0.985   4.428   2.144
13523TIP3   OH240511   7.082   3.422   2.299
13523TIP3    H140512   7.166   3.384   2.276
13523TIP3    H240513   7.102   3.485   2.368
13524TIP3   OH240514   6.775   3.009   6.038
13524TIP3    H140515   6.729   3.081   5.996
13524TIP3    H240516   6.705   2.955   6.076
13525TIP3   OH240517   2.128   3.823   3.124
13525TIP3    H140518   2.092   3.748   3.173
13525TIP3    H240519   2.220   3.803   3.113
13526TIP3   OH240520   7.281   4.680   0.671
13526TIP3    H140521   7.199   4.701   0.715
13526TIP3    H240522   7.334   4.638   0.739
13527TIP3   OH240523   3.209   5.538   4.323
13527TIP3    H140524   3.147   5.520   4.393
13527TIP3    H240525   3.254   5.454   4.309
13528TIP3   OH240526   5.140   0.442   0.211
13528TIP3    H140527   5.173   0.426   0.123
13528TIP3    H240528   5.105   0.531   0.208
13529TIP3   OH240529   4.395   2.478   5.689
13529TIP3    H140530   4.331   2.508   5.753
13529TIP3    H240531   4.418   2.390   5.719
13530TIP3   OH240532   1.210   3.883   4.234
13530TIP3    H140533   1.145   3.815   4.214
13530TIP3    H240534   1.279   3.870   4.168
13531TIP3   OH240535   7.493   3.657   1.741
13531TIP3    H140536   7.477   3.719   1.670
13531TIP3    H240537   7.581   3.623   1.724
13532TIP3   OH240538   6.788   6.130   4.715
13532TIP3    H140539   6.836   6.194   4.766
13532TIP3    H240540   6.697   6.142   4.741
13533TIP3   OH240541   0.476   0.739   4.598
13533TIP3    H140542   0.554   0.734   4.543
13533TIP3    H240543   0.503   0.699   4.681
13534TIP3   OH240544   3.506   2.426   2.970
13534TIP3    H140545   3.564   2.493   3.007
13534TIP3    H240546   3.553   2.394   2.893
13535TIP3   OH240547   8.209   4.321   6.128
13535TIP3    H140548   8.138   4.259   6.148
13535TIP3    H240549   8.287   4.267   6.121
13536TIP3   OH240550   5.710   3.474   3.517
13536TIP3    H140551   5.735   3.451   3.428
13536TIP3    H240552   5.792   3.493   3.562
13537TIP3   OH240553   5.311   6.600   3.461
13537TIP3    H140554   5.381   6.585   3.398
13537TIP3    H240555   5.237   6.550   3.428
13538TIP3   OH240556   6.906   3.695   0.480
13538TIP3    H140557   6.909   3.785   0.449
13538TIP3    H240558   6.978   3.651   0.434
13539TIP3   OH240559   7.263   7.041   0.991
13539TIP3    H140560   7.291   7.017   0.903
13539TIP3    H240561   7.265   7.137   0.991
13540TIP3   OH240562   5.824   6.523   0.237
13540TIP3    H140563   5.777   6.451   0.279
13540TIP3    H240564   5.758   6.591   0.225
13541TIP3   OH240565   4.858   5.362   0.364
13541TIP3    H140566   4.875   5.287   0.307
13541TIP3    H240567   4.771   5.393   0.338
13542TIP3   OH240568   2.869   1.435   3.297
13542TIP3    H140569   2.944   1.383   3.268
13542TIP3    H240570   2.793   1.393   3.256
13543TIP3   OH240571   0.328   1.575   6.691
13543TIP3    H140572   0.294   1.649   6.741
13543TIP3    H240573   0.257   1.511   6.691
13544TIP3   OH240574   0.882   3.335   2.355
13544TIP3    H140575   0.899   3.350   2.447
13544TIP3    H240576   0.813   3.398   2.332
13545TIP3   OH240577   5.419   0.974   3.631
13545TIP3    H140578   5.416   1.018   3.716
13545TIP3    H240579   5.443   1.044   3.569
13546TIP3   OH240580   8.141   6.723   4.196
13546TIP3    H140581   8.200   6.652   4.220
13546TIP3    H240582   8.094   6.744   4.277
13547TIP3   OH240583   1.502   7.273   3.695
13547TIP3    H140584   1.556   7.288   3.617
13547TIP3    H240585   1.421   7.321   3.679
13548TIP3   OH240586   3.517   6.741   2.855
13548TIP3    H140587   3.551   6.771   2.939
13548TIP3    H240588   3.456   6.809   2.827
13549TIP3   OH240589   7.375   0.840   5.601
13549TIP3    H140590   7.312   0.804   5.664
13549TIP3    H240591   7.372   0.778   5.527
13550TIP3   OH240592   1.258   7.197   4.593
13550TIP3    H140593   1.175   7.150   4.587
13550TIP3    H240594   1.311   7.145   4.653
13551TIP3   OH240595   7.077   6.633   1.309
13551TIP3    H140596   7.126   6.715   1.305
13551TIP3    H240597   7.112   6.580   1.238
13552TIP3   OH240598   7.103   6.087   6.522
13552TIP3    H140599   7.132   6.058   6.608
13552TIP3    H240600   7.057   6.169   6.538
13553TIP3   OH240601   6.498   5.711   1.735
13553TIP3    H140602   6.409   5.745   1.748
13553TIP3    H240603   6.490   5.617   1.748
13554TIP3   OH240604   3.634   0.970   1.869
13554TIP3    H140605   3.670   0.882   1.873
13554TIP3    H240606   3.690   1.022   1.927
13555TIP3   OH240607   6.565   7.083   1.130
13555TIP3    H140608   6.642   7.112   1.082
13555TIP3    H240609   6.496   7.144   1.103
13556TIP3   OH240610   5.142   5.569   1.198
13556TIP3    H140611   5.229   5.597   1.227
13556TIP3    H240612   5.139   5.590   1.105
13557TIP3   OH240613   1.865   2.090   6.191
13557TIP3    H140614   1.941   2.081   6.249
13557TIP3    H240615   1.900   2.127   6.111
13558TIP3   OH240616   0.201   7.538   4.555
13558TIP3    H140617   0.190   7.483   4.478
13558TIP3    H240618   0.231   7.622   4.521
13559TIP3   OH240619   6.575   4.198   2.369
13559TIP3    H140620   6.635   4.232   2.435
13559TIP3    H240621   6.521   4.134   2.416
13560TIP3   OH240622   0.197   2.480   2.901
13560TIP3    H140623   0.130   2.516   2.842
13560TIP3    H240624   0.164   2.501   2.988
13561TIP3   OH240625   2.606   2.502   2.055
13561TIP3    H140626   2.659   2.566   2.007
13561TIP3    H240627   2.519   2.508   2.015
13562TIP3   OH240628   1.776   6.234   1.562
13562TIP3    H140629   1.759   6.191   1.478
13562TIP3    H240630   1.816   6.166   1.616
13563TIP3   OH240631   4.160   7.389   4.825
13563TIP3    H140632   4.230   7.428   4.878
13563TIP3    H240633   4.099   7.352   4.889
13564TIP3   OH240634   4.525   7.428   3.506
13564TIP3    H140635   4.523   7.504   3.448
13564TIP3    H240636   4.603   7.380   3.479
13565TIP3   OH240637   4.507   6.276   2.491
13565TIP3    H140638   4.462   6.360   2.503
13565TIP3    H240639   4.437   6.211   2.492
13566TIP3   OH240640   7.779   5.664   6.642
13566TIP3    H140641   7.781   5.694   6.733
13566TIP3    H240642   7.705   5.604   6.638
13567TIP3   OH240643   8.208   1.287   3.288
13567TIP3    H140644   8.128   1.339   3.297
13567TIP3    H240645   8.267   1.324   3.354
13568TIP3   OH240646   5.890   4.559   2.359
13568TIP3    H140647   5.798   4.587   2.353
13568TIP3    H240648   5.920   4.594   2.442
13569TIP3   OH240649   0.236   0.068   5.862
13569TIP3    H140650   0.175   0.003   5.897
13569TIP3    H240651   0.191   0.151   5.872
13570TIP3   OH240652   0.509   1.223   1.831
13570TIP3    H140653   0.457   1.298   1.862
13570TIP3    H240654   0.574   1.262   1.772
13571TIP3   OH240655   1.086   5.366   5.359
13571TIP3    H140656   1.076   5.325   5.273
13571TIP3    H240657   1.042   5.305   5.420
13572TIP3   OH240658   2.481   5.183   1.775
13572TIP3    H140659   2.528   5.197   1.857
13572TIP3    H240660   2.401   5.138   1.801
13573TIP3   OH240661   0.539   4.373   0.551
13573TIP3    H140662   0.458   4.368   0.501
13573TIP3    H240663   0.580   4.287   0.540
13574TIP3   OH240664   3.018   2.358   3.890
13574TIP3    H140665   3.086   2.416   3.856
13574TIP3    H240666   3.066   2.291   3.938
13575TIP3   OH240667   2.464   2.101   1.822
13575TIP3    H140668   2.534   2.162   1.799
13575TIP3    H240669   2.436   2.064   1.739
13576TIP3   OH240670   6.247   0.777   1.861
13576TIP3    H140671   6.308   0.748   1.793
13576TIP3    H240672   6.162   0.782   1.816
13577TIP3   OH240673   0.013   3.389   3.496
13577TIP3    H140674   0.088   3.410   3.441
13577TIP3    H240675   0.008   3.293   3.494
13578TIP3   OH240676   5.411   0.155   2.096
13578TIP3    H140677   5.361   0.236   2.081
13578TIP3    H240678   5.346   0.093   2.130
13579TIP3   OH240679   4.279   0.809   1.824
13579TIP3    H140680   4.297   0.725   1.866
13579TIP3    H240681   4.184   0.815   1.823
13580TIP3   OH240682   1.086   1.703   6.712
13580TIP3    H140683   1.011   1.734   6.662
13580TIP3    H240684   1.104   1.616   6.675
13581TIP3   OH240685   7.425   3.162   0.732
13581TIP3    H140686   7.490   3.208   0.679
13581TIP3    H240687   7.342   3.204   0.709
13582TIP3   OH240688   4.468   5.021   0.748
13582TIP3    H140689   4.472   4.937   0.703
13582TIP3    H240690   4.487   5.085   0.679
13583TIP3   OH240691   6.271   5.969   2.684
13583TIP3    H140692   6.216   6.022   2.742
13583TIP3    H240693   6.236   5.881   2.692
13584TIP3   OH240694   2.808   3.997   0.624
13584TIP3    H140695   2.739   4.037   0.570
13584TIP3    H240696   2.848   3.932   0.567
13585TIP3   OH240697   3.705   6.210   3.759
13585TIP3    H140698   3.649   6.219   3.836
13585TIP3    H240699   3.742   6.123   3.766
13586TIP3   OH240700   3.597   1.358   0.248
13586TIP3    H140701   3.661   1.308   0.298
13586TIP3    H240702   3.525   1.374   0.309
13587TIP3   OH240703   6.269   6.486   1.551
13587TIP3    H140704   6.344   6.520   1.503
13587TIP3    H240705   6.299   6.479   1.641
13588TIP3   OH240706   4.946   1.668   6.286
13588TIP3    H140707   5.016   1.646   6.347
13588TIP3    H240708   4.976   1.636   6.201
13589TIP3   OH240709   6.808   6.084   0.489
13589TIP3    H140710   6.875   6.095   0.422
13589TIP3    H240711   6.799   6.170   0.530
13590TIP3   OH240712   0.720   7.624   4.360
13590TIP3    H140713   0.685   7.711   4.380
13590TIP3    H240714   0.814   7.638   4.350
13591TIP3   OH240715   1.660   5.273   5.988
13591TIP3    H140716   1.625   5.185   5.996
13591TIP3    H240717   1.615   5.311   5.912
13592TIP3   OH240718   3.438   3.474   6.378
13592TIP3    H140719   3.496   3.548   6.361
13592TIP3    H240720   3.493   3.396   6.366
13593TIP3   OH240721   3.803   1.421   1.908
13593TIP3    H140722   3.747   1.472   1.967
13593TIP3    H240723   3.767   1.438   1.821
13594TIP3   OH240724   0.198   3.438   4.913
13594TIP3    H140725   0.106   3.442   4.888
13594TIP3    H240726   0.220   3.527   4.940
13595TIP3   OH240727   6.354   3.381   0.846
13595TIP3    H140728   6.318   3.456   0.893
13595TIP3    H240729   6.370   3.315   0.913
13596TIP3   OH240730   2.455   4.847   0.424
13596TIP3    H140731   2.485   4.938   0.426
13596TIP3    H240732   2.360   4.854   0.438
13597TIP3   OH240733   0.475   3.278   0.330
13597TIP3    H140734   0.510   3.218   0.264
13597TIP3    H240735   0.512   3.247   0.413
13598TIP3   OH240736   4.425   6.925   4.153
13598TIP3    H140737   4.431   7.007   4.104
13598TIP3    H240738   4.441   6.950   4.244
13599TIP3   OH240739   4.377   2.081   4.531
13599TIP3    H140740   4.306   2.055   4.472
13599TIP3    H240741   4.457   2.049   4.489
13600TIP3   OH240742   4.548   2.762   0.017
13600TIP3    H140743   4.565   2.728  -0.070
13600TIP3    H240744   4.539   2.684   0.072
13601TIP3   OH240745   4.677   4.741   1.532
13601TIP3    H140746   4.667   4.693   1.614
13601TIP3    H240747   4.770   4.762   1.527
13602TIP3   OH240748   0.206   7.738   4.944
13602TIP3    H140749   0.226   7.654   4.984
13602TIP3    H240750   0.292   7.778   4.928
13603TIP3   OH240751   0.387   6.089   0.976
13603TIP3    H140752   0.396   6.100   1.070
13603TIP3    H240753   0.453   6.023   0.953
13604TIP3   OH240754   1.805   1.851   5.644
13604TIP3    H140755   1.815   1.928   5.699
13604TIP3    H240756   1.773   1.885   5.560
13605TIP3   OH240757   0.891   2.151   3.017
13605TIP3    H140758   0.831   2.124   2.947
13605TIP3    H240759   0.835   2.195   3.081
13606TIP3   OH240760   4.051   6.215   3.112
13606TIP3    H140761   3.982   6.189   3.173
13606TIP3    H240762   4.092   6.291   3.153
13607TIP3   OH240763   4.627   1.622   6.036
13607TIP3    H140764   4.689   1.550   6.049
13607TIP3    H240765   4.541   1.579   6.029
13608TIP3   OH240766   2.654   2.049   6.069
13608TIP3    H140767   2.654   1.960   6.033
13608TIP3    H240768   2.729   2.091   6.027
13609TIP3   OH240769   4.735   0.028   5.441
13609TIP3    H140770   4.697   0.107   5.404
13609TIP3    H240771   4.829   0.047   5.446
13610TIP3   OH240772   6.893   4.456   2.208
13610TIP3    H140773   6.901   4.532   2.266
13610TIP3    H240774   6.975   4.453   2.160
13611TIP3   OH240775   7.246   3.533   2.498
13611TIP3    H140776   7.329   3.580   2.489
13611TIP3    H240777   7.252   3.489   2.582
13612TIP3   OH240778   3.939   6.640   5.150
13612TIP3    H140779   3.855   6.646   5.105
13612TIP3    H240780   3.917   6.627   5.242
13613TIP3   OH240781   4.604   4.792   3.598
13613TIP3    H140782   4.573   4.879   3.624
13613TIP3    H240783   4.580   4.735   3.671
13614TIP3   OH240784   1.666   0.159   6.493
13614TIP3    H140785   1.648   0.160   6.399
13614TIP3    H240786   1.612   0.087   6.526
13615TIP3   OH240787   5.598   3.246   2.123
13615TIP3    H140788   5.654   3.302   2.070
13615TIP3    H240789   5.512   3.251   2.080
13616TIP3   OH240790   4.169   5.743   2.277
13616TIP3    H140791   4.206   5.660   2.309
13616TIP3    H240792   4.081   5.721   2.249
13617TIP3   OH240793   0.055   2.692   2.777
13617TIP3    H140794  -0.032   2.731   2.764
13617TIP3    H240795   0.112   2.742   2.720
13618TIP3   OH240796   2.070   0.408   5.792
13618TIP3    H140797   1.974   0.410   5.797
13618TIP3    H240798   2.098   0.381   5.879
13619TIP3   OH240799   0.058   6.458   0.659
13619TIP3    H140800   0.014   6.530   0.704
13619TIP3    H240801   0.007   6.445   0.579
13620TIP3   OH240802   7.892   5.242   0.132
13620TIP3    H140803   7.855   5.328   0.152
13620TIP3    H240804   7.899   5.241   0.037
13621TIP3   OH240805   1.489   3.277   0.525
13621TIP3    H140806   1.410   3.261   0.474
13621TIP3    H240807   1.474   3.361   0.569
13622TIP3   OH240808   7.864   4.202   3.428
13622TIP3    H140809   7.947   4.245   3.449
13622TIP3    H240810   7.888   4.114   3.400
13623TIP3   OH240811   6.741   7.460   4.585
13623TIP3    H140812   6.744   7.442   4.491
13623TIP3    H240813   6.656   7.501   4.599
13624TIP3   OH240814   7.815   3.552   1.239
13624TIP3    H140815   7.870   3.629   1.227
13624TIP3    H240816   7.753   3.555   1.166
13625TIP3   OH240817   4.660   1.718   3.352
13625TIP3    H140818   4.672   1.625   3.370
13625TIP3    H240819   4.568   1.734   3.373
13626TIP3   OH240820   2.406   5.700   5.971
13626TIP3    H140821   2.383   5.768   5.908
13626TIP3    H240822   2.501   5.693   5.966
13627TIP3   OH240823   0.488   4.422   0.839
13627TIP3    H140824   0.579   4.398   0.860
13627TIP3    H240825   0.495   4.473   0.758
13628TIP3   OH240826   7.437   5.444   0.896
13628TIP3    H140827   7.483   5.433   0.813
13628TIP3    H240828   7.401   5.532   0.892
13629TIP3   OH240829   2.145   4.052   6.650
13629TIP3    H140830   2.125   4.145   6.644
13629TIP3    H240831   2.156   4.024   6.560
13630TIP3   OH240832   6.078   3.830   1.648
13630TIP3    H140833   6.093   3.887   1.573
13630TIP3    H240834   6.143   3.761   1.639
13631TIP3   OH240835   8.164   2.883   6.584
13631TIP3    H140836   8.239   2.858   6.531
13631TIP3    H240837   8.175   2.834   6.666
13632TIP3   OH240838   6.628   1.555   5.187
13632TIP3    H140839   6.555   1.568   5.126
13632TIP3    H240840   6.669   1.641   5.194
13633TIP3   OH240841   5.435   5.372   2.322
13633TIP3    H140842   5.523   5.362   2.285
13633TIP3    H240843   5.383   5.304   2.279
13634TIP3   OH240844   7.063   4.021   2.300
13634TIP3    H140845   6.975   3.986   2.282
13634TIP3    H240846   7.114   3.997   2.223
13635TIP3   OH240847   1.209   1.090   3.044
13635TIP3    H140848   1.176   1.006   3.074
13635TIP3    H240849   1.301   1.090   3.071
13636TIP3   OH240850   7.583   4.134   5.141
13636TIP3    H140851   7.556   4.166   5.227
13636TIP3    H240852   7.626   4.209   5.101
13637TIP3   OH240853   0.117   1.521   1.165
13637TIP3    H140854   0.209   1.518   1.193
13637TIP3    H240855   0.067   1.523   1.246
13638TIP3   OH240856   6.532   4.623   0.598
13638TIP3    H140857   6.437   4.613   0.592
13638TIP3    H240858   6.561   4.624   0.507
13639TIP3   OH240859   3.693   6.475   1.206
13639TIP3    H140860   3.648   6.537   1.149
13639TIP3    H240861   3.695   6.393   1.155
13640TIP3   OH240862   0.478   4.540   3.044
13640TIP3    H140863   0.538   4.470   3.019
13640TIP3    H240864   0.433   4.563   2.963
13641TIP3   OH240865   8.352   1.901   2.185
13641TIP3    H140866   8.387   1.949   2.260
13641TIP3    H240867   8.258   1.895   2.203
13642TIP3   OH240868   1.553   0.793   2.913
13642TIP3    H140869   1.634   0.754   2.946
13642TIP3    H240870   1.517   0.727   2.854
13643TIP3   OH240871   0.343   2.642   1.107
13643TIP3    H140872   0.336   2.621   1.014
13643TIP3    H240873   0.272   2.593   1.149
13644TIP3   OH240874   6.294   1.560   4.185
13644TIP3    H140875   6.349   1.543   4.108
13644TIP3    H240876   6.352   1.547   4.260
13645TIP3   OH240877   1.261   3.103   0.916
13645TIP3    H140878   1.289   3.169   0.853
13645TIP3    H240879   1.172   3.128   0.939
13646TIP3   OH240880   5.165   5.391   6.040
13646TIP3    H140881   5.106   5.462   6.017
13646TIP3    H240882   5.110   5.313   6.041
13647TIP3   OH240883   6.175   3.338   1.108
13647TIP3    H140884   6.244   3.276   1.085
13647TIP3    H240885   6.143   3.309   1.193
13648TIP3   OH240886   4.578   4.006   5.443
13648TIP3    H140887   4.660   4.031   5.486
13648TIP3    H240888   4.568   4.071   5.373
13649TIP3   OH240889   0.992   6.359   2.030
13649TIP3    H140890   0.965   6.329   1.944
13649TIP3    H240891   0.924   6.327   2.089
13650TIP3   OH240892   2.133   0.936   2.072
13650TIP3    H140893   2.167   0.871   2.134
13650TIP3    H240894   2.056   0.895   2.034
13651TIP3   OH240895   0.779   6.516   5.846
13651TIP3    H140896   0.841   6.495   5.776
13651TIP3    H240897   0.833   6.557   5.914
13652TIP3   OH240898   0.246   0.539   5.571
13652TIP3    H140899   0.196   0.494   5.503
13652TIP3    H240900   0.326   0.488   5.581
13653TIP3   OH240901   6.739   6.766   3.721
13653TIP3    H140902   6.713   6.833   3.658
13653TIP3    H240903   6.826   6.737   3.691
13654TIP3   OH240904   3.032   2.254   2.852
13654TIP3    H140905   3.118   2.219   2.877
13654TIP3    H240906   3.017   2.326   2.913
13655TIP3   OH240907   7.922   7.324   5.014
13655TIP3    H140908   7.912   7.408   4.970
13655TIP3    H240909   7.837   7.281   5.002
13656TIP3   OH240910   7.774   6.250   4.370
13656TIP3    H140911   7.846   6.246   4.307
13656TIP3    H240912   7.700   6.282   4.319
13657TIP3   OH240913   5.656   3.574   6.241
13657TIP3    H140914   5.707   3.534   6.171
13657TIP3    H240915   5.584   3.619   6.197
13658TIP3   OH240916   5.716   1.779   4.765
13658TIP3    H140917   5.635   1.828   4.750
13658TIP3    H240918   5.760   1.827   4.836
13659TIP3   OH240919   3.200   3.214   6.248
13659TIP3    H140920   3.118   3.227   6.296
13659TIP3    H240921   3.179   3.235   6.157
13660TIP3   OH240922   7.505   7.807   6.613
13660TIP3    H140923   7.560   7.828   6.537
13660TIP3    H240924   7.546   7.730   6.652
13661TIP3   OH240925   7.976   5.875   4.747
13661TIP3    H140926   7.980   5.889   4.841
13661TIP3    H240927   7.925   5.949   4.714
13662TIP3   OH240928   3.638   3.713   4.339
13662TIP3    H140929   3.691   3.671   4.270
13662TIP3    H240930   3.685   3.692   4.420
13663TIP3   OH240931   4.206   7.035   4.452
13663TIP3    H140932   4.284   7.081   4.424
13663TIP3    H240933   4.196   7.058   4.545
13664TIP3   OH240934   6.638   1.265   1.454
13664TIP3    H140935   6.585   1.312   1.518
13664TIP3    H240936   6.577   1.207   1.410
13665TIP3   OH240937   0.167   3.365   2.861
13665TIP3    H140938   0.149   3.458   2.874
13665TIP3    H240939   0.213   3.362   2.777
13666TIP3   OH240940   0.664   1.552   6.426
13666TIP3    H140941   0.620   1.579   6.507
13666TIP3    H240942   0.665   1.632   6.372
13667TIP3   OH240943   7.157   6.405   5.160
13667TIP3    H140944   7.232   6.452   5.124
13667TIP3    H240945   7.087   6.419   5.096
13668TIP3   OH240946   6.143   5.046   5.249
13668TIP3    H140947   6.073   5.006   5.198
13668TIP3    H240948   6.182   5.112   5.190
13669TIP3   OH240949   1.156   4.018   3.609
13669TIP3    H140950   1.184   4.098   3.653
13669TIP3    H240951   1.074   3.995   3.651
13670TIP3   OH240952   1.227   0.057   3.850
13670TIP3    H140953   1.299   0.115   3.828
13670TIP3    H240954   1.249   0.023   3.937
13671TIP3   OH240955   3.031   7.617   6.153
13671TIP3    H140956   3.126   7.619   6.146
13671TIP3    H240957   3.001   7.613   6.062
13672TIP3   OH240958   1.861   4.036   1.302
13672TIP3    H140959   1.845   4.076   1.387
13672TIP3    H240960   1.856   4.109   1.240
13673TIP3   OH240961   7.336   1.969   2.697
13673TIP3    H140962   7.415   1.917   2.711
13673TIP3    H240963   7.300   1.935   2.615
13674TIP3   OH240964   1.905   5.018   4.696
13674TIP3    H140965   1.863   5.081   4.755
13674TIP3    H240966   1.974   4.978   4.749
13675TIP3   OH240967   0.951  -0.002   0.872
13675TIP3    H140968   0.894  -0.048   0.934
13675TIP3    H240969   0.891   0.036   0.808
13676TIP3   OH240970   8.061   4.236   3.922
13676TIP3    H140971   8.066   4.325   3.955
13676TIP3    H240972   7.969   4.221   3.904
13677TIP3   OH240973   5.005   2.062   5.045
13677TIP3    H140974   4.999   2.092   5.136
13677TIP3    H240975   4.920   2.083   5.008
13678TIP3   OH240976   1.974   0.911   5.635
13678TIP3    H140977   1.958   0.817   5.636
13678TIP3    H240978   2.070   0.919   5.629
13679TIP3   OH240979   4.511   2.545   0.171
13679TIP3    H140980   4.562   2.509   0.244
13679TIP3    H240981   4.443   2.480   0.155
13680TIP3   OH240982   6.359   5.353   0.034
13680TIP3    H140983   6.389   5.308  -0.045
13680TIP3    H240984   6.264   5.354   0.026
13681TIP3   OH240985   6.649   4.084   5.166
13681TIP3    H140986   6.570   4.097   5.115
13681TIP3    H240987   6.657   4.163   5.220
13682TIP3   OH240988   7.083   7.793   0.215
13682TIP3    H140989   7.158   7.750   0.255
13682TIP3    H240990   7.070   7.872   0.267
13683TIP3   OH240991   6.860   1.257   5.494
13683TIP3    H140992   6.814   1.184   5.453
13683TIP3    H240993   6.953   1.235   5.486
13684TIP3   OH240994   0.051   6.889   5.907
13684TIP3    H140995   0.074   6.979   5.930
13684TIP3    H240996  -0.044   6.886   5.914
13685TIP3   OH240997   0.604   6.928   1.063
13685TIP3    H140998   0.525   6.969   1.027
13685TIP3    H240999   0.673   6.992   1.048
13686TIP3   OH241000   4.139   5.374   5.562
13686TIP3    H141001   4.184   5.384   5.646
13686TIP3    H241002   4.048   5.354   5.585
13687TIP3   OH241003   1.936   4.222   2.806
13687TIP3    H141004   1.976   4.191   2.888
13687TIP3    H241005   1.921   4.315   2.821
13688TIP3   OH241006   1.762   4.871   3.985
13688TIP3    H141007   1.843   4.917   3.967
13688TIP3    H241008   1.702   4.938   4.018
13689TIP3   OH241009   0.811   6.439   3.455
13689TIP3    H141010   0.754   6.491   3.512
13689TIP3    H241011   0.807   6.350   3.492
13690TIP3   OH241012   7.433   5.447   2.648
13690TIP3    H141013   7.455   5.355   2.633
13690TIP3    H241014   7.477   5.494   2.577
13691TIP3   OH241015   7.289   1.152   2.686
13691TIP3    H141016   7.364   1.138   2.744
13691TIP3    H241017   7.253   1.064   2.671
13692TIP3   OH241018   6.295   1.795   1.593
13692TIP3    H141019   6.332   1.880   1.571
13692TIP3    H241020   6.345   1.732   1.541
13693TIP3   OH241021   6.807   5.001   4.680
13693TIP3    H141022   6.853   4.919   4.660
13693TIP3    H241023   6.718   4.987   4.647
13694TIP3   OH241024   0.440   0.172   4.795
13694TIP3    H141025   0.376   0.241   4.779
13694TIP3    H241026   0.388   0.093   4.807
13695TIP3   OH241027   6.182   1.447   1.261
13695TIP3    H141028   6.231   1.524   1.235
13695TIP3    H241029   6.097   1.480   1.290
13696TIP3   OH241030   0.756   5.593   2.902
13696TIP3    H141031   0.774   5.550   2.819
13696TIP3    H241032   0.801   5.677   2.896
13697TIP3   OH241033   3.263   3.929   1.316
13697TIP3    H141034   3.255   3.973   1.231
13697TIP3    H241035   3.352   3.948   1.345
13698TIP3   OH241036   7.247   1.645   4.814
13698TIP3    H141037   7.264   1.735   4.786
13698TIP3    H241038   7.181   1.654   4.883
13699TIP3   OH241039   5.302   6.549   5.012
13699TIP3    H141040   5.234   6.537   5.077
13699TIP3    H241041   5.263   6.517   4.930
13700TIP3   OH241042   5.919   3.015   4.095
13700TIP3    H141043   5.833   3.010   4.139
13700TIP3    H241044   5.904   3.072   4.020
13701TIP3   OH241045   4.745   7.736   1.671
13701TIP3    H141046   4.732   7.642   1.684
13701TIP3    H241047   4.682   7.776   1.730
13702TIP3   OH241048   3.836   4.187   2.193
13702TIP3    H141049   3.864   4.236   2.270
13702TIP3    H241050   3.778   4.119   2.228
13703TIP3   OH241051   4.977   0.827   4.282
13703TIP3    H141052   4.914   0.899   4.277
13703TIP3    H241053   5.029   0.846   4.360
13704TIP3   OH241054   2.097   4.132   3.327
13704TIP3    H141055   2.191   4.119   3.314
13704TIP3    H241056   2.076   4.209   3.275
13705TIP3   OH241057   0.873   3.767   4.964
13705TIP3    H141058   0.930   3.756   4.889
13705TIP3    H241059   0.865   3.680   5.002
13706TIP3   OH241060   5.793   5.796   3.302
13706TIP3    H141061   5.746   5.813   3.384
13706TIP3    H241062   5.798   5.701   3.297
13707TIP3   OH241063   7.321   6.043   5.530
13707TIP3    H141064   7.334   5.953   5.501
13707TIP3    H241065   7.316   6.094   5.449
13708TIP3   OH241066   2.015   6.062   5.628
13708TIP3    H141067   1.964   6.121   5.683
13708TIP3    H241068   2.074   6.120   5.578
13709TIP3   OH241069   3.550   7.441   1.301
13709TIP3    H141070   3.625   7.436   1.359
13709TIP3    H241071   3.517   7.351   1.295
13710TIP3   OH241072   7.050   7.355   5.257
13710TIP3    H141073   7.038   7.354   5.352
13710TIP3    H241074   6.994   7.426   5.226
13711TIP3   OH241075   4.578   2.007   6.626
13711TIP3    H141076   4.587   1.977   6.717
13711TIP3    H241077   4.597   2.101   6.630
13712TIP3   OH241078   5.703   3.783   3.841
13712TIP3    H141079   5.650   3.836   3.781
13712TIP3    H241080   5.670   3.694   3.829
13713TIP3   OH241081   7.406   3.439   0.826
13713TIP3    H141082   7.319   3.433   0.785
13713TIP3    H241083   7.464   3.469   0.756
13714TIP3   OH241084   1.397   6.428   0.569
13714TIP3    H141085   1.457   6.503   0.570
13714TIP3    H241086   1.339   6.445   0.495
13715TIP3   OH241087   4.306   2.307   1.622
13715TIP3    H141088   4.351   2.249   1.683
13715TIP3    H241089   4.334   2.395   1.646
13716TIP3   OH241090   6.188   3.357   3.928
13716TIP3    H141091   6.265   3.300   3.926
13716TIP3    H241092   6.223   3.445   3.941
13717TIP3   OH241093   3.016   2.616   6.433
13717TIP3    H141094   3.067   2.613   6.514
13717TIP3    H241095   3.001   2.709   6.418
13718TIP3   OH241096   2.554   2.339   3.956
13718TIP3    H141097   2.521   2.429   3.966
13718TIP3    H241098   2.583   2.335   3.865
13719TIP3   OH241099   0.150   2.227   3.240
13719TIP3    H141100   0.119   2.314   3.217
13719TIP3    H241101   0.124   2.215   3.331
13720TIP3   OH241102   0.697   1.624   1.646
13720TIP3    H141103   0.776   1.601   1.696
13720TIP3    H241104   0.641   1.670   1.708
13721TIP3   OH241105   0.553   5.422   2.650
13721TIP3    H141106   0.609   5.404   2.575
13721TIP3    H241107   0.552   5.517   2.658
13722TIP3   OH241108   6.170   0.388   3.512
13722TIP3    H141109   6.227   0.393   3.436
13722TIP3    H241110   6.226   0.355   3.583
13723TIP3   OH241111   8.112   2.306   6.420
13723TIP3    H141112   8.100   2.313   6.515
13723TIP3    H241113   8.074   2.221   6.397
13724TIP3   OH241114   0.742   3.341   6.354
13724TIP3    H141115   0.653   3.375   6.347
13724TIP3    H241116   0.759   3.337   6.448
13725TIP3   OH241117   5.122   0.348   4.677
13725TIP3    H141118   5.140   0.375   4.768
13725TIP3    H241119   5.183   0.275   4.662
13726TIP3   OH241120   1.287   7.775   4.085
13726TIP3    H141121   1.274   7.864   4.054
13726TIP3    H241122   1.372   7.749   4.049
13727TIP3   OH241123   2.102   6.388   3.194
13727TIP3    H141124   2.153   6.312   3.222
13727TIP3    H241125   2.049   6.410   3.271
13728TIP3   OH241126   6.730   3.526   4.562
13728TIP3    H141127   6.703   3.600   4.617
13728TIP3    H241128   6.825   3.529   4.562
13729TIP3   OH241129   4.598   5.549   4.387
13729TIP3    H141130   4.585   5.468   4.337
13729TIP3    H241131   4.603   5.618   4.322
13730TIP3   OH241132   4.368   3.299   3.701
13730TIP3    H141133   4.372   3.346   3.617
13730TIP3    H241134   4.432   3.343   3.756
13731TIP3   OH241135   2.419   1.624   0.278
13731TIP3    H141136   2.409   1.607   0.371
13731TIP3    H241137   2.329   1.633   0.246
13732TIP3   OH241138   2.367   5.053   3.771
13732TIP3    H141139   2.395   5.074   3.682
13732TIP3    H241140   2.311   5.126   3.797
13733TIP3   OH241141   2.301   7.331   0.904
13733TIP3    H141142   2.316   7.346   0.997
13733TIP3    H241143   2.307   7.418   0.865
13734TIP3   OH241144   5.357   3.538   4.795
13734TIP3    H141145   5.391   3.460   4.752
13734TIP3    H241146   5.304   3.582   4.728
13735TIP3   OH241147   3.752   7.054   6.461
13735TIP3    H141148   3.764   6.998   6.538
13735TIP3    H241149   3.674   7.106   6.481
13736TIP3   OH241150   8.117   4.253   1.750
13736TIP3    H141151   8.155   4.326   1.800
13736TIP3    H241152   8.183   4.233   1.683
13737TIP3   OH241153   3.809   3.156   3.566
13737TIP3    H141154   3.891   3.171   3.613
13737TIP3    H241155   3.830   3.089   3.501
13738TIP3   OH241156   0.813   2.595   4.720
13738TIP3    H141157   0.807   2.524   4.656
13738TIP3    H241158   0.800   2.552   4.805
13739TIP3   OH241159   1.469   3.570   4.646
13739TIP3    H141160   1.475   3.523   4.563
13739TIP3    H241161   1.418   3.649   4.624
13740TIP3   OH241162   6.442   6.420   6.271
13740TIP3    H141163   6.394   6.500   6.252
13740TIP3    H241164   6.406   6.355   6.210
13741TIP3   OH241165   4.184   4.248   6.237
13741TIP3    H141166   4.210   4.269   6.327
13741TIP3    H241167   4.091   4.224   6.245
13742TIP3   OH241168   1.437   1.658   5.628
13742TIP3    H141169   1.486   1.638   5.548
13742TIP3    H241170   1.504   1.667   5.696
13743TIP3   OH241171   1.440   3.030   0.115
13743TIP3    H141172   1.483   3.071   0.039
13743TIP3    H241173   1.384   2.963   0.077
13744TIP3   OH241174   7.491   3.755   6.258
13744TIP3    H141175   7.561   3.702   6.294
13744TIP3    H241176   7.426   3.692   6.227
13745TIP3   OH241177   7.971   6.833   5.736
13745TIP3    H141178   7.984   6.855   5.828
13745TIP3    H241179   7.968   6.737   5.735
13746TIP3   OH241180   2.874   3.866   1.602
13746TIP3    H141181   2.802   3.820   1.558
13746TIP3    H241182   2.953   3.832   1.559
13747TIP3   OH241183   3.179   6.584   5.797
13747TIP3    H141184   3.217   6.642   5.862
13747TIP3    H241185   3.164   6.502   5.843
13748TIP3   OH241186   2.492   6.853   4.011
13748TIP3    H141187   2.553   6.907   4.061
13748TIP3    H241188   2.543   6.824   3.935
13749TIP3   OH241189   2.131   2.023   1.125
13749TIP3    H141190   2.107   1.965   1.054
13749TIP3    H241191   2.195   2.084   1.086
13750TIP3   OH241192   2.572   4.296   6.341
13750TIP3    H141193   2.565   4.333   6.429
13750TIP3    H241194   2.483   4.303   6.305
13751TIP3   OH241195   6.143   7.512   6.065
13751TIP3    H141196   6.059   7.516   6.019
13751TIP3    H241197   6.119   7.506   6.157
13752TIP3   OH241198   2.601   6.166   5.970
13752TIP3    H141199   2.554   6.158   6.053
13752TIP3    H241200   2.640   6.080   5.956
13753TIP3   OH241201   0.598   2.117   5.905
13753TIP3    H141202   0.576   2.210   5.902
13753TIP3    H241203   0.528   2.074   5.856
13754TIP3   OH241204   7.387   1.679   5.367
13754TIP3    H141205   7.463   1.657   5.420
13754TIP3    H241206   7.384   1.775   5.367
13755TIP3   OH241207   1.442   5.938   4.246
13755TIP3    H141208   1.480   5.938   4.334
13755TIP3    H241209   1.509   5.979   4.191
13756TIP3   OH241210   5.355   3.882   4.866
13756TIP3    H141211   5.440   3.903   4.828
13756TIP3    H241212   5.338   3.792   4.837
13757TIP3   OH241213   3.248   5.586   1.018
13757TIP3    H141214   3.249   5.496   1.050
13757TIP3    H241215   3.155   5.607   1.007
13758TIP3   OH241216   4.487   0.783   3.929
13758TIP3    H141217   4.415   0.741   3.976
13758TIP3    H241218   4.531   0.837   3.995
13759TIP3   OH241219   4.102   5.254   5.916
13759TIP3    H141220   4.160   5.220   5.848
13759TIP3    H241221   4.124   5.204   5.994
13760TIP3   OH241222   5.358   2.966   4.888
13760TIP3    H141223   5.409   3.046   4.883
13760TIP3    H241224   5.290   2.976   4.822
13761TIP3   OH241225   0.464   0.239   5.865
13761TIP3    H141226   0.523   0.220   5.937
13761TIP3    H241227   0.397   0.170   5.869
13762TIP3   OH241228   5.253   1.007   0.569
13762TIP3    H141229   5.249   0.948   0.493
13762TIP3    H241230   5.345   1.003   0.597
13763TIP3   OH241231   1.980   1.721   5.084
13763TIP3    H141232   1.946   1.752   5.168
13763TIP3    H241233   2.030   1.796   5.050
13764TIP3   OH241234   1.582   0.439   6.551
13764TIP3    H141235   1.488   0.425   6.547
13764TIP3    H241236   1.620   0.364   6.505
13765TIP3   OH241237   6.763   3.759   2.591
13765TIP3    H141238   6.840   3.736   2.539
13765TIP3    H241239   6.797   3.819   2.657
13766TIP3   OH241240   0.877   5.333   1.223
13766TIP3    H141241   0.817   5.259   1.218
13766TIP3    H241242   0.839   5.398   1.164
13767TIP3   OH241243   1.962   2.829   4.428
13767TIP3    H141244   2.030   2.894   4.445
13767TIP3    H241245   1.890   2.853   4.486
13768TIP3   OH241246   4.012   4.890   1.669
13768TIP3    H141247   3.961   4.971   1.680
13768TIP3    H241248   3.986   4.857   1.583
13769TIP3   OH241249   0.284   3.615   4.658
13769TIP3    H141250   0.215   3.622   4.592
13769TIP3    H241251   0.237   3.606   4.741
13770TIP3   OH241252   6.143   6.282   0.001
13770TIP3    H141253   6.209   6.269  -0.067
13770TIP3    H241254   6.118   6.194   0.028
13771TIP3   OH241255   0.390   3.296   2.335
13771TIP3    H141256   0.322   3.233   2.313
13771TIP3    H241257   0.470   3.260   2.296
13772TIP3   OH241258   1.208   2.479   6.280
13772TIP3    H141259   1.181   2.429   6.357
13772TIP3    H241260   1.127   2.515   6.245
13773TIP3   OH241261   6.666   4.747   4.777
13773TIP3    H141262   6.709   4.763   4.693
13773TIP3    H241263   6.668   4.831   4.822
13774TIP3   OH241264   1.143   4.617   1.118
13774TIP3    H141265   1.141   4.712   1.116
13774TIP3    H241266   1.053   4.591   1.139
13775TIP3   OH241267   3.533   0.547   0.712
13775TIP3    H141268   3.572   0.582   0.632
13775TIP3    H241269   3.598   0.484   0.744
13776TIP3   OH241270   7.317   5.027   0.064
13776TIP3    H141271   7.239   5.070   0.099
13776TIP3    H241272   7.353   4.979   0.139
13777TIP3   OH241273   5.855   0.781   1.244
13777TIP3    H141274   5.858   0.685   1.237
13777TIP3    H241275   5.794   0.798   1.315
13778TIP3   OH241276   1.382   0.347   4.968
13778TIP3    H141277   1.414   0.262   4.938
13778TIP3    H241278   1.457   0.385   5.015
13779TIP3   OH241279   6.888   1.741   2.477
13779TIP3    H141280   6.978   1.765   2.454
13779TIP3    H241281   6.898   1.672   2.542
13780TIP3   OH241282   8.144   6.965   5.122
13780TIP3    H141283   8.145   7.011   5.037
13780TIP3    H241284   8.127   6.874   5.099
13781TIP3   OH241285   1.244   0.774   1.753
13781TIP3    H141286   1.171   0.761   1.814
13781TIP3    H241287   1.237   0.866   1.728
13782TIP3   OH241288   6.378   5.970   4.955
13782TIP3    H141289   6.379   5.996   5.048
13782TIP3    H241290   6.308   6.023   4.917
13783TIP3   OH241291   7.120   7.434   3.122
13783TIP3    H141292   7.036   7.388   3.129
13783TIP3    H241293   7.150   7.440   3.213
13784TIP3   OH241294   6.612   4.151   2.665
13784TIP3    H141295   6.622   4.062   2.699
13784TIP3    H241296   6.699   4.173   2.632
13785TIP3   OH241297   6.316   6.608   2.557
13785TIP3    H141298   6.221   6.616   2.550
13785TIP3    H241299   6.348   6.698   2.553
13786TIP3   OH241300   5.610   1.242   5.963
13786TIP3    H141301   5.694   1.237   6.009
13786TIP3    H241302   5.592   1.335   5.954
13787TIP3   OH241303   6.468   0.593   3.316
13787TIP3    H141304   6.429   0.672   3.278
13787TIP3    H241305   6.401   0.525   3.305
13788TIP3   OH241306   8.174   1.426   2.070
13788TIP3    H141307   8.258   1.464   2.094
13788TIP3    H241308   8.137   1.487   2.006
13789TIP3   OH241309   4.867   4.258   3.360
13789TIP3    H141310   4.890   4.189   3.423
13789TIP3    H241311   4.946   4.313   3.356
13790TIP3   OH241312   4.564   5.892   0.521
13790TIP3    H141313   4.490   5.839   0.494
13790TIP3    H241314   4.533   5.939   0.599
13791TIP3   OH241315   2.745   0.591   0.204
13791TIP3    H141316   2.839   0.589   0.219
13791TIP3    H241317   2.715   0.671   0.248
13792TIP3   OH241318   5.423   6.000   1.207
13792TIP3    H141319   5.411   5.968   1.117
13792TIP3    H241320   5.357   5.954   1.258
13793TIP3   OH241321   3.715   1.664   3.507
13793TIP3    H141322   3.709   1.750   3.465
13793TIP3    H241323   3.627   1.648   3.542
13794TIP3   OH241324   6.718   0.248   0.847
13794TIP3    H141325   6.745   0.199   0.770
13794TIP3    H241326   6.772   0.328   0.845
13795TIP3   OH241327   3.268   6.402   6.103
13795TIP3    H141328   3.205   6.356   6.046
13795TIP3    H241329   3.267   6.352   6.185
13796TIP3   OH241330   3.698   4.134   0.902
13796TIP3    H141331   3.697   4.073   0.828
13796TIP3    H241332   3.791   4.149   0.919
13797TIP3   OH241333   6.468   0.269   4.739
13797TIP3    H141334   6.458   0.325   4.662
13797TIP3    H241335   6.399   0.299   4.799
13798TIP3   OH241336   2.780   7.246   4.206
13798TIP3    H141337   2.710   7.299   4.245
13798TIP3    H241338   2.859   7.298   4.217
13799TIP3   OH241339   2.724   2.544   0.056
13799TIP3    H141340   2.712   2.540   0.151
13799TIP3    H241341   2.636   2.563   0.022
13800TIP3   OH241342   3.136   0.424   2.646
13800TIP3    H141343   3.150   0.368   2.570
13800TIP3    H241344   3.210   0.407   2.703
13801TIP3   OH241345   5.797   6.698   3.486
13801TIP3    H141346   5.753   6.761   3.544
13801TIP3    H241347   5.744   6.697   3.407
13802TIP3   OH241348   7.146   2.607   5.447
13802TIP3    H141349   7.165   2.664   5.522
13802TIP3    H241350   7.127   2.667   5.375
13803TIP3   OH241351   0.446   2.644   2.282
13803TIP3    H141352   0.539   2.636   2.299
13803TIP3    H241353   0.416   2.711   2.344
13804TIP3   OH241354   2.708   6.174   5.024
13804TIP3    H141355   2.632   6.143   5.074
13804TIP3    H241356   2.750   6.093   4.994
13805TIP3   OH241357   8.202   2.446   4.027
13805TIP3    H141358   8.172   2.381   4.091
13805TIP3    H241359   8.153   2.525   4.050
13806TIP3   OH241360   1.398   4.046   0.676
13806TIP3    H141361   1.396   3.955   0.708
13806TIP3    H241362   1.444   4.041   0.593
13807TIP3   OH241363   1.286   0.995   5.408
13807TIP3    H141364   1.320   0.920   5.359
13807TIP3    H241365   1.222   0.957   5.468
13808TIP3   OH241366   4.572   0.402   0.109
13808TIP3    H141367   4.515   0.475   0.086
13808TIP3    H241368   4.630   0.437   0.177
13809TIP3   OH241369   0.119   2.256   6.276
13809TIP3    H141370   0.140   2.201   6.352
13809TIP3    H241371   0.023   2.261   6.276
13810TIP3   OH241372   5.333   0.308   3.450
13810TIP3    H141373   5.397   0.379   3.454
13810TIP3    H241374   5.303   0.297   3.540
13811TIP3   OH241375   6.524   3.398   1.487
13811TIP3    H141376   6.486   3.434   1.567
13811TIP3    H241377   6.474   3.438   1.417
13812TIP3   OH241378   2.110   6.798   3.340
13812TIP3    H141379   2.103   6.772   3.248
13812TIP3    H241380   2.140   6.720   3.385
13813TIP3   OH241381   2.209   7.136   2.170
13813TIP3    H141382   2.287   7.081   2.158
13813TIP3    H241383   2.137   7.073   2.178
13814TIP3   OH241384   5.693   1.448   3.765
13814TIP3    H141385   5.759   1.495   3.714
13814TIP3    H241386   5.739   1.416   3.842
13815TIP3   OH241387   3.555   4.927   4.663
13815TIP3    H141388   3.574   4.844   4.707
13815TIP3    H241389   3.521   4.901   4.577
13816TIP3   OH241390   7.224   1.743   5.603
13816TIP3    H141391   7.239   1.721   5.511
13816TIP3    H241392   7.209   1.659   5.646
13817TIP3   OH241393   1.847   3.745   4.187
13817TIP3    H141394   1.848   3.677   4.119
13817TIP3    H241395   1.816   3.824   4.143
13818TIP3   OH241396   0.733   1.421   5.497
13818TIP3    H141397   0.699   1.506   5.525
13818TIP3    H241398   0.763   1.379   5.577
13819TIP3   OH241399   4.674   2.248   3.152
13819TIP3    H141400   4.650   2.317   3.214
13819TIP3    H241401   4.644   2.168   3.194
13820TIP3   OH241402   2.147   6.161   4.230
13820TIP3    H141403   2.220   6.211   4.194
13820TIP3    H241404   2.084   6.227   4.258
13821TIP3   OH241405   4.329   6.860   0.624
13821TIP3    H141406   4.348   6.775   0.584
13821TIP3    H241407   4.397   6.872   0.690
13822TIP3   OH241408   1.665   5.410   3.108
13822TIP3    H141409   1.726   5.480   3.131
13822TIP3    H241410   1.706   5.365   3.034
13823TIP3   OH241411   6.895   0.924   2.863
13823TIP3    H141412   6.843   0.875   2.928
13823TIP3    H241413   6.842   1.000   2.842
13824TIP3   OH241414   3.807   2.518   0.609
13824TIP3    H141415   3.852   2.538   0.527
13824TIP3    H241416   3.851   2.440   0.642
13825TIP3   OH241417   2.771   1.094   3.527
13825TIP3    H141418   2.833   1.167   3.530
13825TIP3    H241419   2.770   1.059   3.617
13826TIP3   OH241420   5.576   5.676   5.808
13826TIP3    H141421   5.639   5.608   5.832
13826TIP3    H241422   5.491   5.632   5.812
13827TIP3   OH241423   6.278   0.521   4.461
13827TIP3    H141424   6.217   0.452   4.436
13827TIP3    H241425   6.298   0.566   4.379
13828TIP3   OH241426   3.768   3.506   4.462
13828TIP3    H141427   3.723   3.422   4.458
13828TIP3    H241428   3.839   3.499   4.398
13829TIP3   OH241429   4.289   3.748   1.081
13829TIP3    H141430   4.320   3.771   0.993
13829TIP3    H241431   4.255   3.659   1.071
13830TIP3   OH241432   0.778   5.367   1.457
13830TIP3    H141433   0.753   5.274   1.456
13830TIP3    H241434   0.837   5.377   1.382
13831TIP3   OH241435   1.557   7.314   5.855
13831TIP3    H141436   1.518   7.401   5.844
13831TIP3    H241437   1.640   7.330   5.899
13832TIP3   OH241438   0.644   3.829   4.433
13832TIP3    H141439   0.675   3.919   4.448
13832TIP3    H241440   0.573   3.818   4.496
13833TIP3   OH241441   1.349   6.364   5.250
13833TIP3    H141442   1.258   6.389   5.235
13833TIP3    H241443   1.387   6.359   5.162
13834TIP3   OH241444   7.179   4.530   2.481
13834TIP3    H141445   7.271   4.550   2.462
13834TIP3    H241446   7.158   4.456   2.424
13835TIP3   OH241447   6.924   2.294   2.145
13835TIP3    H141448   7.014   2.294   2.177
13835TIP3    H241449   6.931   2.325   2.054
13836TIP3   OH241450   6.145   2.193   0.769
13836TIP3    H141451   6.134   2.132   0.843
13836TIP3    H241452   6.232   2.230   0.781
13837TIP3   OH241453   6.781   2.629   5.941
13837TIP3    H141454   6.860   2.670   5.906
13837TIP3    H241455   6.718   2.701   5.948
13838TIP3   OH241456   7.071   3.040   0.860
13838TIP3    H141457   7.103   3.121   0.820
13838TIP3    H241458   7.072   2.977   0.788
13839TIP3   OH241459   1.845   7.412   5.474
13839TIP3    H141460   1.863   7.501   5.444
13839TIP3    H241461   1.904   7.400   5.549
13840TIP3   OH241462   7.366   6.637   5.845
13840TIP3    H141463   7.323   6.577   5.906
13840TIP3    H241464   7.459   6.618   5.855
13841TIP3   OH241465   4.693   0.605   4.940
13841TIP3    H141466   4.757   0.537   4.958
13841TIP3    H241467   4.612   0.558   4.921
13842TIP3   OH241468   6.247   3.526   4.161
13842TIP3    H141469   6.273   3.450   4.212
13842TIP3    H241470   6.268   3.601   4.217
13843TIP3   OH241471   5.961   3.013   5.079
13843TIP3    H141472   5.900   3.073   5.036
13843TIP3    H241473   5.911   2.978   5.153
13844TIP3   OH241474   4.441   4.426   3.812
13844TIP3    H141475   4.406   4.431   3.901
13844TIP3    H241476   4.411   4.341   3.780
13845TIP3   OH241477   1.558   3.750   3.612
13845TIP3    H141478   1.463   3.748   3.619
13845TIP3    H241479   1.576   3.827   3.558
13846TIP3   OH241480   4.596   3.274   5.444
13846TIP3    H141481   4.675   3.292   5.495
13846TIP3    H241482   4.556   3.198   5.487
13847TIP3   OH241483   6.763   3.184   2.716
13847TIP3    H141484   6.729   3.136   2.641
13847TIP3    H241485   6.766   3.275   2.687
13848TIP3   OH241486   5.654   0.817   1.938
13848TIP3    H141487   5.629   0.861   2.019
13848TIP3    H241488   5.648   0.723   1.959
13849TIP3   OH241489   7.150   7.076   5.482
13849TIP3    H141490   7.159   7.069   5.577
13849TIP3    H241491   7.209   7.010   5.446
13850TIP3   OH241492   0.388   6.046   5.578
13850TIP3    H141493   0.446   6.044   5.654
13850TIP3    H241494   0.322   6.112   5.599
13851TIP3   OH241495   8.100   6.433   5.449
13851TIP3    H141496   8.167   6.498   5.429
13851TIP3    H241497   8.038   6.439   5.376
13852TIP3   OH241498   2.191   1.521   6.761
13852TIP3    H141499   2.284   1.528   6.744
13852TIP3    H241500   2.184   1.450   6.825
13853TIP3   OH241501   3.285   7.389   3.159
13853TIP3    H141502   3.194   7.419   3.154
13853TIP3    H241503   3.333   7.448   3.101
13854TIP3   OH241504   7.780   0.536   5.560
13854TIP3    H141505   7.702   0.521   5.506
13854TIP3    H241506   7.751   0.597   5.628
13855TIP3   OH241507   5.388   1.681   2.856
13855TIP3    H141508   5.369   1.774   2.869
13855TIP3    H241509   5.302   1.640   2.852
13856TIP3   OH241510   6.371   5.937   3.640
13856TIP3    H141511   6.364   6.021   3.595
13856TIP3    H241512   6.287   5.894   3.621
13857TIP3   OH241513   0.319   6.390   6.168
13857TIP3    H141514   0.409   6.362   6.186
13857TIP3    H241515   0.320   6.484   6.188
13858TIP3   OH241516   1.142   2.558   3.142
13858TIP3    H141517   1.230   2.528   3.167
13858TIP3    H241518   1.150   2.582   3.050
13859TIP3   OH241519   5.236   5.554   3.179
13859TIP3    H141520   5.222   5.590   3.266
13859TIP3    H241521   5.311   5.496   3.189
13860TIP3   OH241522   8.059   5.839   5.065
13860TIP3    H141523   8.043   5.838   5.159
13860TIP3    H241524   8.005   5.767   5.031
13861TIP3   OH241525   7.794   5.246   2.608
13861TIP3    H141526   7.766   5.201   2.688
13861TIP3    H241527   7.857   5.312   2.638
13862TIP3   OH241528   1.045   1.216   3.888
13862TIP3    H141529   0.960   1.257   3.903
13862TIP3    H241530   1.102   1.253   3.955
13863TIP3   OH241531   4.202   0.429   4.871
13863TIP3    H141532   4.156   0.507   4.900
13863TIP3    H241533   4.261   0.408   4.943
13864TIP3   OH241534   7.394   2.563   3.748
13864TIP3    H141535   7.460   2.495   3.767
13864TIP3    H241536   7.399   2.576   3.654
13865TIP3   OH241537   6.097   7.449   6.311
13865TIP3    H141538   6.093   7.486   6.400
13865TIP3    H241539   6.150   7.370   6.321
13866TIP3   OH241540   4.229   7.731   6.176
13866TIP3    H141541   4.244   7.646   6.134
13866TIP3    H241542   4.171   7.712   6.249
13867TIP3   OH241543   5.825   6.431   6.115
13867TIP3    H141544   5.741   6.477   6.123
13867TIP3    H241545   5.821   6.388   6.029
13868TIP3   OH241546   1.765   1.976   2.367
13868TIP3    H141547   1.760   1.999   2.274
13868TIP3    H241548   1.854   1.943   2.378
13869TIP3   OH241549   6.194   1.202   4.358
13869TIP3    H141550   6.196   1.238   4.269
13869TIP3    H241551   6.197   1.279   4.415
13870TIP3   OH241552   4.434   3.778   1.313
13870TIP3    H141553   4.364   3.763   1.249
13870TIP3    H241554   4.397   3.747   1.396
13871TIP3   OH241555   2.114   0.973   3.930
13871TIP3    H141556   2.053   1.047   3.926
13871TIP3    H241557   2.169   0.984   3.852
13872TIP3   OH241558   2.867   3.199   1.051
13872TIP3    H141559   2.790   3.163   1.095
13872TIP3    H241560   2.941   3.153   1.091
13873TIP3   OH241561   0.622   4.078   4.781
13873TIP3    H141562   0.573   4.029   4.847
13873TIP3    H241563   0.706   4.032   4.774
13874TIP3   OH241564   6.139   4.154   6.562
13874TIP3    H141565   6.219   4.174   6.512
13874TIP3    H241566   6.085   4.103   6.501
13875TIP3   OH241567   0.407   7.723   3.768
13875TIP3    H141568   0.398   7.733   3.863
13875TIP3    H241569   0.389   7.811   3.734
13876TIP3   OH241570   6.954   6.134   4.179
13876TIP3    H141571   6.979   6.043   4.194
13876TIP3    H241572   6.892   6.153   4.249
13877TIP3   OH241573   7.964   1.587   5.932
13877TIP3    H141574   8.010   1.605   6.015
13877TIP3    H241575   7.978   1.666   5.880
13878TIP3   OH241576   0.375   3.192   6.109
13878TIP3    H141577   0.459   3.172   6.069
13878TIP3    H241578   0.390   3.187   6.203
13879TIP3   OH241579   4.395   4.643   4.491
13879TIP3    H141580   4.307   4.605   4.495
13879TIP3    H241581   4.383   4.728   4.449
13880TIP3   OH241582   6.811   2.958   4.023
13880TIP3    H141583   6.808   2.944   4.118
13880TIP3    H241584   6.900   2.933   3.998
13881TIP3   OH241585   6.683   3.462   2.885
13881TIP3    H141586   6.742   3.523   2.929
13881TIP3    H241587   6.727   3.443   2.802
13882TIP3   OH241588   1.877   7.403   0.134
13882TIP3    H141589   1.842   7.424   0.221
13882TIP3    H241590   1.879   7.487   0.088
13883TIP3   OH241591   5.671   3.005   4.269
13883TIP3    H141592   5.612   3.030   4.198
13883TIP3    H241593   5.640   2.919   4.297
13884TIP3   OH241594   3.446   3.803   2.852
13884TIP3    H141595   3.415   3.721   2.889
13884TIP3    H241596   3.367   3.848   2.823
13885TIP3   OH241597   5.151   7.036   6.624
13885TIP3    H141598   5.171   7.076   6.709
13885TIP3    H241599   5.180   6.946   6.633
13886TIP3   OH241600   8.261   2.817   3.217
13886TIP3    H141601   8.210   2.818   3.298
13886TIP3    H241602   8.254   2.727   3.186
13887TIP3   OH241603   6.860   6.787   2.506
13887TIP3    H141604   6.917   6.863   2.505
13887TIP3    H241605   6.879   6.741   2.424
13888TIP3   OH241606   0.635   2.966   5.523
13888TIP3    H141607   0.614   3.051   5.563
13888TIP3    H241608   0.591   2.902   5.579
13889TIP3   OH241609   5.937   0.439   6.062
13889TIP3    H141610   5.896   0.517   6.100
13889TIP3    H241611   5.920   0.446   5.968
13890TIP3   OH241612   2.136   7.295   0.132
13890TIP3    H141613   2.195   7.352   0.182
13890TIP3    H241614   2.051   7.339   0.137
13891TIP3   OH241615   2.728   2.284   1.445
13891TIP3    H141616   2.674   2.331   1.509
13891TIP3    H241617   2.793   2.238   1.497
13892TIP3   OH241618   4.582   3.311   0.555
13892TIP3    H141619   4.632   3.392   0.568
13892TIP3    H241620   4.510   3.316   0.618
13893TIP3   OH241621   2.677   6.714   1.407
13893TIP3    H141622   2.707   6.804   1.422
13893TIP3    H241623   2.636   6.718   1.320
13894TIP3   OH241624   5.316   1.994   5.040
13894TIP3    H141625   5.298   2.047   5.117
13894TIP3    H241626   5.400   2.027   5.007
13895TIP3   OH241627   2.242   7.000   6.330
13895TIP3    H141628   2.199   6.992   6.415
13895TIP3    H241629   2.187   6.949   6.271
13896TIP3   OH241630   1.205   0.792   4.805
13896TIP3    H141631   1.116   0.808   4.835
13896TIP3    H241632   1.227   0.870   4.753
13897TIP3   OH241633   0.769   3.055   2.410
13897TIP3    H141634   0.777   3.051   2.505
13897TIP3    H241635   0.777   3.148   2.388
13898TIP3   OH241636   0.084   5.896   3.641
13898TIP3    H141637   0.163   5.946   3.620
13898TIP3    H241638   0.084   5.824   3.577
13899TIP3   OH241639   2.649   3.497   3.850
13899TIP3    H141640   2.617   3.524   3.764
13899TIP3    H241641   2.637   3.402   3.850
13900TIP3   OH241642   5.325   4.654   3.312
13900TIP3    H141643   5.380   4.618   3.382
13900TIP3    H241644   5.236   4.653   3.348
13901TIP3   OH241645   6.979   4.945   0.744
13901TIP3    H141646   6.917   4.908   0.806
13901TIP3    H241647   6.943   5.032   0.723
13902TIP3   OH241648   3.556   3.042   1.487
13902TIP3    H141649   3.634   3.019   1.438
13902TIP3    H241650   3.589   3.075   1.571
13903TIP3   OH241651   7.573   3.645   2.415
13903TIP3    H141652   7.632   3.707   2.373
13903TIP3    H241653   7.524   3.697   2.479
13904TIP3   OH241654   1.292   6.397   0.294
13904TIP3    H141655   1.387   6.395   0.281
13904TIP3    H241656   1.269   6.305   0.308
13905TIP3   OH241657   5.799   5.758   4.933
13905TIP3    H141658   5.887   5.757   4.971
13905TIP3    H241659   5.741   5.765   5.009
13906TIP3   OH241660   5.004   3.752   1.304
13906TIP3    H141661   4.973   3.765   1.214
13906TIP3    H241662   4.940   3.798   1.358
13907TIP3   OH241663   0.502   7.734   3.239
13907TIP3    H141664   0.425   7.685   3.269
13907TIP3    H241665   0.533   7.779   3.318
13908TIP3   OH241666   3.416   7.720   0.203
13908TIP3    H141667   3.353   7.790   0.223
13908TIP3    H241668   3.501   7.763   0.207
13909TIP3   OH241669   0.396   7.336   5.415
13909TIP3    H141670   0.425   7.267   5.476
13909TIP3    H241671   0.458   7.407   5.429
13910TIP3   OH241672   1.200   4.801   4.322
13910TIP3    H141673   1.147   4.792   4.243
13910TIP3    H241674   1.191   4.893   4.346
13911TIP3   OH241675   6.755   7.091   3.032
13911TIP3    H141676   6.666   7.058   3.043
13911TIP3    H241677   6.770   7.087   2.937
13912TIP3   OH241678   2.319   3.364   3.091
13912TIP3    H141679   2.358   3.336   3.174
13912TIP3    H241680   2.347   3.455   3.082
13913TIP3   OH241681   6.290   5.235   6.104
13913TIP3    H141682   6.374   5.278   6.121
13913TIP3    H241683   6.296   5.153   6.152
13914TIP3   OH241684   5.898   4.172   2.176
13914TIP3    H141685   5.883   4.078   2.187
13914TIP3    H241686   5.935   4.201   2.260
13915TIP3   OH241687   6.470   7.690   1.595
13915TIP3    H141688   6.398   7.654   1.543
13915TIP3    H241689   6.430   7.757   1.649
13916TIP3   OH241690   6.093   5.672   5.445
13916TIP3    H141691   6.152   5.710   5.380
13916TIP3    H241692   6.149   5.654   5.520
13917TIP3   OH241693   5.198   4.365   6.423
13917TIP3    H141694   5.211   4.458   6.444
13917TIP3    H241695   5.118   4.364   6.370
13918TIP3   OH241696   3.316   6.202   0.795
13918TIP3    H141697   3.391   6.154   0.829
13918TIP3    H241698   3.270   6.234   0.873
13919TIP3   OH241699   7.135   1.493   0.403
13919TIP3    H141700   7.181   1.457   0.479
13919TIP3    H241701   7.043   1.492   0.429
13920TIP3   OH241702   3.343   6.610   3.861
13920TIP3    H141703   3.282   6.628   3.933
13920TIP3    H241704   3.417   6.566   3.903
13921TIP3   OH241705   5.700   4.818   2.019
13921TIP3    H141706   5.777   4.875   2.020
13921TIP3    H241707   5.643   4.856   1.952
13922TIP3   OH241708   4.229   6.023   5.893
13922TIP3    H141709   4.226   6.088   5.823
13922TIP3    H241710   4.313   6.040   5.938
13923TIP3   OH241711   1.672   5.308   6.687
13923TIP3    H141712   1.726   5.299   6.609
13923TIP3    H241713   1.730   5.285   6.760
13924TIP3   OH241714   6.978   7.583   6.350
13924TIP3    H141715   6.922   7.505   6.347
13924TIP3    H241716   7.047   7.561   6.413
13925TIP3   OH241717  -0.048   6.423   1.578
13925TIP3    H141718   0.024   6.365   1.602
13925TIP3    H241719  -0.013   6.511   1.591
13926TIP3   OH241720   7.031   3.216   5.934
13926TIP3    H141721   6.951   3.227   5.985
13926TIP3    H241722   7.004   3.226   5.843
13927TIP3   OH241723   5.426   4.691   2.955
13927TIP3    H141724   5.409   4.785   2.953
13927TIP3    H241725   5.366   4.657   3.022
13928TIP3   OH241726   6.950   4.300   5.960
13928TIP3    H141727   6.951   4.281   5.866
13928TIP3    H241728   6.859   4.323   5.979
13929TIP3   OH241729   4.768   3.919   2.915
13929TIP3    H141730   4.791   3.950   3.002
13929TIP3    H241731   4.759   3.999   2.862
13930TIP3   OH241732   6.705   4.782   5.985
13930TIP3    H141733   6.630   4.829   6.020
13930TIP3    H241734   6.772   4.849   5.973
13931TIP3   OH241735   2.859   0.181   3.812
13931TIP3    H141736   2.850   0.245   3.883
13931TIP3    H241737   2.921   0.221   3.751
13932TIP3   OH241738   4.432   0.122   2.502
13932TIP3    H141739   4.364   0.116   2.569
13932TIP3    H241740   4.404   0.062   2.433
13933TIP3   OH241741   3.023   2.249   1.039
13933TIP3    H141742   3.026   2.207   1.125
13933TIP3    H241743   3.017   2.176   0.977
13934TIP3   OH241744   7.187   4.917   4.254
13934TIP3    H141745   7.240   4.840   4.235
13934TIP3    H241746   7.169   4.956   4.168
13935TIP3   OH241747   0.038   6.518   4.265
13935TIP3    H141748   0.108   6.458   4.238
13935TIP3    H241749   0.057   6.537   4.357
13936TIP3   OH241750   2.817   6.467   3.974
13936TIP3    H141751   2.852   6.552   3.948
13936TIP3    H241752   2.876   6.403   3.933
13937TIP3   OH241753   4.732   5.536   6.130
13937TIP3    H141754   4.706   5.626   6.108
13937TIP3    H241755   4.798   5.514   6.066
13938TIP3   OH241756   2.401   0.776   1.038
13938TIP3    H141757   2.398   0.852   0.980
13938TIP3    H241758   2.337   0.796   1.107
13939TIP3   OH241759   7.736   2.858   0.980
13939TIP3    H141760   7.712   2.828   1.068
13939TIP3    H241761   7.828   2.882   0.987
13940TIP3   OH241762   2.204   5.017   3.080
13940TIP3    H141763   2.251   4.934   3.083
13940TIP3    H241764   2.111   4.993   3.085
13941TIP3   OH241765   2.653   0.491   2.830
13941TIP3    H141766   2.690   0.570   2.790
13941TIP3    H241767   2.570   0.519   2.867
13942TIP3   OH241768   5.872   3.935   4.342
13942TIP3    H141769   5.861   3.840   4.349
13942TIP3    H241770   5.918   3.959   4.423
13943TIP3   OH241771   6.081   5.196   1.694
13943TIP3    H141772   6.095   5.131   1.624
13943TIP3    H241773   6.127   5.274   1.664
13944TIP3   OH241774   1.256   4.781   2.063
13944TIP3    H141775   1.334   4.727   2.048
13944TIP3    H241776   1.199   4.763   1.989
13945TIP3   OH241777   3.165   2.580   0.475
13945TIP3    H141778   3.103   2.636   0.428
13945TIP3    H241779   3.242   2.636   0.489
13946TIP3   OH241780   0.438   6.541   4.712
13946TIP3    H141781   0.453   6.454   4.749
13946TIP3    H241782   0.520   6.588   4.727
13947TIP3   OH241783   3.788   6.093   0.996
13947TIP3    H141784   3.824   6.125   1.079
13947TIP3    H241785   3.848   6.126   0.929
13948TIP3   OH241786   6.625   7.467   0.850
13948TIP3    H141787   6.720   7.476   0.850
13948TIP3    H241788   6.598   7.492   0.938
13949TIP3   OH241789   8.080   4.239   5.649
13949TIP3    H141790   8.142   4.236   5.722
13949TIP3    H241791   8.010   4.298   5.679
13950TIP3   OH241792   0.812   5.198   2.546
13950TIP3    H141793   0.746   5.129   2.548
13950TIP3    H241794   0.779   5.261   2.481
13951TIP3   OH241795   1.773   4.884   2.673
13951TIP3    H141796   1.726   4.868   2.590
13951TIP3    H241797   1.865   4.878   2.649
13952TIP3   OH241798   2.218   2.676   1.783
13952TIP3    H141799   2.131   2.664   1.746
13952TIP3    H241800   2.248   2.759   1.746
13953TIP3   OH241801   3.711   2.448   5.637
13953TIP3    H141802   3.762   2.474   5.561
13953TIP3    H241803   3.640   2.395   5.602
13954TIP3   OH241804   1.426   3.853   0.029
13954TIP3    H141805   1.445   3.852   0.123
13954TIP3    H241806   1.350   3.910   0.020
13955TIP3   OH241807   4.026   2.713   2.793
13955TIP3    H141808   4.072   2.693   2.711
13955TIP3    H241809   3.958   2.776   2.767
13956TIP3   OH241810   6.797   5.917   1.667
13956TIP3    H141811   6.888   5.923   1.639
13956TIP3    H241812   6.753   5.868   1.598
13957TIP3   OH241813   6.525   6.544   6.535
13957TIP3    H141814   6.500   6.470   6.479
13957TIP3    H241815   6.467   6.615   6.507
13958TIP3   OH241816   7.528   3.562   3.921
13958TIP3    H141817   7.616   3.527   3.910
13958TIP3    H241818   7.541   3.647   3.963
13959TIP3   OH241819   4.689   4.728   2.048
13959TIP3    H141820   4.729   4.676   1.978
13959TIP3    H241821   4.671   4.665   2.118
13960TIP3   OH241822   0.760   6.244   4.816
13960TIP3    H141823   0.702   6.281   4.749
13960TIP3    H241824   0.781   6.156   4.783
13961TIP3   OH241825   0.987   7.002   0.360
13961TIP3    H141826   1.032   7.039   0.284
13961TIP3    H241827   0.894   7.004   0.336
13962TIP3   OH241828   2.180   6.095   0.273
13962TIP3    H141829   2.135   6.021   0.232
13962TIP3    H241830   2.138   6.172   0.234
13963TIP3   OH241831   0.503   5.258   6.011
13963TIP3    H141832   0.416   5.250   6.049
13963TIP3    H241833   0.537   5.341   6.047
13964TIP3   OH241834   5.889   1.995   5.904
13964TIP3    H141835   5.965   2.026   5.854
13964TIP3    H241836   5.831   2.071   5.908
13965TIP3   OH241837   7.619   4.357   4.041
13965TIP3    H141838   7.547   4.364   3.978
13965TIP3    H241839   7.687   4.307   3.995
13966TIP3   OH241840   4.635   2.134   6.306
13966TIP3    H141841   4.652   2.046   6.272
13966TIP3    H241842   4.705   2.188   6.269
13967TIP3   OH241843   3.174   0.958   4.768
13967TIP3    H141844   3.093   0.932   4.811
13967TIP3    H241845   3.197   1.041   4.810
13968TIP3   OH241846   1.537   4.281   3.628
13968TIP3    H141847   1.477   4.294   3.701
13968TIP3    H241848   1.487   4.232   3.563
13969TIP3   OH241849   2.617   5.711   2.322
13969TIP3    H141850   2.663   5.793   2.306
13969TIP3    H241851   2.651   5.651   2.255
13970TIP3   OH241852   7.949   0.729   2.563
13970TIP3    H141853   7.863   0.702   2.533
13970TIP3    H241854   7.932   0.794   2.631
13971TIP3   OH241855   7.492   0.807   3.139
13971TIP3    H141856   7.496   0.727   3.190
13971TIP3    H241857   7.584   0.831   3.124
13972TIP3   OH241858   1.666   6.003   2.532
13972TIP3    H141859   1.667   5.995   2.627
13972TIP3    H241860   1.596   5.943   2.504
13973TIP3   OH241861   6.578   1.091   5.188
13973TIP3    H141862   6.668   1.114   5.165
13973TIP3    H241863   6.537   1.065   5.106
13974TIP3   OH241864   0.163   4.396   1.956
13974TIP3    H141865   0.119   4.446   1.887
13974TIP3    H241866   0.095   4.380   2.022
13975TIP3   OH241867   4.382   2.473   5.270
13975TIP3    H141868   4.464   2.522   5.269
13975TIP3    H241869   4.397   2.399   5.211
13976TIP3   OH241870   2.390   7.160   4.081
13976TIP3    H141871   2.454   7.134   4.015
13976TIP3    H241872   2.305   7.134   4.044
13977TIP3   OH241873   7.545   1.150   0.283
13977TIP3    H141874   7.572   1.146   0.191
13977TIP3    H241875   7.563   1.062   0.317
13978TIP3   OH241876   7.531   2.062   0.820
13978TIP3    H141877   7.452   2.076   0.768
13978TIP3    H241878   7.568   1.980   0.786
13979TIP3   OH241879   5.091   2.133   1.546
13979TIP3    H141880   5.111   2.120   1.639
13979TIP3    H241881   5.089   2.228   1.535
13980TIP3   OH241882   2.798   6.664   3.738
13980TIP3    H141883   2.778   6.713   3.817
13980TIP3    H241884   2.716   6.665   3.688
13981TIP3   OH241885   3.799   4.413   5.106
13981TIP3    H141886   3.787   4.503   5.076
13981TIP3    H241887   3.851   4.372   5.036
13982TIP3   OH241888   6.912   3.054   3.747
13982TIP3    H141889   6.998   3.073   3.710
13982TIP3    H241890   6.889   2.968   3.712
13983TIP3   OH241891   5.386   5.697   0.792
13983TIP3    H141892   5.424   5.656   0.714
13983TIP3    H241893   5.314   5.639   0.817
13984TIP3   OH241894   3.099   6.208   1.015
13984TIP3    H141895   3.060   6.175   1.096
13984TIP3    H241896   3.048   6.286   0.993
13985TIP3   OH241897   0.655   3.286   4.921
13985TIP3    H141898   0.567   3.250   4.912
13985TIP3    H241899   0.662   3.311   5.013
13986TIP3   OH241900   0.213   1.671   4.099
13986TIP3    H141901   0.131   1.721   4.097
13986TIP3    H241902   0.269   1.715   4.035
13987TIP3   OH241903   1.608   3.876   5.247
13987TIP3    H141904   1.604   3.860   5.341
13987TIP3    H241905   1.687   3.929   5.235
13988TIP3   OH241906   6.709   0.838   0.359
13988TIP3    H141907   6.638   0.802   0.412
13988TIP3    H241908   6.782   0.846   0.420
13989TIP3   OH241909   8.040   5.496   0.875
13989TIP3    H141910   8.093   5.511   0.954
13989TIP3    H241911   8.059   5.406   0.850
13990TIP3   OH241912   7.082   4.628   1.108
13990TIP3    H141913   7.098   4.652   1.199
13990TIP3    H241914   7.024   4.552   1.113
13991TIP3   OH241915   2.964   6.715   6.625
13991TIP3    H141916   2.950   6.730   6.532
13991TIP3    H241917   2.942   6.799   6.667
13992TIP3   OH241918   5.549   2.372   0.837
13992TIP3    H141919   5.466   2.395   0.879
13992TIP3    H241920   5.544   2.415   0.751
13993TIP3   OH241921   1.162   7.339   5.826
13993TIP3    H141922   1.183   7.247   5.839
13993TIP3    H241923   1.198   7.360   5.740
13994TIP3   OH241924   7.981   2.415   5.694
13994TIP3    H141925   8.011   2.328   5.669
13994TIP3    H241926   8.013   2.427   5.784
13995TIP3   OH241927   4.520   0.767   0.060
13995TIP3    H141928   4.474   0.706   0.003
13995TIP3    H241929   4.512   0.729   0.148
13996TIP3   OH241930   6.956   1.707   1.098
13996TIP3    H141931   7.014   1.633   1.082
13996TIP3    H241932   6.884   1.695   1.037
13997TIP3   OH241933   4.290   1.534   3.500
13997TIP3    H141934   4.350   1.482   3.553
13997TIP3    H241935   4.203   1.507   3.527
13998TIP3   OH241936   6.450   6.850   6.285
13998TIP3    H141937   6.542   6.858   6.308
13998TIP3    H241938   6.418   6.779   6.340
13999TIP3   OH241939   6.828   6.494   5.716
13999TIP3    H141940   6.799   6.585   5.713
13999TIP3    H241941   6.918   6.497   5.682
14000TIP3   OH241942   2.270   0.776   0.682
14000TIP3    H141943   2.184   0.786   0.723
14000TIP3    H241944   2.281   0.854   0.628
14001TIP3   OH241945   0.470   6.306   4.892
14001TIP3    H141946   0.516   6.300   4.976
14001TIP3    H241947   0.438   6.218   4.876
14002TIP3   OH241948   1.733   2.004   1.284
14002TIP3    H141949   1.698   2.055   1.212
14002TIP3    H241950   1.822   2.037   1.296
14003TIP3   OH241951   3.359   4.589   1.469
14003TIP3    H141952   3.394   4.579   1.380
14003TIP3    H241953   3.376   4.505   1.511
14004TIP3   OH241954   5.041   6.833   3.432
14004TIP3    H141955   5.056   6.740   3.419
14004TIP3    H241956   5.127   6.869   3.451
14005TIP3   OH241957   5.784   0.714   4.575
14005TIP3    H141958   5.850   0.766   4.622
14005TIP3    H241959   5.779   0.632   4.624
14006TIP3   OH241960   0.963   2.778   4.006
14006TIP3    H141961   1.042   2.725   4.011
14006TIP3    H241962   0.991   2.861   3.967
14007TIP3   OH241963   4.480   6.330   3.655
14007TIP3    H141964   4.572   6.312   3.631
14007TIP3    H241965   4.471   6.294   3.743
14008TIP3   OH241966   2.320   6.573   3.240
14008TIP3    H141967   2.381   6.538   3.176
14008TIP3    H241968   2.233   6.545   3.209
14009TIP3   OH241969   6.227   3.622   5.484
14009TIP3    H141970   6.145   3.593   5.524
14009TIP3    H241971   6.250   3.701   5.531
14010TIP3   OH241972   4.564   7.317   3.822
14010TIP3    H141973   4.653   7.286   3.811
14010TIP3    H241974   4.574   7.410   3.842
14011TIP3   OH241975   7.839   5.889   2.817
14011TIP3    H141976   7.904   5.923   2.755
14011TIP3    H241977   7.806   5.809   2.775
14012TIP3   OH241978   7.609   1.281   1.876
14012TIP3    H141979   7.582   1.279   1.968
14012TIP3    H241980   7.649   1.367   1.865
14013TIP3   OH241981   1.152   2.001   0.877
14013TIP3    H141982   1.160   2.002   0.782
14013TIP3    H241983   1.231   1.956   0.907
14014TIP3   OH241984   5.178   2.097   4.822
14014TIP3    H141985   5.271   2.119   4.815
14014TIP3    H241986   5.164   2.083   4.916
14015TIP3   OH241987   1.924   1.497   2.922
14015TIP3    H141988   1.837   1.537   2.920
14015TIP3    H241989   1.979   1.556   2.871
14016TIP3   OH241990   7.811   5.053   2.813
14016TIP3    H141991   7.730   5.031   2.767
14016TIP3    H241992   7.811   4.995   2.889
14017TIP3   OH241993   3.553   2.912   5.460
14017TIP3    H141994   3.521   2.974   5.394
14017TIP3    H241995   3.647   2.905   5.442
14018TIP3   OH241996   1.107   6.662   2.437
14018TIP3    H141997   1.102   6.604   2.361
14018TIP3    H241998   1.193   6.645   2.474
14019TIP3   OH241999   2.601   3.627   6.453
14019TIP3    H142000   2.507   3.610   6.465
14019TIP3    H242001   2.610   3.720   6.471
14020TIP3   OH242002   5.632   5.942   5.655
14020TIP3    H142003   5.562   6.000   5.684
14020TIP3    H242004   5.590   5.882   5.593
14021TIP3   OH242005   1.954   4.645   1.357
14021TIP3    H142006   1.864   4.672   1.339
14021TIP3    H242007   1.962   4.561   1.312
14022TIP3   OH242008   3.841   4.846   0.465
14022TIP3    H142009   3.932   4.826   0.442
14022TIP3    H242010   3.799   4.761   0.475
14023TIP3   OH242011   3.530   5.151   4.391
14023TIP3    H142012   3.558   5.161   4.482
14023TIP3    H242013   3.435   5.148   4.395
14024TIP3   OH242014   5.438   3.711   1.468
14024TIP3    H142015   5.425   3.806   1.474
14024TIP3    H242016   5.353   3.673   1.488
14025TIP3   OH242017   6.278   6.113   6.441
14025TIP3    H142018   6.212   6.143   6.378
14025TIP3    H242019   6.235   6.125   6.526
14026TIP3   OH242020   0.760   0.551   5.507
14026TIP3    H142021   0.783   0.629   5.458
14026TIP3    H242022   0.680   0.575   5.554
14027TIP3   OH242023   6.044   0.268   0.713
14027TIP3    H142024   5.999   0.221   0.783
14027TIP3    H242025   5.991   0.254   0.635
14028TIP3   OH242026   5.696   5.015   6.083
14028TIP3    H142027   5.655   4.948   6.138
14028TIP3    H242028   5.698   4.976   5.996
14029TIP3   OH242029   7.787   4.382   3.658
14029TIP3    H142030   7.738   4.464   3.657
14029TIP3    H242031   7.773   4.345   3.571
14030TIP3   OH242032   7.503   2.342   2.319
14030TIP3    H142033   7.455   2.355   2.400
14030TIP3    H242034   7.443   2.369   2.250
14031TIP3   OH242035   1.288   0.866   3.807
14031TIP3    H142036   1.311   0.781   3.843
14031TIP3    H242037   1.357   0.886   3.744
14032TIP3   OH242038   6.495   5.349   4.905
14032TIP3    H142039   6.467   5.300   4.827
14032TIP3    H242040   6.480   5.440   4.882
14033TIP3   OH242041   7.360   1.328   1.337
14033TIP3    H142042   7.365   1.268   1.262
14033TIP3    H242043   7.268   1.352   1.343
14034TIP3   OH242044   5.719   6.122   4.786
14034TIP3    H142045   5.744   6.111   4.877
14034TIP3    H242046   5.630   6.158   4.789
14035TIP3   OH242047   5.447   6.976   5.554
14035TIP3    H142048   5.354   6.954   5.544
14035TIP3    H242049   5.447   7.064   5.591
14036TIP3   OH242050   5.731   7.713   0.980
14036TIP3    H142051   5.777   7.630   0.970
14036TIP3    H242052   5.703   7.735   0.891
14037TIP3   OH242053   4.458   5.808   2.511
14037TIP3    H142054   4.419   5.895   2.505
14037TIP3    H242055   4.506   5.797   2.430
14038TIP3   OH242056   1.739   4.646   5.511
14038TIP3    H142057   1.665   4.694   5.548
14038TIP3    H242058   1.715   4.554   5.521
14039TIP3   OH242059   2.092   5.814   0.198
14039TIP3    H142060   2.172   5.775   0.164
14039TIP3    H242061   2.033   5.739   0.211
14040TIP3   OH242062   5.283   6.997   6.045
14040TIP3    H142063   5.302   7.069   5.984
14040TIP3    H242064   5.248   7.041   6.123
14041TIP3   OH242065   7.422   2.248   6.386
14041TIP3    H142066   7.468   2.300   6.453
14041TIP3    H242067   7.445   2.291   6.304
14042TIP3   OH242068   1.589   2.294   1.687
14042TIP3    H142069   1.616   2.212   1.647
14042TIP3    H242070   1.565   2.351   1.613
14043TIP3   OH242071   5.162   4.850   1.911
14043TIP3    H142072   5.150   4.945   1.909
14043TIP3    H242073   5.073   4.814   1.905
14044TIP3   OH242074   0.879   3.763   1.006
14044TIP3    H142075   0.786   3.747   0.990
14044TIP3    H242076   0.893   3.853   0.978
14045TIP3   OH242077   0.381   2.320   5.780
14045TIP3    H142078   0.361   2.367   5.860
14045TIP3    H242079   0.323   2.244   5.782
14046TIP3   OH242080   7.786   3.795   5.206
14046TIP3    H142081   7.790   3.699   5.210
14046TIP3    H242082   7.771   3.821   5.297
14047TIP3   OH242083   2.077   7.565   0.933
14047TIP3    H142084   2.111   7.616   1.006
14047TIP3    H242085   2.118   7.603   0.855
14048TIP3   OH242086   6.051   6.672   1.565
14048TIP3    H142087   6.064   6.725   1.486
14048TIP3    H242088   6.120   6.606   1.561
14049TIP3   OH242089   0.254   5.868   5.195
14049TIP3    H142090   0.166   5.836   5.176
14049TIP3    H242091   0.312   5.795   5.172
14050TIP3   OH242092   0.051   4.000   0.140
14050TIP3    H142093   0.031   3.999   0.046
14050TIP3    H242094  -0.034   4.008   0.183
14051TIP3   OH242095   4.314   2.086   5.685
14051TIP3    H142096   4.407   2.106   5.691
14051TIP3    H242097   4.277   2.157   5.633
14052TIP3   OH242098   5.858   4.392   4.688
14052TIP3    H142099   5.843   4.410   4.595
14052TIP3    H242100   5.936   4.337   4.689
14053TIP3   OH242101   2.070   2.394   1.389
14053TIP3    H142102   2.164   2.385   1.397
14053TIP3    H242103   2.057   2.477   1.342
14054TIP3   OH242104   2.387   2.533   3.567
14054TIP3    H142105   2.448   2.480   3.618
14054TIP3    H242106   2.384   2.617   3.614
14055TIP3   OH242107   5.753   3.940   3.259
14055TIP3    H142108   5.809   4.007   3.299
14055TIP3    H242109   5.720   3.889   3.333
14056TIP3   OH242110   4.303   3.953   5.321
14056TIP3    H142111   4.309   4.005   5.241
14056TIP3    H242112   4.386   3.906   5.326
14057TIP3   OH242113   5.294   6.240   2.504
14057TIP3    H142114   5.317   6.201   2.589
14057TIP3    H242115   5.325   6.177   2.440
14058TIP3   OH242116   2.562   2.649   5.178
14058TIP3    H142117   2.651   2.625   5.155
14058TIP3    H242118   2.547   2.610   5.264
14059TIP3   OH242119   2.937   0.027   5.419
14059TIP3    H142120   2.956   0.065   5.504
14059TIP3    H242121   2.864   0.079   5.385
14060TIP3   OH242122   3.964   2.539   5.866
14060TIP3    H142123   3.869   2.541   5.856
14060TIP3    H242124   3.996   2.605   5.804
14061TIP3   OH242125   6.225   1.240   1.075
14061TIP3    H142126   6.205   1.161   1.125
14061TIP3    H242127   6.218   1.311   1.138
14062TIP3   OH242128   1.885   2.504   5.259
14062TIP3    H142129   1.957   2.550   5.302
14062TIP3    H242130   1.927   2.433   5.211
14063TIP3   OH242131   4.681   3.358   4.652
14063TIP3    H142132   4.599   3.385   4.693
14063TIP3    H242133   4.655   3.288   4.592
14064TIP3   OH242134   6.120   5.520   1.781
14064TIP3    H142135   6.067   5.507   1.859
14064TIP3    H242136   6.061   5.561   1.718
14065TIP3   OH242137   4.074   2.732   4.130
14065TIP3    H142138   3.981   2.707   4.127
14065TIP3    H242139   4.106   2.716   4.041
14066TIP3   OH242140   3.328   0.379   5.276
14066TIP3    H142141   3.304   0.437   5.203
14066TIP3    H242142   3.386   0.432   5.331
14067TIP3   OH242143   3.530   7.240   6.551
14067TIP3    H142144   3.543   7.262   6.459
14067TIP3    H242145   3.435   7.233   6.561
14068TIP3   OH242146   5.157   0.555   3.711
14068TIP3    H142147   5.131   0.623   3.648
14068TIP3    H242148   5.251   0.570   3.724
14069TIP3   OH242149   2.359   3.442   3.379
14069TIP3    H142150   2.346   3.430   3.474
14069TIP3    H242151   2.450   3.470   3.371
14070TIP3   OH242152   3.066   0.755   5.694
14070TIP3    H142153   3.117   0.682   5.728
14070TIP3    H242154   2.978   0.718   5.680
14071TIP3   OH242155   5.530   0.412   4.179
14071TIP3    H142156   5.521   0.422   4.274
14071TIP3    H242157   5.599   0.347   4.168
14072TIP3   OH242158   5.407   5.844   2.865
14072TIP3    H142159   5.476   5.792   2.824
14072TIP3    H242160   5.329   5.788   2.860
14073TIP3   OH242161   3.776   2.926   1.720
14073TIP3    H142162   3.751   2.851   1.667
14073TIP3    H242163   3.871   2.925   1.720
14074TIP3   OH242164   4.452   6.500   2.233
14074TIP3    H142165   4.495   6.516   2.317
14074TIP3    H242166   4.523   6.501   2.169
14075TIP3   OH242167   4.764   7.591   4.837
14075TIP3    H142168   4.853   7.623   4.852
14075TIP3    H242169   4.763   7.564   4.745
14076TIP3   OH242170   6.265   5.071   0.470
14076TIP3    H142171   6.255   5.064   0.375
14076TIP3    H242172   6.183   5.110   0.500
14077TIP3   OH242173   8.071   0.864   4.163
14077TIP3    H142174   8.084   0.930   4.231
14077TIP3    H242175   7.978   0.872   4.139
14078TIP3   OH242176   5.977   5.730   6.732
14078TIP3    H142177   5.925   5.723   6.652
14078TIP3    H242178   6.054   5.781   6.706
14079TIP3   OH242179   6.055   0.547   4.907
14079TIP3    H142180   5.971   0.505   4.886
14079TIP3    H242181   6.030   0.628   4.952
14080TIP3   OH242182   3.500   2.449   0.492
14080TIP3    H142183   3.462   2.534   0.517
14080TIP3    H242184   3.591   2.470   0.470
14081TIP3   OH242185   3.797   2.598   4.161
14081TIP3    H142186   3.850   2.521   4.180
14081TIP3    H242187   3.816   2.619   4.069
14082TIP3   OH242188   5.299   1.454   3.389
14082TIP3    H142189   5.218   1.405   3.407
14082TIP3    H242190   5.341   1.464   3.474
14083TIP3   OH242191   3.954   2.714   6.202
14083TIP3    H142192   3.967   2.710   6.296
14083TIP3    H242193   3.951   2.622   6.174
14084TIP3   OH242194   0.698   1.050   1.057
14084TIP3    H142195   0.619   1.104   1.053
14084TIP3    H242196   0.757   1.089   0.992
14085TIP3   OH242197   2.655   6.640   6.705
14085TIP3    H142198   2.710   6.706   6.746
14085TIP3    H242199   2.569   6.653   6.745
14086TIP3   OH242200   4.095   1.228   2.642
14086TIP3    H142201   4.015   1.178   2.660
14086TIP3    H242202   4.106   1.223   2.547
14087TIP3   OH242203   3.237   2.611   4.950
14087TIP3    H142204   3.321   2.655   4.965
14087TIP3    H242205   3.242   2.531   5.001
14088TIP3   OH242206   0.314   6.809   5.334
14088TIP3    H142207   0.259   6.745   5.380
14088TIP3    H242208   0.389   6.821   5.391
14089TIP3   OH242209   6.773   7.101   6.200
14089TIP3    H142210   6.792   7.015   6.239
14089TIP3    H242211   6.679   7.099   6.184
14090TIP3   OH242212   1.806   2.787   3.822
14090TIP3    H142213   1.779   2.879   3.821
14090TIP3    H242214   1.880   2.783   3.762
14091TIP3   OH242215   1.774   1.351   1.962
14091TIP3    H142216   1.684   1.385   1.964
14091TIP3    H242217   1.798   1.354   1.870
14092TIP3   OH242218   6.229   2.725   0.450
14092TIP3    H142219   6.262   2.717   0.360
14092TIP3    H242220   6.279   2.661   0.500
14093TIP3   OH242221   7.172   6.431   0.906
14093TIP3    H142222   7.088   6.463   0.875
14093TIP3    H242223   7.151   6.385   0.988
14094TIP3   OH242224   7.831   2.499   6.454
14094TIP3    H142225   7.893   2.506   6.527
14094TIP3    H242226   7.840   2.409   6.424
14095TIP3   OH242227   1.747   2.512   2.949
14095TIP3    H142228   1.692   2.562   3.009
14095TIP3    H242229   1.757   2.427   2.991
14096TIP3   OH242230   4.876   0.626   0.539
14096TIP3    H142231   4.841   0.709   0.508
14096TIP3    H242232   4.966   0.647   0.565
14097TIP3   OH242233   5.126   6.349   2.298
14097TIP3    H142234   5.124   6.443   2.310
14097TIP3    H242235   5.174   6.316   2.375
14098TIP3   OH242236   0.851   2.581   2.716
14098TIP3    H142237   0.845   2.541   2.803
14098TIP3    H242238   0.776   2.640   2.712
14099TIP3   OH242239   0.098   1.389   1.462
14099TIP3    H142240   0.182   1.411   1.503
14099TIP3    H242241   0.102   1.295   1.449
14100TIP3   OH242242   7.848   2.339   3.321
14100TIP3    H142243   7.873   2.274   3.255
14100TIP3    H242244   7.752   2.336   3.321
14101TIP3   OH242245   7.790   1.512   0.355
14101TIP3    H142246   7.859   1.449   0.334
14101TIP3    H242247   7.711   1.459   0.363
14102TIP3   OH242248   3.014   0.163   0.453
14102TIP3    H142249   3.056   0.186   0.370
14102TIP3    H242250   2.983   0.074   0.441
14103TIP3   OH242251   5.304   5.130   4.830
14103TIP3    H142252   5.209   5.126   4.819
14103TIP3    H242253   5.316   5.151   4.923
14104TIP3   OH242254   2.343   4.696   4.917
14104TIP3    H142255   2.395   4.744   4.982
14104TIP3    H242256   2.253   4.711   4.943
14105TIP3   OH242257   1.193   6.126   0.339
14105TIP3    H142258   1.142   6.123   0.419
14105TIP3    H242259   1.238   6.042   0.336
14106TIP3   OH242260   3.731   3.464   2.340
14106TIP3    H142261   3.735   3.383   2.390
14106TIP3    H242262   3.644   3.500   2.357
14107TIP3   OH242263   0.560   7.150   3.856
14107TIP3    H142264   0.623   7.128   3.925
14107TIP3    H242265   0.607   7.210   3.798
14108TIP3   OH242266   1.032   7.265   0.968
14108TIP3    H142267   0.943   7.237   0.988
14108TIP3    H242268   1.021   7.327   0.896
14109TIP3   OH242269   1.207   7.711   4.785
14109TIP3    H142270   1.214   7.752   4.872
14109TIP3    H242271   1.204   7.617   4.803
14110TIP3   OH242272   6.120   2.884   6.135
14110TIP3    H142273   6.047   2.938   6.106
14110TIP3    H242274   6.130   2.818   6.066
14111TIP3   OH242275   1.624   5.568   5.569
14111TIP3    H142276   1.663   5.555   5.483
14111TIP3    H242277   1.610   5.662   5.575
14112TIP3   OH242278   4.436   1.086   5.689
14112TIP3    H142279   4.363   1.086   5.627
14112TIP3    H242280   4.424   1.165   5.741
14113TIP3   OH242281   5.510   3.967   0.389
14113TIP3    H142282   5.562   3.968   0.308
14113TIP3    H242283   5.462   3.884   0.385
14114TIP3   OH242284   1.654   4.925   0.366
14114TIP3    H142285   1.650   4.935   0.461
14114TIP3    H242286   1.624   5.009   0.331
14115TIP3   OH242287   6.959   1.524   0.737
14115TIP3    H142288   7.033   1.488   0.786
14115TIP3    H242289   6.980   1.616   0.725
14116TIP3   OH242290   5.204   6.906   1.373
14116TIP3    H142291   5.124   6.885   1.325
14116TIP3    H242292   5.186   6.993   1.410
14117TIP3   OH242293   6.164   0.440   4.031
14117TIP3    H142294   6.207   0.478   4.107
14117TIP3    H242295   6.232   0.390   3.987
14118TIP3   OH242296   5.057   5.599   5.266
14118TIP3    H142297   5.073   5.617   5.173
14118TIP3    H242298   4.990   5.530   5.266
14119TIP3   OH242299   6.605   6.468   1.219
14119TIP3    H142300   6.674   6.485   1.283
14119TIP3    H242301   6.590   6.553   1.178
14120TIP3   OH242302   1.397   4.371   3.002
14120TIP3    H142303   1.310   4.335   3.019
14120TIP3    H242304   1.428   4.321   2.926
14121TIP3   OH242305   0.227   7.075   1.349
14121TIP3    H142306   0.319   7.093   1.331
14121TIP3    H242307   0.197   7.152   1.397
14122TIP3   OH242308   7.394   5.753   2.359
14122TIP3    H142309   7.459   5.818   2.333
14122TIP3    H242310   7.311   5.787   2.324
14123TIP3   OH242311   7.717   3.130   4.726
14123TIP3    H142312   7.779   3.069   4.767
14123TIP3    H242313   7.757   3.152   4.642
14124TIP3   OH242314   8.134   3.952   1.791
14124TIP3    H142315   8.084   4.034   1.792
14124TIP3    H242316   8.210   3.969   1.847
14125TIP3   OH242317   3.368   0.493   2.820
14125TIP3    H142318   3.426   0.514   2.892
14125TIP3    H242319   3.374   0.568   2.760
14126TIP3   OH242320   2.965   0.338   6.188
14126TIP3    H142321   2.898   0.370   6.128
14126TIP3    H242322   2.973   0.406   6.255
14127TIP3   OH242323   5.583   6.913   0.414
14127TIP3    H142324   5.601   6.942   0.503
14127TIP3    H242325   5.491   6.887   0.415
14128TIP3   OH242326   0.929   3.206   0.492
14128TIP3    H142327   0.911   3.197   0.585
14128TIP3    H242328   0.913   3.119   0.455
14129TIP3   OH242329   2.172   3.057   1.228
14129TIP3    H142330   2.111   2.983   1.225
14129TIP3    H242331   2.154   3.100   1.311
14130TIP3   OH242332   4.715   0.248   2.619
14130TIP3    H142333   4.707   0.307   2.694
14130TIP3    H242334   4.627   0.213   2.607
14131TIP3   OH242335   1.967   0.347   6.048
14131TIP3    H142336   1.982   0.311   6.135
14131TIP3    H242337   1.872   0.359   6.043
14132TIP3   OH242338   7.175   1.189   1.015
14132TIP3    H142339   7.129   1.197   1.098
14132TIP3    H242340   7.262   1.156   1.038
14133TIP3   OH242341   0.212   1.745   3.679
14133TIP3    H142342   0.165   1.814   3.633
14133TIP3    H242343   0.246   1.788   3.758
14134TIP3   OH242344   5.777   6.738   2.037
14134TIP3    H142345   5.834   6.786   1.977
14134TIP3    H242346   5.800   6.646   2.023
14135TIP3   OH242347   4.981   3.709   3.378
14135TIP3    H142348   5.028   3.725   3.296
14135TIP3    H242349   5.047   3.719   3.446
14136TIP3   OH242350   4.136   7.125   4.710
14136TIP3    H142351   4.114   7.084   4.793
14136TIP3    H242352   4.145   7.218   4.730
14137TIP3   OH242353   7.589   3.007   2.690
14137TIP3    H142354   7.638   2.951   2.629
14137TIP3    H242355   7.604   2.968   2.776
14138TIP3   OH242356   6.008   5.062   1.304
14138TIP3    H142357   6.026   5.006   1.380
14138TIP3    H242358   5.940   5.015   1.255
14139TIP3   OH242359   2.948   2.499   1.364
14139TIP3    H142360   3.025   2.456   1.400
14139TIP3    H242361   2.890   2.511   1.440
14140TIP3   OH242362   0.510   7.298   6.364
14140TIP3    H142363   0.557   7.319   6.445
14140TIP3    H242364   0.549   7.216   6.334
14141TIP3   OH242365   6.700   4.631   4.371
14141TIP3    H142366   6.627   4.654   4.429
14141TIP3    H242367   6.684   4.682   4.292
14142TIP3   OH242368   1.571   5.216   1.307
14142TIP3    H142369   1.505   5.179   1.248
14142TIP3    H242370   1.530   5.296   1.341
14143TIP3   OH242371   3.348   6.438   0.171
14143TIP3    H142372   3.295   6.429   0.092
14143TIP3    H242373   3.419   6.375   0.160
14144TIP3   OH242374   2.039   6.375   0.536
14144TIP3    H142375   1.968   6.332   0.488
14144TIP3    H242376   2.070   6.443   0.477
14145TIP3   OH242377   2.002   0.974   0.016
14145TIP3    H142378   2.011   0.930   0.101
14145TIP3    H242379   1.976   1.063   0.038
14146TIP3   OH242380   6.815   7.020   4.961
14146TIP3    H142381   6.760   7.018   5.040
14146TIP3    H242382   6.754   7.037   4.890
14147TIP3   OH242383   5.792   7.705   3.878
14147TIP3    H142384   5.829   7.724   3.791
14147TIP3    H242385   5.851   7.641   3.916
14148TIP3   OH242386   3.602   0.838   5.277
14148TIP3    H142387   3.517   0.822   5.317
14148TIP3    H242388   3.655   0.879   5.345
14149TIP3   OH242389   1.256   1.124   0.225
14149TIP3    H142390   1.285   1.150   0.137
14149TIP3    H242391   1.312   1.049   0.248
14150TIP3   OH242392   7.238   4.873   4.609
14150TIP3    H142393   7.179   4.942   4.578
14150TIP3    H242394   7.238   4.808   4.539
14151TIP3   OH242395   3.821   2.993   6.587
14151TIP3    H142396   3.783   3.017   6.672
14151TIP3    H242397   3.767   2.920   6.557
14152TIP3   OH242398   5.518   3.757   5.232
14152TIP3    H142399   5.542   3.827   5.293
14152TIP3    H242400   5.583   3.689   5.247
14153TIP3   OH242401   3.211   4.669   2.411
14153TIP3    H142402   3.176   4.758   2.422
14153TIP3    H242403   3.264   4.674   2.331
14154TIP3   OH242404   7.874   2.629   3.006
14154TIP3    H142405   7.890   2.573   2.930
14154TIP3    H242406   7.795   2.594   3.046
14155TIP3   OH242407   4.298   3.002   3.732
14155TIP3    H142408   4.302   3.013   3.827
14155TIP3    H242409   4.330   3.085   3.697
14156TIP3   OH242410   4.924   6.822   0.526
14156TIP3    H142411   4.942   6.866   0.609
14156TIP3    H242412   4.878   6.888   0.474
14157TIP3   OH242413   3.282   3.801   6.740
14157TIP3    H142414   3.336   3.791   6.662
14157TIP3    H242415   3.232   3.719   6.745
14158TIP3   OH242416   1.025   4.597   3.985
14158TIP3    H142417   0.953   4.590   3.923
14158TIP3    H242418   1.072   4.514   3.976
14159TIP3   OH242419   8.221   7.672   2.438
14159TIP3    H142420   8.148   7.680   2.377
14159TIP3    H242421   8.237   7.578   2.443
14160TIP3   OH242422   8.233   3.282   2.711
14160TIP3    H142423   8.144   3.300   2.742
14160TIP3    H242424   8.288   3.294   2.788
14161TIP3   OH242425   3.246   5.099   4.422
14161TIP3    H142426   3.157   5.071   4.397
14161TIP3    H242427   3.245   5.098   4.518
14162TIP3   OH242428   6.174   0.447   3.050
14162TIP3    H142429   6.212   0.535   3.040
14162TIP3    H242430   6.235   0.390   3.004
14163TIP3   OH242431   1.020   4.975   3.264
14163TIP3    H142432   0.978   5.000   3.346
14163TIP3    H242433   0.952   4.987   3.198
14164TIP3   OH242434   0.443   5.385   3.462
14164TIP3    H142435   0.496   5.306   3.453
14164TIP3    H242436   0.391   5.387   3.382
14165TIP3   OH242437   2.685   4.586   4.492
14165TIP3    H142438   2.680   4.588   4.396
14165TIP3    H242439   2.728   4.503   4.512
14166TIP3   OH242440   0.887   1.741   1.302
14166TIP3    H142441   0.811   1.702   1.347
14166TIP3    H242442   0.896   1.688   1.222
14167TIP3   OH242443   0.512   5.688   2.653
14167TIP3    H142444   0.428   5.716   2.615
14167TIP3    H242445   0.527   5.749   2.725
14168TIP3   OH242446   4.417   0.433   1.341
14168TIP3    H142447   4.432   0.350   1.387
14168TIP3    H242448   4.478   0.495   1.382
14169TIP3   OH242449   2.048   7.046   0.175
14169TIP3    H142450   2.071   7.139   0.173
14169TIP3    H242451   2.053   7.018   0.084
14170TIP3   OH242452   4.950   1.365   2.883
14170TIP3    H142453   4.910   1.280   2.863
14170TIP3    H242454   5.027   1.342   2.936
14171TIP3   OH242455   1.979   2.883   1.266
14171TIP3    H142456   2.022   2.800   1.248
14171TIP3    H242457   1.960   2.881   1.360
14172TIP3   OH242458   2.097   3.761   2.368
14172TIP3    H142459   2.041   3.748   2.291
14172TIP3    H242460   2.036   3.764   2.442
14173TIP3   OH242461   3.665   6.979   4.556
14173TIP3    H142462   3.627   6.893   4.536
14173TIP3    H242463   3.745   6.958   4.605
14174TIP3   OH242464   3.587   4.700   4.757
14174TIP3    H142465   3.508   4.647   4.772
14174TIP3    H242466   3.654   4.636   4.734
14175TIP3   OH242467   0.125   7.319   4.409
14175TIP3    H142468   0.179   7.241   4.394
14175TIP3    H242469   0.035   7.287   4.406
14176TIP3   OH242470   2.849   1.916   0.120
14176TIP3    H142471   2.820   1.853   0.054
14176TIP3    H242472   2.782   1.912   0.188
14177TIP3   OH242473   2.796   4.794   4.006
14177TIP3    H142474   2.802   4.882   3.969
14177TIP3    H242475   2.887   4.765   4.012
14178TIP3   OH242476   1.532   5.364   2.863
14178TIP3    H142477   1.453   5.387   2.912
14178TIP3    H242478   1.546   5.272   2.883
14179TIP3   OH242479   4.420   3.838   3.044
14179TIP3    H142480   4.425   3.885   2.961
14179TIP3    H242481   4.484   3.767   3.034
14180TIP3   OH242482   5.388   5.088   5.884
14180TIP3    H142483   5.393   5.161   5.822
14180TIP3    H242484   5.409   5.127   5.969
14181TIP3   OH242485   5.836   0.927   1.019
14181TIP3    H142486   5.825   0.885   1.105
14181TIP3    H242487   5.931   0.932   1.007
14182TIP3   OH242488   7.773   5.118   1.851
14182TIP3    H142489   7.844   5.170   1.813
14182TIP3    H242490   7.696   5.140   1.798
14183TIP3   OH242491   3.346   4.366   1.674
14183TIP3    H142492   3.324   4.309   1.600
14183TIP3    H242493   3.298   4.330   1.748
14184TIP3   OH242494   3.886   1.465   2.447
14184TIP3    H142495   3.792   1.460   2.463
14184TIP3    H242496   3.913   1.374   2.434
14185TIP3   OH242497   5.713   7.261   1.880
14185TIP3    H142498   5.719   7.180   1.930
14185TIP3    H242499   5.761   7.243   1.799
14186TIP3   OH242500   6.752   2.862   6.428
14186TIP3    H142501   6.681   2.798   6.433
14186TIP3    H242502   6.832   2.810   6.431
14187TIP3   OH242503   2.902   2.862   6.746
14187TIP3    H142504   2.862   2.842   6.662
14187TIP3    H242505   2.829   2.878   6.805
14188TIP3   OH242506   2.634   6.599   6.316
14188TIP3    H142507   2.565   6.627   6.376
14188TIP3    H242508   2.639   6.669   6.251
14189TIP3   OH242509   4.626   7.621   3.852
14189TIP3    H142510   4.566   7.689   3.883
14189TIP3    H242511   4.700   7.670   3.816
14190TIP3   OH242512   4.767   5.456   3.206
14190TIP3    H142513   4.853   5.415   3.196
14190TIP3    H242514   4.761   5.479   3.299
14191TIP3   OH242515   8.181   0.427   0.247
14191TIP3    H142516   8.235   0.506   0.246
14191TIP3    H242517   8.091   0.459   0.242
14192TIP3   OH242518   8.193   6.552   6.003
14192TIP3    H142519   8.182   6.500   5.924
14192TIP3    H242520   8.280   6.589   5.997
14193TIP3   OH242521   3.304   1.356   2.542
14193TIP3    H142522   3.329   1.375   2.632
14193TIP3    H242523   3.355   1.278   2.519
14194TIP3   OH242524   4.840   3.387   0.956
14194TIP3    H142525   4.861   3.332   0.880
14194TIP3    H242526   4.746   3.375   0.969
14195TIP3   OH242527   7.459   3.031   5.297
14195TIP3    H142528   7.554   3.041   5.288
14195TIP3    H242529   7.429   3.013   5.208
14196TIP3   OH242530   2.052   2.826   2.916
14196TIP3    H142531   2.071   2.898   2.977
14196TIP3    H242532   2.080   2.859   2.831
14197TIP3   OH242533   6.752   0.268   5.892
14197TIP3    H142534   6.758   0.185   5.846
14197TIP3    H242535   6.666   0.302   5.868
14198TIP3   OH242536   4.377   5.393   3.049
14198TIP3    H142537   4.471   5.397   3.035
14198TIP3    H242538   4.339   5.391   2.961
14199TIP3   OH242539   1.402   2.928   4.179
14199TIP3    H142540   1.447   2.926   4.095
14199TIP3    H242541   1.461   2.882   4.239
14200TIP3   OH242542   6.173   4.017   2.944
14200TIP3    H142543   6.082   4.022   2.915
14200TIP3    H242544   6.215   4.092   2.903
14201TIP3   OH242545   1.002   6.794   4.505
14201TIP3    H142546   1.078   6.764   4.454
14201TIP3    H242547   0.928   6.747   4.468
14202TIP3   OH242548   2.263   5.873   4.893
14202TIP3    H142549   2.347   5.902   4.859
14202TIP3    H242550   2.209   5.953   4.894
14203TIP3   OH242551   5.595   6.063   1.853
14203TIP3    H142552   5.629   5.975   1.873
14203TIP3    H242553   5.644   6.121   1.912
14204TIP3   OH242554   6.402   5.745   2.947
14204TIP3    H142555   6.395   5.741   2.852
14204TIP3    H242556   6.328   5.801   2.974
14205TIP3   OH242557   2.595   5.867   5.588
14205TIP3    H142558   2.645   5.814   5.649
14205TIP3    H242559   2.621   5.835   5.502
14206TIP3   OH242560   2.340   7.281   3.585
14206TIP3    H142561   2.381   7.364   3.608
14206TIP3    H242562   2.411   7.230   3.545
14207TIP3   OH242563   3.630   4.247   1.214
14207TIP3    H142564   3.715   4.279   1.186
14207TIP3    H242565   3.645   4.212   1.302
14208TIP3   OH242566   4.107   4.722   3.059
14208TIP3    H142567   4.195   4.758   3.048
14208TIP3    H242568   4.121   4.628   3.071
14209TIP3   OH242569   1.811   4.552   6.393
14209TIP3    H142570   1.717   4.563   6.379
14209TIP3    H242571   1.820   4.462   6.425
14210TIP3   OH242572   1.434   1.791   4.448
14210TIP3    H142573   1.408   1.846   4.374
14210TIP3    H242574   1.410   1.702   4.422
14211TIP3   OH242575   1.916   3.059   5.266
14211TIP3    H142576   1.854   3.130   5.249
14211TIP3    H242577   1.884   2.986   5.213
14212TIP3   OH242578   2.601   1.417   4.873
14212TIP3    H142579   2.683   1.454   4.840
14212TIP3    H242580   2.550   1.493   4.901
14213TIP3   OH242581   1.177   1.744   1.339
14213TIP3    H142582   1.091   1.740   1.298
14213TIP3    H242583   1.221   1.818   1.298
14214TIP3   OH242584   6.216   7.020   2.134
14214TIP3    H142585   6.197   7.092   2.194
14214TIP3    H242586   6.305   7.038   2.103
14215TIP3   OH242587   8.144   7.235   4.517
14215TIP3    H142588   8.059   7.196   4.536
14215TIP3    H242589   8.205   7.189   4.575
14216TIP3   OH242590   2.407   6.064   4.358
14216TIP3    H142591   2.357   6.142   4.385
14216TIP3    H242592   2.347   6.016   4.301
14217TIP3   OH242593   5.939   7.766   6.343
14217TIP3    H142594   6.035   7.766   6.346
14217TIP3    H242595   5.915   7.858   6.331
14218TIP3   OH242596   3.969   0.738   3.490
14218TIP3    H142597   4.013   0.652   3.490
14218TIP3    H242598   4.027   0.794   3.439
14219TIP3   OH242599   4.339   5.188   4.699
14219TIP3    H142600   4.435   5.181   4.704
14219TIP3    H242601   4.308   5.099   4.712
14220TIP3   OH242602   4.386   4.951   5.240
14220TIP3    H142603   4.302   4.917   5.208
14220TIP3    H242604   4.426   4.991   5.163
14221TIP3   OH242605   8.280   3.254   3.829
14221TIP3    H142606   8.185   3.251   3.817
14221TIP3    H242607   8.316   3.250   3.740
14222TIP3   OH242608   6.483   0.700   5.656
14222TIP3    H142609   6.468   0.667   5.567
14222TIP3    H242610   6.456   0.792   5.652
14223TIP3   OH242611   5.967   2.383   0.574
14223TIP3    H142612   5.960   2.375   0.479
14223TIP3    H242613   5.984   2.476   0.589
14224TIP3   OH242614   2.911   2.023   2.961
14224TIP3    H142615   2.958   2.096   2.920
14224TIP3    H242616   2.978   1.958   2.980
14225TIP3   OH242617   0.273   1.116   1.211
14225TIP3    H142618   0.325   1.052   1.162
14225TIP3    H242619   0.222   1.162   1.145
14226TIP3   OH242620   1.938   6.175   0.728
14226TIP3    H142621   1.945   6.180   0.823
14226TIP3    H242622   1.993   6.247   0.696
14227TIP3   OH242623   0.503   2.595   4.616
14227TIP3    H142624   0.563   2.602   4.542
14227TIP3    H242625   0.472   2.505   4.615
14228TIP3   OH242626   7.137   5.544   5.158
14228TIP3    H142627   7.169   5.551   5.248
14228TIP3    H242628   7.211   5.571   5.104
14229TIP3   OH242629   1.864   5.219   1.944
14229TIP3    H142630   1.796   5.282   1.967
14229TIP3    H242631   1.863   5.156   2.016
14230TIP3   OH242632   1.897   1.912   3.113
14230TIP3    H142633   1.810   1.877   3.131
14230TIP3    H242634   1.896   1.934   3.020
14231TIP3   OH242635   2.288   6.660   5.405
14231TIP3    H142636   2.217   6.722   5.391
14231TIP3    H242637   2.249   6.575   5.384
14232TIP3   OH242638   4.591   1.456   3.353
14232TIP3    H142639   4.563   1.364   3.358
14232TIP3    H242640   4.548   1.490   3.274
14233TIP3   OH242641   3.803   7.467   3.966
14233TIP3    H142642   3.765   7.528   3.903
14233TIP3    H242643   3.875   7.426   3.918
14234TIP3   OH242644   7.892   2.152   0.954
14234TIP3    H142645   7.967   2.212   0.953
14234TIP3    H242646   7.879   2.128   0.862
14235TIP3   OH242647   4.979   4.595   4.851
14235TIP3    H142648   5.006   4.681   4.818
14235TIP3    H242649   5.061   4.549   4.867
14236TIP3   OH242650   0.506   1.922   5.612
14236TIP3    H142651   0.444   1.858   5.577
14236TIP3    H242652   0.590   1.897   5.574
14237TIP3   OH242653   5.317   1.997   6.388
14237TIP3    H142654   5.369   1.921   6.415
14237TIP3    H242655   5.329   2.061   6.458
14238TIP3   OH242656   6.451   3.666   0.202
14238TIP3    H142657   6.531   3.718   0.212
14238TIP3    H242658   6.443   3.619   0.286
14239TIP3   OH242659   7.964   3.270   5.397
14239TIP3    H142660   8.002   3.336   5.454
14239TIP3    H242661   8.037   3.213   5.375
14240TIP3   OH242662   5.544   4.621   5.949
14240TIP3    H142663   5.614   4.557   5.964
14240TIP3    H242664   5.557   4.650   5.859
14241TIP3   OH242665   7.733   7.670   4.474
14241TIP3    H142666   7.775   7.584   4.485
14241TIP3    H242667   7.716   7.701   4.563
14242TIP3   OH242668   3.063   5.875   0.023
14242TIP3    H142669   3.151   5.913   0.024
14242TIP3    H242670   3.076   5.786   0.055
14243TIP3   OH242671   3.217   5.337   3.871
14243TIP3    H142672   3.301   5.338   3.917
14243TIP3    H242673   3.213   5.421   3.826
14244TIP3   OH242674   6.365   2.558   5.469
14244TIP3    H142675   6.273   2.571   5.492
14244TIP3    H242676   6.413   2.575   5.550
14245TIP3   OH242677   6.258   0.371   6.577
14245TIP3    H142678   6.352   0.387   6.579
14245TIP3    H242679   6.247   0.303   6.510
14246TIP3   OH242680   2.004   4.987   0.226
14246TIP3    H142681   1.949   4.911   0.206
14246TIP3    H242682   1.960   5.060   0.182
14247TIP3   OH242683   5.594   3.297   3.108
14247TIP3    H142684   5.595   3.269   3.016
14247TIP3    H242685   5.525   3.244   3.148
14248TIP3   OH242686   6.203   6.408   3.656
14248TIP3    H142687   6.152   6.328   3.644
14248TIP3    H242688   6.290   6.378   3.683
14249TIP3   OH242689   5.031   5.954   0.724
14249TIP3    H142690   5.113   5.947   0.674
14249TIP3    H242691   5.056   6.000   0.804
14250TIP3   OH242692   3.564   3.727   6.313
14250TIP3    H142693   3.583   3.741   6.220
14250TIP3    H242694   3.557   3.815   6.350
14251TIP3   OH242695   0.184   3.818   4.172
14251TIP3    H142696   0.199   3.726   4.150
14251TIP3    H242697   0.135   3.815   4.254
14252TIP3   OH242698   3.715   7.471   3.465
14252TIP3    H142699   3.670   7.436   3.389
14252TIP3    H242700   3.796   7.419   3.472
14253TIP3   OH242701   5.966   0.886   4.679
14253TIP3    H142702   6.041   0.918   4.728
14253TIP3    H242703   5.958   0.944   4.604
14254TIP3   OH242704   6.594   1.028   3.049
14254TIP3    H142705   6.590   1.012   3.143
14254TIP3    H242706   6.581   1.122   3.040
14255TIP3   OH242707   3.320   0.810   4.214
14255TIP3    H142708   3.243   0.765   4.181
14255TIP3    H242709   3.372   0.830   4.136
14256TIP3   OH242710   8.120   3.382   1.933
14256TIP3    H142711   8.120   3.317   1.863
14256TIP3    H242712   8.067   3.344   2.002
14257TIP3   OH242713   2.061   7.775   1.123
14257TIP3    H142714   1.967   7.756   1.119
14257TIP3    H242715   2.069   7.847   1.186
14258TIP3   OH242716   5.414   1.017   1.141
14258TIP3    H142717   5.457   0.936   1.169
14258TIP3    H242718   5.328   0.990   1.111
14259TIP3   OH242719   2.720   3.011   0.790
14259TIP3    H142720   2.730   2.924   0.751
14259TIP3    H242721   2.808   3.050   0.783
14260TIP3   OH242722   3.305   5.253   0.192
14260TIP3    H142723   3.291   5.347   0.198
14260TIP3    H242724   3.259   5.227   0.112
14261TIP3   OH242725   2.505   6.524   4.291
14261TIP3    H142726   2.437   6.534   4.225
14261TIP3    H242727   2.565   6.597   4.276
14262TIP3   OH242728   2.314   5.433   2.373
14262TIP3    H142729   2.280   5.512   2.332
14262TIP3    H242730   2.248   5.410   2.439
14263TIP3   OH242731   3.047   1.464   5.579
14263TIP3    H142732   3.097   1.391   5.541
14263TIP3    H242733   3.114   1.525   5.610
14264TIP3   OH242734   0.457   5.096   2.067
14264TIP3    H142735   0.389   5.060   2.124
14264TIP3    H242736   0.417   5.176   2.030
14265TIP3   OH242737   8.075   5.152   2.681
14265TIP3    H142738   8.167   5.142   2.704
14265TIP3    H242739   8.029   5.097   2.744
14266TIP3   OH242740   0.592   7.521   5.552
14266TIP3    H142741   0.511   7.552   5.594
14266TIP3    H242742   0.652   7.595   5.558
14267TIP3   OH242743   5.859   2.105   0.706
14267TIP3    H142744   5.843   2.053   0.785
14267TIP3    H242745   5.775   2.105   0.660
14268TIP3   OH242746   5.287   0.369   6.532
14268TIP3    H142747   5.362   0.415   6.493
14268TIP3    H242748   5.250   0.320   6.459
14269TIP3   OH242749   2.078   7.213   0.777
14269TIP3    H142750   2.111   7.134   0.734
14269TIP3    H242751   2.156   7.257   0.811
14270TIP3   OH242752   4.195   3.539   0.486
14270TIP3    H142753   4.258   3.592   0.438
14270TIP3    H242754   4.113   3.549   0.437
14271TIP3   OH242755   4.072   0.522   0.876
14271TIP3    H142756   4.085   0.575   0.954
14271TIP3    H242757   4.037   0.439   0.909
14272TIP3   OH242758   0.904   5.055   3.828
14272TIP3    H142759   0.817   5.092   3.841
14272TIP3    H242760   0.899   4.967   3.864
14273TIP3   OH242761   7.170   3.581   0.432
14273TIP3    H142762   7.180   3.541   0.346
14273TIP3    H242763   7.229   3.657   0.431
14274TIP3   OH242764   0.980   2.299   5.593
14274TIP3    H142765   0.906   2.243   5.568
14274TIP3    H242766   1.052   2.269   5.538
14275TIP3   OH242767   2.398   3.923   0.247
14275TIP3    H142768   2.471   3.903   0.305
14275TIP3    H242769   2.437   3.975   0.177
14276TIP3   OH242770   2.960   5.600   5.131
14276TIP3    H142771   2.897   5.666   5.160
14276TIP3    H242772   2.917   5.557   5.057
14277TIP3   OH242773   4.978   6.852   1.227
14277TIP3    H142774   4.961   6.785   1.292
14277TIP3    H242775   4.903   6.912   1.233
14278TIP3   OH242776   6.776   2.800   3.173
14278TIP3    H142777   6.761   2.795   3.268
14278TIP3    H242778   6.768   2.893   3.153
14279TIP3   OH242779   5.244   3.229   1.830
14279TIP3    H142780   5.263   3.284   1.753
14279TIP3    H242781   5.150   3.210   1.823
14280TIP3   OH242782   5.913   4.964   5.125
14280TIP3    H142783   5.839   4.945   5.067
14280TIP3    H242784   5.877   4.954   5.213
14281TIP3   OH242785   5.399   0.433   2.332
14281TIP3    H142786   5.477   0.379   2.340
14281TIP3    H242787   5.404   0.469   2.243
14282TIP3   OH242788   2.644   2.126   1.012
14282TIP3    H142789   2.645   2.076   1.094
14282TIP3    H242790   2.645   2.059   0.943
14283TIP3   OH242791   4.992   1.609   2.163
14283TIP3    H142792   5.005   1.704   2.173
14283TIP3    H242793   4.932   1.586   2.233
14284TIP3   OH242794   3.338   5.494   1.418
14284TIP3    H142795   3.310   5.440   1.492
14284TIP3    H242796   3.362   5.431   1.350
14285TIP3   OH242797   0.135   6.434   3.174
14285TIP3    H142798   0.041   6.448   3.168
14285TIP3    H242799   0.149   6.399   3.262
14286TIP3   OH242800   6.878   6.903   4.024
14286TIP3    H142801   6.962   6.889   4.067
14286TIP3    H242802   6.837   6.816   4.024
14287TIP3   OH242803   2.974   5.515   1.126
14287TIP3    H142804   2.892   5.515   1.176
14287TIP3    H242805   3.002   5.424   1.127
14288TIP3   OH242806   4.783   2.767   4.324
14288TIP3    H142807   4.835   2.688   4.336
14288TIP3    H242808   4.818   2.830   4.388
14289TIP3   OH242809   1.103   0.406   5.448
14289TIP3    H142810   1.018   0.385   5.409
14289TIP3    H242811   1.140   0.473   5.391
14290TIP3   OH242812   6.652   0.300   4.438
14290TIP3    H142813   6.603   0.377   4.465
14290TIP3    H242814   6.690   0.323   4.353
14291TIP3   OH242815   2.068   0.555   0.747
14291TIP3    H142816   2.147   0.546   0.800
14291TIP3    H242817   2.100   0.561   0.657
14292TIP3   OH242818   6.280   5.901   4.165
14292TIP3    H142819   6.262   5.995   4.162
14292TIP3    H242820   6.262   5.869   4.077
14293TIP3   OH242821   5.697   1.577   5.182
14293TIP3    H142822   5.644   1.511   5.228
14293TIP3    H242823   5.671   1.660   5.220
14294TIP3   OH242824   4.587   3.612   4.103
14294TIP3    H142825   4.503   3.589   4.141
14294TIP3    H242826   4.652   3.581   4.166
14295TIP3   OH242827   2.974   3.964   4.840
14295TIP3    H142828   3.001   3.952   4.932
14295TIP3    H242829   2.936   3.880   4.816
14296TIP3   OH242830   4.483   5.458   1.881
14296TIP3    H142831   4.407   5.433   1.830
14296TIP3    H242832   4.460   5.434   1.971
14297TIP3   OH242833   7.208   3.832   3.834
14297TIP3    H142834   7.153   3.911   3.823
14297TIP3    H242835   7.235   3.810   3.745
14298TIP3   OH242836   7.464   4.984   4.437
14298TIP3    H142837   7.494   4.918   4.374
14298TIP3    H242838   7.415   4.933   4.502
14299TIP3   OH242839   7.650   6.585   4.974
14299TIP3    H142840   7.642   6.667   5.024
14299TIP3    H242841   7.575   6.533   5.002
14300TIP3   OH242842   0.275   7.712   2.308
14300TIP3    H142843   0.242   7.662   2.383
14300TIP3    H242844   0.363   7.677   2.293
14301TIP3   OH242845   1.027   2.162   1.173
14301TIP3    H142846   1.041   2.212   1.093
14301TIP3    H242847   0.945   2.113   1.157
14302TIP3   OH242848   4.710   3.172   6.207
14302TIP3    H142849   4.629   3.222   6.215
14302TIP3    H242850   4.687   3.098   6.150
14303TIP3   OH242851   0.741   7.710   1.375
14303TIP3    H142852   0.814   7.672   1.424
14303TIP3    H242853   0.782   7.765   1.309
14304TIP3   OH242854   7.827   0.342   1.891
14304TIP3    H142855   7.771   0.272   1.923
14304TIP3    H242856   7.836   0.325   1.797
14305TIP3   OH242857   6.341   7.209   0.127
14305TIP3    H142858   6.389   7.251   0.199
14305TIP3    H242859   6.326   7.279   0.064
14306TIP3   OH242860   0.023   7.222   3.125
14306TIP3    H142861   0.097   7.166   3.149
14306TIP3    H242862   0.003   7.271   3.204
14307TIP3   OH242863   4.526   6.654   5.216
14307TIP3    H142864   4.518   6.707   5.295
14307TIP3    H242865   4.448   6.675   5.164
14308TIP3   OH242866   2.141   6.818   4.511
14308TIP3    H142867   2.087   6.806   4.432
14308TIP3    H242868   2.084   6.864   4.572
14309TIP3   OH242869   5.618   7.047   1.227
14309TIP3    H142870   5.554   7.091   1.283
14309TIP3    H242871   5.629   7.107   1.153
14310TIP3   OH242872   7.169   0.277   5.121
14310TIP3    H142873   7.085   0.278   5.074
14310TIP3    H242874   7.158   0.340   5.192
14311TIP3   OH242875   4.535   0.505   5.947
14311TIP3    H142876   4.594   0.432   5.926
14311TIP3    H242877   4.459   0.490   5.890
14312TIP3   OH242878   5.893   1.751   1.606
14312TIP3    H142879   5.802   1.781   1.605
14312TIP3    H242880   5.944   1.831   1.612
14313TIP3   OH242881   4.087   6.060   3.523
14313TIP3    H142882   4.111   6.096   3.609
14313TIP3    H242883   4.163   6.077   3.468
14314TIP3   OH242884   5.466   1.597   1.558
14314TIP3    H142885   5.538   1.536   1.542
14314TIP3    H242886   5.477   1.625   1.649
14315TIP3   OH242887   4.797   7.059   4.774
14315TIP3    H142888   4.713   7.093   4.804
14315TIP3    H242889   4.797   6.967   4.801
14316TIP3   OH242890   0.853   3.948   4.717
14316TIP3    H142891   0.938   3.982   4.688
14316TIP3    H242892   0.854   3.855   4.693
14317TIP3   OH242893   0.711   2.906   1.856
14317TIP3    H142894   0.699   3.000   1.849
14317TIP3    H242895   0.668   2.882   1.938
14318TIP3   OH242896   7.746   7.759   1.549
14318TIP3    H142897   7.682   7.816   1.592
14318TIP3    H242898   7.791   7.716   1.622
14319TIP3   OH242899   7.658   5.697   0.698
14319TIP3    H142900   7.700   5.764   0.645
14319TIP3    H242901   7.716   5.686   0.774
14320TIP3   OH242902   7.495   5.101   3.579
14320TIP3    H142903   7.542   5.167   3.529
14320TIP3    H242904   7.506   5.127   3.670
14321TIP3   OH242905   4.966   0.520   3.923
14321TIP3    H142906   5.031   0.544   3.857
14321TIP3    H242907   4.999   0.439   3.961
14322TIP3   OH242908   0.738   0.290   3.278
14322TIP3    H142909   0.808   0.338   3.234
14322TIP3    H242910   0.764   0.288   3.370
14323TIP3   OH242911   3.959   0.376   6.324
14323TIP3    H142912   4.005   0.451   6.287
14323TIP3    H242913   3.887   0.360   6.264
14324TIP3   OH242914   8.181   1.603   0.467
14324TIP3    H142915   8.181   1.528   0.407
14324TIP3    H242916   8.263   1.594   0.516
14325TIP3   OH242917   7.805   2.790   4.477
14325TIP3    H142918   7.741   2.860   4.488
14325TIP3    H242919   7.764   2.714   4.520
14326TIP3   OH242920   7.719   6.403   6.247
14326TIP3    H142921   7.713   6.495   6.222
14326TIP3    H242922   7.810   6.379   6.228
14327TIP3   OH242923   7.808   2.225   6.352
14327TIP3    H142924   7.751   2.183   6.417
14327TIP3    H242925   7.881   2.164   6.342
14328TIP3   OH242926   4.717   6.816   5.971
14328TIP3    H142927   4.812   6.806   5.959
14328TIP3    H242928   4.687   6.856   5.889
14329TIP3   OH242929   1.367   5.403   5.398
14329TIP3    H142930   1.401   5.322   5.435
14329TIP3    H242931   1.272   5.395   5.404
14330TIP3   OH242932   2.100   0.549   5.143
14330TIP3    H142933   2.150   0.566   5.223
14330TIP3    H242934   2.159   0.572   5.072
14331TIP3   OH242935   7.800   0.117   1.232
14331TIP3    H142936   7.734   0.150   1.294
14331TIP3    H242937   7.846   0.195   1.201
14332TIP3   OH242938   1.969   3.608   5.018
14332TIP3    H142939   1.901   3.632   4.954
14332TIP3    H242940   1.933   3.636   5.102
14333TIP3   OH242941   2.712   2.922   1.869
14333TIP3    H142942   2.734   3.013   1.849
14333TIP3    H242943   2.709   2.919   1.965
14334TIP3   OH242944   4.521   6.677   1.567
14334TIP3    H142945   4.437   6.678   1.521
14334TIP3    H242946   4.559   6.762   1.549
14335TIP3   OH242947   6.020   5.759   0.934
14335TIP3    H142948   6.062   5.674   0.945
14335TIP3    H242949   5.960   5.766   1.008
14336TIP3   OH242950   2.318   2.590   2.168
14336TIP3    H142951   2.234   2.561   2.132
14336TIP3    H242952   2.363   2.509   2.193
14337TIP3   OH242953   8.219   6.673   5.387
14337TIP3    H142954   8.222   6.679   5.291
14337TIP3    H242955   8.157   6.741   5.414
14338TIP3   OH242956   5.130   1.696   3.112
14338TIP3    H142957   5.182   1.616   3.117
14338TIP3    H242958   5.092   1.695   3.025
14339TIP3   OH242959   7.402   7.272   4.020
14339TIP3    H142960   7.446   7.322   4.088
14339TIP3    H242961   7.464   7.203   3.996
14340TIP3   OH242962   6.401   1.396   6.399
14340TIP3    H142963   6.460   1.470   6.387
14340TIP3    H242964   6.431   1.354   6.480
14341TIP3   OH242965   3.699   4.671   1.960
14341TIP3    H142966   3.668   4.751   2.003
14341TIP3    H242967   3.622   4.637   1.915
14342TIP3   OH242968   6.652   1.100   4.293
14342TIP3    H142969   6.705   1.061   4.224
14342TIP3    H242970   6.592   1.031   4.321
14343TIP3   OH242971   2.036   2.838   0.525
14343TIP3    H142972   2.095   2.901   0.483
14343TIP3    H242973   2.094   2.781   0.575
14344TIP3   OH242974   0.873   0.412   5.239
14344TIP3    H142975   0.824   0.476   5.187
14344TIP3    H242976   0.811   0.342   5.257
14345TIP3   OH242977   2.917   5.741   6.094
14345TIP3    H142978   2.977   5.688   6.043
14345TIP3    H242979   2.889   5.683   6.166
14346TIP3   OH242980   5.862   5.408   2.432
14346TIP3    H142981   5.955   5.403   2.454
14346TIP3    H242982   5.818   5.368   2.508
14347TIP3   OH242983   6.126   5.350   4.432
14347TIP3    H142984   6.127   5.268   4.481
14347TIP3    H242985   6.157   5.415   4.494
14348TIP3   OH242986   3.710   2.161   1.506
14348TIP3    H142987   3.703   2.217   1.583
14348TIP3    H242988   3.772   2.205   1.449
14349TIP3   OH242989   7.625   0.257   1.395
14349TIP3    H142990   7.642   0.273   1.487
14349TIP3    H242991   7.586   0.339   1.363
14350TIP3   OH242992   4.978   2.018   4.654
14350TIP3    H142993   4.997   2.091   4.595
14350TIP3    H242994   5.037   2.030   4.728
14351TIP3   OH242995   6.897   1.374   5.943
14351TIP3    H142996   6.866   1.348   6.030
14351TIP3    H242997   6.872   1.301   5.886
14352TIP3   OH242998   2.681   2.014   5.637
14352TIP3    H142999   2.597   1.969   5.633
14352TIP3    H243000   2.672   2.087   5.575
14353TIP3   OH243001   2.858   1.114   4.131
14353TIP3    H143002   2.925   1.046   4.138
14353TIP3    H243003   2.776   1.066   4.119
14354TIP3   OH243004   4.368   4.232   3.996
14354TIP3    H143005   4.329   4.163   3.943
14354TIP3    H243006   4.313   4.237   4.074
14355TIP3   OH243007   5.701   5.686   4.045
14355TIP3    H143008   5.722   5.767   4.092
14355TIP3    H243009   5.622   5.653   4.089
14356TIP3   OH243010   1.082   0.830   1.029
14356TIP3    H143011   1.169   0.790   1.033
14356TIP3    H243012   1.039   0.803   1.110
14357TIP3   OH243013   7.388   1.195   1.598
14357TIP3    H143014   7.418   1.216   1.509
14357TIP3    H243015   7.420   1.106   1.613
14358TIP3   OH243016   0.781   1.646   2.121
14358TIP3    H143017   0.769   1.623   2.213
14358TIP3    H243018   0.872   1.626   2.103
14359TIP3   OH243019   2.005   3.299   5.019
14359TIP3    H143020   2.076   3.271   5.078
14359TIP3    H243021   1.974   3.381   5.058
14360TIP3   OH243022   5.471   1.215   5.659
14360TIP3    H143023   5.531   1.158   5.706
14360TIP3    H243024   5.424   1.157   5.599
14361TIP3   OH243025   1.527   5.094   2.862
14361TIP3    H143026   1.522   5.067   2.770
14361TIP3    H243027   1.475   5.029   2.909
14362TIP3   OH243028   7.507   2.041   4.046
14362TIP3    H143029   7.543   2.017   3.961
14362TIP3    H243030   7.578   2.089   4.089
14363TIP3   OH243031   7.972   5.138   4.277
14363TIP3    H143032   8.055   5.094   4.296
14363TIP3    H243033   7.909   5.067   4.269
14364TIP3   OH243034   0.324   7.461   6.714
14364TIP3    H143035   0.257   7.393   6.702
14364TIP3    H243036   0.306   7.497   6.800
14365TIP3   OH243037   0.094   2.138   1.271
14365TIP3    H143038   0.150   2.198   1.319
14365TIP3    H243039   0.026   2.112   1.333
14366TIP3   OH243040   0.402   2.357   3.493
14366TIP3    H143041   0.418   2.291   3.560
14366TIP3    H243042   0.433   2.439   3.532
14367TIP3   OH243043   7.857   6.236   3.574
14367TIP3    H143044   7.864   6.259   3.481
14367TIP3    H243045   7.823   6.147   3.574
14368TIP3   OH243046   5.435   4.611   2.123
14368TIP3    H143047   5.422   4.706   2.117
14368TIP3    H243048   5.350   4.578   2.152
14369TIP3   OH243049   1.532   6.803   4.138
14369TIP3    H143050   1.452   6.845   4.169
14369TIP3    H243051   1.578   6.873   4.091
14370TIP3   OH243052   4.484   7.365   4.308
14370TIP3    H143053   4.567   7.397   4.274
14370TIP3    H243054   4.495   7.368   4.403
14371TIP3   OH243055   5.451   2.008   3.173
14371TIP3    H143056   5.356   2.004   3.162
14371TIP3    H243057   5.476   1.921   3.202
14372TIP3   OH243058   0.544   1.416   3.344
14372TIP3    H143059   0.509   1.505   3.342
14372TIP3    H243060   0.627   1.423   3.390
14373TIP3   OH243061   5.940   2.748   3.942
14373TIP3    H143062   5.921   2.836   3.977
14373TIP3    H243063   6.034   2.738   3.952
14374TIP3   OH243064   7.282   7.708   2.975
14374TIP3    H143065   7.260   7.692   2.884
14374TIP3    H243066   7.267   7.624   3.019
14375TIP3   OH243067   5.324   4.709   0.863
14375TIP3    H143068   5.342   4.733   0.771
14375TIP3    H243069   5.260   4.774   0.892
14376TIP3   OH243070   2.339   7.661   0.877
14376TIP3    H143071   2.334   7.606   0.799
14376TIP3    H243072   2.338   7.751   0.844
14377TIP3   OH243073   1.772   0.601   5.304
14377TIP3    H143074   1.826   0.676   5.279
14377TIP3    H243075   1.713   0.635   5.371
14378TIP3   OH243076   7.419   1.990   3.156
14378TIP3    H143077   7.346   1.981   3.095
14378TIP3    H243078   7.379   1.988   3.243
14379TIP3   OH243079   1.927   1.353   6.055
14379TIP3    H143080   1.839   1.354   6.092
14379TIP3    H243081   1.971   1.281   6.100
14380TIP3   OH243082   4.768   5.403   0.825
14380TIP3    H143083   4.769   5.368   0.736
14380TIP3    H243084   4.814   5.487   0.818
14381TIP3   OH243085   1.819   4.949   2.938
14381TIP3    H143086   1.899   4.896   2.933
14381TIP3    H243087   1.785   4.950   2.848
14382TIP3   OH243088   8.147   0.758   4.743
14382TIP3    H143089   8.140   0.689   4.678
14382TIP3    H243090   8.126   0.715   4.826
14383TIP3   OH243091   1.947   7.125   6.504
14383TIP3    H143092   2.033   7.166   6.514
14383TIP3    H243093   1.886   7.198   6.495
14384TIP3   OH243094   0.819   2.607   5.230
14384TIP3    H143095   0.907   2.637   5.206
14384TIP3    H243096   0.815   2.616   5.325
14385TIP3   OH243097   0.022   0.945   4.847
14385TIP3    H143098   0.099   0.924   4.795
14385TIP3    H243099  -0.048   0.892   4.808
14386TIP3   OH243100   0.334   0.138   0.735
14386TIP3    H143101   0.357   0.136   0.829
14386TIP3    H243102   0.299   0.050   0.718
14387TIP3   OH243103   4.600   0.788   6.596
14387TIP3    H143104   4.623   0.696   6.581
14387TIP3    H243105   4.593   0.826   6.508
14388TIP3   OH243106   2.562   6.450   5.267
14388TIP3    H143107   2.478   6.426   5.229
14388TIP3    H243108   2.560   6.413   5.355
14389TIP3   OH243109   5.086   1.319   4.549
14389TIP3    H143110   5.161   1.262   4.565
14389TIP3    H243111   5.087   1.381   4.622
14390TIP3   OH243112   7.426   0.222   4.512
14390TIP3    H143113   7.482   0.150   4.539
14390TIP3    H243114   7.341   0.181   4.494
14391TIP3   OH243115   2.438   6.350   6.331
14391TIP3    H143116   2.440   6.294   6.254
14391TIP3    H243117   2.526   6.387   6.336
14392TIP3   OH243118   3.641   2.848   6.188
14392TIP3    H143119   3.627   2.864   6.095
14392TIP3    H243120   3.555   2.826   6.222
14393TIP3   OH243121   7.221   4.390   3.094
14393TIP3    H143122   7.204   4.339   3.173
14393TIP3    H243123   7.243   4.477   3.126
14394TIP3   OH243124   6.375   3.145   1.045
14394TIP3    H143125   6.335   3.060   1.063
14394TIP3    H243126   6.455   3.145   1.099
14395TIP3   OH243127   7.689   7.182   0.373
14395TIP3    H143128   7.659   7.116   0.310
14395TIP3    H243129   7.667   7.265   0.332
14396TIP3   OH243130   6.636   0.934   6.228
14396TIP3    H143131   6.721   0.904   6.260
14396TIP3    H243132   6.643   0.929   6.133
14397TIP3   OH243133   4.317   6.928   0.272
14397TIP3    H143134   4.402   6.884   0.277
14397TIP3    H243135   4.257   6.861   0.241
14398TIP3   OH243136   7.123   2.545   6.312
14398TIP3    H143137   7.175   2.521   6.389
14398TIP3    H243138   7.151   2.634   6.290
14399TIP3   OH243139   1.207   7.565   0.603
14399TIP3    H143140   1.262   7.555   0.681
14399TIP3    H243141   1.268   7.593   0.535
14400TIP3   OH243142   7.222   5.683   2.019
14400TIP3    H143143   7.195   5.654   2.107
14400TIP3    H243144   7.241   5.776   2.029
14401TIP3   OH243145   4.672   6.442   6.118
14401TIP3    H143146   4.704   6.524   6.156
14401TIP3    H243147   4.711   6.374   6.173
14402TIP3   OH243148   6.248   4.463   0.592
14402TIP3    H143149   6.224   4.373   0.616
14402TIP3    H243150   6.195   4.518   0.650
14403TIP3   OH243151   0.670   4.506   6.255
14403TIP3    H143152   0.591   4.452   6.247
14403TIP3    H243153   0.674   4.530   6.347
14404TIP3   OH243154   1.381   6.147   1.471
14404TIP3    H143155   1.402   6.064   1.429
14404TIP3    H243156   1.423   6.142   1.557
14405TIP3   OH243157   5.662   1.403   2.901
14405TIP3    H143158   5.597   1.334   2.913
14405TIP3    H243159   5.656   1.425   2.808
14406TIP3   OH243160   7.097   7.608   4.531
14406TIP3    H143161   7.003   7.598   4.539
14406TIP3    H243162   7.134   7.534   4.579
14407TIP3   OH243163   2.678   6.134   5.592
14407TIP3    H143164   2.771   6.129   5.616
14407TIP3    H243165   2.643   6.048   5.616
14408TIP3   OH243166   4.929   7.067   2.508
14408TIP3    H143167   4.876   7.077   2.430
14408TIP3    H243168   5.016   7.100   2.482
14409TIP3   OH243169   6.484   5.994   1.040
14409TIP3    H143170   6.572   6.018   1.009
14409TIP3    H243171   6.448   6.076   1.074
14410TIP3   OH243172   1.540   0.199   6.219
14410TIP3    H143173   1.532   0.105   6.202
14410TIP3    H243174   1.474   0.239   6.162
14411TIP3   OH243175   5.934   7.776   3.650
14411TIP3    H143176   5.979   7.738   3.575
14411TIP3    H243177   5.887   7.851   3.613
14412TIP3   OH243178   7.472   5.618   3.046
14412TIP3    H143179   7.451   5.710   3.032
14412TIP3    H243180   7.415   5.571   2.985
14413TIP3   OH243181   4.246   6.060   0.003
14413TIP3    H143182   4.210   6.023   0.083
14413TIP3    H243183   4.329   6.099   0.030
14414TIP3   OH243184   7.258   1.903   3.393
14414TIP3    H143185   7.296   1.841   3.456
14414TIP3    H243186   7.189   1.854   3.349
14415TIP3   OH243187   0.953   3.925   5.348
14415TIP3    H143188   0.969   3.832   5.330
14415TIP3    H243189   0.962   3.968   5.264
14416TIP3   OH243190   8.002   5.813   3.713
14416TIP3    H143191   7.968   5.844   3.797
14416TIP3    H243192   7.949   5.858   3.648
14417TIP3   OH243193   2.871   2.980   5.131
14417TIP3    H143194   2.813   2.904   5.116
14417TIP3    H243195   2.874   2.989   5.226
14418TIP3   OH243196   5.032   2.480   3.888
14418TIP3    H143197   5.006   2.563   3.848
14418TIP3    H243198   4.949   2.441   3.917
14419TIP3   OH243199   3.724   2.715   4.395
14419TIP3    H143200   3.673   2.644   4.433
14419TIP3    H243201   3.767   2.675   4.319
14420TIP3   OH243202   1.293   3.299   3.634
14420TIP3    H143203   1.218   3.358   3.644
14420TIP3    H243204   1.270   3.222   3.685
14421TIP3   OH243205   2.311   5.204   0.614
14421TIP3    H143206   2.373   5.214   0.686
14421TIP3    H243207   2.227   5.184   0.656
14422TIP3   OH243208   7.747   7.067   1.009
14422TIP3    H143209   7.660   7.088   0.974
14422TIP3    H243210   7.780   7.151   1.042
14423TIP3   OH243211   8.007   6.508   3.332
14423TIP3    H143212   8.056   6.549   3.260
14423TIP3    H243213   8.012   6.572   3.403
14424TIP3   OH243214   6.351   3.843   3.064
14424TIP3    H143215   6.293   3.916   3.046
14424TIP3    H243216   6.344   3.787   2.987
14425TIP3   OH243217   6.858   5.193   2.970
14425TIP3    H143218   6.817   5.173   3.054
14425TIP3    H243219   6.935   5.245   2.993
14426TIP3   OH243220   5.549   2.947   4.610
14426TIP3    H143221   5.623   2.998   4.577
14426TIP3    H243222   5.579   2.856   4.606
14427TIP3   OH243223   0.070   5.478   5.361
14427TIP3    H143224   0.054   5.545   5.427
14427TIP3    H243225  -0.013   5.468   5.315
14428TIP3   OH243226   4.591   1.343   5.333
14428TIP3    H143227   4.660   1.376   5.391
14428TIP3    H243228   4.636   1.321   5.252
14429TIP3   OH243229   5.861   5.798   5.733
14429TIP3    H143230   5.817   5.719   5.702
14429TIP3    H243231   5.798   5.869   5.718
14430TIP3   OH243232   6.683   6.719   5.790
14430TIP3    H143233   6.676   6.815   5.788
14430TIP3    H243234   6.605   6.691   5.838
14431TIP3   OH243235   7.769   0.279   4.555
14431TIP3    H143236   7.791   0.288   4.463
14431TIP3    H243237   7.827   0.341   4.600
14432TIP3   OH243238   1.695   2.322   3.485
14432TIP3    H143239   1.687   2.252   3.420
14432TIP3    H243240   1.769   2.295   3.539
14433TIP3   OH243241   7.819   3.288   0.619
14433TIP3    H143242   7.845   3.380   0.628
14433TIP3    H243243   7.724   3.290   0.608
14434TIP3   OH243244   1.984   1.646   1.198
14434TIP3    H143245   1.919   1.586   1.234
14434TIP3    H243246   1.995   1.714   1.264
14435TIP3   OH243247   6.823   2.279   1.635
14435TIP3    H143248   6.867   2.360   1.610
14435TIP3    H243249   6.876   2.210   1.598
14436TIP3   OH243250   1.538   1.114   2.455
14436TIP3    H143251   1.612   1.053   2.459
14436TIP3    H243252   1.516   1.131   2.546
14437TIP3   OH243253   6.947   1.029   2.377
14437TIP3    H143254   6.935   1.038   2.282
14437TIP3    H243255   7.016   0.963   2.386
14438TIP3   OH243256   4.751   1.397   4.947
14438TIP3    H143257   4.757   1.333   5.018
14438TIP3    H243258   4.729   1.345   4.870
14439TIP3   OH243259   1.775   0.131   4.615
14439TIP3    H143260   1.683   0.141   4.639
14439TIP3    H243261   1.816   0.212   4.644
14440TIP3   OH243262   2.587   7.551   6.094
14440TIP3    H143263   2.615   7.550   6.185
14440TIP3    H243264   2.526   7.478   6.086
14441TIP3   OH243265   4.996   5.241   4.359
14441TIP3    H143266   4.928   5.232   4.293
14441TIP3    H243267   5.055   5.166   4.344
14442TIP3   OH243268   7.557   2.648   5.925
14442TIP3    H143269   7.648   2.661   5.951
14442TIP3    H243270   7.548   2.553   5.915
14443TIP3   OH243271   3.989   3.922   5.668
14443TIP3    H143272   4.042   3.958   5.597
14443TIP3    H243273   3.999   3.983   5.740
14444TIP3   OH243274   2.403   0.089   6.112
14444TIP3    H143275   2.407   0.142   6.033
14444TIP3    H243276   2.463   0.016   6.095
14445TIP3   OH243277   0.995   1.436   0.796
14445TIP3    H143278   0.960   1.517   0.832
14445TIP3    H243279   1.080   1.425   0.838
14446TIP3   OH243280   2.506   2.458   4.593
14446TIP3    H143281   2.414   2.473   4.571
14446TIP3    H243282   2.523   2.514   4.669
14447TIP3   OH243283   5.583   0.310   5.910
14447TIP3    H143284   5.522   0.383   5.913
14447TIP3    H243285   5.617   0.303   5.999
14448TIP3   OH243286   4.199   2.566   4.633
14448TIP3    H143287   4.266   2.628   4.603
14448TIP3    H243288   4.157   2.610   4.707
14449TIP3   OH243289   4.630   6.879   0.646
14449TIP3    H143290   4.673   6.920   0.721
14449TIP3    H243291   4.677   6.914   0.570
14450TIP3   OH243292   0.253   1.631   0.941
14450TIP3    H143293   0.190   1.601   1.007
14450TIP3    H243294   0.266   1.724   0.961
14451TIP3   OH243295   1.417   5.340   1.941
14451TIP3    H143296   1.482   5.337   2.011
14451TIP3    H243297   1.466   5.366   1.863
14452TIP3   OH243298   5.109   0.366   4.090
14452TIP3    H143299   5.088   0.426   4.162
14452TIP3    H243300   5.199   0.387   4.067
14453TIP3   OH243301   6.956   1.029   0.186
14453TIP3    H143302   6.961   1.066   0.098
14453TIP3    H243303   6.872   0.982   0.188
14454TIP3   OH243304   2.793   2.426   4.662
14454TIP3    H143305   2.710   2.425   4.613
14454TIP3    H243306   2.817   2.334   4.671
14455TIP3   OH243307   0.237   0.361   5.983
14455TIP3    H143308   0.221   0.435   5.924
14455TIP3    H243309   0.327   0.334   5.966
14456TIP3   OH243310   5.431   7.230   2.492
14456TIP3    H143311   5.465   7.151   2.532
14456TIP3    H243312   5.494   7.298   2.515
14457TIP3   OH243313   5.948   4.161   6.348
14457TIP3    H143314   5.885   4.186   6.280
14457TIP3    H243315   5.916   4.076   6.380
14458TIP3   OH243316   0.358   6.763   0.276
14458TIP3    H143317   0.362   6.801   0.188
14458TIP3    H243318   0.267   6.775   0.303
14459TIP3   OH243319   2.725   7.143   3.142
14459TIP3    H143320   2.695   7.232   3.121
14459TIP3    H243321   2.645   7.091   3.141
14460TIP3   OH243322   2.537   5.188   6.269
14460TIP3    H143323   2.469   5.134   6.230
14460TIP3    H243324   2.611   5.181   6.208
14461TIP3   OH243325   1.953   4.245   1.777
14461TIP3    H143326   1.910   4.316   1.730
14461TIP3    H243327   1.882   4.185   1.799
14462TIP3   OH243328   8.026   5.386   2.257
14462TIP3    H143329   8.081   5.425   2.189
14462TIP3    H243330   8.087   5.364   2.327
14463TIP3   OH243331   2.787   4.221   1.035
14463TIP3    H143332   2.704   4.253   1.001
14463TIP3    H243333   2.765   4.175   1.116
14464TIP3   OH243334   2.760   5.493   1.904
14464TIP3    H143335   2.750   5.480   1.810
14464TIP3    H243336   2.852   5.477   1.922
14465TIP3   OH243337   5.179   3.749   3.576
14465TIP3    H143338   5.273   3.766   3.586
14465TIP3    H243339   5.150   3.723   3.663
14466TIP3   OH243340   5.446   7.075   3.738
14466TIP3    H143341   5.355   7.103   3.736
14466TIP3    H243342   5.464   7.061   3.831
14467TIP3   OH243343   2.100   3.715   5.863
14467TIP3    H143344   2.157   3.791   5.846
14467TIP3    H243345   2.136   3.646   5.808
14468TIP3   OH243346   2.872   3.491   3.152
14468TIP3    H143347   2.931   3.426   3.113
14468TIP3    H243348   2.858   3.555   3.082
14469TIP3   OH243349   6.408   6.231   2.806
14469TIP3    H143350   6.342   6.247   2.873
14469TIP3    H243351   6.492   6.240   2.852
14470TIP3   OH243352   5.338   5.901   1.877
14470TIP3    H143353   5.373   5.814   1.899
14470TIP3    H243354   5.410   5.944   1.831
14471TIP3   OH243355   5.467   0.948   2.682
14471TIP3    H143356   5.519   0.877   2.645
14471TIP3    H243357   5.445   0.918   2.770
14472TIP3   OH243358   5.184   5.724   2.503
14472TIP3    H143359   5.225   5.792   2.448
14472TIP3    H243360   5.153   5.772   2.580
14473TIP3   OH243361   2.979   2.163   1.943
14473TIP3    H143362   3.012   2.242   1.986
14473TIP3    H243363   3.039   2.094   1.973
14474TIP3   OH243364   7.815   2.465   0.590
14474TIP3    H143365   7.831   2.534   0.654
14474TIP3    H243366   7.766   2.399   0.639
14475TIP3   OH243367   5.653   1.882   3.442
14475TIP3    H143368   5.575   1.827   3.438
14475TIP3    H243369   5.672   1.890   3.535
14476TIP3   OH243370   0.857   1.195   0.157
14476TIP3    H143371   0.839   1.123   0.097
14476TIP3    H243372   0.898   1.262   0.102
14477TIP3   OH243373   6.635   4.061   6.235
14477TIP3    H143374   6.690   3.990   6.202
14477TIP3    H243375   6.660   4.137   6.182
14478TIP3   OH243376   2.233   7.543   6.505
14478TIP3    H143377   2.281   7.626   6.500
14478TIP3    H243378   2.184   7.539   6.423
14479TIP3   OH243379   3.201   1.587   3.131
14479TIP3    H143380   3.158   1.525   3.190
14479TIP3    H243381   3.278   1.617   3.178
14480TIP3   OH243382   0.537   4.430   2.570
14480TIP3    H143383   0.473   4.463   2.507
14480TIP3    H243384   0.524   4.335   2.571
14481TIP3   OH243385   3.278   6.730   5.217
14481TIP3    H143386   3.208   6.794   5.226
14481TIP3    H243387   3.294   6.699   5.306
14482TIP3   OH243388   5.706   5.433   6.633
14482TIP3    H143389   5.671   5.416   6.546
14482TIP3    H243390   5.753   5.353   6.656
14483TIP3   OH243391   1.431   2.519   0.997
14483TIP3    H143392   1.383   2.439   0.976
14483TIP3    H243393   1.370   2.571   1.049
14484TIP3   OH243394   0.857   6.444   1.168
14484TIP3    H143395   0.922   6.415   1.103
14484TIP3    H243396   0.774   6.409   1.134
14485TIP3   OH243397   1.012   2.370   4.099
14485TIP3    H143398   1.100   2.364   4.137
14485TIP3    H243399   1.017   2.317   4.020
14486TIP3   OH243400   3.704   0.878   0.100
14486TIP3    H143401   3.712   0.874   0.195
14486TIP3    H243402   3.635   0.815   0.079
14487TIP3   OH243403   6.695   2.008   0.065
14487TIP3    H143404   6.662   1.923   0.092
14487TIP3    H243405   6.788   1.992   0.045
14488TIP3   OH243406   1.636   3.840   5.510
14488TIP3    H143407   1.561   3.793   5.546
14488TIP3    H243408   1.698   3.847   5.584
14489TIP3   OH243409   7.508   4.674   6.537
14489TIP3    H143410   7.504   4.615   6.613
14489TIP3    H243411   7.441   4.740   6.555
14490TIP3   OH243412   8.210   7.399   3.602
14490TIP3    H143413   8.179   7.443   3.523
14490TIP3    H243414   8.306   7.401   3.595
14491TIP3   OH243415   4.211   0.340   5.419
14491TIP3    H143416   4.195   0.396   5.494
14491TIP3    H243417   4.302   0.360   5.393
14492TIP3   OH243418   3.151   0.133   2.157
14492TIP3    H143419   3.081   0.089   2.205
14492TIP3    H243420   3.120   0.223   2.145
14493TIP3   OH243421   8.033   2.323   3.789
14493TIP3    H143422   7.944   2.330   3.824
14493TIP3    H243423   8.088   2.365   3.855
14494TIP3   OH243424   5.730   2.795   4.839
14494TIP3    H143425   5.754   2.881   4.805
14494TIP3    H243426   5.718   2.740   4.761
14495TIP3   OH243427   1.849   1.419   1.699
14495TIP3    H143428   1.943   1.409   1.718
14495TIP3    H243429   1.831   1.351   1.634
14496TIP3   OH243430   4.203   1.479   4.006
14496TIP3    H143431   4.257   1.410   3.967
14496TIP3    H243432   4.206   1.551   3.943
14497TIP3   OH243433   8.262   4.138   4.903
14497TIP3    H143434   8.177   4.174   4.880
14497TIP3    H243435   8.246   4.084   4.980
14498TIP3   OH243436   3.814   5.863   6.644
14498TIP3    H143437   3.803   5.854   6.549
14498TIP3    H243438   3.852   5.780   6.672
14499TIP3   OH243439   8.272   0.538   4.565
14499TIP3    H143440   8.353   0.571   4.527
14499TIP3    H243441   8.203   0.583   4.516
14500TIP3   OH243442   4.805   0.646   5.679
14500TIP3    H143443   4.806   0.551   5.694
14500TIP3    H243444   4.756   0.682   5.753
14501TIP3   OH243445   3.119   2.716   3.848
14501TIP3    H143446   3.196   2.756   3.808
14501TIP3    H243447   3.125   2.739   3.941
14502TIP3   OH243448   3.186   4.822   5.779
14502TIP3    H143449   3.185   4.904   5.730
14502TIP3    H243450   3.154   4.845   5.866
14503TIP3   OH243451   4.787   7.443   1.760
14503TIP3    H143452   4.760   7.424   1.670
14503TIP3    H243453   4.723   7.397   1.815
14504TIP3   OH243454   5.138   3.352   2.644
14504TIP3    H143455   5.204   3.312   2.702
14504TIP3    H243456   5.104   3.426   2.694
14505TIP3   OH243457   5.750   1.039   5.526
14505TIP3    H143458   5.686   1.055   5.457
14505TIP3    H243459   5.705   0.979   5.586
14506TIP3   OH243460   3.429   4.077   5.961
14506TIP3    H143461   3.470   4.106   5.879
14506TIP3    H243462   3.356   4.137   5.974
14507TIP3   OH243463   1.688   0.120  -0.029
14507TIP3    H143464   1.725   0.066  -0.098
14507TIP3    H243465   1.662   0.057   0.039
14508TIP3   OH243466   4.444   1.860   2.938
14508TIP3    H143467   4.525   1.828   2.977
14508TIP3    H243468   4.400   1.781   2.906
14509TIP3   OH243469   6.218   4.384   2.369
14509TIP3    H143470   6.255   4.473   2.363
14509TIP3    H243471   6.225   4.349   2.280
14510TIP3   OH243472   6.617   2.025   2.577
14510TIP3    H143473   6.631   1.954   2.515
14510TIP3    H243474   6.644   2.104   2.529
14511TIP3   OH243475   6.956   1.286   3.814
14511TIP3    H143476   7.042   1.327   3.814
14511TIP3    H243477   6.921   1.305   3.727
14512TIP3   OH243478   2.303   5.764   3.719
14512TIP3    H143479   2.263   5.805   3.643
14512TIP3    H243480   2.391   5.740   3.690
14513TIP3   OH243481   2.488   0.219   3.439
14513TIP3    H143482   2.465   0.163   3.513
14513TIP3    H243483   2.580   0.200   3.422
14514TIP3   OH243484   1.340   0.997   1.610
14514TIP3    H143485   1.356   0.915   1.564
14514TIP3    H243486   1.326   1.062   1.541
14515TIP3   OH243487   3.605   3.739   5.658
14515TIP3    H143488   3.596   3.650   5.694
14515TIP3    H243489   3.519   3.758   5.619
14516TIP3   OH243490   2.732   6.698   4.842
14516TIP3    H143491   2.716   6.655   4.758
14516TIP3    H243492   2.737   6.626   4.905
14517TIP3   OH243493   2.160   3.747   1.918
14517TIP3    H143494   2.176   3.753   1.824
14517TIP3    H243495   2.080   3.797   1.932
14518TIP3   OH243496   1.758   6.308   2.671
14518TIP3    H143497   1.802   6.237   2.624
14518TIP3    H243498   1.807   6.317   2.753
14519TIP3   OH243499   2.294   0.039   0.875
14519TIP3    H143500   2.368   0.056   0.817
14519TIP3    H243501   2.333   0.023   0.961
14520TIP3   OH243502   5.204   2.447   2.366
14520TIP3    H143503   5.173   2.535   2.387
14520TIP3    H243504   5.299   2.452   2.377
14521TIP3   OH243505   5.187   1.482   1.574
14521TIP3    H143506   5.277   1.515   1.576
14521TIP3    H243507   5.157   1.491   1.665
14522TIP3   OH243508   6.418   2.336   0.849
14522TIP3    H143509   6.349   2.356   0.912
14522TIP3    H243510   6.484   2.404   0.864
14523TIP3   OH243511   6.661   3.527  -0.008
14523TIP3    H143512   6.608   3.450  -0.030
14523TIP3    H243513   6.603   3.602  -0.027
14524TIP3   OH243514   7.468   3.228   0.321
14524TIP3    H143515   7.548   3.198   0.277
14524TIP3    H243516   7.404   3.160   0.301
14525TIP3   OH243517   4.103   3.102   0.599
14525TIP3    H143518   4.138   3.025   0.643
14525TIP3    H243519   4.048   3.067   0.529
14526TIP3   OH243520   4.328  -0.024   3.709
14526TIP3    H143521   4.335  -0.009   3.803
14526TIP3    H243522   4.334   0.063   3.670
14527TIP3   OH243523   8.206   0.382   3.491
14527TIP3    H143524   8.231   0.458   3.438
14527TIP3    H243525   8.245   0.307   3.444
14528TIP3   OH243526   1.908   4.558   5.804
14528TIP3    H143527   1.897   4.647   5.770
14528TIP3    H243528   2.001   4.539   5.793
14529TIP3   OH243529   5.201   1.104   6.003
14529TIP3    H143530   5.176   1.173   6.064
14529TIP3    H243531   5.125   1.047   5.998
14530TIP3   OH243532   1.932   0.704   3.407
14530TIP3    H143533   1.964   0.668   3.489
14530TIP3    H243534   1.984   0.659   3.340
14531TIP3   OH243535   0.769   0.032   1.918
14531TIP3    H143536   0.812   0.112   1.888
14531TIP3    H243537   0.826  -0.002   1.987
14532TIP3   OH243538   5.364   6.034   4.741
14532TIP3    H143539   5.405   6.121   4.746
14532TIP3    H243540   5.403   5.985   4.814
14533TIP3   OH243541   6.511   6.131   5.865
14533TIP3    H143542   6.538   6.216   5.829
14533TIP3    H243543   6.557   6.067   5.811
14534TIP3   OH243544   2.146   0.039   4.708
14534TIP3    H143545   2.169   0.113   4.652
14534TIP3    H243546   2.145   0.076   4.796
14535TIP3   OH243547   6.700   6.047   5.214
14535TIP3    H143548   6.675   6.027   5.304
14535TIP3    H243549   6.764   6.118   5.222
14536TIP3   OH243550   2.899   6.420   3.648
14536TIP3    H143551   2.905   6.380   3.734
14536TIP3    H243552   2.881   6.512   3.666
14537TIP3   OH243553   0.482   6.349   2.381
14537TIP3    H143554   0.452   6.304   2.460
14537TIP3    H243555   0.405   6.348   2.323
14538TIP3   OH243556   1.619   4.148   5.966
14538TIP3    H143557   1.663   4.068   5.996
14538TIP3    H243558   1.691   4.208   5.944
14539TIP3   OH243559   2.404   4.312   2.468
14539TIP3    H143560   2.442   4.245   2.525
14539TIP3    H243561   2.450   4.301   2.384
14540TIP3   OH243562   4.084   6.815   6.577
14540TIP3    H143563   4.016   6.881   6.568
14540TIP3    H243564   4.036   6.732   6.581
14541TIP3   OH243565   0.800   0.653   3.247
14541TIP3    H143566   0.722   0.605   3.274
14541TIP3    H243567   0.796   0.734   3.298
14542TIP3   OH243568   0.877   1.330   1.069
14542TIP3    H143569   0.924   1.248   1.054
14542TIP3    H243570   0.836   1.350   0.984
14543TIP3   OH243571   7.894   0.493   4.207
14543TIP3    H143572   7.826   0.512   4.272
14543TIP3    H243573   7.946   0.424   4.247
14544TIP3   OH243574   0.422   2.549   6.710
14544TIP3    H143575   0.349   2.601   6.675
14544TIP3    H243576   0.500   2.587   6.671
14545TIP3   OH243577   6.927   7.610   1.519
14545TIP3    H143578   6.860   7.630   1.585
14545TIP3    H243579   6.922   7.515   1.509
14546TIP3   OH243580   8.103   0.716   4.405
14546TIP3    H143581   8.076   0.701   4.314
14546TIP3    H243582   8.028   0.761   4.445
14547TIP3   OH243583   7.478   1.044   4.985
14547TIP3    H143584   7.516   1.033   5.072
14547TIP3    H243585   7.479   1.138   4.970
14548TIP3   OH243586   7.363   6.871   4.517
14548TIP3    H143587   7.449   6.913   4.506
14548TIP3    H243588   7.383   6.780   4.537
14549TIP3   OH243589   6.815   5.683   1.805
14549TIP3    H143590   6.840   5.698   1.896
14549TIP3    H243591   6.796   5.771   1.771
14550TIP3   OH243592   0.497   1.708   4.340
14550TIP3    H143593   0.472   1.799   4.358
14550TIP3    H243594   0.414   1.660   4.342
14551TIP3   OH243595   5.793   2.380   0.360
14551TIP3    H143596   5.751   2.295   0.348
14551TIP3    H243597   5.723   2.443   0.342
14552TIP3   OH243598   0.959   2.481   5.800
14552TIP3    H143599   0.945   2.410   5.736
14552TIP3    H243600   1.048   2.511   5.783
14553TIP3   OH243601   4.237   1.945   6.318
14553TIP3    H143602   4.295   1.951   6.395
14553TIP3    H243603   4.291   1.901   6.252
14554TIP3   OH243604   4.238   3.417   6.318
14554TIP3    H143605   4.228   3.511   6.300
14554TIP3    H243606   4.149   3.385   6.327
14555TIP3   OH243607   4.374   7.766   3.898
14555TIP3    H143608   4.369   7.742   3.990
14555TIP3    H243609   4.340   7.690   3.851
14556TIP3   OH243610   1.523   1.768   0.892
14556TIP3    H143611   1.491   1.837   0.951
14556TIP3    H243612   1.501   1.800   0.804
14557TIP3   OH243613   5.728   5.350   3.610
14557TIP3    H143614   5.752   5.347   3.518
14557TIP3    H243615   5.633   5.362   3.611
14558TIP3   OH243616   1.980   5.182   3.344
14558TIP3    H143617   2.047   5.250   3.344
14558TIP3    H243618   1.923   5.203   3.270
14559TIP3   OH243619   4.507   6.311   0.961
14559TIP3    H143620   4.416   6.285   0.948
14559TIP3    H243621   4.555   6.261   0.895
14560TIP3   OH243622   4.550   3.506   1.899
14560TIP3    H143623   4.618   3.509   1.832
14560TIP3    H243624   4.585   3.559   1.971
14561TIP3   OH243625   7.473   1.745   4.589
14561TIP3    H143626   7.432   1.781   4.667
14561TIP3    H243627   7.438   1.799   4.517
14562TIP3   OH243628   7.927   3.342   1.573
14562TIP3    H143629   7.961   3.429   1.591
14562TIP3    H243630   7.918   3.339   1.478
14563TIP3   OH243631   3.993   1.645   1.725
14563TIP3    H143632   3.949   1.664   1.642
14563TIP3    H243633   4.072   1.597   1.701
14564TIP3   OH243634   7.173   4.130   4.808
14564TIP3    H143635   7.261   4.137   4.846
14564TIP3    H243636   7.114   4.152   4.879
14565TIP3   OH243637   4.820   0.651   2.083
14565TIP3    H143638   4.753   0.603   2.035
14565TIP3    H243639   4.824   0.737   2.040
14566TIP3   OH243640   7.806   5.711   4.510
14566TIP3    H143641   7.866   5.777   4.546
14566TIP3    H243642   7.722   5.757   4.503
14567TIP3   OH243643   1.675   3.536   6.287
14567TIP3    H143644   1.629   3.617   6.305
14567TIP3    H243645   1.768   3.560   6.285
14568TIP3   OH243646   5.236   4.175   3.258
14568TIP3    H143647   5.200   4.087   3.273
14568TIP3    H243648   5.328   4.167   3.283
14569TIP3   OH243649   8.085   4.467   2.695
14569TIP3    H143650   8.027   4.393   2.676
14569TIP3    H243651   8.028   4.544   2.693
14570TIP3   OH243652   4.509   0.080   3.452
14570TIP3    H143653   4.556   0.064   3.534
14570TIP3    H243654   4.558   0.031   3.387
14571TIP3   OH243655   4.616   1.323   1.515
14571TIP3    H143656   4.607   1.398   1.456
14571TIP3    H243657   4.649   1.252   1.459
14572TIP3   OH243658   5.648   7.086   3.965
14572TIP3    H143659   5.617   7.068   4.054
14572TIP3    H243660   5.639   7.181   3.955
14573TIP3   OH243661   5.940   4.293   2.403
14573TIP3    H143662   6.034   4.279   2.397
14573TIP3    H243663   5.929   4.387   2.391
14574TIP3   OH243664   0.399   7.452   3.758
14574TIP3    H143665   0.421   7.410   3.841
14574TIP3    H243666   0.444   7.537   3.761
14575TIP3   OH243667   1.755   0.652   6.586
14575TIP3    H143668   1.828   0.596   6.611
14575TIP3    H243669   1.685   0.590   6.563
14576TIP3   OH243670   2.469   6.098   5.117
14576TIP3    H143671   2.468   6.003   5.103
14576TIP3    H243672   2.439   6.110   5.207
14577TIP3   OH243673   7.392   3.259   5.442
14577TIP3    H143674   7.374   3.229   5.531
14577TIP3    H243675   7.387   3.180   5.388
14578TIP3   OH243676   2.646   2.656   3.048
14578TIP3    H143677   2.651   2.624   3.138
14578TIP3    H243678   2.557   2.636   3.020
14579TIP3   OH243679   7.580   4.966   1.343
14579TIP3    H143680   7.672   4.969   1.366
14579TIP3    H243681   7.534   4.972   1.427
14580TIP3   OH243682   7.493   0.235   2.953
14580TIP3    H143683   7.551   0.280   2.892
14580TIP3    H243684   7.416   0.292   2.959
14581TIP3   OH243685   6.961   3.542   3.308
14581TIP3    H143686   6.868   3.545   3.328
14581TIP3    H243687   6.977   3.452   3.280
14582TIP3   OH243688   2.491   6.684   1.186
14582TIP3    H143689   2.539   6.606   1.156
14582TIP3    H243690   2.400   6.654   1.195
14583TIP3   OH243691   4.868   6.363   6.729
14583TIP3    H143692   4.775   6.361   6.748
14583TIP3    H243693   4.900   6.275   6.751
14584TIP3   OH243694   3.738   0.989   6.078
14584TIP3    H143695   3.798   1.055   6.112
14584TIP3    H243696   3.666   0.988   6.140
14585TIP3   OH243697   0.629   0.154   0.038
14585TIP3    H143698   0.582   0.076   0.009
14585TIP3    H243699   0.642   0.140   0.132
14586TIP3   OH243700   4.638   6.436   1.626
14586TIP3    H143701   4.578   6.363   1.614
14586TIP3    H243702   4.583   6.514   1.615
14587TIP3   OH243703   6.177   2.689   3.764
14587TIP3    H143704   6.226   2.729   3.835
14587TIP3    H243705   6.177   2.754   3.694
14588TIP3   OH243706   6.726   4.389   4.511
14588TIP3    H143707   6.631   4.395   4.522
14588TIP3    H243708   6.751   4.475   4.476
14589TIP3   OH243709   6.089   1.771   5.075
14589TIP3    H143710   6.142   1.850   5.081
14589TIP3    H243711   6.053   1.759   5.163
14590TIP3   OH243712   8.122   6.036   6.033
14590TIP3    H143713   8.123   5.946   6.002
14590TIP3    H243714   8.105   6.028   6.127
14591TIP3   OH243715   7.848   2.033   2.925
14591TIP3    H143716   7.791   1.958   2.915
14591TIP3    H243717   7.920   2.002   2.980
14592TIP3   OH243718   6.213   0.662   2.413
14592TIP3    H143719   6.244   0.752   2.402
14592TIP3    H243720   6.166   0.663   2.496
14593TIP3   OH243721   1.117   2.223   1.468
14593TIP3    H143722   1.075   2.230   1.554
14593TIP3    H243723   1.051   2.183   1.412
14594TIP3   OH243724   5.647   7.372   1.357
14594TIP3    H143725   5.651   7.422   1.439
14594TIP3    H243726   5.580   7.306   1.374
14595TIP3   OH243727   2.704   1.753   2.237
14595TIP3    H143728   2.650   1.811   2.291
14595TIP3    H243729   2.728   1.681   2.295
14596TIP3   OH243730   5.567   4.009   5.059
14596TIP3    H143731   5.619   3.980   5.134
14596TIP3    H243732   5.512   3.933   5.038
14597TIP3   OH243733   7.043   7.065   3.859
14597TIP3    H143734   6.971   7.015   3.898
14597TIP3    H243735   7.019   7.071   3.766
14598TIP3   OH243736   7.196   2.092   2.358
14598TIP3    H143737   7.110   2.068   2.392
14598TIP3    H243738   7.257   2.030   2.398
14599TIP3   OH243739   2.788   3.014   0.352
14599TIP3    H143740   2.836   3.095   0.371
14599TIP3    H243741   2.812   2.993   0.262
14600TIP3   OH243742   6.919   7.721   5.910
14600TIP3    H143743   6.982   7.750   5.975
14600TIP3    H243744   6.852   7.789   5.908
14601TIP3   OH243745   1.218   5.396   4.904
14601TIP3    H143746   1.263   5.332   4.849
14601TIP3    H243747   1.232   5.480   4.860
14602TIP3   OH243748   5.297   2.585   4.569
14602TIP3    H143749   5.367   2.540   4.618
14602TIP3    H243750   5.323   2.578   4.478
14603TIP3   OH243751   2.335   3.502   2.174
14603TIP3    H143752   2.244   3.500   2.146
14603TIP3    H243753   2.362   3.593   2.161
14604TIP3   OH243754   2.406   3.614   3.052
14604TIP3    H143755   2.417   3.709   3.056
14604TIP3    H243756   2.490   3.582   3.018
14605TIP3   OH243757   0.182   5.574   0.350
14605TIP3    H143758   0.259   5.522   0.326
14605TIP3    H243759   0.124   5.568   0.274
14606TIP3   OH243760   7.033   5.990   0.650
14606TIP3    H143761   6.942   5.999   0.623
14606TIP3    H243762   7.058   5.903   0.620
14607TIP3   OH243763   6.830   7.658   1.234
14607TIP3    H143764   6.790   7.598   1.171
14607TIP3    H243765   6.798   7.629   1.319
14608TIP3   OH243766   7.748   2.994   4.219
14608TIP3    H143767   7.668   3.011   4.169
14608TIP3    H243768   7.717   2.969   4.306
14609TIP3   OH243769   7.946   7.067   1.865
14609TIP3    H143770   7.895   7.077   1.785
14609TIP3    H243771   7.949   7.155   1.902
14610TIP3   OH243772   0.164   3.336   1.607
14610TIP3    H143773   0.119   3.333   1.522
14610TIP3    H243774   0.247   3.290   1.591
14611TIP3   OH243775   0.972   4.012   6.350
14611TIP3    H143776   0.904   4.079   6.355
14611TIP3    H243777   0.924   3.929   6.357
14612TIP3   OH243778   0.303   5.619   1.988
14612TIP3    H143779   0.354   5.690   1.949
14612TIP3    H243780   0.332   5.617   2.080
14613TIP3   OH243781   1.526   7.370   0.482
14613TIP3    H143782   1.510   7.333   0.568
14613TIP3    H243783   1.444   7.356   0.435
14614TIP3   OH243784   8.068   3.469   1.069
14614TIP3    H143785   7.985   3.430   1.043
14614TIP3    H243786   8.063   3.560   1.040
14615TIP3   OH243787   0.929   3.141   2.127
14615TIP3    H143788   0.914   3.172   2.216
14615TIP3    H243789   0.848   3.163   2.080
14616TIP3   OH243790   7.234   2.907   2.934
14616TIP3    H143791   7.298   2.886   3.002
14616TIP3    H243792   7.232   3.002   2.931
14617TIP3   OH243793   1.291   0.945   2.622
14617TIP3    H143794   1.294   1.036   2.650
14617TIP3    H243795   1.382   0.922   2.602
14618TIP3   OH243796   5.262   6.649   5.511
14618TIP3    H143797   5.272   6.574   5.569
14618TIP3    H243798   5.299   6.620   5.427
14619TIP3   OH243799   0.128   2.229   3.512
14619TIP3    H143800   0.195   2.292   3.486
14619TIP3    H243801   0.122   2.238   3.607
14620TIP3   OH243802   0.771   5.948   1.894
14620TIP3    H143803   0.752   5.945   1.988
14620TIP3    H243804   0.837   5.880   1.881
14621TIP3   OH243805   2.129   1.531   0.748
14621TIP3    H143806   2.157   1.549   0.838
14621TIP3    H243807   2.034   1.521   0.755
14622TIP3   OH243808   2.884   3.646   6.434
14622TIP3    H143809   2.924   3.595   6.505
14622TIP3    H243810   2.791   3.624   6.439
14623TIP3   OH243811   5.722   2.342   2.191
14623TIP3    H143812   5.632   2.320   2.167
14623TIP3    H243813   5.771   2.261   2.181
14624TIP3   OH243814   8.120   4.039   5.427
14624TIP3    H143815   8.214   4.049   5.414
14624TIP3    H243816   8.099   4.102   5.497
14625TIP3   OH243817   5.717   1.779   5.807
14625TIP3    H143818   5.775   1.846   5.842
14625TIP3    H243819   5.751   1.697   5.843
14626TIP3   OH243820   6.836   0.244   2.906
14626TIP3    H143821   6.809   0.333   2.883
14626TIP3    H243822   6.825   0.239   3.001
14627TIP3   OH243823   1.347   1.914   5.207
14627TIP3    H143824   1.325   1.917   5.113
14627TIP3    H243825   1.268   1.880   5.249
14628TIP3   OH243826   6.248   0.712   3.032
14628TIP3    H143827   6.287   0.752   3.109
14628TIP3    H243828   6.219   0.786   2.978
14629TIP3   OH243829   2.623   1.982   0.769
14629TIP3    H143830   2.675   1.922   0.717
14629TIP3    H243831   2.557   2.016   0.709
14630TIP3   OH243832   2.375   4.363   5.178
14630TIP3    H143833   2.344   4.274   5.196
14630TIP3    H243834   2.449   4.351   5.118
14631TIP3   OH243835   4.463   5.186   3.268
14631TIP3    H143836   4.555   5.162   3.262
14631TIP3    H243837   4.433   5.194   3.177
14632TIP3   OH243838   3.292   7.142   4.646
14632TIP3    H143839   3.330   7.174   4.564
14632TIP3    H243840   3.290   7.219   4.703
14633TIP3   OH243841   5.827   6.793   6.623
14633TIP3    H143842   5.840   6.727   6.555
14633TIP3    H243843   5.732   6.794   6.638
14634TIP3   OH243844   7.938   5.887   4.248
14634TIP3    H143845   7.986   5.849   4.321
14634TIP3    H243846   7.994   5.960   4.218
14635TIP3   OH243847   3.541   1.402   4.783
14635TIP3    H143848   3.478   1.339   4.749
14635TIP3    H243849   3.492   1.452   4.848
14636TIP3   OH243850   7.573   1.116   3.155
14636TIP3    H143851   7.665   1.123   3.128
14636TIP3    H243852   7.524   1.116   3.073
14637TIP3   OH243853   7.318   5.598   6.788
14637TIP3    H143854   7.389   5.582   6.726
14637TIP3    H243855   7.247   5.634   6.735
14638TIP3   OH243856   3.710   5.125   5.209
14638TIP3    H143857   3.781   5.182   5.182
14638TIP3    H243858   3.687   5.155   5.297
14639TIP3   OH243859   6.286   6.281   0.517
14639TIP3    H143860   6.298   6.218   0.587
14639TIP3    H243861   6.191   6.282   0.502
14640TIP3   OH243862   3.402   1.308   1.927
14640TIP3    H143863   3.423   1.398   1.902
14640TIP3    H243864   3.382   1.313   2.021
14641TIP3   OH243865   5.583   7.443   2.544
14641TIP3    H143866   5.676   7.422   2.546
14641TIP3    H243867   5.561   7.463   2.635
14642TIP3   OH243868   7.982   6.832   0.573
14642TIP3    H143869   7.995   6.800   0.663
14642TIP3    H243870   8.046   6.783   0.521
14643TIP3   OH243871   7.186   3.960   5.227
14643TIP3    H143872   7.127   3.915   5.287
14643TIP3    H243873   7.214   4.039   5.274
14644TIP3   OH243874   1.533   0.499   3.110
14644TIP3    H143875   1.512   0.558   3.182
14644TIP3    H243876   1.589   0.550   3.052
14645TIP3   OH243877   2.872   6.229   2.344
14645TIP3    H143878   2.788   6.267   2.370
14645TIP3    H243879   2.885   6.259   2.254
14646TIP3   OH243880   1.210   5.237   0.191
14646TIP3    H143881   1.292   5.189   0.179
14646TIP3    H243882   1.215   5.271   0.280
14647TIP3   OH243883   3.656   4.340   2.431
14647TIP3    H143884   3.671   4.395   2.355
14647TIP3    H243885   3.574   4.295   2.413
14648TIP3   OH243886   4.054   5.374   6.622
14648TIP3    H143887   3.974   5.340   6.581
14648TIP3    H243888   4.042   5.358   6.716
14649TIP3   OH243889   6.976   1.751   5.755
14649TIP3    H143890   6.899   1.694   5.762
14649TIP3    H243891   7.028   1.712   5.685
14650TIP3   OH243892   4.539   0.021   1.125
14650TIP3    H143893   4.556   0.093   1.065
14650TIP3    H243894   4.444   0.010   1.122
14651TIP3   OH243895   5.666   5.955   2.184
14651TIP3    H143896   5.595   5.894   2.166
14651TIP3    H243897   5.695   5.932   2.272
14652TIP3   OH243898   5.074   4.952   5.062
14652TIP3    H143899   5.100   5.044   5.069
14652TIP3    H243900   5.002   4.943   5.124
14653TIP3   OH243901   4.160   3.589   1.357
14653TIP3    H143902   4.158   3.590   1.262
14653TIP3    H243903   4.079   3.632   1.384
14654TIP3   OH243904   6.690   7.457   3.314
14654TIP3    H143905   6.635   7.493   3.245
14654TIP3    H243906   6.692   7.525   3.381
14655TIP3   OH243907   3.072   2.058   3.881
14655TIP3    H143908   3.018   2.047   3.803
14655TIP3    H243909   3.162   2.060   3.848
14656TIP3   OH243910   1.460   7.588   5.524
14656TIP3    H143911   1.380   7.641   5.523
14656TIP3    H243912   1.530   7.651   5.537
14657TIP3   OH243913   0.959   6.112   5.813
14657TIP3    H143914   0.896   6.171   5.771
14657TIP3    H243915   1.030   6.103   5.749
14658TIP3   OH243916   6.645   7.801   0.012
14658TIP3    H143917   6.649   7.884   0.060
14658TIP3    H243918   6.730   7.760   0.030
14659TIP3   OH243919   3.709   3.671   0.370
14659TIP3    H143920   3.714   3.753   0.421
14659TIP3    H243921   3.737   3.603   0.431
14660TIP3   OH243922   0.504   1.715   2.770
14660TIP3    H143923   0.429   1.735   2.826
14660TIP3    H243924   0.490   1.623   2.744
14661TIP3   OH243925   1.994   1.184   1.610
14661TIP3    H143926   2.054   1.182   1.685
14661TIP3    H243927   2.051   1.188   1.534
14662TIP3   OH243928   2.465   7.625   2.861
14662TIP3    H143929   2.490   7.717   2.863
14662TIP3    H243930   2.474   7.596   2.952
14663TIP3   OH243931   7.416   6.483   2.465
14663TIP3    H143932   7.347   6.519   2.521
14663TIP3    H243933   7.497   6.509   2.508
14664TIP3   OH243934   7.258   4.789   0.980
14664TIP3    H143935   7.194   4.729   1.017
14664TIP3    H243936   7.224   4.876   0.999
14665TIP3   OH243937   6.524   6.242   1.575
14665TIP3    H143938   6.468   6.239   1.498
14665TIP3    H243939   6.513   6.157   1.617
14666TIP3   OH243940   2.930   4.589   6.064
14666TIP3    H143941   2.889   4.611   5.980
14666TIP3    H243942   2.916   4.495   6.073
14667TIP3   OH243943   1.878   5.682   0.537
14667TIP3    H143944   1.858   5.767   0.577
14667TIP3    H243945   1.929   5.635   0.603
14668TIP3   OH243946   4.386   6.862   4.666
14668TIP3    H143947   4.380   6.883   4.759
14668TIP3    H243948   4.457   6.797   4.660
14669TIP3   OH243949   5.245   7.266   5.911
14669TIP3    H143950   5.227   7.306   5.827
14669TIP3    H243951   5.301   7.329   5.956
14670TIP3   OH243952   0.643   6.643   6.248
14670TIP3    H143953   0.700   6.720   6.250
14670TIP3    H243954   0.689   6.579   6.303
14671TIP3   OH243955   5.688   0.454   2.461
14671TIP3    H143956   5.739   0.486   2.534
14671TIP3    H243957   5.619   0.519   2.448
14672TIP3   OH243958   7.566   3.173   3.194
14672TIP3    H143959   7.611   3.174   3.110
14672TIP3    H243960   7.583   3.086   3.229
14673TIP3   OH243961   2.344   1.288   2.381
14673TIP3    H143962   2.300   1.285   2.296
14673TIP3    H243963   2.369   1.380   2.391
14674TIP3   OH243964   8.108   4.520   3.976
14674TIP3    H143965   8.077   4.598   4.023
14674TIP3    H243966   8.193   4.546   3.940
14675TIP3   OH243967   2.834   4.222   5.109
14675TIP3    H143968   2.841   4.256   5.198
14675TIP3    H243969   2.919   4.182   5.091
14676TIP3   OH243970   7.923   7.179   0.117
14676TIP3    H143971   7.840   7.223   0.134
14676TIP3    H243972   7.899   7.097   0.076
14677TIP3   OH243973   4.687   7.423   4.101
14677TIP3    H143974   4.734   7.342   4.082
14677TIP3    H243975   4.750   7.492   4.081
14678TIP3   OH243976   6.378   3.157   4.880
14678TIP3    H143977   6.336   3.074   4.857
14678TIP3    H243978   6.472   3.138   4.876
14679TIP3   OH243979   4.207   1.961   2.799
14679TIP3    H143980   4.157   1.912   2.864
14679TIP3    H243981   4.236   1.896   2.736
14680TIP3   OH243982   6.112   3.799   2.215
14680TIP3    H143983   6.205   3.795   2.196
14680TIP3    H243984   6.071   3.826   2.133
14681TIP3   OH243985   5.249   1.459   2.208
14681TIP3    H143986   5.205   1.452   2.292
14681TIP3    H243987   5.238   1.551   2.182
14682TIP3   OH243988   2.614   2.759   3.542
14682TIP3    H143989   2.585   2.838   3.497
14682TIP3    H243990   2.563   2.757   3.623
14683TIP3   OH243991   3.472   4.079   2.664
14683TIP3    H143992   3.547   4.024   2.645
14683TIP3    H243993   3.462   4.135   2.587
14684TIP3   OH243994   4.655   6.126   5.698
14684TIP3    H143995   4.584   6.114   5.761
14684TIP3    H243996   4.618   6.181   5.629
14685TIP3   OH243997   0.171   7.324   2.253
14685TIP3    H143998   0.148   7.239   2.293
14685TIP3    H243999   0.255   7.347   2.293
14686TIP3   OH244000   2.855   2.772   4.375
14686TIP3    H144001   2.836   2.798   4.465
14686TIP3    H244002   2.880   2.854   4.332
14687TIP3   OH244003   1.333   6.234   6.582
14687TIP3    H144004   1.357   6.181   6.658
14687TIP3    H244005   1.288   6.173   6.524
14688TIP3   OH244006   4.459   4.938   0.284
14688TIP3    H144007   4.516   4.874   0.325
14688TIP3    H244008   4.386   4.948   0.344
14689TIP3   OH244009   1.089   2.484   1.345
14689TIP3    H144010   1.043   2.534   1.413
14689TIP3    H244011   1.099   2.396   1.382
14690TIP3   OH244012   5.431   4.219   4.205
14690TIP3    H144013   5.362   4.263   4.154
14690TIP3    H244014   5.385   4.147   4.248
14691TIP3   OH244015   2.632   5.675   4.272
14691TIP3    H144016   2.661   5.669   4.181
14691TIP3    H244017   2.536   5.681   4.266
14692TIP3   OH244018   5.873   2.171   1.399
14692TIP3    H144019   5.792   2.131   1.430
14692TIP3    H244020   5.845   2.243   1.344
14693TIP3   OH244021   7.472   7.411   4.568
14693TIP3    H144022   7.532   7.381   4.636
14693TIP3    H244023   7.472   7.506   4.575
14694TIP3   OH244024   5.175   1.064   4.180
14694TIP3    H144025   5.253   1.023   4.143
14694TIP3    H244026   5.209   1.137   4.233
14695TIP3   OH244027   4.233   4.298   0.389
14695TIP3    H144028   4.168   4.362   0.421
14695TIP3    H244029   4.262   4.334   0.305
14696TIP3   OH244030   6.926   5.794   0.269
14696TIP3    H144031   6.931   5.889   0.261
14696TIP3    H244032   6.862   5.768   0.203
14697TIP3   OH244033   4.838   3.586   3.866
14697TIP3    H144034   4.745   3.596   3.884
14697TIP3    H244035   4.861   3.502   3.906
14698TIP3   OH244036   6.514   5.273   6.482
14698TIP3    H144037   6.522   5.344   6.546
14698TIP3    H244038   6.603   5.243   6.468
14699TIP3   OH244039   3.343   2.145   0.936
14699TIP3    H144040   3.267   2.090   0.952
14699TIP3    H244041   3.366   2.182   1.022
14700TIP3   OH244042   5.281   4.570   4.290
14700TIP3    H144043   5.198   4.533   4.320
14700TIP3    H244044   5.316   4.616   4.366
14701TIP3   OH244045   2.519   5.314   2.252
14701TIP3    H144046   2.451   5.375   2.283
14701TIP3    H244047   2.514   5.240   2.313
14702TIP3   OH244048   7.042   3.171   4.394
14702TIP3    H144049   7.010   3.221   4.469
14702TIP3    H244050   7.136   3.163   4.409
14703TIP3   OH244051   7.019   1.692   1.740
14703TIP3    H144052   6.960   1.630   1.697
14703TIP3    H244053   7.100   1.688   1.688
14704TIP3   OH244054   5.285   7.113   4.159
14704TIP3    H144055   5.200   7.109   4.203
14704TIP3    H244056   5.277   7.051   4.086
14705TIP3   OH244057   7.321   5.848   1.629
14705TIP3    H144058   7.383   5.910   1.590
14705TIP3    H244059   7.341   5.764   1.587
14706TIP3   OH244060   8.240   1.927   3.361
14706TIP3    H144061   8.235   1.850   3.306
14706TIP3    H244062   8.186   1.993   3.316
14707TIP3   OH244063   3.889   5.470   3.718
14707TIP3    H144064   3.929   5.396   3.764
14707TIP3    H244065   3.906   5.545   3.776
14708TIP3   OH244066   6.152   2.660   6.381
14708TIP3    H144067   6.087   2.679   6.314
14708TIP3    H244068   6.170   2.567   6.372
14709TIP3   OH244069   2.893   6.295   0.200
14709TIP3    H144070   2.965   6.356   0.186
14709TIP3    H244071   2.861   6.315   0.288
14710TIP3   OH244072   3.259   6.449   5.227
14710TIP3    H144073   3.260   6.545   5.220
14710TIP3    H244074   3.182   6.430   5.279
14711TIP3   OH244075   0.891   7.663   0.664
14711TIP3    H144076   0.942   7.676   0.584
14711TIP3    H244077   0.906   7.742   0.715
14712TIP3   OH244078   1.027   4.663   3.330
14712TIP3    H144079   1.040   4.752   3.300
14712TIP3    H244080   0.957   4.670   3.395
14713TIP3   OH244081   7.233   1.194   1.884
14713TIP3    H144082   7.295   1.123   1.900
14713TIP3    H244083   7.286   1.266   1.852
14714TIP3   OH244084   3.802   7.698   0.865
14714TIP3    H144085   3.768   7.608   0.857
14714TIP3    H244086   3.799   7.716   0.959
14715TIP3   OH244087   3.228   4.818   5.326
14715TIP3    H144088   3.285   4.853   5.394
14715TIP3    H244089   3.179   4.748   5.369
14716TIP3   OH244090   4.926   4.985   5.291
14716TIP3    H144091   4.840   5.003   5.328
14716TIP3    H244092   4.986   5.039   5.341
14717TIP3   OH244093   7.528   6.473   2.208
14717TIP3    H144094   7.514   6.542   2.144
14717TIP3    H244095   7.471   6.497   2.281
14718TIP3   OH244096   4.787   5.928   1.915
14718TIP3    H144097   4.880   5.946   1.901
14718TIP3    H244098   4.743   5.969   1.839
14719TIP3   OH244099   1.950   6.704   3.554
14719TIP3    H144100   1.889   6.759   3.603
14719TIP3    H244101   1.957   6.745   3.468
14720TIP3   OH244102   0.684   5.832   4.708
14720TIP3    H144103   0.611   5.818   4.648
14720TIP3    H244104   0.652   5.799   4.792
14721TIP3   OH244105   3.530   4.442   0.631
14721TIP3    H144106   3.451   4.417   0.584
14721TIP3    H244107   3.545   4.370   0.693
14722TIP3   OH244108   7.732   5.171   5.505
14722TIP3    H144109   7.711   5.109   5.435
14722TIP3    H244110   7.796   5.125   5.559
14723TIP3   OH244111   7.163   0.916   2.765
14723TIP3    H144112   7.075   0.910   2.803
14723TIP3    H244113   7.213   0.849   2.810
14724TIP3   OH244114   7.487   4.801   0.508
14724TIP3    H144115   7.540   4.859   0.563
14724TIP3    H244116   7.416   4.773   0.565
14725TIP3   OH244117   1.147   2.862   4.905
14725TIP3    H144118   1.233   2.829   4.880
14725TIP3    H244119   1.161   2.954   4.927
14726TIP3   OH244120   5.677   0.202   1.987
14726TIP3    H144121   5.586   0.172   1.990
14726TIP3    H244122   5.720   0.144   1.924
14727TIP3   OH244123   6.787   6.671   4.481
14727TIP3    H144124   6.769   6.723   4.560
14727TIP3    H244125   6.828   6.591   4.514
14728TIP3   OH244126   4.139   5.177   3.221
14728TIP3    H144127   4.160   5.247   3.283
14728TIP3    H244128   4.048   5.156   3.239
14729TIP3   OH244129   6.922   0.232   4.995
14729TIP3    H144130   6.979   0.192   4.929
14729TIP3    H244131   6.837   0.188   4.984
14730TIP3   OH244132   6.824   1.992   4.078
14730TIP3    H144133   6.789   1.997   4.167
14730TIP3    H244134   6.841   1.899   4.064
14731TIP3   OH244135   4.707   4.383   0.969
14731TIP3    H144136   4.789   4.406   1.013
14731TIP3    H244137   4.667   4.468   0.947
14732TIP3   OH244138   3.243   0.450   1.027
14732TIP3    H144139   3.274   0.540   1.015
14732TIP3    H244140   3.157   0.448   0.984
14733TIP3   OH244141   4.173   0.490   1.290
14733TIP3    H144142   4.140   0.553   1.353
14733TIP3    H244143   4.261   0.470   1.319
14734TIP3   OH244144   3.987   6.430   3.552
14734TIP3    H144145   3.966   6.395   3.465
14734TIP3    H244146   4.078   6.460   3.545
14735TIP3   OH244147   4.662   4.464   5.151
14735TIP3    H144148   4.679   4.384   5.200
14735TIP3    H244149   4.736   4.472   5.091
14736TIP3   OH244150   1.425   6.739   1.171
14736TIP3    H144151   1.398   6.670   1.231
14736TIP3    H244152   1.406   6.821   1.217
14737TIP3   OH244153   1.353   5.063   3.796
14737TIP3    H144154   1.319   5.132   3.853
14737TIP3    H244155   1.337   4.982   3.844
14738TIP3   OH244156   6.279   6.740   5.926
14738TIP3    H144157   6.277   6.662   5.980
14738TIP3    H244158   6.201   6.789   5.950
14739TIP3   OH244159   7.448   0.009   6.339
14739TIP3    H144160   7.422  -0.043   6.263
14739TIP3    H244161   7.507   0.076   6.304
14740TIP3   OH244162   5.734   0.436   2.183
14740TIP3    H144163   5.722   0.439   2.278
14740TIP3    H244164   5.736   0.343   2.162
14741TIP3   OH244165   1.120   1.023   1.268
14741TIP3    H144166   1.113   0.946   1.324
14741TIP3    H244167   1.052   1.082   1.299
14742TIP3   OH244168   6.095   3.617   5.909
14742TIP3    H144169   6.041   3.689   5.941
14742TIP3    H244170   6.041   3.574   5.843
14743TIP3   OH244171   8.243   7.822   2.666
14743TIP3    H144172   8.242   7.784   2.578
14743TIP3    H244173   8.175   7.774   2.714
14744TIP3   OH244174   5.927   5.473   5.647
14744TIP3    H144175   5.968   5.405   5.702
14744TIP3    H244176   5.989   5.546   5.650
14745TIP3   OH244177   2.011   0.735   3.985
14745TIP3    H144178   2.064   0.728   4.064
14745TIP3    H244179   2.043   0.814   3.941
14746TIP3   OH244180   4.548   4.027   3.257
14746TIP3    H144181   4.506   3.980   3.329
14746TIP3    H244182   4.522   3.979   3.178
14747TIP3   OH244183   5.418   5.806   5.534
14747TIP3    H144184   5.375   5.722   5.519
14747TIP3    H244185   5.364   5.869   5.488
14748TIP3   OH244186   2.064   7.291   4.583
14748TIP3    H144187   2.021   7.338   4.511
14748TIP3    H244188   1.997   7.232   4.616
14749TIP3   OH244189   6.253   6.831   4.133
14749TIP3    H144190   6.226   6.789   4.215
14749TIP3    H244191   6.176   6.827   4.077
14750TIP3   OH244192   0.270   5.712   6.430
14750TIP3    H144193   0.181   5.726   6.462
14750TIP3    H244194   0.272   5.756   6.345
14751TIP3   OH244195   0.232   3.708   5.237
14751TIP3    H144196   0.145   3.698   5.277
14751TIP3    H244197   0.214   3.721   5.144
14752TIP3   OH244198   1.016   6.118   2.400
14752TIP3    H144199   1.026   6.130   2.305
14752TIP3    H244200   1.046   6.029   2.416
14753TIP3   OH244201   3.323   0.983   4.421
14753TIP3    H144202   3.233   1.013   4.411
14753TIP3    H244203   3.340   0.930   4.343
14754TIP3   OH244204   4.163   1.100   3.804
14754TIP3    H144205   4.206   1.185   3.798
14754TIP3    H244206   4.176   1.061   3.717
14755TIP3   OH244207   2.110   5.227   2.054
14755TIP3    H144208   2.021   5.235   2.019
14755TIP3    H244209   2.141   5.317   2.062
14756TIP3   OH244210   4.937   0.941   0.793
14756TIP3    H144211   4.921   0.909   0.704
14756TIP3    H244212   5.010   1.002   0.783
14757TIP3   OH244213   5.001   0.110   5.482
14757TIP3    H144214   5.092   0.105   5.509
14757TIP3    H244215   4.999   0.066   5.397
14758TIP3   OH244216   5.816   6.104   5.812
14758TIP3    H144217   5.877   6.080   5.743
14758TIP3    H244218   5.737   6.052   5.795
14759TIP3   OH244219   6.552   1.623   6.703
14759TIP3    H144220   6.601   1.634   6.784
14759TIP3    H244221   6.478   1.568   6.726
14760TIP3   OH244222   6.533   7.580   2.654
14760TIP3    H144223   6.616   7.621   2.631
14760TIP3    H244224   6.508   7.531   2.576
14761TIP3   OH244225   7.955   1.131   1.211
14761TIP3    H144226   7.992   1.210   1.172
14761TIP3    H244227   8.031   1.078   1.234
14762TIP3   OH244228   0.110   2.776   2.526
14762TIP3    H144229   0.037   2.838   2.521
14762TIP3    H244230   0.168   2.802   2.454
14763TIP3   OH244231   2.639   1.558   6.431
14763TIP3    H144232   2.547   1.552   6.405
14763TIP3    H244233   2.683   1.598   6.356
14764TIP3   OH244234   5.742   3.391   1.941
14764TIP3    H144235   5.806   3.461   1.954
14764TIP3    H244236   5.658   3.436   1.932
14765TIP3   OH244237   7.339   4.224   1.462
14765TIP3    H144238   7.396   4.253   1.533
14765TIP3    H244239   7.322   4.303   1.411
14766TIP3   OH244240   0.474   3.033   2.401
14766TIP3    H144241   0.439   3.033   2.312
14766TIP3    H244242   0.566   3.055   2.391
14767TIP3   OH244243   0.870   4.708   3.572
14767TIP3    H144244   0.903   4.768   3.639
14767TIP3    H244245   0.778   4.732   3.562
14768TIP3   OH244246   3.038   4.141   0.426
14768TIP3    H144247   3.001   4.225   0.399
14768TIP3    H244248   3.087   4.161   0.506
14769TIP3   OH244249   0.398   6.065   4.616
14769TIP3    H144250   0.397   5.974   4.585
14769TIP3    H244251   0.413   6.058   4.710
14770TIP3   OH244252   6.946   2.155   6.431
14770TIP3    H144253   7.018   2.217   6.436
14770TIP3    H244254   6.903   2.173   6.348
14771TIP3   OH244255   6.631   3.431   0.794
14771TIP3    H144256   6.683   3.373   0.738
14771TIP3    H244257   6.542   3.396   0.789
14772TIP3   OH244258   5.850   4.328   3.963
14772TIP3    H144259   5.833   4.303   4.054
14772TIP3    H244260   5.938   4.365   3.964
14773TIP3   OH244261   6.778   7.694   4.374
14773TIP3    H144262   6.852   7.752   4.389
14773TIP3    H244263   6.704   7.737   4.418
14774TIP3   OH244264   0.566   0.715   6.605
14774TIP3    H144265   0.554   0.718   6.511
14774TIP3    H244266   0.542   0.802   6.635
14775TIP3   OH244267   2.166   5.315   6.705
14775TIP3    H144268   2.256   5.347   6.711
14775TIP3    H244269   2.117   5.368   6.768
14776TIP3   OH244270   1.370   4.805   6.436
14776TIP3    H144271   1.294   4.753   6.408
14776TIP3    H244272   1.353   4.892   6.401
14777TIP3   OH244273   6.157   5.936   0.443
14777TIP3    H144274   6.145   5.841   0.432
14777TIP3    H244275   6.159   5.949   0.538
14778TIP3   OH244276   2.728   1.510   1.754
14778TIP3    H144277   2.756   1.456   1.828
14778TIP3    H244278   2.771   1.471   1.678
14779TIP3   OH244279   0.572   1.242   0.649
14779TIP3    H144280   0.581   1.330   0.612
14779TIP3    H244281   0.529   1.256   0.733
14780TIP3   OH244282   7.639   6.591   3.055
14780TIP3    H144283   7.688   6.665   3.091
14780TIP3    H244284   7.614   6.619   2.967
14781TIP3   OH244285   7.907   2.076   0.684
14781TIP3    H144286   7.836   2.094   0.622
14781TIP3    H244287   7.978   2.134   0.656
14782TIP3   OH244288   4.067   3.216   3.261
14782TIP3    H144289   3.994   3.156   3.248
14782TIP3    H244290   4.126   3.170   3.320
14783TIP3   OH244291   7.601   0.624   6.527
14783TIP3    H144292   7.568   0.538   6.502
14783TIP3    H244293   7.661   0.607   6.600
14784TIP3   OH244294   4.787   5.126   0.205
14784TIP3    H144295   4.819   5.086   0.286
14784TIP3    H244296   4.855   5.106   0.140
14785TIP3   OH244297   4.112   2.805   3.680
14785TIP3    H144298   4.039   2.828   3.622
14785TIP3    H244299   4.156   2.888   3.697
14786TIP3   OH244300   7.614   2.001   1.637
14786TIP3    H144301   7.647   2.058   1.567
14786TIP3    H244302   7.623   1.913   1.601
14787TIP3   OH244303   1.799   4.748   2.060
14787TIP3    H144304   1.794   4.704   2.145
14787TIP3    H244305   1.708   4.751   2.029
14788TIP3   OH244306   3.415   2.685   5.576
14788TIP3    H144307   3.420   2.774   5.543
14788TIP3    H244308   3.501   2.667   5.612
14789TIP3   OH244309   0.622   1.050   2.249
14789TIP3    H144310   0.639   1.141   2.225
14789TIP3    H244311   0.586   1.011   2.169
14790TIP3   OH244312   0.844   1.078   3.140
14790TIP3    H144313   0.919   1.018   3.149
14790TIP3    H244314   0.805   1.055   3.056
14791TIP3   OH244315   0.067   1.379   4.405
14791TIP3    H144316   0.050   1.303   4.460
14791TIP3    H244317   0.041   1.454   4.460
14792TIP3   OH244318   0.241   3.179   0.016
14792TIP3    H144319   0.207   3.161  -0.072
14792TIP3    H244320   0.237   3.095   0.060
14793TIP3   OH244321   1.209   2.117   4.093
14793TIP3    H144322   1.274   2.186   4.078
14793TIP3    H244323   1.189   2.083   4.006
14794TIP3   OH244324   3.585   6.296   1.026
14794TIP3    H144325   3.492   6.288   1.047
14794TIP3    H244326   3.605   6.218   0.973
14795TIP3   OH244327   0.538   4.326   3.369
14795TIP3    H144328   0.565   4.390   3.435
14795TIP3    H244329   0.492   4.258   3.419
14796TIP3   OH244330   0.539   7.534   2.736
14796TIP3    H144331   0.566   7.563   2.823
14796TIP3    H244332   0.460   7.585   2.718
14797TIP3   OH244333   7.508   7.715   0.748
14797TIP3    H144334   7.515   7.728   0.842
14797TIP3    H244335   7.595   7.685   0.721
14798TIP3   OH244336   3.731   7.458   2.552
14798TIP3    H144337   3.653   7.458   2.609
14798TIP3    H244338   3.730   7.544   2.511
14799TIP3   OH244339   5.756   3.448   3.889
14799TIP3    H144340   5.679   3.481   3.842
14799TIP3    H244341   5.818   3.425   3.821
14800TIP3   OH244342   4.765   5.614   3.461
14800TIP3    H144343   4.807   5.550   3.518
14800TIP3    H244344   4.757   5.693   3.514
14801TIP3   OH244345   3.121   0.824   1.773
14801TIP3    H144346   3.165   0.896   1.727
14801TIP3    H244347   3.189   0.784   1.826
14802TIP3   OH244348   4.665   1.350   2.282
14802TIP3    H144349   4.744   1.401   2.299
14802TIP3    H244350   4.692   1.259   2.299
14803TIP3   OH244351   0.316   6.784   2.412
14803TIP3    H144352   0.256   6.722   2.371
14803TIP3    H244353   0.403   6.749   2.392
14804TIP3   OH244354   4.588   3.674   1.064
14804TIP3    H144355   4.547   3.704   0.982
14804TIP3    H244356   4.526   3.698   1.132
14805TIP3   OH244357   3.546   7.141   5.718
14805TIP3    H144358   3.452   7.133   5.738
14805TIP3    H244359   3.565   7.068   5.660
14806TIP3   OH244360   6.263   1.906   6.731
14806TIP3    H144361   6.231   1.839   6.670
14806TIP3    H244362   6.357   1.890   6.737
14807TIP3   OH244363   6.541   7.276   2.077
14807TIP3    H144364   6.626   7.241   2.051
14807TIP3    H244365   6.524   7.237   2.163
14808TIP3   OH244366   5.097   6.174   5.774
14808TIP3    H144367   5.096   6.149   5.867
14808TIP3    H244368   5.024   6.234   5.765
14809TIP3   OH244369   6.348   5.692   4.993
14809TIP3    H144370   6.389   5.631   4.931
14809TIP3    H244371   6.378   5.778   4.965
14810TIP3   OH244372   0.524   5.624   1.133
14810TIP3    H144373   0.569   5.671   1.063
14810TIP3    H244374   0.571   5.647   1.213
14811TIP3   OH244375   1.688   7.156   4.845
14811TIP3    H144376   1.700   7.205   4.764
14811TIP3    H244377   1.596   7.171   4.869
14812TIP3   OH244378   3.932   3.173   4.862
14812TIP3    H144379   3.852   3.224   4.847
14812TIP3    H244380   4.002   3.237   4.868
14813TIP3   OH244381   6.285   2.420   0.126
14813TIP3    H144382   6.212   2.359   0.143
14813TIP3    H244383   6.363   2.369   0.148
14814TIP3   OH244384   3.476   0.239   2.754
14814TIP3    H144385   3.388   0.203   2.766
14814TIP3    H244386   3.466   0.332   2.776
14815TIP3   OH244387  -0.024   5.039   0.843
14815TIP3    H144388  -0.028   5.020   0.937
14815TIP3    H244389  -0.046   4.956   0.801
14816TIP3   OH244390   6.209   1.715   2.994
14816TIP3    H144391   6.153   1.735   3.069
14816TIP3    H244392   6.296   1.702   3.032
14817TIP3   OH244393   4.357   0.468   6.154
14817TIP3    H144394   4.378   0.395   6.211
14817TIP3    H244395   4.422   0.464   6.085
14818TIP3   OH244396   4.255   3.355   3.136
14818TIP3    H144397   4.197   3.310   3.198
14818TIP3    H244398   4.211   3.347   3.052
14819TIP3   OH244399   2.758   6.586   3.332
14819TIP3    H144400   2.711   6.523   3.386
14819TIP3    H244401   2.816   6.632   3.394
14820TIP3   OH244402   0.267   3.231   0.703
14820TIP3    H144403   0.186   3.253   0.749
14820TIP3    H244404   0.238   3.177   0.629
14821TIP3   OH244405   5.771   7.406   4.645
14821TIP3    H144406   5.732   7.320   4.658
14821TIP3    H244407   5.734   7.437   4.562
14822TIP3   OH244408   2.015   4.548   4.406
14822TIP3    H144409   1.972   4.619   4.455
14822TIP3    H244410   2.076   4.594   4.348
14823TIP3   OH244411   7.157   6.313   3.503
14823TIP3    H144412   7.164   6.266   3.421
14823TIP3    H244413   7.156   6.406   3.478
14824TIP3   OH244414  -0.021   1.662   4.983
14824TIP3    H144415  -0.030   1.607   5.061
14824TIP3    H244416  -0.004   1.601   4.912
14825TIP3   OH244417   0.063   7.125   4.689
14825TIP3    H144418   0.099   7.101   4.775
14825TIP3    H244419   0.135   7.168   4.644
14826TIP3   OH244420   4.495   1.563   2.207
14826TIP3    H144421   4.517   1.474   2.180
14826TIP3    H244422   4.570   1.590   2.261
14827TIP3   OH244423   3.745   1.015   6.421
14827TIP3    H144424   3.837   1.040   6.410
14827TIP3    H244425   3.707   1.085   6.474
14828TIP3   OH244426   3.505   0.732   3.630
14828TIP3    H144427   3.420   0.708   3.593
14828TIP3    H244428   3.486   0.809   3.684
14829TIP3   OH244429   2.533   2.351   1.245
14829TIP3    H144430   2.614   2.355   1.296
14829TIP3    H244431   2.559   2.316   1.160
14830TIP3   OH244432   2.144   0.090   3.302
14830TIP3    H144433   2.055   0.077   3.336
14830TIP3    H244434   2.159   0.184   3.310
   8.28455   7.81076   6.76431   0.00000   0.00000  -2.76151   0.00000  -2.76151  -3.90537
