Title t= 153.00000 step= 76500
44469
    1GLY      N    1   5.564   5.429   4.136
    1GLY    HT1    2   5.636   5.503   4.150
    1GLY    HT2    3   5.598   5.344   4.185
    1GLY    HT3    4   5.476   5.468   4.176
    1GLY     CA    5   5.554   5.397   3.994
    1GLY    HA1    6   5.493   5.308   3.998
    1GLY    HA2    7   5.648   5.390   3.942
    1GLY      C    8   5.472   5.497   3.918
    1GLY      O    9   5.430   5.594   3.981
    2PRO      N   10   5.451   5.485   3.793
    2PRO     CD   11   5.484   5.360   3.723
    2PRO    HD1   12   5.442   5.271   3.775
    2PRO    HD2   13   5.593   5.342   3.713
    2PRO     CA   14   5.403   5.592   3.705
    2PRO     HA   15   5.460   5.682   3.725
    2PRO     CB   16   5.416   5.531   3.565
    2PRO    HB1   17   5.515   5.567   3.528
    2PRO    HB2   18   5.345   5.569   3.489
    2PRO     CG   19   5.410   5.379   3.590
    2PRO    HG1   20   5.304   5.361   3.617
    2PRO    HG2   21   5.443   5.299   3.521
    2PRO      C   22   5.261   5.633   3.716
    2PRO      O   23   5.223   5.726   3.647
    3GLY      N   24   5.173   5.571   3.802
    3GLY     HN   25   5.207   5.492   3.853
    3GLY     CA   26   5.037   5.617   3.835
    3GLY    HA1   27   4.996   5.532   3.888
    3GLY    HA2   28   4.979   5.659   3.754
    3GLY      C   29   5.033   5.721   3.944
    3GLY      O   30   4.937   5.793   3.956
    4ASN      N   31   5.142   5.728   4.018
    4ASN     HN   32   5.212   5.659   4.000
    4ASN     CA   33   5.158   5.824   4.119
    4ASN     HA   34   5.066   5.844   4.172
    4ASN     CB   35   5.260   5.775   4.221
    4ASN    HB1   36   5.254   5.846   4.307
    4ASN    HB2   37   5.362   5.770   4.177
    4ASN     CG   38   5.242   5.625   4.259
    4ASN    OD1   39   5.317   5.531   4.243
    4ASN    ND2   40   5.126   5.601   4.326
    4ASN   HD21   41   5.114   5.505   4.351
    4ASN   HD22   42   5.070   5.672   4.368
    4ASN      C   43   5.220   5.959   4.065
    4ASN      O   44   5.325   5.956   3.999
    5PRO      N   45   5.162   6.075   4.095
    5PRO     CD   46   5.021   6.095   4.135
    5PRO    HD1   47   5.007   6.067   4.242
    5PRO    HD2   48   4.953   6.041   4.066
    5PRO     CA   49   5.223   6.204   4.066
    5PRO     HA   50   5.217   6.216   3.959
    5PRO     CB   51   5.134   6.301   4.141
    5PRO    HB1   52   5.153   6.408   4.117
    5PRO    HB2   53   5.166   6.298   4.247
    5PRO     CG   54   4.993   6.248   4.115
    5PRO    HG1   55   4.921   6.292   4.187
    5PRO    HG2   56   4.956   6.273   4.014
    5PRO      C   57   5.371   6.214   4.105
    5PRO      O   58   5.405   6.163   4.213
    6GLY      N   59   5.457   6.274   4.022
    6GLY     HN   60   5.433   6.279   3.925
    6GLY     CA   61   5.590   6.315   4.063
    6GLY    HA1   62   5.643   6.339   3.973
    6GLY    HA2   63   5.631   6.230   4.115
    6GLY      C   64   5.586   6.431   4.164
    6GLY      O   65   5.483   6.475   4.206
    7PRO      N   66   5.709   6.474   4.207
    7PRO     CD   67   5.826   6.398   4.180
    7PRO    HD1   68   5.852   6.394   4.072
    7PRO    HD2   69   5.804   6.294   4.212
    7PRO     CA   70   5.731   6.580   4.300
    7PRO     HA   71   5.680   6.542   4.388
    7PRO     CB   72   5.881   6.594   4.315
    7PRO    HB1   73   5.895   6.589   4.425
    7PRO    HB2   74   5.925   6.683   4.265
    7PRO     CG   75   5.940   6.462   4.258
    7PRO    HG1   76   6.037   6.467   4.205
    7PRO    HG2   77   5.962   6.399   4.347
    7PRO      C   78   5.661   6.712   4.277
    7PRO      O   79   5.643   6.757   4.162
    8GLY      N   80   5.643   6.785   4.387
    8GLY     HN   81   5.671   6.739   4.471
    8GLY     CA   82   5.565   6.909   4.399
    8GLY    HA1   83   5.537   6.939   4.299
    8GLY    HA2   84   5.621   6.983   4.454
    8GLY      C   85   5.438   6.880   4.479
    8GLY      O   86   5.418   6.771   4.526
    9ASN      N   87   5.356   6.981   4.495
    9ASN     HN   88   5.363   7.064   4.441
    9ASN     CA   89   5.236   6.978   4.577
    9ASN     HA   90   5.261   6.938   4.675
    9ASN     CB   91   5.181   7.116   4.601
    9ASN    HB1   92   5.085   7.120   4.658
    9ASN    HB2   93   5.160   7.157   4.500
    9ASN     CG   94   5.275   7.217   4.671
    9ASN    OD1   95   5.350   7.187   4.763
    9ASN    ND2   96   5.270   7.343   4.620
    9ASN   HD21   97   5.333   7.414   4.654
    9ASN   HD22   98   5.201   7.378   4.557
    9ASN      C   99   5.118   6.886   4.520
    9ASN      O  100   5.101   6.882   4.397
   10PRO      N  101   5.026   6.819   4.599
   10PRO     CD  102   5.029   6.828   4.746
   10PRO    HD1  103   5.069   6.927   4.780
   10PRO    HD2  104   5.098   6.746   4.775
   10PRO     CA  105   4.898   6.784   4.551
   10PRO     HA  106   4.903   6.718   4.466
   10PRO     CB  107   4.830   6.727   4.673
   10PRO    HB1  108   4.865   6.622   4.683
   10PRO    HB2  109   4.719   6.725   4.685
   10PRO     CG  110   4.891   6.805   4.794
   10PRO    HG1  111   4.839   6.903   4.801
   10PRO    HG2  112   4.889   6.752   4.891
   10PRO      C  113   4.805   6.893   4.481
   10PRO      O  114   4.806   7.013   4.529
   11GLY      N  115   4.727   6.857   4.377
   11GLY     HN  116   4.726   6.764   4.342
   11GLY     CA  117   4.627   6.953   4.321
   11GLY    HA1  118   4.607   6.902   4.228
   11GLY    HA2  119   4.675   7.049   4.310
   11GLY      C  120   4.496   6.964   4.398
   11GLY      O  121   4.500   6.934   4.515
   12PRO      N  122   4.390   7.016   4.331
   12PRO     CD  123   4.406   7.095   4.217
   12PRO    HD1  124   4.458   7.033   4.141
   12PRO    HD2  125   4.463   7.189   4.231
   12PRO     CA  126   4.253   7.028   4.389
   12PRO     HA  127   4.251   7.059   4.492
   12PRO     CB  128   4.194   7.141   4.302
   12PRO    HB1  129   4.210   7.239   4.351
   12PRO    HB2  130   4.084   7.136   4.283
   12PRO     CG  131   4.264   7.123   4.170
   12PRO    HG1  132   4.224   7.035   4.115
   12PRO    HG2  133   4.267   7.213   4.103
   12PRO      C  134   4.182   6.893   4.374
   12PRO      O  135   4.071   6.881   4.424
   13GLY      N  136   4.241   6.800   4.310
   13GLY     HN  137   4.337   6.810   4.284
   13GLY     CA  138   4.189   6.674   4.293
   13GLY    HA1  139   4.102   6.657   4.355
   13GLY    HA2  140   4.253   6.590   4.315
   13GLY      C  141   4.137   6.664   4.151
   13GLY      O  142   4.122   6.764   4.086
   14ASN      N  143   4.120   6.538   4.104
   14ASN     HN  144   4.119   6.460   4.166
   14ASN     CA  145   4.101   6.510   3.962
   14ASN     HA  146   4.094   6.600   3.904
   14ASN     CB  147   4.194   6.399   3.902
   14ASN    HB1  148   4.171   6.385   3.794
   14ASN    HB2  149   4.183   6.295   3.939
   14ASN     CG  150   4.340   6.444   3.911
   14ASN    OD1  151   4.383   6.558   3.930
   14ASN    ND2  152   4.430   6.346   3.889
   14ASN   HD21  153   4.524   6.364   3.916
   14ASN   HD22  154   4.403   6.249   3.890
   14ASN      C  155   3.963   6.454   3.959
   14ASN      O  156   3.923   6.409   4.066
   15PRO      N  157   3.884   6.468   3.856
   15PRO     CD  158   3.918   6.556   3.743
   15PRO    HD1  159   4.021   6.547   3.704
   15PRO    HD2  160   3.898   6.653   3.794
   15PRO     CA  161   3.743   6.425   3.861
   15PRO     HA  162   3.687   6.459   3.946
   15PRO     CB  163   3.681   6.484   3.730
   15PRO    HB1  164   3.616   6.572   3.748
   15PRO    HB2  165   3.635   6.405   3.667
   15PRO     CG  166   3.803   6.537   3.648
   15PRO    HG1  167   3.831   6.450   3.584
   15PRO    HG2  168   3.775   6.636   3.606
   15PRO      C  169   3.728   6.272   3.868
   15PRO    OT1  170   3.633   6.223   3.925
   15PRO    OT2  171   3.815   6.198   3.823
   16LIT    LIT  172   1.983   5.236   2.519
   17LIT    LIT  173   7.288   3.591   6.662
   18LIT    LIT  174   8.013   6.513   0.048
   19LIT    LIT  175   1.560   6.912   4.419
   20LIT    LIT  176   2.012   1.942   3.470
   21LIT    LIT  177   1.078   6.666   5.829
   22LIT    LIT  178   6.401   7.644   3.747
   23LIT    LIT  179   2.881   2.031   5.220
   24LIT    LIT  180   3.893   5.378   2.629
   25LIT    LIT  181   7.910   6.844   4.463
   26LIT    LIT  182   6.235   7.439   0.697
   27LIT    LIT  183   2.892   4.673   1.534
   28LIT    LIT  184   7.948   4.708   5.341
   29LIT    LIT  185   7.806   4.749   6.233
   30LIT    LIT  186   4.890   2.016   2.922
   31LIT    LIT  187   0.193   1.805   0.311
   32LIT    LIT  188   6.478   0.860   3.652
   33LIT    LIT  189   0.508   5.437   3.042
   34LIT    LIT  190   1.334   1.277   2.259
   35LIT    LIT  191   6.558   4.028   3.189
   36LIT    LIT  192   6.030   4.529   0.093
   37LIT    LIT  193   2.463   1.368   6.038
   38LIT    LIT  194   1.751   3.315   3.248
   39LIT    LIT  195   4.153   6.323   5.762
   40LIT    LIT  196   1.567   5.371   0.049
   41LIT    LIT  197   1.052   5.367   4.922
   42LIT    LIT  198   2.499   2.273   5.432
   43LIT    LIT  199   3.719   6.055   3.917
   44LIT    LIT  200   4.116   4.367   4.242
   45LIT    LIT  201   2.080   4.261   4.857
   46LIT    LIT  202   2.799   1.055   0.715
   47LIT    LIT  203   6.662   2.755   5.439
   48LIT    LIT  204   6.729   1.215   0.320
   49LIT    LIT  205   0.699   2.541   4.538
   50LIT    LIT  206   5.898   5.117   2.473
   51LIT    LIT  207   5.196   1.204   1.800
   52LIT    LIT  208   6.320   3.088   2.708
   53LIT    LIT  209   1.663   0.078   1.227
   54LIT    LIT  210   4.636   7.013   1.490
   55LIT    LIT  211   1.471   3.759   1.616
   56LIT    LIT  212   0.779   3.668   0.015
   57LIT    LIT  213   6.144   2.732   4.765
   58CLA    CLA  214   2.706   2.945   3.081
   59CLA    CLA  215   5.013   0.343   1.062
   60CLA    CLA  216   7.789   1.154   4.236
   61CLA    CLA  217   5.618   1.819   4.062
   62CLA    CLA  218   5.339   6.668   0.134
   63CLA    CLA  219   7.951   7.451   4.028
   64CLA    CLA  220   1.084   5.882   5.652
   65CLA    CLA  221   4.092   2.454   6.281
   66CLA    CLA  222   0.245   7.240   1.247
   67CLA    CLA  223   6.812   3.308   1.750
   68CLA    CLA  224   1.176   5.426   1.480
   69CLA    CLA  225   6.328   3.902   4.722
   70CLA    CLA  226   3.082   6.947   4.121
   71CLA    CLA  227   7.187   4.092   4.998
   72CLA    CLA  228   6.283   5.352   1.861
   73CLA    CLA  229   0.510   4.234   2.747
   74CLA    CLA  230   3.085   5.310   5.257
   75CLA    CLA  231   1.883   3.703   5.327
   76CLA    CLA  232   3.724   1.924   3.952
   77CLA    CLA  233   5.523   4.427   6.520
   78CLA    CLA  234   5.430   7.695   5.070
   79CLA    CLA  235   3.515   5.277   3.187
   80CLA    CLA  236   0.871   4.991   3.926
   81CLA    CLA  237   6.678   7.462   6.602
   82CLA    CLA  238   8.096   2.294   3.573
   83CLA    CLA  239   5.199   6.513   1.128
   84CLA    CLA  240   2.375   5.486   4.170
   85CLA    CLA  241   2.587   6.923   6.638
   86CLA    CLA  242   6.515   1.429   2.474
   87CLA    CLA  243   6.828   1.235   1.139
   88CLA    CLA  244   2.569   6.729   4.985
   89CLA    CLA  245   6.926   5.387   0.997
   90CLA    CLA  246   8.042   6.871   6.652
   91CLA    CLA  247   2.396   0.784   2.963
   92CLA    CLA  248   7.882   4.524   6.168
   93CLA    CLA  249   4.195   3.239   3.921
   94CLA    CLA  250   4.424   4.713   3.315
   95CLA    CLA  251   2.288   1.955   6.095
   96CLA    CLA  252   1.025   4.221   5.873
   97CLA    CLA  253   4.807   1.422   6.600
   98CLA    CLA  254   0.316   5.408   5.379
   99CLA    CLA  255   7.877   4.160   0.296
  100TIP3   OH2  256   4.180   0.027   5.160
  100TIP3    H1  257   4.235   0.064   5.230
  100TIP3    H2  258   4.189  -0.068   5.171
  101TIP3   OH2  259   0.308   4.843   2.910
  101TIP3    H1  260   0.247   4.856   2.983
  101TIP3    H2  261   0.305   4.925   2.861
  102TIP3   OH2  262   6.237   0.280   1.449
  102TIP3    H1  263   6.208   0.285   1.358
  102TIP3    H2  264   6.280   0.364   1.465
  103TIP3   OH2  265   1.406   2.548   6.108
  103TIP3    H1  266   1.495   2.514   6.105
  103TIP3    H2  267   1.363   2.496   6.176
  104TIP3   OH2  268   4.781   0.389   6.597
  104TIP3    H1  269   4.705   0.386   6.656
  104TIP3    H2  270   4.756   0.334   6.523
  105TIP3   OH2  271   7.840   5.651   0.994
  105TIP3    H1  272   7.903   5.722   0.992
  105TIP3    H2  273   7.845   5.611   0.907
  106TIP3   OH2  274   3.797   5.645   3.761
  106TIP3    H1  275   3.765   5.557   3.740
  106TIP3    H2  276   3.892   5.635   3.767
  107TIP3   OH2  277   3.153   2.755   2.086
  107TIP3    H1  278   3.182   2.840   2.117
  107TIP3    H2  279   3.062   2.749   2.115
  108TIP3   OH2  280   2.806   2.766   0.756
  108TIP3    H1  281   2.854   2.794   0.678
  108TIP3    H2  282   2.756   2.843   0.782
  109TIP3   OH2  283   4.736   4.448   4.319
  109TIP3    H1  284   4.783   4.365   4.316
  109TIP3    H2  285   4.804   4.514   4.328
  110TIP3   OH2  286   6.635   5.081   6.703
  110TIP3    H1  287   6.625   4.993   6.739
  110TIP3    H2  288   6.577   5.135   6.757
  111TIP3   OH2  289   7.400   0.578   5.680
  111TIP3    H1  290   7.331   0.515   5.696
  111TIP3    H2  291   7.468   0.556   5.743
  112TIP3   OH2  292   5.666   1.240   6.408
  112TIP3    H1  293   5.591   1.182   6.394
  112TIP3    H2  294   5.726   1.189   6.462
  113TIP3   OH2  295   7.420   5.694   6.128
  113TIP3    H1  296   7.496   5.635   6.126
  113TIP3    H2  297   7.423   5.739   6.044
  114TIP3   OH2  298   6.005   2.363   0.493
  114TIP3    H1  299   5.950   2.304   0.441
  114TIP3    H2  300   6.094   2.349   0.459
  115TIP3   OH2  301   5.560   3.655   4.545
  115TIP3    H1  302   5.645   3.689   4.572
  115TIP3    H2  303   5.542   3.698   4.461
  116TIP3   OH2  304   7.257   2.307   2.252
  116TIP3    H1  305   7.266   2.280   2.344
  116TIP3    H2  306   7.221   2.395   2.256
  117TIP3   OH2  307   4.811   4.196   4.753
  117TIP3    H1  308   4.818   4.291   4.760
  117TIP3    H2  309   4.873   4.162   4.818
  118TIP3   OH2  310   3.239   5.914   5.695
  118TIP3    H1  311   3.274   5.991   5.650
  118TIP3    H2  312   3.151   5.939   5.721
  119TIP3   OH2  313   5.349   6.757   5.505
  119TIP3    H1  314   5.443   6.757   5.488
  119TIP3    H2  315   5.309   6.787   5.423
  120TIP3   OH2  316   6.964   7.629   3.727
  120TIP3    H1  317   6.963   7.711   3.678
  120TIP3    H2  318   7.052   7.595   3.717
  121TIP3   OH2  319   1.409   5.355   4.570
  121TIP3    H1  320   1.348   5.324   4.503
  121TIP3    H2  321   1.462   5.278   4.592
  122TIP3   OH2  322   3.542   7.072   6.668
  122TIP3    H1  323   3.560   7.000   6.607
  122TIP3    H2  324   3.492   7.135   6.615
  123TIP3   OH2  325   0.452   7.118   3.498
  123TIP3    H1  326   0.393   7.090   3.568
  123TIP3    H2  327   0.400   7.177   3.444
  124TIP3   OH2  328   0.431   5.369   2.669
  124TIP3    H1  329   0.456   5.419   2.747
  124TIP3    H2  330   0.514   5.355   2.623
  125TIP3   OH2  331   4.041   7.206   0.270
  125TIP3    H1  332   4.030   7.264   0.345
  125TIP3    H2  333   4.079   7.126   0.307
  126TIP3   OH2  334   6.739   7.584   3.559
  126TIP3    H1  335   6.789   7.603   3.638
  126TIP3    H2  336   6.805   7.569   3.491
  127TIP3   OH2  337   2.208   0.857   5.804
  127TIP3    H1  338   2.247   0.850   5.891
  127TIP3    H2  339   2.218   0.949   5.779
  128TIP3   OH2  340   1.887   3.577   6.032
  128TIP3    H1  341   1.793   3.581   6.049
  128TIP3    H2  342   1.896   3.602   5.940
  129TIP3   OH2  343   1.602   2.468   6.330
  129TIP3    H1  344   1.579   2.376   6.337
  129TIP3    H2  345   1.698   2.469   6.323
  130TIP3   OH2  346   2.167   0.863   1.449
  130TIP3    H1  347   2.131   0.951   1.435
  130TIP3    H2  348   2.122   0.831   1.526
  131TIP3   OH2  349   2.419   1.366   5.346
  131TIP3    H1  350   2.500   1.407   5.316
  131TIP3    H2  351   2.354   1.393   5.281
  132TIP3   OH2  352   0.828   5.467   2.121
  132TIP3    H1  353   0.816   5.558   2.096
  132TIP3    H2  354   0.740   5.437   2.146
  133TIP3   OH2  355   0.546   2.842   2.553
  133TIP3    H1  356   0.460   2.799   2.552
  133TIP3    H2  357   0.608   2.772   2.534
  134TIP3   OH2  358   3.403   1.962   3.914
  134TIP3    H1  359   3.365   1.878   3.941
  134TIP3    H2  360   3.498   1.948   3.921
  135TIP3   OH2  361   4.312   2.036   2.456
  135TIP3    H1  362   4.258   1.957   2.452
  135TIP3    H2  363   4.257   2.104   2.419
  136TIP3   OH2  364   2.280   2.725   5.826
  136TIP3    H1  365   2.329   2.644   5.835
  136TIP3    H2  366   2.209   2.704   5.765
  137TIP3   OH2  367   2.696   6.656   1.979
  137TIP3    H1  368   2.628   6.604   2.022
  137TIP3    H2  369   2.770   6.653   2.040
  138TIP3   OH2  370   4.956   3.562   0.673
  138TIP3    H1  371   4.996   3.480   0.646
  138TIP3    H2  372   4.976   3.568   0.767
  139TIP3   OH2  373   5.689   0.577   4.881
  139TIP3    H1  374   5.736   0.652   4.919
  139TIP3    H2  375   5.638   0.615   4.809
  140TIP3   OH2  376   7.976   3.621   4.742
  140TIP3    H1  377   8.007   3.689   4.683
  140TIP3    H2  378   7.998   3.539   4.697
  141TIP3   OH2  379   6.943   1.693   4.256
  141TIP3    H1  380   6.973   1.617   4.306
  141TIP3    H2  381   6.986   1.685   4.171
  142TIP3   OH2  382   6.273   6.646   6.432
  142TIP3    H1  383   6.341   6.626   6.497
  142TIP3    H2  384   6.255   6.739   6.445
  143TIP3   OH2  385   6.311   6.075   6.053
  143TIP3    H1  386   6.231   6.115   6.087
  143TIP3    H2  387   6.336   6.129   5.978
  144TIP3   OH2  388   3.625   6.270   1.462
  144TIP3    H1  389   3.658   6.260   1.373
  144TIP3    H2  390   3.658   6.193   1.508
  145TIP3   OH2  391   5.680   1.335   4.912
  145TIP3    H1  392   5.630   1.397   4.859
  145TIP3    H2  393   5.678   1.253   4.861
  146TIP3   OH2  394   2.062   3.937   3.774
  146TIP3    H1  395   2.009   3.859   3.756
  146TIP3    H2  396   2.134   3.904   3.828
  147TIP3   OH2  397   2.123   5.908   6.780
  147TIP3    H1  398   2.116   5.879   6.689
  147TIP3    H2  399   2.204   5.960   6.782
  148TIP3   OH2  400   5.811   0.487   0.336
  148TIP3    H1  401   5.874   0.530   0.278
  148TIP3    H2  402   5.818   0.394   0.315
  149TIP3   OH2  403   1.638   1.836   4.983
  149TIP3    H1  404   1.562   1.812   5.036
  149TIP3    H2  405   1.711   1.839   5.045
  150TIP3   OH2  406   6.303   0.706   0.372
  150TIP3    H1  407   6.333   0.645   0.305
  150TIP3    H2  408   6.291   0.652   0.451
  151TIP3   OH2  409   4.707   4.631   2.748
  151TIP3    H1  410   4.688   4.538   2.754
  151TIP3    H2  411   4.797   4.640   2.780
  152TIP3   OH2  412   5.915   0.768   1.392
  152TIP3    H1  413   5.826   0.764   1.427
  152TIP3    H2  414   5.954   0.684   1.415
  153TIP3   OH2  415   1.148   3.341   1.530
  153TIP3    H1  416   1.204   3.412   1.498
  153TIP3    H2  417   1.175   3.265   1.480
  154TIP3   OH2  418   6.177   5.752   4.878
  154TIP3    H1  419   6.206   5.833   4.921
  154TIP3    H2  420   6.082   5.751   4.891
  155TIP3   OH2  421   1.498   5.087   4.183
  155TIP3    H1  422   1.407   5.061   4.198
  155TIP3    H2  423   1.509   5.167   4.235
  156TIP3   OH2  424   7.347   7.201   4.221
  156TIP3    H1  425   7.267   7.239   4.186
  156TIP3    H2  426   7.351   7.231   4.312
  157TIP3   OH2  427   7.476   2.220   3.342
  157TIP3    H1  428   7.555   2.167   3.335
  157TIP3    H2  429   7.416   2.181   3.279
  158TIP3   OH2  430   8.248   1.223   6.489
  158TIP3    H1  431   8.237   1.262   6.403
  158TIP3    H2  432   8.299   1.143   6.473
  159TIP3   OH2  433   0.843   3.057   3.571
  159TIP3    H1  434   0.894   3.130   3.538
  159TIP3    H2  435   0.817   3.083   3.659
  160TIP3   OH2  436   5.421   4.319   0.597
  160TIP3    H1  437   5.506   4.363   0.598
  160TIP3    H2  438   5.394   4.322   0.505
  161TIP3   OH2  439   5.161   3.211   3.792
  161TIP3    H1  440   5.108   3.155   3.736
  161TIP3    H2  441   5.218   3.259   3.731
  162TIP3   OH2  442   0.310   4.680   4.099
  162TIP3    H1  443   0.325   4.741   4.027
  162TIP3    H2  444   0.228   4.711   4.139
  163TIP3   OH2  445   4.041   1.888   5.930
  163TIP3    H1  446   4.037   1.916   5.839
  163TIP3    H2  447   4.104   1.815   5.930
  164TIP3   OH2  448   3.232   3.459   0.614
  164TIP3    H1  449   3.255   3.366   0.614
  164TIP3    H2  450   3.296   3.500   0.555
  165TIP3   OH2  451   3.276   5.504   3.703
  165TIP3    H1  452   3.232   5.589   3.698
  165TIP3    H2  453   3.369   5.524   3.694
  166TIP3   OH2  454   7.921   3.373   4.928
  166TIP3    H1  455   7.960   3.379   4.840
  166TIP3    H2  456   7.855   3.304   4.920
  167TIP3   OH2  457   6.151   2.096   1.461
  167TIP3    H1  458   6.057   2.077   1.470
  167TIP3    H2  459   6.192   2.011   1.450
  168TIP3   OH2  460   7.214   0.841   0.321
  168TIP3    H1  461   7.297   0.817   0.279
  168TIP3    H2  462   7.236   0.854   0.413
  169TIP3   OH2  463   4.184   4.958   0.922
  169TIP3    H1  464   4.131   4.893   0.967
  169TIP3    H2  465   4.164   5.041   0.966
  170TIP3   OH2  466   0.050   2.759   1.173
  170TIP3    H1  467   0.137   2.746   1.136
  170TIP3    H2  468   0.061   2.829   1.237
  171TIP3   OH2  469   0.094   4.668   3.123
  171TIP3    H1  470   0.166   4.710   3.169
  171TIP3    H2  471   0.133   4.590   3.083
  172TIP3   OH2  472   3.825   2.888   3.452
  172TIP3    H1  473   3.755   2.824   3.467
  172TIP3    H2  474   3.905   2.841   3.475
  173TIP3   OH2  475   0.411   3.065   2.404
  173TIP3    H1  476   0.492   3.093   2.362
  173TIP3    H2  477   0.438   2.994   2.463
  174TIP3   OH2  478   0.247   5.603   3.908
  174TIP3    H1  479   0.230   5.510   3.894
  174TIP3    H2  480   0.283   5.608   3.997
  175TIP3   OH2  481   0.767   2.455   0.671
  175TIP3    H1  482   0.837   2.395   0.696
  175TIP3    H2  483   0.739   2.424   0.584
  176TIP3   OH2  484   2.344   0.354   5.613
  176TIP3    H1  485   2.311   0.419   5.551
  176TIP3    H2  486   2.400   0.297   5.560
  177TIP3   OH2  487   6.027   4.668   0.232
  177TIP3    H1  488   6.028   4.760   0.207
  177TIP3    H2  489   6.043   4.667   0.326
  178TIP3   OH2  490   1.037   3.462   4.598
  178TIP3    H1  491   1.032   3.419   4.684
  178TIP3    H2  492   0.954   3.441   4.555
  179TIP3   OH2  493   1.512   4.250   4.065
  179TIP3    H1  494   1.469   4.166   4.080
  179TIP3    H2  495   1.442   4.315   4.074
  180TIP3   OH2  496   2.040   6.118   0.405
  180TIP3    H1  497   2.011   6.124   0.314
  180TIP3    H2  498   2.126   6.161   0.406
  181TIP3   OH2  499   3.106   0.497   4.496
  181TIP3    H1  500   3.016   0.521   4.517
  181TIP3    H2  501   3.107   0.401   4.501
  182TIP3   OH2  502   5.387   3.320   6.767
  182TIP3    H1  503   5.455   3.317   6.700
  182TIP3    H2  504   5.410   3.395   6.821
  183TIP3   OH2  505   0.825   1.179   3.492
  183TIP3    H1  506   0.755   1.244   3.480
  183TIP3    H2  507   0.787   1.115   3.552
  184TIP3   OH2  508   3.409   4.380   2.267
  184TIP3    H1  509   3.440   4.432   2.193
  184TIP3    H2  510   3.366   4.443   2.324
  185TIP3   OH2  511   1.915   2.459   2.654
  185TIP3    H1  512   1.855   2.397   2.695
  185TIP3    H2  513   1.894   2.454   2.561
  186TIP3   OH2  514   8.179   2.225   5.991
  186TIP3    H1  515   8.230   2.153   5.953
  186TIP3    H2  516   8.233   2.258   6.062
  187TIP3   OH2  517   6.449   0.153   0.779
  187TIP3    H1  518   6.511   0.168   0.850
  187TIP3    H2  519   6.467   0.064   0.750
  188TIP3   OH2  520   7.963   2.216   3.155
  188TIP3    H1  521   7.923   2.230   3.241
  188TIP3    H2  522   7.889   2.208   3.095
  189TIP3   OH2  523   6.121   3.855   4.153
  189TIP3    H1  524   6.032   3.890   4.153
  189TIP3    H2  525   6.120   3.787   4.220
  190TIP3   OH2  526   8.008   0.255   0.764
  190TIP3    H1  527   8.080   0.224   0.820
  190TIP3    H2  528   7.982   0.179   0.713
  191TIP3   OH2  529   3.620   5.267   6.547
  191TIP3    H1  530   3.640   5.359   6.565
  191TIP3    H2  531   3.633   5.258   6.453
  192TIP3   OH2  532   1.700   1.746   1.498
  192TIP3    H1  533   1.655   1.691   1.433
  192TIP3    H2  534   1.719   1.687   1.571
  193TIP3   OH2  535   5.266   3.589   4.866
  193TIP3    H1  536   5.183   3.624   4.898
  193TIP3    H2  537   5.260   3.594   4.771
  194TIP3   OH2  538   4.198   4.390   0.809
  194TIP3    H1  539   4.289   4.362   0.798
  194TIP3    H2  540   4.156   4.367   0.725
  195TIP3   OH2  541   3.758   0.683   6.342
  195TIP3    H1  542   3.752   0.686   6.437
  195TIP3    H2  543   3.748   0.591   6.320
  196TIP3   OH2  544   0.453   6.780   3.640
  196TIP3    H1  545   0.427   6.871   3.655
  196TIP3    H2  546   0.474   6.747   3.728
  197TIP3   OH2  547   1.212   7.072   0.756
  197TIP3    H1  548   1.163   6.991   0.774
  197TIP3    H2  549   1.184   7.132   0.826
  198TIP3   OH2  550   3.276   4.025   4.918
  198TIP3    H1  551   3.322   3.975   4.986
  198TIP3    H2  552   3.212   3.962   4.882
  199TIP3   OH2  553   6.983   2.312   4.161
  199TIP3    H1  554   7.062   2.356   4.132
  199TIP3    H2  555   6.996   2.220   4.135
  200TIP3   OH2  556   4.979   3.607   0.953
  200TIP3    H1  557   4.961   3.513   0.950
  200TIP3    H2  558   5.072   3.613   0.972
  201TIP3   OH2  559   4.534   4.135   5.309
  201TIP3    H1  560   4.610   4.190   5.329
  201TIP3    H2  561   4.480   4.139   5.387
  202TIP3   OH2  562   5.454   4.941   2.049
  202TIP3    H1  563   5.406   4.880   1.994
  202TIP3    H2  564   5.387   4.980   2.106
  203TIP3   OH2  565   1.770   3.056   5.368
  203TIP3    H1  566   1.741   2.971   5.401
  203TIP3    H2  567   1.809   3.037   5.282
  204TIP3   OH2  568   0.662   7.780   2.939
  204TIP3    H1  569   0.649   7.812   3.028
  204TIP3    H2  570   0.710   7.851   2.895
  205TIP3   OH2  571   5.676   2.801   4.005
  205TIP3    H1  572   5.590   2.765   3.982
  205TIP3    H2  573   5.688   2.875   3.946
  206TIP3   OH2  574   2.446   7.649   3.281
  206TIP3    H1  575   2.411   7.632   3.369
  206TIP3    H2  576   2.522   7.705   3.296
  207TIP3   OH2  577   7.774   2.260   4.758
  207TIP3    H1  578   7.791   2.176   4.800
  207TIP3    H2  579   7.745   2.237   4.670
  208TIP3   OH2  580   2.122   0.807   1.143
  208TIP3    H1  581   2.028   0.806   1.129
  208TIP3    H2  582   2.137   0.738   1.209
  209TIP3   OH2  583   7.909   6.708   1.678
  209TIP3    H1  584   7.940   6.739   1.593
  209TIP3    H2  585   7.896   6.614   1.667
  210TIP3   OH2  586   1.793   3.757   6.568
  210TIP3    H1  587   1.853   3.731   6.637
  210TIP3    H2  588   1.709   3.770   6.612
  211TIP3   OH2  589   1.925   0.178   5.923
  211TIP3    H1  590   1.942   0.194   6.015
  211TIP3    H2  591   1.982   0.104   5.900
  212TIP3   OH2  592   1.198   7.125   3.458
  212TIP3    H1  593   1.212   7.167   3.374
  212TIP3    H2  594   1.139   7.052   3.440
  213TIP3   OH2  595   1.511   7.141   2.938
  213TIP3    H1  596   1.439   7.081   2.957
  213TIP3    H2  597   1.493   7.218   2.992
  214TIP3   OH2  598   0.144   4.331   5.510
  214TIP3    H1  599   0.101   4.398   5.457
  214TIP3    H2  600   0.076   4.266   5.526
  215TIP3   OH2  601   4.608   2.231   0.646
  215TIP3    H1  602   4.542   2.163   0.632
  215TIP3    H2  603   4.616   2.275   0.562
  216TIP3   OH2  604   5.101   7.778   2.482
  216TIP3    H1  605   5.044   7.717   2.435
  216TIP3    H2  606   5.068   7.776   2.572
  217TIP3   OH2  607   0.697   6.863   6.301
  217TIP3    H1  608   0.694   6.847   6.395
  217TIP3    H2  609   0.667   6.781   6.261
  218TIP3   OH2  610   0.635   7.180   1.910
  218TIP3    H1  611   0.619   7.179   1.815
  218TIP3    H2  612   0.562   7.230   1.946
  219TIP3   OH2  613   4.388   3.189   4.157
  219TIP3    H1  614   4.442   3.111   4.148
  219TIP3    H2  615   4.339   3.194   4.074
  220TIP3   OH2  616   4.920   2.269   6.308
  220TIP3    H1  617   4.916   2.269   6.403
  220TIP3    H2  618   5.012   2.288   6.288
  221TIP3   OH2  619   4.146   1.116   1.276
  221TIP3    H1  620   4.113   1.066   1.351
  221TIP3    H2  621   4.230   1.152   1.306
  222TIP3   OH2  622   2.543   2.696   5.583
  222TIP3    H1  623   2.479   2.625   5.585
  222TIP3    H2  624   2.549   2.721   5.491
  223TIP3   OH2  625   1.128   1.034   5.460
  223TIP3    H1  626   1.090   0.952   5.493
  223TIP3    H2  627   1.222   1.022   5.470
  224TIP3   OH2  628   0.375   1.781   4.959
  224TIP3    H1  629   0.460   1.798   4.918
  224TIP3    H2  630   0.369   1.686   4.963
  225TIP3   OH2  631   5.345   3.049   1.874
  225TIP3    H1  632   5.324   3.102   1.797
  225TIP3    H2  633   5.289   2.972   1.867
  226TIP3   OH2  634   0.336   6.975   1.125
  226TIP3    H1  635   0.395   6.926   1.183
  226TIP3    H2  636   0.301   7.044   1.179
  227TIP3   OH2  637   0.996   7.441   1.854
  227TIP3    H1  638   1.032   7.511   1.800
  227TIP3    H2  639   0.983   7.368   1.793
  228TIP3   OH2  640   7.748   2.197   6.328
  228TIP3    H1  641   7.831   2.229   6.293
  228TIP3    H2  642   7.759   2.200   6.423
  229TIP3   OH2  643   5.935   1.443   5.645
  229TIP3    H1  644   6.009   1.402   5.689
  229TIP3    H2  645   5.904   1.377   5.582
  230TIP3   OH2  646   1.251   5.521   6.186
  230TIP3    H1  647   1.208   5.544   6.268
  230TIP3    H2  648   1.235   5.427   6.175
  231TIP3   OH2  649   6.263   0.285   5.996
  231TIP3    H1  650   6.180   0.293   6.043
  231TIP3    H2  651   6.263   0.359   5.934
  232TIP3   OH2  652   1.749   5.926   3.874
  232TIP3    H1  653   1.659   5.898   3.893
  232TIP3    H2  654   1.739   5.993   3.806
  233TIP3   OH2  655   7.372   7.148   0.080
  233TIP3    H1  656   7.364   7.101   0.164
  233TIP3    H2  657   7.335   7.234   0.098
  234TIP3   OH2  658   3.692   3.548   3.090
  234TIP3    H1  659   3.712   3.527   3.181
  234TIP3    H2  660   3.721   3.471   3.041
  235TIP3   OH2  661   2.554   0.175   0.609
  235TIP3    H1  662   2.458   0.171   0.612
  235TIP3    H2  663   2.582   0.085   0.626
  236TIP3   OH2  664   3.897   0.260   4.455
  236TIP3    H1  665   3.883   0.212   4.374
  236TIP3    H2  666   3.809   0.286   4.484
  237TIP3   OH2  667   1.450   7.068   0.868
  237TIP3    H1  668   1.527   7.116   0.838
  237TIP3    H2  669   1.379   7.096   0.810
  238TIP3   OH2  670   1.377   0.381   1.405
  238TIP3    H1  671   1.317   0.359   1.334
  238TIP3    H2  672   1.336   0.343   1.483
  239TIP3   OH2  673   5.517   7.368   1.457
  239TIP3    H1  674   5.520   7.460   1.430
  239TIP3    H2  675   5.439   7.333   1.415
  240TIP3   OH2  676   3.051   3.825   1.362
  240TIP3    H1  677   3.040   3.888   1.433
  240TIP3    H2  678   3.062   3.741   1.407
  241TIP3   OH2  679   2.356   7.338   5.150
  241TIP3    H1  680   2.342   7.376   5.063
  241TIP3    H2  681   2.446   7.305   5.147
  242TIP3   OH2  682   1.246   4.161   3.249
  242TIP3    H1  683   1.234   4.195   3.160
  242TIP3    H2  684   1.160   4.171   3.290
  243TIP3   OH2  685   5.414   6.260   0.645
  243TIP3    H1  686   5.484   6.198   0.664
  243TIP3    H2  687   5.442   6.342   0.686
  244TIP3   OH2  688   6.423   3.968   3.308
  244TIP3    H1  689   6.353   3.935   3.252
  244TIP3    H2  690   6.411   3.922   3.391
  245TIP3   OH2  691   2.235   4.211   3.345
  245TIP3    H1  692   2.250   4.222   3.439
  245TIP3    H2  693   2.266   4.293   3.306
  246TIP3   OH2  694   0.608   0.002   0.685
  246TIP3    H1  695   0.526   0.023   0.728
  246TIP3    H2  696   0.593   0.022   0.592
  247TIP3   OH2  697   3.341   3.246   1.675
  247TIP3    H1  698   3.437   3.246   1.672
  247TIP3    H2  699   3.317   3.154   1.661
  248TIP3   OH2  700   6.635   4.590   4.821
  248TIP3    H1  701   6.540   4.579   4.824
  248TIP3    H2  702   6.657   4.629   4.906
  249TIP3   OH2  703   6.367   0.814   6.561
  249TIP3    H1  704   6.345   0.730   6.521
  249TIP3    H2  705   6.285   0.864   6.560
  250TIP3   OH2  706   4.307   5.406   0.360
  250TIP3    H1  707   4.266   5.473   0.414
  250TIP3    H2  708   4.391   5.389   0.403
  251TIP3   OH2  709   3.151   3.633   1.866
  251TIP3    H1  710   3.202   3.632   1.947
  251TIP3    H2  711   3.119   3.723   1.858
  252TIP3   OH2  712   0.426   6.139   6.573
  252TIP3    H1  713   0.332   6.158   6.571
  252TIP3    H2  714   0.431   6.044   6.560
  253TIP3   OH2  715   0.989   2.634   2.428
  253TIP3    H1  716   1.023   2.581   2.356
  253TIP3    H2  717   1.060   2.637   2.492
  254TIP3   OH2  718   0.821   6.512   3.375
  254TIP3    H1  719   0.901   6.535   3.423
  254TIP3    H2  720   0.852   6.470   3.295
  255TIP3   OH2  721   5.773   7.043   1.923
  255TIP3    H1  722   5.823   7.012   1.998
  255TIP3    H2  723   5.779   6.973   1.859
  256TIP3   OH2  724   6.773   1.940   1.288
  256TIP3    H1  725   6.715   1.872   1.320
  256TIP3    H2  726   6.857   1.896   1.273
  257TIP3   OH2  727   6.041   6.580   6.289
  257TIP3    H1  728   5.999   6.506   6.333
  257TIP3    H2  729   6.113   6.604   6.346
  258TIP3   OH2  730   0.216   5.937   4.610
  258TIP3    H1  731   0.291   5.941   4.669
  258TIP3    H2  732   0.174   6.022   4.617
  259TIP3   OH2  733   5.424   0.615   4.452
  259TIP3    H1  734   5.358   0.555   4.416
  259TIP3    H2  735   5.470   0.649   4.375
  260TIP3   OH2  736   6.280   3.367   4.917
  260TIP3    H1  737   6.282   3.462   4.931
  260TIP3    H2  738   6.371   3.340   4.923
  261TIP3   OH2  739   4.321   5.980   1.119
  261TIP3    H1  740   4.283   6.020   1.041
  261TIP3    H2  741   4.410   6.014   1.122
  262TIP3   OH2  742   3.794   7.454   0.116
  262TIP3    H1  743   3.852   7.425   0.186
  262TIP3    H2  744   3.783   7.377   0.060
  263TIP3   OH2  745   4.437   0.475   4.307
  263TIP3    H1  746   4.377   0.430   4.248
  263TIP3    H2  747   4.382   0.506   4.378
  264TIP3   OH2  748   5.297   0.855   3.358
  264TIP3    H1  749   5.317   0.943   3.392
  264TIP3    H2  750   5.227   0.823   3.416
  265TIP3   OH2  751   1.288   4.807   0.928
  265TIP3    H1  752   1.335   4.795   1.010
  265TIP3    H2  753   1.229   4.881   0.944
  266TIP3   OH2  754   0.701   0.512   4.849
  266TIP3    H1  755   0.675   0.602   4.866
  266TIP3    H2  756   0.656   0.460   4.916
  267TIP3   OH2  757   8.053   1.709   5.818
  267TIP3    H1  758   8.145   1.700   5.840
  267TIP3    H2  759   8.013   1.751   5.894
  268TIP3   OH2  760   6.223   1.428   1.938
  268TIP3    H1  761   6.285   1.486   1.893
  268TIP3    H2  762   6.160   1.489   1.978
  269TIP3   OH2  763   2.236   0.902   0.137
  269TIP3    H1  764   2.195   0.872   0.055
  269TIP3    H2  765   2.163   0.930   0.192
  270TIP3   OH2  766   3.041   4.752   1.613
  270TIP3    H1  767   3.038   4.760   1.708
  270TIP3    H2  768   3.132   4.767   1.590
  271TIP3   OH2  769   4.729   3.237   4.492
  271TIP3    H1  770   4.667   3.258   4.422
  271TIP3    H2  771   4.692   3.160   4.535
  272TIP3   OH2  772   0.307   3.658   1.223
  272TIP3    H1  773   0.261   3.582   1.186
  272TIP3    H2  774   0.238   3.708   1.268
  273TIP3   OH2  775   1.495   0.455   1.108
  273TIP3    H1  776   1.490   0.473   1.015
  273TIP3    H2  777   1.405   0.441   1.135
  274TIP3   OH2  778   2.586   6.697   2.888
  274TIP3    H1  779   2.666   6.645   2.873
  274TIP3    H2  780   2.526   6.669   2.818
  275TIP3   OH2  781   2.043   0.241   2.453
  275TIP3    H1  782   2.123   0.247   2.505
  275TIP3    H2  783   2.037   0.326   2.408
  276TIP3   OH2  784   7.367   6.930   5.870
  276TIP3    H1  785   7.445   6.875   5.863
  276TIP3    H2  786   7.313   6.887   5.936
  277TIP3   OH2  787   4.996   2.148   5.590
  277TIP3    H1  788   5.072   2.098   5.619
  277TIP3    H2  789   4.936   2.148   5.665
  278TIP3   OH2  790   0.162   5.651   1.830
  278TIP3    H1  791   0.089   5.677   1.773
  278TIP3    H2  792   0.193   5.734   1.868
  279TIP3   OH2  793   1.532   5.160   3.689
  279TIP3    H1  794   1.454   5.128   3.644
  279TIP3    H2  795   1.596   5.175   3.619
  280TIP3   OH2  796   7.967   2.863   3.020
  280TIP3    H1  797   7.880   2.844   3.055
  280TIP3    H2  798   8.011   2.912   3.089
  281TIP3   OH2  799   1.235   1.902   3.254
  281TIP3    H1  800   1.203   1.960   3.322
  281TIP3    H2  801   1.327   1.926   3.242
  282TIP3   OH2  802   7.724   2.457   2.483
  282TIP3    H1  803   7.729   2.400   2.560
  282TIP3    H2  804   7.783   2.530   2.503
  283TIP3   OH2  805   1.416   6.375   6.584
  283TIP3    H1  806   1.457   6.294   6.611
  283TIP3    H2  807   1.443   6.386   6.493
  284TIP3   OH2  808   3.725   5.048   0.312
  284TIP3    H1  809   3.646   5.101   0.327
  284TIP3    H2  810   3.703   4.962   0.348
  285TIP3   OH2  811   5.807   0.216   1.356
  285TIP3    H1  812   5.763   0.266   1.424
  285TIP3    H2  813   5.869   0.161   1.403
  286TIP3   OH2  814   4.915   1.766   6.163
  286TIP3    H1  815   4.997   1.737   6.124
  286TIP3    H2  816   4.922   1.862   6.165
  287TIP3   OH2  817   8.297   5.098   0.097
  287TIP3    H1  818   8.216   5.097   0.147
  287TIP3    H2  819   8.284   5.031   0.030
  288TIP3   OH2  820   6.673   1.589   5.583
  288TIP3    H1  821   6.705   1.659   5.527
  288TIP3    H2  822   6.586   1.569   5.550
  289TIP3   OH2  823   1.182   0.955   0.564
  289TIP3    H1  824   1.165   0.983   0.654
  289TIP3    H2  825   1.096   0.931   0.530
  290TIP3   OH2  826   5.345   7.059   0.727
  290TIP3    H1  827   5.439   7.069   0.711
  290TIP3    H2  828   5.313   7.009   0.653
  291TIP3   OH2  829   3.915   2.136   2.396
  291TIP3    H1  830   3.859   2.151   2.319
  291TIP3    H2  831   3.861   2.084   2.455
  292TIP3   OH2  832   5.636   1.780   5.502
  292TIP3    H1  833   5.580   1.727   5.445
  292TIP3    H2  834   5.673   1.718   5.565
  293TIP3   OH2  835   2.752   0.841   3.331
  293TIP3    H1  836   2.745   0.936   3.333
  293TIP3    H2  837   2.664   0.810   3.310
  294TIP3   OH2  838   2.331   7.271   2.924
  294TIP3    H1  839   2.349   7.265   3.018
  294TIP3    H2  840   2.414   7.297   2.885
  295TIP3   OH2  841   0.646   4.371   3.126
  295TIP3    H1  842   0.623   4.279   3.112
  295TIP3    H2  843   0.578   4.404   3.185
  296TIP3   OH2  844   1.960   2.164   5.374
  296TIP3    H1  845   1.874   2.126   5.391
  296TIP3    H2  846   2.016   2.126   5.442
  297TIP3   OH2  847   2.239   5.497   3.245
  297TIP3    H1  848   2.187   5.529   3.318
  297TIP3    H2  849   2.306   5.564   3.232
  298TIP3   OH2  850   3.280   6.662   6.193
  298TIP3    H1  851   3.240   6.714   6.123
  298TIP3    H2  852   3.225   6.678   6.270
  299TIP3   OH2  853   0.350   5.132   0.634
  299TIP3    H1  854   0.263   5.169   0.623
  299TIP3    H2  855   0.407   5.192   0.584
  300TIP3   OH2  856   4.842   0.619   1.198
  300TIP3    H1  857   4.815   0.628   1.106
  300TIP3    H2  858   4.851   0.709   1.229
  301TIP3   OH2  859   1.352   5.982   0.858
  301TIP3    H1  860   1.315   6.035   0.788
  301TIP3    H2  861   1.403   6.043   0.911
  302TIP3   OH2  862   6.995   2.138   6.092
  302TIP3    H1  863   7.068   2.151   6.152
  302TIP3    H2  864   7.031   2.084   6.022
  303TIP3   OH2  865   0.265   6.671   1.039
  303TIP3    H1  866   0.248   6.763   1.019
  303TIP3    H2  867   0.347   6.672   1.089
  304TIP3   OH2  868   5.403   4.276   4.118
  304TIP3    H1  869   5.377   4.312   4.203
  304TIP3    H2  870   5.338   4.207   4.102
  305TIP3   OH2  871   7.557   1.355   0.661
  305TIP3    H1  872   7.599   1.399   0.588
  305TIP3    H2  873   7.625   1.348   0.728
  306TIP3   OH2  874   0.091   1.139   1.294
  306TIP3    H1  875   0.044   1.173   1.218
  306TIP3    H2  876   0.125   1.054   1.264
  307TIP3   OH2  877   0.355   3.280   6.206
  307TIP3    H1  878   0.296   3.206   6.192
  307TIP3    H2  879   0.363   3.321   6.120
  308TIP3   OH2  880   7.329   4.487   2.693
  308TIP3    H1  881   7.303   4.430   2.621
  308TIP3    H2  882   7.312   4.576   2.661
  309TIP3   OH2  883   5.417   5.751   0.882
  309TIP3    H1  884   5.328   5.724   0.906
  309TIP3    H2  885   5.454   5.785   0.963
  310TIP3   OH2  886   1.671   3.531   4.733
  310TIP3    H1  887   1.664   3.607   4.790
  310TIP3    H2  888   1.645   3.457   4.788
  311TIP3   OH2  889   0.295   3.448   0.427
  311TIP3    H1  890   0.253   3.453   0.341
  311TIP3    H2  891   0.228   3.480   0.487
  312TIP3   OH2  892   1.758   7.267   2.381
  312TIP3    H1  893   1.703   7.341   2.356
  312TIP3    H2  894   1.839   7.278   2.331
  313TIP3   OH2  895   4.508   7.142   6.558
  313TIP3    H1  896   4.566   7.157   6.632
  313TIP3    H2  897   4.557   7.085   6.499
  314TIP3   OH2  898   1.598   1.798   0.110
  314TIP3    H1  899   1.650   1.779   0.031
  314TIP3    H2  900   1.603   1.893   0.119
  315TIP3   OH2  901   7.908   0.391   2.181
  315TIP3    H1  902   7.820   0.390   2.143
  315TIP3    H2  903   7.927   0.299   2.200
  316TIP3   OH2  904   6.694   5.770   5.317
  316TIP3    H1  905   6.684   5.768   5.222
  316TIP3    H2  906   6.787   5.752   5.331
  317TIP3   OH2  907   2.073   4.406   5.471
  317TIP3    H1  908   2.007   4.413   5.541
  317TIP3    H2  909   2.151   4.374   5.515
  318TIP3   OH2  910   2.034   6.222   4.703
  318TIP3    H1  911   1.986   6.140   4.695
  318TIP3    H2  912   2.088   6.210   4.781
  319TIP3   OH2  913   2.992   0.185   2.750
  319TIP3    H1  914   2.972   0.093   2.732
  319TIP3    H2  915   2.907   0.229   2.744
  320TIP3   OH2  916   8.107   0.918   1.277
  320TIP3    H1  917   8.021   0.959   1.266
  320TIP3    H2  918   8.153   0.937   1.195
  321TIP3   OH2  919   5.218   1.670   5.199
  321TIP3    H1  920   5.250   1.669   5.108
  321TIP3    H2  921   5.292   1.703   5.250
  322TIP3   OH2  922   0.076   7.430   1.037
  322TIP3    H1  923   0.107   7.374   1.108
  322TIP3    H2  924   0.005   7.380   0.996
  323TIP3   OH2  925   3.085   4.950   4.085
  323TIP3    H1  926   2.992   4.947   4.062
  323TIP3    H2  927   3.112   4.859   4.087
  324TIP3   OH2  928   0.057   2.333   6.152
  324TIP3    H1  929   0.100   2.267   6.206
  324TIP3    H2  930   0.052   2.410   6.208
  325TIP3   OH2  931   3.179   3.273   3.237
  325TIP3    H1  932   3.194   3.275   3.143
  325TIP3    H2  933   3.140   3.187   3.254
  326TIP3   OH2  934   3.139   5.363   2.252
  326TIP3    H1  935   3.134   5.273   2.220
  326TIP3    H2  936   3.232   5.386   2.244
  327TIP3   OH2  937   7.779   3.128   5.253
  327TIP3    H1  938   7.866   3.091   5.237
  327TIP3    H2  939   7.733   3.118   5.169
  328TIP3   OH2  940   2.977   3.687   5.408
  328TIP3    H1  941   2.927   3.758   5.368
  328TIP3    H2  942   2.914   3.644   5.465
  329TIP3   OH2  943   2.266   0.110   6.669
  329TIP3    H1  944   2.356   0.124   6.698
  329TIP3    H2  945   2.270   0.030   6.615
  330TIP3   OH2  946   6.287   0.100   4.250
  330TIP3    H1  947   6.213   0.156   4.276
  330TIP3    H2  948   6.310   0.053   4.330
  331TIP3   OH2  949   5.008   6.162   5.847
  331TIP3    H1  950   5.096   6.134   5.823
  331TIP3    H2  951   4.951   6.091   5.814
  332TIP3   OH2  952   6.724   3.956   0.523
  332TIP3    H1  953   6.740   3.875   0.572
  332TIP3    H2  954   6.722   4.024   0.590
  333TIP3   OH2  955   3.690   4.866   6.309
  333TIP3    H1  956   3.751   4.799   6.340
  333TIP3    H2  957   3.652   4.829   6.229
  334TIP3   OH2  958   6.905   0.930   4.809
  334TIP3    H1  959   6.847   1.002   4.786
  334TIP3    H2  960   6.933   0.949   4.898
  335TIP3   OH2  961   7.267   2.416   5.855
  335TIP3    H1  962   7.296   2.444   5.942
  335TIP3    H2  963   7.346   2.379   5.814
  336TIP3   OH2  964   3.981   6.912   6.090
  336TIP3    H1  965   4.028   6.978   6.141
  336TIP3    H2  966   4.039   6.893   6.016
  337TIP3   OH2  967   3.148   0.966   0.440
  337TIP3    H1  968   3.144   1.043   0.383
  337TIP3    H2  969   3.241   0.960   0.464
  338TIP3   OH2  970   7.725   7.156   2.423
  338TIP3    H1  971   7.805   7.208   2.415
  338TIP3    H2  972   7.753   7.066   2.406
  339TIP3   OH2  973   1.584   6.525   2.563
  339TIP3    H1  974   1.611   6.600   2.509
  339TIP3    H2  975   1.613   6.448   2.512
  340TIP3   OH2  976   8.226   2.369   4.815
  340TIP3    H1  977   8.188   2.362   4.903
  340TIP3    H2  978   8.187   2.449   4.779
  341TIP3   OH2  979   1.133   5.710   4.655
  341TIP3    H1  980   1.089   5.795   4.650
  341TIP3    H2  981   1.157   5.690   4.564
  342TIP3   OH2  982   0.692   6.883   1.746
  342TIP3    H1  983   0.675   6.839   1.663
  342TIP3    H2  984   0.783   6.863   1.766
  343TIP3   OH2  985   6.505   3.885   5.799
  343TIP3    H1  986   6.579   3.939   5.772
  343TIP3    H2  987   6.523   3.799   5.760
  344TIP3   OH2  988   6.968   6.046   3.932
  344TIP3    H1  989   6.932   6.020   4.017
  344TIP3    H2  990   6.905   6.013   3.868
  345TIP3   OH2  991   7.412   1.457   6.201
  345TIP3    H1  992   7.399   1.414   6.116
  345TIP3    H2  993   7.481   1.406   6.243
  346TIP3   OH2  994   1.372   2.186   2.534
  346TIP3    H1  995   1.440   2.240   2.575
  346TIP3    H2  996   1.390   2.098   2.565
  347TIP3   OH2  997   6.260   6.265   3.616
  347TIP3    H1  998   6.351   6.253   3.588
  347TIP3    H2  999   6.216   6.185   3.591
  348TIP3   OH2 1000   4.867   2.638   6.543
  348TIP3    H1 1001   4.789   2.652   6.489
  348TIP3    H2 1002   4.932   2.602   6.482
  349TIP3   OH2 1003   1.597   5.739   0.555
  349TIP3    H1 1004   1.570   5.728   0.646
  349TIP3    H2 1005   1.516   5.731   0.505
  350TIP3   OH2 1006   1.674   7.006   5.522
  350TIP3    H1 1007   1.709   6.929   5.567
  350TIP3    H2 1008   1.734   7.020   5.449
  351TIP3   OH2 1009   6.281   4.480   2.594
  351TIP3    H1 1010   6.245   4.501   2.508
  351TIP3    H2 1011   6.205   4.460   2.648
  352TIP3   OH2 1012   6.081   7.264   2.254
  352TIP3    H1 1013   6.052   7.326   2.187
  352TIP3    H2 1014   6.148   7.312   2.303
  353TIP3   OH2 1015   6.341   2.689   2.703
  353TIP3    H1 1016   6.340   2.699   2.798
  353TIP3    H2 1017   6.283   2.757   2.671
  354TIP3   OH2 1018   6.908   3.890   2.250
  354TIP3    H1 1019   6.885   3.835   2.175
  354TIP3    H2 1020   6.977   3.842   2.295
  355TIP3   OH2 1021   1.655   2.513   4.604
  355TIP3    H1 1022   1.650   2.600   4.564
  355TIP3    H2 1023   1.690   2.529   4.692
  356TIP3   OH2 1024   2.628   1.367   3.782
  356TIP3    H1 1025   2.586   1.280   3.781
  356TIP3    H2 1026   2.556   1.427   3.800
  357TIP3   OH2 1027   0.893   3.011   1.226
  357TIP3    H1 1028   0.963   3.065   1.264
  357TIP3    H2 1029   0.867   3.057   1.146
  358TIP3   OH2 1030   5.127   1.137   3.797
  358TIP3    H1 1031   5.155   1.166   3.884
  358TIP3    H2 1032   5.195   1.171   3.738
  359TIP3   OH2 1033   3.819   3.715   3.694
  359TIP3    H1 1034   3.864   3.641   3.652
  359TIP3    H2 1035   3.799   3.684   3.783
  360TIP3   OH2 1036   6.495   7.233   4.084
  360TIP3    H1 1037   6.545   7.263   4.008
  360TIP3    H2 1038   6.557   7.181   4.135
  361TIP3   OH2 1039   7.601   3.777   6.618
  361TIP3    H1 1040   7.540   3.830   6.670
  361TIP3    H2 1041   7.672   3.755   6.679
  362TIP3   OH2 1042   2.704   5.197   5.289
  362TIP3    H1 1043   2.785   5.166   5.246
  362TIP3    H2 1044   2.727   5.282   5.324
  363TIP3   OH2 1045   3.045   4.086   0.913
  363TIP3    H1 1046   3.019   4.039   0.992
  363TIP3    H2 1047   2.963   4.097   0.864
  364TIP3   OH2 1048   4.086   6.489   5.856
  364TIP3    H1 1049   4.142   6.536   5.918
  364TIP3    H2 1050   4.025   6.555   5.824
  365TIP3   OH2 1051   5.770   6.888   2.331
  365TIP3    H1 1052   5.689   6.857   2.370
  365TIP3    H2 1053   5.797   6.960   2.387
  366TIP3   OH2 1054   6.503   4.511   6.726
  366TIP3    H1 1055   6.581   4.484   6.775
  366TIP3    H2 1056   6.431   4.494   6.787
  367TIP3   OH2 1057   1.480   4.425   4.783
  367TIP3    H1 1058   1.417   4.420   4.711
  367TIP3    H2 1059   1.426   4.440   4.861
  368TIP3   OH2 1060   6.803   5.454   2.739
  368TIP3    H1 1061   6.865   5.389   2.770
  368TIP3    H2 1062   6.834   5.477   2.651
  369TIP3   OH2 1063   1.055   1.786   1.338
  369TIP3    H1 1064   0.998   1.815   1.267
  369TIP3    H2 1065   1.019   1.700   1.363
  370TIP3   OH2 1066   2.997   1.647   3.173
  370TIP3    H1 1067   2.958   1.696   3.101
  370TIP3    H2 1068   2.966   1.557   3.160
  371TIP3   OH2 1069   2.702   4.902   4.375
  371TIP3    H1 1070   2.696   4.909   4.470
  371TIP3    H2 1071   2.708   4.807   4.358
  372TIP3   OH2 1072   5.384   6.180   6.418
  372TIP3    H1 1073   5.326   6.105   6.430
  372TIP3    H2 1074   5.338   6.254   6.458
  373TIP3   OH2 1075   6.770   2.145   1.466
  373TIP3    H1 1076   6.685   2.116   1.498
  373TIP3    H2 1077   6.779   2.104   1.380
  374TIP3   OH2 1078   1.311   6.348   5.927
  374TIP3    H1 1079   1.348   6.272   5.973
  374TIP3    H2 1080   1.377   6.369   5.860
  375TIP3   OH2 1081   2.523   7.652   1.782
  375TIP3    H1 1082   2.435   7.614   1.779
  375TIP3    H2 1083   2.521   7.712   1.856
  376TIP3   OH2 1084   5.626   3.060   1.042
  376TIP3    H1 1085   5.568   3.011   0.984
  376TIP3    H2 1086   5.707   3.071   0.992
  377TIP3   OH2 1087   1.451   2.443   2.940
  377TIP3    H1 1088   1.504   2.425   3.018
  377TIP3    H2 1089   1.361   2.427   2.968
  378TIP3   OH2 1090   6.492   6.306   5.032
  378TIP3    H1 1091   6.496   6.395   5.066
  378TIP3    H2 1092   6.551   6.306   4.957
  379TIP3   OH2 1093   6.647   3.660   2.931
  379TIP3    H1 1094   6.628   3.667   2.838
  379TIP3    H2 1095   6.713   3.591   2.937
  380TIP3   OH2 1096   2.651   2.184   4.239
  380TIP3    H1 1097   2.711   2.223   4.303
  380TIP3    H2 1098   2.594   2.128   4.292
  381TIP3   OH2 1099   3.937   2.028   2.009
  381TIP3    H1 1100   3.855   1.984   1.987
  381TIP3    H2 1101   3.911   2.119   2.022
  382TIP3   OH2 1102   3.488   2.846   6.720
  382TIP3    H1 1103   3.427   2.792   6.670
  382TIP3    H2 1104   3.562   2.788   6.739
  383TIP3   OH2 1105   0.057   1.147   2.666
  383TIP3    H1 1106   0.078   1.230   2.622
  383TIP3    H2 1107   0.140   1.100   2.669
  384TIP3   OH2 1108   3.202   4.832   4.315
  384TIP3    H1 1109   3.160   4.900   4.262
  384TIP3    H2 1110   3.286   4.869   4.339
  385TIP3   OH2 1111   6.568   3.718   2.672
  385TIP3    H1 1112   6.553   3.688   2.582
  385TIP3    H2 1113   6.586   3.812   2.662
  386TIP3   OH2 1114   1.893   7.026   6.238
  386TIP3    H1 1115   1.843   6.962   6.288
  386TIP3    H2 1116   1.873   7.006   6.146
  387TIP3   OH2 1117   2.783   6.626   4.322
  387TIP3    H1 1118   2.811   6.548   4.275
  387TIP3    H2 1119   2.864   6.665   4.355
  388TIP3   OH2 1120   1.517   5.725   1.906
  388TIP3    H1 1121   1.570   5.739   1.827
  388TIP3    H2 1122   1.462   5.803   1.911
  389TIP3   OH2 1123   2.088   0.746   3.038
  389TIP3    H1 1124   2.181   0.764   3.024
  389TIP3    H2 1125   2.047   0.833   3.043
  390TIP3   OH2 1126   6.658   4.814   2.639
  390TIP3    H1 1127   6.730   4.780   2.586
  390TIP3    H2 1128   6.670   4.773   2.724
  391TIP3   OH2 1129   6.136   4.817   0.840
  391TIP3    H1 1130   6.229   4.812   0.861
  391TIP3    H2 1131   6.122   4.748   0.775
  392TIP3   OH2 1132   2.264   5.532   3.875
  392TIP3    H1 1133   2.329   5.496   3.816
  392TIP3    H2 1134   2.305   5.530   3.962
  393TIP3   OH2 1135   0.378   4.027   3.518
  393TIP3    H1 1136   0.423   4.051   3.437
  393TIP3    H2 1137   0.346   3.938   3.502
  394TIP3   OH2 1138   0.716   5.759   6.436
  394TIP3    H1 1139   0.702   5.847   6.471
  394TIP3    H2 1140   0.642   5.744   6.377
  395TIP3   OH2 1141   1.170   6.220   0.351
  395TIP3    H1 1142   1.250   6.237   0.401
  395TIP3    H2 1143   1.199   6.166   0.278
  396TIP3   OH2 1144   4.131   2.568   2.339
  396TIP3    H1 1145   4.185   2.641   2.370
  396TIP3    H2 1146   4.092   2.531   2.419
  397TIP3   OH2 1147   1.107   3.996   1.854
  397TIP3    H1 1148   1.164   3.946   1.912
  397TIP3    H2 1149   1.122   4.088   1.880
  398TIP3   OH2 1150   4.915   2.327   2.444
  398TIP3    H1 1151   4.890   2.348   2.354
  398TIP3    H2 1152   4.911   2.410   2.491
  399TIP3   OH2 1153   6.970   0.496   5.777
  399TIP3    H1 1154   7.021   0.576   5.766
  399TIP3    H2 1155   7.011   0.433   5.717
  400TIP3   OH2 1156   2.204   0.836   0.745
  400TIP3    H1 1157   2.264   0.793   0.806
  400TIP3    H2 1158   2.117   0.815   0.778
  401TIP3   OH2 1159   6.139   0.647   4.301
  401TIP3    H1 1160   6.085   0.623   4.225
  401TIP3    H2 1161   6.225   0.610   4.282
  402TIP3   OH2 1162   1.438   0.497   6.724
  402TIP3    H1 1163   1.369   0.530   6.666
  402TIP3    H2 1164   1.518   0.500   6.671
  403TIP3   OH2 1165   4.605   2.233   3.944
  403TIP3    H1 1166   4.629   2.324   3.929
  403TIP3    H2 1167   4.653   2.208   4.023
  404TIP3   OH2 1168   1.429   6.111   5.676
  404TIP3    H1 1169   1.459   6.049   5.609
  404TIP3    H2 1170   1.492   6.100   5.748
  405TIP3   OH2 1171   2.860   6.245   5.591
  405TIP3    H1 1172   2.836   6.337   5.580
  405TIP3    H2 1173   2.789   6.197   5.548
  406TIP3   OH2 1174   7.601   4.426   2.095
  406TIP3    H1 1175   7.577   4.519   2.093
  406TIP3    H2 1176   7.672   4.421   2.159
  407TIP3   OH2 1177   4.473   4.289   6.544
  407TIP3    H1 1178   4.460   4.221   6.611
  407TIP3    H2 1179   4.413   4.359   6.570
  408TIP3   OH2 1180   0.271   7.717   3.675
  408TIP3    H1 1181   0.287   7.754   3.588
  408TIP3    H2 1182   0.180   7.688   3.673
  409TIP3   OH2 1183   7.269   4.799   4.115
  409TIP3    H1 1184   7.258   4.866   4.182
  409TIP3    H2 1185   7.238   4.840   4.034
  410TIP3   OH2 1186   2.044   4.687   0.981
  410TIP3    H1 1187   2.119   4.633   0.956
  410TIP3    H2 1188   2.007   4.643   1.057
  411TIP3   OH2 1189   6.499   5.125   4.082
  411TIP3    H1 1190   6.458   5.060   4.139
  411TIP3    H2 1191   6.437   5.139   4.011
  412TIP3   OH2 1192   2.153   7.203   0.874
  412TIP3    H1 1193   2.190   7.208   0.962
  412TIP3    H2 1194   2.214   7.147   0.826
  413TIP3   OH2 1195   4.186   4.408   5.666
  413TIP3    H1 1196   4.194   4.315   5.691
  413TIP3    H2 1197   4.093   4.419   5.646
  414TIP3   OH2 1198   3.176   4.623   4.924
  414TIP3    H1 1199   3.199   4.624   4.832
  414TIP3    H2 1200   3.178   4.716   4.950
  415TIP3   OH2 1201   2.600   7.612   2.854
  415TIP3    H1 1202   2.663   7.677   2.885
  415TIP3    H2 1203   2.552   7.657   2.784
  416TIP3   OH2 1204   1.581   1.912   1.698
  416TIP3    H1 1205   1.601   1.910   1.605
  416TIP3    H2 1206   1.583   2.005   1.721
  417TIP3   OH2 1207   1.390   7.613   0.379
  417TIP3    H1 1208   1.324   7.643   0.318
  417TIP3    H2 1209   1.473   7.634   0.338
  418TIP3   OH2 1210   5.888   0.858   2.971
  418TIP3    H1 1211   5.856   0.908   3.046
  418TIP3    H2 1212   5.983   0.859   2.980
  419TIP3   OH2 1213   3.329   2.786   3.634
  419TIP3    H1 1214   3.241   2.755   3.654
  419TIP3    H2 1215   3.374   2.710   3.596
  420TIP3   OH2 1216   6.424   6.036   3.282
  420TIP3    H1 1217   6.511   6.041   3.242
  420TIP3    H2 1218   6.363   6.050   3.210
  421TIP3   OH2 1219   1.130   6.054   4.020
  421TIP3    H1 1220   1.198   6.045   3.953
  421TIP3    H2 1221   1.048   6.045   3.973
  422TIP3   OH2 1222   1.916   3.719   5.775
  422TIP3    H1 1223   2.005   3.750   5.759
  422TIP3    H2 1224   1.868   3.796   5.805
  423TIP3   OH2 1225   8.330   3.807   5.792
  423TIP3    H1 1226   8.252   3.855   5.765
  423TIP3    H2 1227   8.299   3.746   5.858
  424TIP3   OH2 1228   5.865   3.047   0.909
  424TIP3    H1 1229   5.859   3.073   0.817
  424TIP3    H2 1230   5.911   2.963   0.907
  425TIP3   OH2 1231   3.007   5.663   3.410
  425TIP3    H1 1232   2.977   5.586   3.362
  425TIP3    H2 1233   2.927   5.698   3.451
  426TIP3   OH2 1234   1.879   2.649   0.979
  426TIP3    H1 1235   1.839   2.684   1.059
  426TIP3    H2 1236   1.931   2.722   0.945
  427TIP3   OH2 1237   0.104   7.082   2.044
  427TIP3    H1 1238   0.036   7.148   2.027
  427TIP3    H2 1239   0.115   7.083   2.139
  428TIP3   OH2 1240   2.424   5.108   4.510
  428TIP3    H1 1241   2.497   5.067   4.558
  428TIP3    H2 1242   2.444   5.202   4.512
  429TIP3   OH2 1243   6.734   3.147   2.883
  429TIP3    H1 1244   6.731   3.110   2.971
  429TIP3    H2 1245   6.686   3.085   2.829
  430TIP3   OH2 1246   7.268   5.365   5.615
  430TIP3    H1 1247   7.187   5.317   5.631
  430TIP3    H2 1248   7.268   5.434   5.682
  431TIP3   OH2 1249   1.381   4.625   6.427
  431TIP3    H1 1250   1.463   4.605   6.474
  431TIP3    H2 1251   1.385   4.572   6.348
  432TIP3   OH2 1252   0.572   3.437   0.324
  432TIP3    H1 1253   0.561   3.353   0.278
  432TIP3    H2 1254   0.484   3.461   0.352
  433TIP3   OH2 1255   5.296   4.006   0.008
  433TIP3    H1 1256   5.286   3.916   0.038
  433TIP3    H2 1257   5.296   4.059   0.087
  434TIP3   OH2 1258   2.351   3.416   4.533
  434TIP3    H1 1259   2.442   3.442   4.544
  434TIP3    H2 1260   2.355   3.331   4.489
  435TIP3   OH2 1261   5.185   1.844   2.746
  435TIP3    H1 1262   5.244   1.834   2.671
  435TIP3    H2 1263   5.189   1.760   2.791
  436TIP3   OH2 1264   2.636   2.998   0.460
  436TIP3    H1 1265   2.728   3.025   0.460
  436TIP3    H2 1266   2.592   3.062   0.404
  437TIP3   OH2 1267   1.049   0.625   3.617
  437TIP3    H1 1268   1.026   0.537   3.587
  437TIP3    H2 1269   0.976   0.680   3.590
  438TIP3   OH2 1270   7.952   4.273   4.141
  438TIP3    H1 1271   8.007   4.350   4.127
  438TIP3    H2 1272   7.893   4.299   4.212
  439TIP3   OH2 1273   2.683   2.660   1.551
  439TIP3    H1 1274   2.703   2.667   1.645
  439TIP3    H2 1275   2.693   2.566   1.532
  440TIP3   OH2 1276   1.798   6.824   6.403
  440TIP3    H1 1277   1.793   6.864   6.490
  440TIP3    H2 1278   1.709   6.791   6.387
  441TIP3   OH2 1279   7.951   1.780   6.054
  441TIP3    H1 1280   7.880   1.727   6.090
  441TIP3    H2 1281   7.912   1.867   6.041
  442TIP3   OH2 1282   8.104   4.652   5.451
  442TIP3    H1 1283   8.126   4.559   5.444
  442TIP3    H2 1284   8.178   4.691   5.498
  443TIP3   OH2 1285   5.552   0.557   0.772
  443TIP3    H1 1286   5.567   0.476   0.723
  443TIP3    H2 1287   5.583   0.627   0.713
  444TIP3   OH2 1288   4.016   6.867   5.196
  444TIP3    H1 1289   3.991   6.960   5.192
  444TIP3    H2 1290   4.111   6.868   5.188
  445TIP3   OH2 1291   4.299   2.534   6.571
  445TIP3    H1 1292   4.257   2.611   6.609
  445TIP3    H2 1293   4.271   2.535   6.479
  446TIP3   OH2 1294   3.112   4.657   4.046
  446TIP3    H1 1295   3.056   4.611   3.983
  446TIP3    H2 1296   3.167   4.714   3.993
  447TIP3   OH2 1297   8.142   1.415   4.517
  447TIP3    H1 1298   8.099   1.330   4.511
  447TIP3    H2 1299   8.099   1.458   4.590
  448TIP3   OH2 1300   2.590   7.307   1.825
  448TIP3    H1 1301   2.535   7.356   1.886
  448TIP3    H2 1302   2.603   7.367   1.751
  449TIP3   OH2 1303   8.107   2.458   1.551
  449TIP3    H1 1304   8.016   2.430   1.545
  449TIP3    H2 1305   8.116   2.524   1.482
  450TIP3   OH2 1306   1.099   1.675   4.619
  450TIP3    H1 1307   1.155   1.669   4.542
  450TIP3    H2 1308   1.153   1.719   4.685
  451TIP3   OH2 1309   3.664   6.444   5.300
  451TIP3    H1 1310   3.695   6.531   5.277
  451TIP3    H2 1311   3.594   6.425   5.238
  452TIP3   OH2 1312   5.867   1.529   2.824
  452TIP3    H1 1313   5.937   1.478   2.864
  452TIP3    H2 1314   5.909   1.612   2.801
  453TIP3   OH2 1315   7.329   7.170   3.566
  453TIP3    H1 1316   7.325   7.265   3.557
  453TIP3    H2 1317   7.239   7.141   3.550
  454TIP3   OH2 1318   7.582   5.303   1.064
  454TIP3    H1 1319   7.572   5.311   1.159
  454TIP3    H2 1320   7.509   5.354   1.028
  455TIP3   OH2 1321   3.134   3.367   1.851
  455TIP3    H1 1322   3.208   3.338   1.798
  455TIP3    H2 1323   3.120   3.458   1.826
  456TIP3   OH2 1324   0.650   6.116   1.474
  456TIP3    H1 1325   0.591   6.190   1.454
  456TIP3    H2 1326   0.630   6.094   1.565
  457TIP3   OH2 1327   1.893   5.031   0.457
  457TIP3    H1 1328   1.848   4.947   0.455
  457TIP3    H2 1329   1.875   5.071   0.372
  458TIP3   OH2 1330   5.981   5.317   0.037
  458TIP3    H1 1331   6.012   5.274   0.117
  458TIP3    H2 1332   5.954   5.404   0.065
  459TIP3   OH2 1333   3.107   2.371   2.875
  459TIP3    H1 1334   3.156   2.301   2.917
  459TIP3    H2 1335   3.099   2.439   2.941
  460TIP3   OH2 1336   3.525   6.519   0.556
  460TIP3    H1 1337   3.475   6.586   0.509
  460TIP3    H2 1338   3.479   6.508   0.639
  461TIP3   OH2 1339   4.759   6.837   2.962
  461TIP3    H1 1340   4.830   6.863   2.904
  461TIP3    H2 1341   4.748   6.912   3.021
  462TIP3   OH2 1342   4.823   2.212   6.033
  462TIP3    H1 1343   4.736   2.249   6.016
  462TIP3    H2 1344   4.856   2.261   6.108
  463TIP3   OH2 1345   2.856   4.393   0.164
  463TIP3    H1 1346   2.916   4.354   0.101
  463TIP3    H2 1347   2.770   4.357   0.141
  464TIP3   OH2 1348   3.066   0.417   6.120
  464TIP3    H1 1349   3.146   0.433   6.170
  464TIP3    H2 1350   3.036   0.331   6.149
  465TIP3   OH2 1351   0.047   3.488   4.489
  465TIP3    H1 1352  -0.018   3.418   4.496
  465TIP3    H2 1353   0.092   3.488   4.574
  466TIP3   OH2 1354   2.177   6.359   6.090
  466TIP3    H1 1355   2.182   6.289   6.025
  466TIP3    H2 1356   2.115   6.422   6.053
  467TIP3   OH2 1357   0.674   0.251   2.216
  467TIP3    H1 1358   0.624   0.243   2.135
  467TIP3    H2 1359   0.685   0.161   2.247
  468TIP3   OH2 1360   0.278   5.552   0.335
  468TIP3    H1 1361   0.187   5.577   0.354
  468TIP3    H2 1362   0.283   5.548   0.240
  469TIP3   OH2 1363   8.282   4.219   6.148
  469TIP3    H1 1364   8.313   4.263   6.070
  469TIP3    H2 1365   8.296   4.126   6.131
  470TIP3   OH2 1366   5.647   7.241   0.330
  470TIP3    H1 1367   5.655   7.279   0.418
  470TIP3    H2 1368   5.554   7.216   0.324
  471TIP3   OH2 1369   0.293   2.873   1.914
  471TIP3    H1 1370   0.222   2.810   1.919
  471TIP3    H2 1371   0.290   2.921   1.997
  472TIP3   OH2 1372   4.566   7.037   4.962
  472TIP3    H1 1373   4.540   7.115   5.011
  472TIP3    H2 1374   4.592   7.069   4.876
  473TIP3   OH2 1375   7.097   3.336   1.607
  473TIP3    H1 1376   7.078   3.404   1.542
  473TIP3    H2 1377   7.017   3.329   1.659
  474TIP3   OH2 1378   5.554   4.733   4.647
  474TIP3    H1 1379   5.544   4.806   4.586
  474TIP3    H2 1380   5.648   4.728   4.663
  475TIP3   OH2 1381   8.225   4.070   3.819
  475TIP3    H1 1382   8.200   4.097   3.731
  475TIP3    H2 1383   8.287   4.137   3.848
  476TIP3   OH2 1384   0.967   2.869   5.351
  476TIP3    H1 1385   0.905   2.911   5.411
  476TIP3    H2 1386   0.990   2.938   5.289
  477TIP3   OH2 1387   0.714   1.213   5.469
  477TIP3    H1 1388   0.720   1.132   5.420
  477TIP3    H2 1389   0.798   1.220   5.515
  478TIP3   OH2 1390   3.940   1.375   2.697
  478TIP3    H1 1391   3.847   1.390   2.714
  478TIP3    H2 1392   3.956   1.286   2.728
  479TIP3   OH2 1393   1.371   5.825   2.575
  479TIP3    H1 1394   1.450   5.801   2.624
  479TIP3    H2 1395   1.312   5.750   2.586
  480TIP3   OH2 1396   1.107   3.883   4.446
  480TIP3    H1 1397   1.079   3.897   4.536
  480TIP3    H2 1398   1.111   3.971   4.408
  481TIP3   OH2 1399   5.091   1.777   0.481
  481TIP3    H1 1400   5.019   1.716   0.500
  481TIP3    H2 1401   5.048   1.858   0.454
  482TIP3   OH2 1402   3.493   1.360   2.289
  482TIP3    H1 1403   3.551   1.357   2.214
  482TIP3    H2 1404   3.549   1.382   2.363
  483TIP3   OH2 1405   4.140   7.768   1.061
  483TIP3    H1 1406   4.232   7.781   1.038
  483TIP3    H2 1407   4.143   7.721   1.145
  484TIP3   OH2 1408   1.515   6.114   0.446
  484TIP3    H1 1409   1.581   6.045   0.451
  484TIP3    H2 1410   1.473   6.102   0.361
  485TIP3   OH2 1411   4.274   6.620   5.992
  485TIP3    H1 1412   4.368   6.621   6.006
  485TIP3    H2 1413   4.243   6.702   6.029
  486TIP3   OH2 1414   6.408   7.438   3.311
  486TIP3    H1 1415   6.444   7.452   3.224
  486TIP3    H2 1416   6.331   7.495   3.315
  487TIP3   OH2 1417   2.346   6.894   5.143
  487TIP3    H1 1418   2.401   6.938   5.209
  487TIP3    H2 1419   2.409   6.860   5.079
  488TIP3   OH2 1420   5.766   1.919   3.280
  488TIP3    H1 1421   5.770   1.986   3.212
  488TIP3    H2 1422   5.833   1.945   3.343
  489TIP3   OH2 1423   1.649   0.730   1.923
  489TIP3    H1 1424   1.596   0.750   1.845
  489TIP3    H2 1425   1.585   0.714   1.992
  490TIP3   OH2 1426   2.461   0.588   2.233
  490TIP3    H1 1427   2.437   0.630   2.150
  490TIP3    H2 1428   2.554   0.566   2.223
  491TIP3   OH2 1429   0.513   0.545   2.178
  491TIP3    H1 1430   0.456   0.500   2.115
  491TIP3    H2 1431   0.597   0.551   2.134
  492TIP3   OH2 1432   4.439   7.526   2.038
  492TIP3    H1 1433   4.390   7.452   2.074
  492TIP3    H2 1434   4.406   7.534   1.948
  493TIP3   OH2 1435   2.274   6.258   2.542
  493TIP3    H1 1436   2.308   6.343   2.571
  493TIP3    H2 1437   2.283   6.201   2.618
  494TIP3   OH2 1438   7.747   1.427   0.480
  494TIP3    H1 1439   7.828   1.394   0.520
  494TIP3    H2 1440   7.750   1.394   0.390
  495TIP3   OH2 1441   1.793   1.972   1.048
  495TIP3    H1 1442   1.856   1.910   1.083
  495TIP3    H2 1443   1.806   1.970   0.953
  496TIP3   OH2 1444   1.890   2.526   6.379
  496TIP3    H1 1445   1.892   2.502   6.471
  496TIP3    H2 1446   1.963   2.479   6.340
  497TIP3   OH2 1447   4.634   1.905   2.377
  497TIP3    H1 1448   4.566   1.844   2.349
  497TIP3    H2 1449   4.628   1.906   2.473
  498TIP3   OH2 1450   7.112   0.753   1.502
  498TIP3    H1 1451   7.165   0.818   1.457
  498TIP3    H2 1452   7.087   0.795   1.585
  499TIP3   OH2 1453   6.319   6.837   4.519
  499TIP3    H1 1454   6.334   6.764   4.459
  499TIP3    H2 1455   6.238   6.878   4.487
  500TIP3   OH2 1456   0.822   3.712   4.432
  500TIP3    H1 1457   0.816   3.620   4.458
  500TIP3    H2 1458   0.868   3.755   4.504
  501TIP3   OH2 1459   7.503   0.967   1.500
  501TIP3    H1 1460   7.561   0.976   1.575
  501TIP3    H2 1461   7.417   0.995   1.532
  502TIP3   OH2 1462   0.999   7.412   2.660
  502TIP3    H1 1463   0.948   7.343   2.618
  502TIP3    H2 1464   1.001   7.386   2.753
  503TIP3   OH2 1465   2.219   7.667   4.508
  503TIP3    H1 1466   2.184   7.632   4.426
  503TIP3    H2 1467   2.258   7.751   4.484
  504TIP3   OH2 1468   4.152   4.277   3.036
  504TIP3    H1 1469   4.233   4.250   2.992
  504TIP3    H2 1470   4.162   4.371   3.049
  505TIP3   OH2 1471   1.112   0.880   6.481
  505TIP3    H1 1472   1.158   0.797   6.468
  505TIP3    H2 1473   1.104   0.888   6.576
  506TIP3   OH2 1474   4.693   1.366   1.780
  506TIP3    H1 1475   4.667   1.433   1.843
  506TIP3    H2 1476   4.771   1.402   1.737
  507TIP3   OH2 1477   3.250   1.224   2.224
  507TIP3    H1 1478   3.171   1.259   2.264
  507TIP3    H2 1479   3.322   1.261   2.276
  508TIP3   OH2 1480   1.884   7.659   4.949
  508TIP3    H1 1481   1.910   7.719   5.019
  508TIP3    H2 1482   1.831   7.592   4.993
  509TIP3   OH2 1483   4.661   1.561   0.047
  509TIP3    H1 1484   4.619   1.575  -0.038
  509TIP3    H2 1485   4.734   1.622   0.048
  510TIP3   OH2 1486   2.598   3.161   6.537
  510TIP3    H1 1487   2.546   3.107   6.597
  510TIP3    H2 1488   2.587   3.250   6.568
  511TIP3   OH2 1489   1.513   7.039   4.037
  511TIP3    H1 1490   1.451   7.037   3.964
  511TIP3    H2 1491   1.473   6.985   4.105
  512TIP3   OH2 1492   1.705   7.427   1.559
  512TIP3    H1 1493   1.663   7.448   1.642
  512TIP3    H2 1494   1.774   7.493   1.550
  513TIP3   OH2 1495   5.215   2.642   3.705
  513TIP3    H1 1496   5.201   2.686   3.622
  513TIP3    H2 1497   5.274   2.569   3.684
  514TIP3   OH2 1498   0.531   7.476   0.525
  514TIP3    H1 1499   0.529   7.533   0.602
  514TIP3    H2 1500   0.559   7.533   0.453
  515TIP3   OH2 1501   2.209   4.047   4.177
  515TIP3    H1 1502   2.245   3.987   4.112
  515TIP3    H2 1503   2.125   4.009   4.202
  516TIP3   OH2 1504   5.969   0.209   5.985
  516TIP3    H1 1505   5.893   0.183   5.932
  516TIP3    H2 1506   5.934   0.218   6.074
  517TIP3   OH2 1507   1.391   3.178   1.711
  517TIP3    H1 1508   1.313   3.156   1.762
  517TIP3    H2 1509   1.367   3.159   1.621
  518TIP3   OH2 1510   0.388   7.424   1.503
  518TIP3    H1 1511   0.353   7.397   1.418
  518TIP3    H2 1512   0.330   7.382   1.567
  519TIP3   OH2 1513   8.145   4.953   2.239
  519TIP3    H1 1514   8.125   4.863   2.212
  519TIP3    H2 1515   8.095   5.008   2.179
  520TIP3   OH2 1516   0.806   4.396   6.043
  520TIP3    H1 1517   0.720   4.356   6.025
  520TIP3    H2 1518   0.868   4.340   5.997
  521TIP3   OH2 1519   5.902   5.890   5.657
  521TIP3    H1 1520   5.974   5.887   5.594
  521TIP3    H2 1521   5.944   5.873   5.742
  522TIP3   OH2 1522   0.511   6.720   1.454
  522TIP3    H1 1523   0.586   6.664   1.473
  522TIP3    H2 1524   0.447   6.662   1.414
  523TIP3   OH2 1525   0.703   1.422   0.133
  523TIP3    H1 1526   0.747   1.342   0.161
  523TIP3    H2 1527   0.660   1.399   0.051
  524TIP3   OH2 1528   0.470   2.955   0.943
  524TIP3    H1 1529   0.522   2.980   0.867
  524TIP3    H2 1530   0.387   2.925   0.907
  525TIP3   OH2 1531   6.928   2.944   6.197
  525TIP3    H1 1532   6.914   2.880   6.267
  525TIP3    H2 1533   6.870   3.016   6.218
  526TIP3   OH2 1534   3.644   1.752   0.078
  526TIP3    H1 1535   3.550   1.761   0.093
  526TIP3    H2 1536   3.682   1.834   0.108
  527TIP3   OH2 1537   2.987   5.154   6.423
  527TIP3    H1 1538   2.943   5.113   6.497
  527TIP3    H2 1539   2.916   5.194   6.373
  528TIP3   OH2 1540   6.732   2.338   2.063
  528TIP3    H1 1541   6.728   2.428   2.031
  528TIP3    H2 1542   6.683   2.340   2.145
  529TIP3   OH2 1543   2.487   5.106   2.900
  529TIP3    H1 1544   2.552   5.088   2.968
  529TIP3    H2 1545   2.477   5.201   2.901
  530TIP3   OH2 1546   7.263   1.658   3.010
  530TIP3    H1 1547   7.204   1.584   3.027
  530TIP3    H2 1548   7.348   1.618   2.993
  531TIP3   OH2 1549   7.102   3.540   4.823
  531TIP3    H1 1550   7.080   3.538   4.916
  531TIP3    H2 1551   7.179   3.484   4.815
  532TIP3   OH2 1552   5.370   5.863   2.174
  532TIP3    H1 1553   5.402   5.821   2.095
  532TIP3    H2 1554   5.430   5.937   2.187
  533TIP3   OH2 1555   6.037   6.146   5.316
  533TIP3    H1 1556   6.046   6.060   5.358
  533TIP3    H2 1557   6.127   6.177   5.306
  534TIP3   OH2 1558   4.786   2.041   2.222
  534TIP3    H1 1559   4.722   2.018   2.289
  534TIP3    H2 1560   4.762   2.129   2.195
  535TIP3   OH2 1561   6.363   2.812   3.363
  535TIP3    H1 1562   6.448   2.811   3.407
  535TIP3    H2 1563   6.333   2.721   3.365
  536TIP3   OH2 1564   4.213   1.641   4.300
  536TIP3    H1 1565   4.293   1.603   4.264
  536TIP3    H2 1566   4.191   1.584   4.374
  537TIP3   OH2 1567   5.273   3.033   6.398
  537TIP3    H1 1568   5.214   3.109   6.395
  537TIP3    H2 1569   5.330   3.050   6.473
  538TIP3   OH2 1570   6.103   6.486   3.653
  538TIP3    H1 1571   6.071   6.498   3.564
  538TIP3    H2 1572   6.180   6.430   3.645
  539TIP3   OH2 1573   2.616   1.895   1.671
  539TIP3    H1 1574   2.671   1.841   1.729
  539TIP3    H2 1575   2.623   1.983   1.708
  540TIP3   OH2 1576   5.932   3.602   3.279
  540TIP3    H1 1577   5.888   3.581   3.361
  540TIP3    H2 1578   6.025   3.589   3.297
  541TIP3   OH2 1579   7.193   2.383   0.541
  541TIP3    H1 1580   7.201   2.413   0.451
  541TIP3    H2 1581   7.189   2.464   0.593
  542TIP3   OH2 1582   0.100   0.999   6.447
  542TIP3    H1 1583   0.151   0.920   6.467
  542TIP3    H2 1584   0.128   1.023   6.358
  543TIP3   OH2 1585   5.441   4.733   5.627
  543TIP3    H1 1586   5.490   4.655   5.603
  543TIP3    H2 1587   5.505   4.804   5.621
  544TIP3   OH2 1588   3.445   4.964   4.213
  544TIP3    H1 1589   3.502   4.888   4.224
  544TIP3    H2 1590   3.434   4.973   4.118
  545TIP3   OH2 1591   5.181   2.795   6.459
  545TIP3    H1 1592   5.203   2.870   6.404
  545TIP3    H2 1593   5.196   2.719   6.402
  546TIP3   OH2 1594   5.127   0.523   4.131
  546TIP3    H1 1595   5.098   0.598   4.079
  546TIP3    H2 1596   5.146   0.455   4.066
  547TIP3   OH2 1597   4.402   4.768   0.299
  547TIP3    H1 1598   4.363   4.701   0.356
  547TIP3    H2 1599   4.447   4.827   0.360
  548TIP3   OH2 1600   4.227   3.680   1.723
  548TIP3    H1 1601   4.272   3.632   1.654
  548TIP3    H2 1602   4.134   3.671   1.702
  549TIP3   OH2 1603   3.560   5.516   5.910
  549TIP3    H1 1604   3.585   5.608   5.918
  549TIP3    H2 1605   3.529   5.492   5.998
  550TIP3   OH2 1606   6.643   3.599   3.253
  550TIP3    H1 1607   6.737   3.605   3.266
  550TIP3    H2 1608   6.629   3.628   3.163
  551TIP3   OH2 1609   5.610   3.572   0.334
  551TIP3    H1 1610   5.583   3.494   0.381
  551TIP3    H2 1611   5.536   3.632   0.340
  552TIP3   OH2 1612   2.173   1.819   1.598
  552TIP3    H1 1613   2.259   1.779   1.588
  552TIP3    H2 1614   2.147   1.798   1.688
  553TIP3   OH2 1615   7.037   2.608   2.938
  553TIP3    H1 1616   7.056   2.589   3.030
  553TIP3    H2 1617   7.003   2.526   2.902
  554TIP3   OH2 1618   0.915   0.230   1.256
  554TIP3    H1 1619   0.991   0.172   1.251
  554TIP3    H2 1620   0.852   0.192   1.195
  555TIP3   OH2 1621   6.601   4.499   1.741
  555TIP3    H1 1622   6.543   4.540   1.677
  555TIP3    H2 1623   6.634   4.421   1.697
  556TIP3   OH2 1624   7.944   5.093   0.781
  556TIP3    H1 1625   7.921   5.117   0.870
  556TIP3    H2 1626   7.930   4.998   0.777
  557TIP3   OH2 1627   1.496   5.820   4.533
  557TIP3    H1 1628   1.406   5.852   4.542
  557TIP3    H2 1629   1.494   5.761   4.458
  558TIP3   OH2 1630   3.649   1.724   2.407
  558TIP3    H1 1631   3.656   1.630   2.422
  558TIP3    H2 1632   3.554   1.741   2.406
  559TIP3   OH2 1633   4.050   0.859   4.167
  559TIP3    H1 1634   4.068   0.901   4.083
  559TIP3    H2 1635   4.103   0.908   4.230
  560TIP3   OH2 1636   5.349   6.635   2.160
  560TIP3    H1 1637   5.310   6.720   2.142
  560TIP3    H2 1638   5.295   6.598   2.230
  561TIP3   OH2 1639   3.495   3.567   5.485
  561TIP3    H1 1640   3.437   3.496   5.458
  561TIP3    H2 1641   3.446   3.647   5.468
  562TIP3   OH2 1642   2.540   2.410   3.747
  562TIP3    H1 1643   2.585   2.385   3.827
  562TIP3    H2 1644   2.603   2.393   3.677
  563TIP3   OH2 1645   6.264   4.009   5.729
  563TIP3    H1 1646   6.336   3.969   5.778
  563TIP3    H2 1647   6.279   4.103   5.737
  564TIP3   OH2 1648   3.404   7.007   6.101
  564TIP3    H1 1649   3.483   6.969   6.065
  564TIP3    H2 1650   3.377   7.072   6.036
  565TIP3   OH2 1651   4.541   4.718   2.510
  565TIP3    H1 1652   4.595   4.689   2.583
  565TIP3    H2 1653   4.452   4.718   2.544
  566TIP3   OH2 1654   0.061   5.889   0.989
  566TIP3    H1 1655   0.076   5.835   0.911
  566TIP3    H2 1656   0.141   5.942   0.997
  567TIP3   OH2 1657   2.539   4.751   3.107
  567TIP3    H1 1658   2.624   4.748   3.063
  567TIP3    H2 1659   2.477   4.721   3.040
  568TIP3   OH2 1660   6.802   1.033   0.240
  568TIP3    H1 1661   6.754   1.022   0.157
  568TIP3    H2 1662   6.796   0.947   0.282
  569TIP3   OH2 1663   4.498   6.579   5.222
  569TIP3    H1 1664   4.516   6.543   5.135
  569TIP3    H2 1665   4.583   6.614   5.251
  570TIP3   OH2 1666   2.860   5.170   2.241
  570TIP3    H1 1667   2.829   5.155   2.331
  570TIP3    H2 1668   2.931   5.107   2.230
  571TIP3   OH2 1669   1.709   5.967   6.130
  571TIP3    H1 1670   1.628   5.916   6.129
  571TIP3    H2 1671   1.713   6.002   6.219
  572TIP3   OH2 1672   2.522   4.657   3.527
  572TIP3    H1 1673   2.434   4.670   3.490
  572TIP3    H2 1674   2.527   4.720   3.599
  573TIP3   OH2 1675   7.405   3.392   1.083
  573TIP3    H1 1676   7.434   3.424   1.168
  573TIP3    H2 1677   7.475   3.414   1.023
  574TIP3   OH2 1678   2.430   5.397   1.808
  574TIP3    H1 1679   2.482   5.445   1.871
  574TIP3    H2 1680   2.440   5.445   1.726
  575TIP3   OH2 1681   0.895   1.313   2.022
  575TIP3    H1 1682   0.937   1.396   2.042
  575TIP3    H2 1683   0.835   1.333   1.951
  576TIP3   OH2 1684   5.678   5.072   6.029
  576TIP3    H1 1685   5.752   5.052   5.972
  576TIP3    H2 1686   5.620   4.996   6.021
  577TIP3   OH2 1687   0.176   1.882   1.911
  577TIP3    H1 1688   0.117   1.956   1.896
  577TIP3    H2 1689   0.127   1.823   1.968
  578TIP3   OH2 1690   0.931   4.666   5.847
  578TIP3    H1 1691   0.867   4.727   5.885
  578TIP3    H2 1692   0.878   4.593   5.814
  579TIP3   OH2 1693   3.807   3.365   0.068
  579TIP3    H1 1694   3.858   3.430   0.117
  579TIP3    H2 1695   3.805   3.398  -0.022
  580TIP3   OH2 1696   0.846   4.095   1.503
  580TIP3    H1 1697   0.857   4.098   1.408
  580TIP3    H2 1698   0.754   4.071   1.514
  581TIP3   OH2 1699   0.062   1.473   2.298
  581TIP3    H1 1700   0.074   1.409   2.368
  581TIP3    H2 1701   0.080   1.425   2.218
  582TIP3   OH2 1702   7.677   3.183   3.121
  582TIP3    H1 1703   7.749   3.221   3.071
  582TIP3    H2 1704   7.693   3.210   3.211
  583TIP3   OH2 1705   2.224   7.173   1.603
  583TIP3    H1 1706   2.153   7.121   1.640
  583TIP3    H2 1707   2.300   7.156   1.659
  584TIP3   OH2 1708   1.422   7.227   6.143
  584TIP3    H1 1709   1.376   7.289   6.199
  584TIP3    H2 1710   1.514   7.236   6.168
  585TIP3   OH2 1711   8.032   6.513   3.820
  585TIP3    H1 1712   8.105   6.486   3.876
  585TIP3    H2 1713   8.040   6.457   3.742
  586TIP3   OH2 1714   3.888   1.953   5.433
  586TIP3    H1 1715   3.842   1.870   5.424
  586TIP3    H2 1716   3.826   2.019   5.400
  587TIP3   OH2 1717   2.613   1.721   4.032
  587TIP3    H1 1718   2.657   1.643   4.067
  587TIP3    H2 1719   2.656   1.794   4.077
  588TIP3   OH2 1720   8.039   7.207   0.721
  588TIP3    H1 1721   8.053   7.298   0.698
  588TIP3    H2 1722   7.945   7.201   0.739
  589TIP3   OH2 1723   5.429   2.086   1.015
  589TIP3    H1 1724   5.445   2.088   1.109
  589TIP3    H2 1725   5.350   2.033   1.005
  590TIP3   OH2 1726   5.610   0.305   2.076
  590TIP3    H1 1727   5.544   0.243   2.044
  590TIP3    H2 1728   5.649   0.341   1.997
  591TIP3   OH2 1729   0.661   6.511   1.245
  591TIP3    H1 1730   0.625   6.437   1.295
  591TIP3    H2 1731   0.718   6.556   1.307
  592TIP3   OH2 1732   4.223   3.193   2.489
  592TIP3    H1 1733   4.129   3.174   2.479
  592TIP3    H2 1734   4.226   3.261   2.556
  593TIP3   OH2 1735   5.799   3.622   1.368
  593TIP3    H1 1736   5.766   3.664   1.289
  593TIP3    H2 1737   5.726   3.570   1.401
  594TIP3   OH2 1738   6.026   0.974   0.933
  594TIP3    H1 1739   6.118   0.991   0.914
  594TIP3    H2 1740   5.993   1.057   0.966
  595TIP3   OH2 1741   8.160   6.100   0.248
  595TIP3    H1 1742   8.072   6.115   0.213
  595TIP3    H2 1743   8.146   6.047   0.327
  596TIP3   OH2 1744   1.632   0.336   0.280
  596TIP3    H1 1745   1.619   0.363   0.371
  596TIP3    H2 1746   1.694   0.264   0.284
  597TIP3   OH2 1747   0.123   6.676   2.733
  597TIP3    H1 1748   0.155   6.656   2.645
  597TIP3    H2 1749   0.143   6.769   2.745
  598TIP3   OH2 1750   3.656   2.706   3.060
  598TIP3    H1 1751   3.609   2.623   3.045
  598TIP3    H2 1752   3.595   2.773   3.030
  599TIP3   OH2 1753  -0.024   6.034   4.023
  599TIP3    H1 1754   0.005   5.972   3.956
  599TIP3    H2 1755   0.047   6.098   4.028
  600TIP3   OH2 1756   6.438   6.798   5.063
  600TIP3    H1 1757   6.488   6.784   4.983
  600TIP3    H2 1758   6.453   6.719   5.114
  601TIP3   OH2 1759   7.391   0.206   6.130
  601TIP3    H1 1760   7.405   0.300   6.134
  601TIP3    H2 1761   7.299   0.195   6.108
  602TIP3   OH2 1762   3.881   6.129   2.423
  602TIP3    H1 1763   3.902   6.058   2.362
  602TIP3    H2 1764   3.958   6.187   2.418
  603TIP3   OH2 1765   6.135   7.509   6.074
  603TIP3    H1 1766   6.219   7.479   6.039
  603TIP3    H2 1767   6.077   7.511   5.998
  604TIP3   OH2 1768   8.218   4.556   2.854
  604TIP3    H1 1769   8.180   4.643   2.839
  604TIP3    H2 1770   8.309   4.574   2.878
  605TIP3   OH2 1771   5.281   7.211   2.050
  605TIP3    H1 1772   5.291   7.145   1.981
  605TIP3    H2 1773   5.366   7.255   2.052
  606TIP3   OH2 1774   6.877   1.130   2.421
  606TIP3    H1 1775   6.873   1.041   2.456
  606TIP3    H2 1776   6.786   1.159   2.419
  607TIP3   OH2 1777   5.799   7.715   1.897
  607TIP3    H1 1778   5.846   7.733   1.816
  607TIP3    H2 1779   5.814   7.792   1.952
  608TIP3   OH2 1780   6.620   3.944   0.948
  608TIP3    H1 1781   6.610   3.853   0.974
  608TIP3    H2 1782   6.705   3.970   0.982
  609TIP3   OH2 1783   1.098   3.092   3.831
  609TIP3    H1 1784   1.005   3.071   3.837
  609TIP3    H2 1785   1.141   3.026   3.884
  610TIP3   OH2 1786   6.820   7.295   6.307
  610TIP3    H1 1787   6.781   7.363   6.362
  610TIP3    H2 1788   6.755   7.280   6.239
  611TIP3   OH2 1789   2.144   7.209   4.172
  611TIP3    H1 1790   2.189   7.127   4.150
  611TIP3    H2 1791   2.214   7.274   4.174
  612TIP3   OH2 1792   4.369   1.726   2.384
  612TIP3    H1 1793   4.364   1.650   2.326
  612TIP3    H2 1794   4.281   1.735   2.420
  613TIP3   OH2 1795   1.506   3.195   0.405
  613TIP3    H1 1796   1.550   3.227   0.326
  613TIP3    H2 1797   1.508   3.270   0.465
  614TIP3   OH2 1798   6.083   5.224   5.858
  614TIP3    H1 1799   6.016   5.279   5.899
  614TIP3    H2 1800   6.161   5.279   5.854
  615TIP3   OH2 1801   6.669   7.175   3.141
  615TIP3    H1 1802   6.639   7.233   3.072
  615TIP3    H2 1803   6.734   7.227   3.190
  616TIP3   OH2 1804   6.239   3.698   6.353
  616TIP3    H1 1805   6.322   3.717   6.399
  616TIP3    H2 1806   6.220   3.607   6.375
  617TIP3   OH2 1807   6.025   7.110   4.179
  617TIP3    H1 1808   5.980   7.148   4.254
  617TIP3    H2 1809   6.116   7.100   4.208
  618TIP3   OH2 1810   3.697   1.323   6.749
  618TIP3    H1 1811   3.631   1.256   6.731
  618TIP3    H2 1812   3.777   1.290   6.708
  619TIP3   OH2 1813   1.699   3.865   3.989
  619TIP3    H1 1814   1.609   3.841   3.968
  619TIP3    H2 1815   1.703   3.865   4.084
  620TIP3   OH2 1816   3.370   2.137   5.937
  620TIP3    H1 1817   3.296   2.097   5.982
  620TIP3    H2 1818   3.441   2.072   5.944
  621TIP3   OH2 1819  -0.025   1.795   5.909
  621TIP3    H1 1820  -0.006   1.799   6.003
  621TIP3    H2 1821   0.011   1.876   5.874
  622TIP3   OH2 1822   1.915   7.507   4.104
  622TIP3    H1 1823   1.825   7.538   4.094
  622TIP3    H2 1824   1.912   7.449   4.180
  623TIP3   OH2 1825   6.141   2.409   5.180
  623TIP3    H1 1826   6.051   2.417   5.211
  623TIP3    H2 1827   6.176   2.332   5.224
  624TIP3   OH2 1828   3.788   5.394   2.471
  624TIP3    H1 1829   3.796   5.469   2.412
  624TIP3    H2 1830   3.724   5.337   2.428
  625TIP3   OH2 1831   4.098   6.407   3.048
  625TIP3    H1 1832   4.095   6.404   2.952
  625TIP3    H2 1833   4.026   6.351   3.076
  626TIP3   OH2 1834   2.630   1.056   3.530
  626TIP3    H1 1835   2.690   1.129   3.514
  626TIP3    H2 1836   2.623   1.051   3.625
  627TIP3   OH2 1837   3.445   0.381   6.042
  627TIP3    H1 1838   3.521   0.430   6.010
  627TIP3    H2 1839   3.434   0.309   5.981
  628TIP3   OH2 1840   1.030   1.462   1.062
  628TIP3    H1 1841   1.067   1.547   1.036
  628TIP3    H2 1842   1.020   1.469   1.157
  629TIP3   OH2 1843   5.901   0.040   2.256
  629TIP3    H1 1844   5.930   0.068   2.169
  629TIP3    H2 1845   5.978   0.052   2.312
  630TIP3   OH2 1846   7.294   1.738   5.720
  630TIP3    H1 1847   7.302   1.648   5.753
  630TIP3    H2 1848   7.209   1.740   5.676
  631TIP3   OH2 1849   2.593   3.406   0.109
  631TIP3    H1 1850   2.660   3.456   0.156
  631TIP3    H2 1851   2.517   3.407   0.166
  632TIP3   OH2 1852   5.905   3.925   3.870
  632TIP3    H1 1853   5.878   3.999   3.924
  632TIP3    H2 1854   5.996   3.944   3.847
  633TIP3   OH2 1855   0.260   6.671   5.674
  633TIP3    H1 1856   0.267   6.688   5.768
  633TIP3    H2 1857   0.307   6.589   5.660
  634TIP3   OH2 1858   7.202   5.532   4.385
  634TIP3    H1 1859   7.121   5.545   4.335
  634TIP3    H2 1860   7.191   5.588   4.462
  635TIP3   OH2 1861   7.473   6.391   5.015
  635TIP3    H1 1862   7.488   6.360   5.104
  635TIP3    H2 1863   7.523   6.331   4.960
  636TIP3   OH2 1864   1.545   1.135   4.337
  636TIP3    H1 1865   1.605   1.210   4.340
  636TIP3    H2 1866   1.466   1.165   4.383
  637TIP3   OH2 1867   0.743   7.117   3.869
  637TIP3    H1 1868   0.773   7.072   3.790
  637TIP3    H2 1869   0.656   7.149   3.845
  638TIP3   OH2 1870   5.481   0.306   3.339
  638TIP3    H1 1871   5.464   0.400   3.350
  638TIP3    H2 1872   5.571   0.294   3.369
  639TIP3   OH2 1873   3.044   7.523   2.060
  639TIP3    H1 1874   2.994   7.572   1.995
  639TIP3    H2 1875   3.112   7.479   2.010
  640TIP3   OH2 1876   3.674   4.406   1.081
  640TIP3    H1 1877   3.699   4.349   1.153
  640TIP3    H2 1878   3.756   4.427   1.037
  641TIP3   OH2 1879   6.342   6.835   1.523
  641TIP3    H1 1880   6.278   6.808   1.456
  641TIP3    H2 1881   6.399   6.759   1.532
  642TIP3   OH2 1882   7.312   2.827   3.267
  642TIP3    H1 1883   7.321   2.810   3.174
  642TIP3    H2 1884   7.227   2.870   3.276
  643TIP3   OH2 1885   1.323   2.713   0.334
  643TIP3    H1 1886   1.325   2.685   0.426
  643TIP3    H2 1887   1.390   2.781   0.329
  644TIP3   OH2 1888   6.112   4.472   6.457
  644TIP3    H1 1889   6.202   4.457   6.485
  644TIP3    H2 1890   6.067   4.389   6.473
  645TIP3   OH2 1891   2.793   2.646   3.397
  645TIP3    H1 1892   2.762   2.703   3.328
  645TIP3    H2 1893   2.744   2.564   3.386
  646TIP3   OH2 1894   0.953   2.687   4.888
  646TIP3    H1 1895   1.047   2.681   4.905
  646TIP3    H2 1896   0.915   2.617   4.941
  647TIP3   OH2 1897   1.865   5.290   1.705
  647TIP3    H1 1898   1.859   5.290   1.610
  647TIP3    H2 1899   1.959   5.290   1.723
  648TIP3   OH2 1900   6.057   2.253   4.050
  648TIP3    H1 1901   6.133   2.221   4.098
  648TIP3    H2 1902   5.982   2.207   4.088
  649TIP3   OH2 1903   3.032   7.154   3.902
  649TIP3    H1 1904   2.937   7.167   3.901
  649TIP3    H2 1905   3.046   7.078   3.958
  650TIP3   OH2 1906   7.678   6.922   3.557
  650TIP3    H1 1907   7.586   6.896   3.559
  650TIP3    H2 1908   7.709   6.891   3.472
  651TIP3   OH2 1909   6.411   4.123   3.562
  651TIP3    H1 1910   6.389   4.030   3.561
  651TIP3    H2 1911   6.365   4.159   3.487
  652TIP3   OH2 1912   4.256   4.426   6.073
  652TIP3    H1 1913   4.280   4.407   6.163
  652TIP3    H2 1914   4.337   4.454   6.031
  653TIP3   OH2 1915   1.952   3.007   4.400
  653TIP3    H1 1916   2.035   3.055   4.403
  653TIP3    H2 1917   1.894   3.063   4.347
  654TIP3   OH2 1918   0.100   4.676   0.099
  654TIP3    H1 1919   0.158   4.729   0.153
  654TIP3    H2 1920   0.038   4.739   0.061
  655TIP3   OH2 1921   6.523   0.898   3.461
  655TIP3    H1 1922   6.472   0.888   3.380
  655TIP3    H2 1923   6.605   0.938   3.433
  656TIP3   OH2 1924   0.143   2.005   0.292
  656TIP3    H1 1925   0.142   2.028   0.199
  656TIP3    H2 1926   0.072   2.057   0.330
  657TIP3   OH2 1927   1.469   5.195   6.332
  657TIP3    H1 1928   1.432   5.120   6.379
  657TIP3    H2 1929   1.402   5.217   6.267
  658TIP3   OH2 1930   7.729   1.627   6.157
  658TIP3    H1 1931   7.647   1.646   6.112
  658TIP3    H2 1932   7.704   1.609   6.247
  659TIP3   OH2 1933   6.805   2.707   3.923
  659TIP3    H1 1934   6.899   2.698   3.910
  659TIP3    H2 1935   6.787   2.657   4.003
  660TIP3   OH2 1936   4.820   7.236   4.893
  660TIP3    H1 1937   4.782   7.165   4.840
  660TIP3    H2 1938   4.892   7.194   4.941
  661TIP3   OH2 1939   2.023   5.561   0.386
  661TIP3    H1 1940   1.928   5.573   0.380
  661TIP3    H2 1941   2.060   5.641   0.347
  662TIP3   OH2 1942   2.734   5.780   6.542
  662TIP3    H1 1943   2.654   5.782   6.595
  662TIP3    H2 1944   2.742   5.688   6.516
  663TIP3   OH2 1945   6.459   2.952   0.257
  663TIP3    H1 1946   6.465   2.914   0.345
  663TIP3    H2 1947   6.525   2.904   0.206
  664TIP3   OH2 1948   3.744   3.619   3.936
  664TIP3    H1 1949   3.782   3.687   3.991
  664TIP3    H2 1950   3.788   3.538   3.964
  665TIP3   OH2 1951   5.094   3.017   2.578
  665TIP3    H1 1952   5.008   3.054   2.563
  665TIP3    H2 1953   5.122   3.052   2.663
  666TIP3   OH2 1954   7.252   0.408   4.165
  666TIP3    H1 1955   7.190   0.370   4.103
  666TIP3    H2 1956   7.293   0.480   4.117
  667TIP3   OH2 1957   1.422   4.425   4.367
  667TIP3    H1 1958   1.419   4.498   4.429
  667TIP3    H2 1959   1.490   4.367   4.402
  668TIP3   OH2 1960   1.433   3.615   2.935
  668TIP3    H1 1961   1.442   3.681   3.004
  668TIP3    H2 1962   1.399   3.538   2.979
  669TIP3   OH2 1963   6.778   3.661   4.816
  669TIP3    H1 1964   6.742   3.741   4.779
  669TIP3    H2 1965   6.873   3.678   4.821
  670TIP3   OH2 1966   4.265   4.141   6.240
  670TIP3    H1 1967   4.351   4.111   6.268
  670TIP3    H2 1968   4.256   4.228   6.280
  671TIP3   OH2 1969   6.218   6.762   3.347
  671TIP3    H1 1970   6.138   6.793   3.305
  671TIP3    H2 1971   6.274   6.839   3.353
  672TIP3   OH2 1972   6.003   4.471   3.838
  672TIP3    H1 1973   5.913   4.459   3.807
  672TIP3    H2 1974   6.055   4.480   3.758
  673TIP3   OH2 1975   5.431   0.207   5.486
  673TIP3    H1 1976   5.401   0.132   5.433
  673TIP3    H2 1977   5.473   0.265   5.423
  674TIP3   OH2 1978   6.005   7.100   0.263
  674TIP3    H1 1979   6.009   7.059   0.176
  674TIP3    H2 1980   6.025   7.192   0.247
  675TIP3   OH2 1981   5.789   0.316   2.608
  675TIP3    H1 1982   5.808   0.227   2.641
  675TIP3    H2 1983   5.815   0.373   2.680
  676TIP3   OH2 1984   5.218   5.066   6.060
  676TIP3    H1 1985   5.225   5.055   6.155
  676TIP3    H2 1986   5.124   5.077   6.044
  677TIP3   OH2 1987   4.365   0.728   1.725
  677TIP3    H1 1988   4.367   0.776   1.642
  677TIP3    H2 1989   4.280   0.750   1.763
  678TIP3   OH2 1990   3.385   6.190   5.047
  678TIP3    H1 1991   3.333   6.117   5.011
  678TIP3    H2 1992   3.386   6.173   5.141
  679TIP3   OH2 1993   4.935   5.496   5.826
  679TIP3    H1 1994   5.011   5.469   5.878
  679TIP3    H2 1995   4.923   5.426   5.763
  680TIP3   OH2 1996   1.455   4.329   5.097
  680TIP3    H1 1997   1.407   4.393   5.045
  680TIP3    H2 1998   1.403   4.320   5.177
  681TIP3   OH2 1999   4.770   2.023   0.138
  681TIP3    H1 2000   4.706   2.093   0.122
  681TIP3    H2 2001   4.854   2.060   0.109
  682TIP3   OH2 2002   6.063   0.614   2.875
  682TIP3    H1 2003   6.076   0.623   2.970
  682TIP3    H2 2004   6.123   0.677   2.836
  683TIP3   OH2 2005   2.321   7.041   3.716
  683TIP3    H1 2006   2.296   7.087   3.796
  683TIP3    H2 2007   2.408   7.007   3.734
  684TIP3   OH2 2008   3.749   1.883   3.204
  684TIP3    H1 2009   3.670   1.935   3.221
  684TIP3    H2 2010   3.728   1.797   3.240
  685TIP3   OH2 2011   6.602   2.570   6.468
  685TIP3    H1 2012   6.570   2.500   6.410
  685TIP3    H2 2013   6.577   2.651   6.423
  686TIP3   OH2 2014   3.164   3.162   4.204
  686TIP3    H1 2015   3.157   3.092   4.140
  686TIP3    H2 2016   3.104   3.136   4.275
  687TIP3   OH2 2017   3.259   6.067   0.429
  687TIP3    H1 2018   3.186   6.123   0.458
  687TIP3    H2 2019   3.218   5.985   0.402
  688TIP3   OH2 2020   1.191   1.687   0.898
  688TIP3    H1 2021   1.152   1.737   0.826
  688TIP3    H2 2022   1.272   1.652   0.861
  689TIP3   OH2 2023   5.841   4.641   3.177
  689TIP3    H1 2024   5.869   4.678   3.094
  689TIP3    H2 2025   5.860   4.547   3.169
  690TIP3   OH2 2026   6.833   5.961   3.691
  690TIP3    H1 2027   6.738   5.975   3.692
  690TIP3    H2 2028   6.843   5.866   3.697
  691TIP3   OH2 2029   1.302   1.206   4.459
  691TIP3    H1 2030   1.277   1.259   4.534
  691TIP3    H2 2031   1.221   1.163   4.432
  692TIP3   OH2 2032   0.527   4.576   3.947
  692TIP3    H1 2033   0.552   4.492   3.907
  692TIP3    H2 2034   0.456   4.553   4.007
  693TIP3   OH2 2035   6.813   1.883   0.095
  693TIP3    H1 2036   6.848   1.972   0.099
  693TIP3    H2 2037   6.858   1.837   0.165
  694TIP3   OH2 2038   4.811   0.319   1.822
  694TIP3    H1 2039   4.801   0.411   1.797
  694TIP3    H2 2040   4.870   0.321   1.898
  695TIP3   OH2 2041   4.370   0.661   2.776
  695TIP3    H1 2042   4.393   0.608   2.853
  695TIP3    H2 2043   4.441   0.725   2.769
  696TIP3   OH2 2044   0.581   3.867   4.360
  696TIP3    H1 2045   0.610   3.940   4.306
  696TIP3    H2 2046   0.657   3.809   4.365
  697TIP3   OH2 2047   0.782   7.522   2.937
  697TIP3    H1 2048   0.748   7.612   2.931
  697TIP3    H2 2049   0.876   7.533   2.950
  698TIP3   OH2 2050   2.942   7.633   5.334
  698TIP3    H1 2051   2.892   7.593   5.406
  698TIP3    H2 2052   2.913   7.584   5.256
  699TIP3   OH2 2053   8.156   0.085   3.695
  699TIP3    H1 2054   8.172   0.041   3.779
  699TIP3    H2 2055   8.089   0.150   3.715
  700TIP3   OH2 2056   5.762   0.667   3.135
  700TIP3    H1 2057   5.752   0.690   3.228
  700TIP3    H2 2058   5.846   0.705   3.110
  701TIP3   OH2 2059   3.557   5.229   2.874
  701TIP3    H1 2060   3.527   5.143   2.845
  701TIP3    H2 2061   3.518   5.240   2.961
  702TIP3   OH2 2062   6.339   7.070   6.032
  702TIP3    H1 2063   6.316   6.998   6.091
  702TIP3    H2 2064   6.400   7.124   6.083
  703TIP3   OH2 2065   7.561   5.322   5.866
  703TIP3    H1 2066   7.564   5.226   5.858
  703TIP3    H2 2067   7.467   5.342   5.866
  704TIP3   OH2 2068   4.148   1.122   0.483
  704TIP3    H1 2069   4.180   1.177   0.411
  704TIP3    H2 2070   4.162   1.032   0.453
  705TIP3   OH2 2071   4.334   1.079   6.080
  705TIP3    H1 2072   4.406   1.113   6.028
  705TIP3    H2 2073   4.259   1.135   6.057
  706TIP3   OH2 2074   4.950   2.749   6.236
  706TIP3    H1 2075   4.984   2.673   6.189
  706TIP3    H2 2076   5.014   2.818   6.220
  707TIP3   OH2 2077   4.874   7.672   2.372
  707TIP3    H1 2078   4.869   7.676   2.276
  707TIP3    H2 2079   4.861   7.579   2.392
  708TIP3   OH2 2080   6.444   4.920   6.187
  708TIP3    H1 2081   6.454   4.983   6.116
  708TIP3    H2 2082   6.414   4.972   6.261
  709TIP3   OH2 2083   1.642   4.500   4.120
  709TIP3    H1 2084   1.624   4.496   4.027
  709TIP3    H2 2085   1.566   4.460   4.162
  710TIP3   OH2 2086   2.897   3.717   2.045
  710TIP3    H1 2087   2.805   3.732   2.068
  710TIP3    H2 2088   2.896   3.633   1.999
  711TIP3   OH2 2089   7.010   1.030   5.411
  711TIP3    H1 2090   6.955   0.969   5.459
  711TIP3    H2 2091   7.039   0.981   5.334
  712TIP3   OH2 2092   5.275   2.057   5.340
  712TIP3    H1 2093   5.185   2.031   5.320
  712TIP3    H2 2094   5.267   2.147   5.371
  713TIP3   OH2 2095   6.681   3.462   4.661
  713TIP3    H1 2096   6.758   3.414   4.693
  713TIP3    H2 2097   6.686   3.547   4.705
  714TIP3   OH2 2098   4.057   5.994   6.040
  714TIP3    H1 2099   4.058   5.907   6.079
  714TIP3    H2 2100   4.015   6.049   6.105
  715TIP3   OH2 2101   1.571   5.330   4.294
  715TIP3    H1 2102   1.632   5.350   4.223
  715TIP3    H2 2103   1.586   5.400   4.358
  716TIP3   OH2 2104   3.048   2.263   6.007
  716TIP3    H1 2105   2.965   2.224   6.034
  716TIP3    H2 2106   3.112   2.191   6.016
  717TIP3   OH2 2107   0.419   5.383   3.214
  717TIP3    H1 2108   0.337   5.403   3.259
  717TIP3    H2 2109   0.460   5.315   3.267
  718TIP3   OH2 2110   6.465   3.203   3.359
  718TIP3    H1 2111   6.504   3.115   3.356
  718TIP3    H2 2112   6.416   3.204   3.441
  719TIP3   OH2 2113   7.143   3.154   2.367
  719TIP3    H1 2114   7.216   3.185   2.420
  719TIP3    H2 2115   7.089   3.232   2.353
  720TIP3   OH2 2116   1.906   0.219   0.651
  720TIP3    H1 2117   1.937   0.224   0.742
  720TIP3    H2 2118   1.985   0.215   0.598
  721TIP3   OH2 2119   7.008   0.702   0.096
  721TIP3    H1 2120   6.958   0.733   0.021
  721TIP3    H2 2121   7.100   0.720   0.074
  722TIP3   OH2 2122   8.119   4.074   4.211
  722TIP3    H1 2123   8.196   4.129   4.197
  722TIP3    H2 2124   8.045   4.132   4.194
  723TIP3   OH2 2125   0.663   2.376   6.754
  723TIP3    H1 2126   0.727   2.411   6.816
  723TIP3    H2 2127   0.693   2.287   6.735
  724TIP3   OH2 2128   4.427   6.020   6.698
  724TIP3    H1 2129   4.439   6.081   6.625
  724TIP3    H2 2130   4.336   6.034   6.727
  725TIP3   OH2 2131   5.227   2.322   4.526
  725TIP3    H1 2132   5.270   2.402   4.556
  725TIP3    H2 2133   5.291   2.279   4.471
  726TIP3   OH2 2134   3.009   5.919   1.797
  726TIP3    H1 2135   3.062   5.899   1.874
  726TIP3    H2 2136   2.957   5.995   1.824
  727TIP3   OH2 2137   0.389   4.151   5.760
  727TIP3    H1 2138   0.467   4.097   5.749
  727TIP3    H2 2139   0.387   4.208   5.684
  728TIP3   OH2 2140   7.169   5.021   1.841
  728TIP3    H1 2141   7.196   5.054   1.756
  728TIP3    H2 2142   7.187   5.093   1.901
  729TIP3   OH2 2143   1.017   4.634   0.441
  729TIP3    H1 2144   0.976   4.717   0.467
  729TIP3    H2 2145   1.109   4.658   0.423
  730TIP3   OH2 2146   8.109   4.694   3.208
  730TIP3    H1 2147   8.200   4.671   3.188
  730TIP3    H2 2148   8.072   4.613   3.244
  731TIP3   OH2 2149   8.200   2.067   3.227
  731TIP3    H1 2150   8.137   2.101   3.163
  731TIP3    H2 2151   8.249   2.000   3.180
  732TIP3   OH2 2152   1.659   3.231   5.621
  732TIP3    H1 2153   1.724   3.251   5.553
  732TIP3    H2 2154   1.694   3.154   5.666
  733TIP3   OH2 2155   7.569   1.172   3.899
  733TIP3    H1 2156   7.525   1.092   3.928
  733TIP3    H2 2157   7.608   1.209   3.978
  734TIP3   OH2 2158   3.058   7.629   1.737
  734TIP3    H1 2159   3.046   7.693   1.666
  734TIP3    H2 2160   3.153   7.620   1.745
  735TIP3   OH2 2161   2.893   5.932   2.455
  735TIP3    H1 2162   2.886   5.999   2.387
  735TIP3    H2 2163   2.836   5.963   2.526
  736TIP3   OH2 2164   7.542   4.821   5.316
  736TIP3    H1 2165   7.602   4.842   5.244
  736TIP3    H2 2166   7.595   4.831   5.395
  737TIP3   OH2 2167   6.047   6.899   3.987
  737TIP3    H1 2168   6.066   6.990   4.012
  737TIP3    H2 2169   6.114   6.847   4.032
  738TIP3   OH2 2170   0.199   5.177   3.512
  738TIP3    H1 2171   0.173   5.254   3.463
  738TIP3    H2 2172   0.190   5.202   3.604
  739TIP3   OH2 2173   4.873   4.252   2.305
  739TIP3    H1 2174   4.879   4.197   2.384
  739TIP3    H2 2175   4.948   4.311   2.312
  740TIP3   OH2 2176   6.680   7.362   1.243
  740TIP3    H1 2177   6.724   7.303   1.304
  740TIP3    H2 2178   6.636   7.305   1.181
  741TIP3   OH2 2179   4.268   2.635   2.717
  741TIP3    H1 2180   4.270   2.541   2.735
  741TIP3    H2 2181   4.283   2.641   2.622
  742TIP3   OH2 2182   7.507   1.135   0.442
  742TIP3    H1 2183   7.537   1.176   0.523
  742TIP3    H2 2184   7.471   1.207   0.390
  743TIP3   OH2 2185   7.893   4.406   1.977
  743TIP3    H1 2186   7.851   4.334   1.930
  743TIP3    H2 2187   7.851   4.409   2.062
  744TIP3   OH2 2188   2.346   2.374   0.694
  744TIP3    H1 2189   2.420   2.378   0.634
  744TIP3    H2 2190   2.277   2.328   0.645
  745TIP3   OH2 2191   2.804   3.569   4.001
  745TIP3    H1 2192   2.875   3.508   3.979
  745TIP3    H2 2193   2.845   3.655   3.998
  746TIP3   OH2 2194   1.642   4.676   1.796
  746TIP3    H1 2195   1.567   4.647   1.848
  746TIP3    H2 2196   1.602   4.729   1.726
  747TIP3   OH2 2197   3.943   4.645   4.244
  747TIP3    H1 2198   4.018   4.620   4.298
  747TIP3    H2 2199   3.918   4.565   4.198
  748TIP3   OH2 2200   8.206   1.818   4.747
  748TIP3    H1 2201   8.215   1.797   4.654
  748TIP3    H2 2202   8.156   1.900   4.748
  749TIP3   OH2 2203   6.957   0.105   3.578
  749TIP3    H1 2204   6.944   0.097   3.483
  749TIP3    H2 2205   7.036   0.160   3.587
  750TIP3   OH2 2206   1.269   6.652   2.224
  750TIP3    H1 2207   1.182   6.623   2.252
  750TIP3    H2 2208   1.256   6.680   2.133
  751TIP3   OH2 2209   5.924   0.810   0.720
  751TIP3    H1 2210   5.895   0.854   0.800
  751TIP3    H2 2211   5.978   0.875   0.676
  752TIP3   OH2 2212   3.867   6.245   1.757
  752TIP3    H1 2213   3.869   6.257   1.663
  752TIP3    H2 2214   3.780   6.210   1.776
  753TIP3   OH2 2215   6.097   5.809   5.455
  753TIP3    H1 2216   6.142   5.835   5.375
  753TIP3    H2 2217   6.055   5.726   5.433
  754TIP3   OH2 2218   1.909   5.978   4.634
  754TIP3    H1 2219   1.874   6.018   4.554
  754TIP3    H2 2220   1.838   5.923   4.666
  755TIP3   OH2 2221   5.488   5.143   2.537
  755TIP3    H1 2222   5.441   5.178   2.612
  755TIP3    H2 2223   5.465   5.050   2.535
  756TIP3   OH2 2224   6.618   0.510   4.885
  756TIP3    H1 2225   6.645   0.601   4.891
  756TIP3    H2 2226   6.548   0.502   4.950
  757TIP3   OH2 2227   4.091   6.380   5.043
  757TIP3    H1 2228   4.130   6.293   5.050
  757TIP3    H2 2229   4.001   6.363   5.013
  758TIP3   OH2 2230   4.537   5.170   2.206
  758TIP3    H1 2231   4.513   5.080   2.184
  758TIP3    H2 2232   4.622   5.183   2.163
  759TIP3   OH2 2233   3.080   5.584   0.140
  759TIP3    H1 2234   3.085   5.503   0.191
  759TIP3    H2 2235   3.101   5.653   0.202
  760TIP3   OH2 2236   5.840   6.068   2.952
  760TIP3    H1 2237   5.839   6.058   2.857
  760TIP3    H2 2238   5.932   6.056   2.976
  761TIP3   OH2 2239   4.283   7.758   3.356
  761TIP3    H1 2240   4.263   7.687   3.295
  761TIP3    H2 2241   4.304   7.713   3.438
  762TIP3   OH2 2242   0.013   1.060   1.616
  762TIP3    H1 2243  -0.032   1.055   1.532
  762TIP3    H2 2244   0.074   0.986   1.615
  763TIP3   OH2 2245   2.658   6.945   5.640
  763TIP3    H1 2246   2.580   6.891   5.654
  763TIP3    H2 2247   2.720   6.887   5.597
  764TIP3   OH2 2248   1.224   3.087   3.559
  764TIP3    H1 2249   1.281   3.164   3.552
  764TIP3    H2 2250   1.171   3.104   3.637
  765TIP3   OH2 2251   2.950   1.788   2.170
  765TIP3    H1 2252   2.886   1.834   2.225
  765TIP3    H2 2253   3.010   1.856   2.141
  766TIP3   OH2 2254   6.253   4.036   0.514
  766TIP3    H1 2255   6.246   4.103   0.582
  766TIP3    H2 2256   6.320   3.975   0.546
  767TIP3   OH2 2257   2.585   2.307   5.840
  767TIP3    H1 2258   2.653   2.334   5.778
  767TIP3    H2 2259   2.593   2.212   5.843
  768TIP3   OH2 2260   2.238   1.170   2.358
  768TIP3    H1 2261   2.165   1.139   2.411
  768TIP3    H2 2262   2.272   1.091   2.316
  769TIP3   OH2 2263   2.493   0.974   6.322
  769TIP3    H1 2264   2.427   1.042   6.317
  769TIP3    H2 2265   2.576   1.021   6.318
  770TIP3   OH2 2266   8.081   5.747   0.828
  770TIP3    H1 2267   8.114   5.675   0.775
  770TIP3    H2 2268   8.110   5.727   0.917
  771TIP3   OH2 2269   3.347   1.899   4.227
  771TIP3    H1 2270   3.336   1.843   4.150
  771TIP3    H2 2271   3.435   1.880   4.259
  772TIP3   OH2 2272   2.000   4.826   2.545
  772TIP3    H1 2273   2.059   4.777   2.603
  772TIP3    H2 2274   1.953   4.758   2.497
  773TIP3   OH2 2275   2.313   1.891   4.966
  773TIP3    H1 2276   2.289   1.979   4.938
  773TIP3    H2 2277   2.246   1.835   4.927
  774TIP3   OH2 2278   7.661   5.813   3.289
  774TIP3    H1 2279   7.752   5.784   3.287
  774TIP3    H2 2280   7.613   5.739   3.326
  775TIP3   OH2 2281   3.035   7.595   1.215
  775TIP3    H1 2282   2.998   7.678   1.186
  775TIP3    H2 2283   2.996   7.579   1.301
  776TIP3   OH2 2284   8.188   2.522   0.172
  776TIP3    H1 2285   8.258   2.572   0.131
  776TIP3    H2 2286   8.167   2.453   0.108
  777TIP3   OH2 2287   1.737  -0.014   0.836
  777TIP3    H1 2288   1.652   0.029   0.846
  777TIP3    H2 2289   1.797   0.057   0.812
  778TIP3   OH2 2290   1.345   5.235   0.772
  778TIP3    H1 2291   1.305   5.229   0.859
  778TIP3    H2 2292   1.428   5.188   0.781
  779TIP3   OH2 2293   0.175   5.930   6.507
  779TIP3    H1 2294   0.097   5.888   6.472
  779TIP3    H2 2295   0.239   5.860   6.516
  780TIP3   OH2 2296   5.239   6.963   3.519
  780TIP3    H1 2297   5.194   6.921   3.445
  780TIP3    H2 2298   5.192   6.933   3.596
  781TIP3   OH2 2299   7.499   2.271   5.771
  781TIP3    H1 2300   7.555   2.309   5.704
  781TIP3    H2 2301   7.545   2.286   5.853
  782TIP3   OH2 2302   4.324   3.140   2.197
  782TIP3    H1 2303   4.391   3.208   2.200
  782TIP3    H2 2304   4.256   3.171   2.257
  783TIP3   OH2 2305   2.634   4.990   3.425
  783TIP3    H1 2306   2.716   4.950   3.453
  783TIP3    H2 2307   2.640   5.081   3.455
  784TIP3   OH2 2308   6.378   5.432   0.168
  784TIP3    H1 2309   6.417   5.408   0.252
  784TIP3    H2 2310   6.408   5.365   0.107
  785TIP3   OH2 2311   1.577   6.005   4.272
  785TIP3    H1 2312   1.553   5.940   4.338
  785TIP3    H2 2313   1.625   5.956   4.206
  786TIP3   OH2 2314   0.706   6.538   1.546
  786TIP3    H1 2315   0.676   6.563   1.633
  786TIP3    H2 2316   0.790   6.495   1.561
  787TIP3   OH2 2317   7.641   2.617   4.560
  787TIP3    H1 2318   7.708   2.548   4.554
  787TIP3    H2 2319   7.682   2.686   4.612
  788TIP3   OH2 2320   7.097   6.793   2.066
  788TIP3    H1 2321   7.177   6.834   2.033
  788TIP3    H2 2322   7.052   6.862   2.114
  789TIP3   OH2 2323   4.680   0.356   5.560
  789TIP3    H1 2324   4.763   0.360   5.513
  789TIP3    H2 2325   4.693   0.414   5.636
  790TIP3   OH2 2326   1.215   0.893   1.639
  790TIP3    H1 2327   1.255   0.907   1.553
  790TIP3    H2 2328   1.164   0.972   1.655
  791TIP3   OH2 2329   6.285   3.648   4.937
  791TIP3    H1 2330   6.306   3.727   4.888
  791TIP3    H2 2331   6.231   3.679   5.011
  792TIP3   OH2 2332   2.612   0.215   4.180
  792TIP3    H1 2333   2.643   0.270   4.108
  792TIP3    H2 2334   2.616   0.272   4.257
  793TIP3   OH2 2335   5.861   2.268   2.613
  793TIP3    H1 2336   5.820   2.276   2.527
  793TIP3    H2 2337   5.938   2.325   2.609
  794TIP3   OH2 2338   0.238   0.763   6.534
  794TIP3    H1 2339   0.263   0.764   6.442
  794TIP3    H2 2340   0.315   0.730   6.580
  795TIP3   OH2 2341   1.200   7.402   5.945
  795TIP3    H1 2342   1.142   7.435   5.876
  795TIP3    H2 2343   1.141   7.369   6.013
  796TIP3   OH2 2344   5.630   5.516   2.247
  796TIP3    H1 2345   5.626   5.570   2.168
  796TIP3    H2 2346   5.672   5.572   2.312
  797TIP3   OH2 2347   4.743   6.649   5.350
  797TIP3    H1 2348   4.819   6.673   5.403
  797TIP3    H2 2349   4.726   6.727   5.296
  798TIP3   OH2 2350   1.809   7.390   6.333
  798TIP3    H1 2351   1.892   7.438   6.341
  798TIP3    H2 2352   1.766   7.404   6.417
  799TIP3   OH2 2353   7.430   5.701   0.238
  799TIP3    H1 2354   7.453   5.766   0.304
  799TIP3    H2 2355   7.513   5.683   0.193
  800TIP3   OH2 2356   4.539   1.135   1.067
  800TIP3    H1 2357   4.623   1.094   1.046
  800TIP3    H2 2358   4.503   1.160   0.983
  801TIP3   OH2 2359   6.273   3.811   4.424
  801TIP3    H1 2360   6.271   3.883   4.361
  801TIP3    H2 2361   6.284   3.853   4.509
  802TIP3   OH2 2362   6.377   6.427   6.295
  802TIP3    H1 2363   6.350   6.513   6.327
  802TIP3    H2 2364   6.399   6.441   6.203
  803TIP3   OH2 2365   4.286   6.483   1.698
  803TIP3    H1 2366   4.379   6.498   1.713
  803TIP3    H2 2367   4.260   6.549   1.633
  804TIP3   OH2 2368   3.379   4.455   1.150
  804TIP3    H1 2369   3.316   4.525   1.133
  804TIP3    H2 2370   3.381   4.406   1.068
  805TIP3   OH2 2371   4.405   7.242   3.026
  805TIP3    H1 2372   4.314   7.213   3.029
  805TIP3    H2 2373   4.456   7.161   3.028
  806TIP3   OH2 2374   5.707   7.319   6.348
  806TIP3    H1 2375   5.690   7.346   6.438
  806TIP3    H2 2376   5.628   7.272   6.321
  807TIP3   OH2 2377   2.073   3.557   6.211
  807TIP3    H1 2378   2.005   3.552   6.143
  807TIP3    H2 2379   2.025   3.580   6.291
  808TIP3   OH2 2380   6.272   3.046   5.348
  808TIP3    H1 2381   6.247   2.958   5.319
  808TIP3    H2 2382   6.189   3.089   5.368
  809TIP3   OH2 2383   0.761   7.421   5.619
  809TIP3    H1 2384   0.762   7.327   5.605
  809TIP3    H2 2385   0.705   7.434   5.696
  810TIP3   OH2 2386   6.695   6.963   1.383
  810TIP3    H1 2387   6.753   6.901   1.428
  810TIP3    H2 2388   6.621   6.909   1.354
  811TIP3   OH2 2389   2.809   7.686   1.484
  811TIP3    H1 2390   2.826   7.745   1.558
  811TIP3    H2 2391   2.743   7.731   1.432
  812TIP3   OH2 2392   0.945   0.489   3.200
  812TIP3    H1 2393   0.954   0.439   3.281
  812TIP3    H2 2394   1.020   0.547   3.199
  813TIP3   OH2 2395   8.069   0.416   0.436
  813TIP3    H1 2396   8.024   0.361   0.500
  813TIP3    H2 2397   8.097   0.493   0.485
  814TIP3   OH2 2398   7.010   3.820   0.418
  814TIP3    H1 2399   6.943   3.754   0.399
  814TIP3    H2 2400   7.074   3.812   0.347
  815TIP3   OH2 2401   1.095   7.021   1.743
  815TIP3    H1 2402   1.170   6.997   1.689
  815TIP3    H2 2403   1.084   6.948   1.803
  816TIP3   OH2 2404   4.717   7.632   5.749
  816TIP3    H1 2405   4.671   7.555   5.782
  816TIP3    H2 2406   4.810   7.612   5.765
  817TIP3   OH2 2407   1.419   2.187   0.051
  817TIP3    H1 2408   1.362   2.261   0.069
  817TIP3    H2 2409   1.406   2.128   0.125
  818TIP3   OH2 2410   6.688   4.460   2.106
  818TIP3    H1 2411   6.667   4.544   2.065
  818TIP3    H2 2412   6.767   4.477   2.158
  819TIP3   OH2 2413   3.744   4.492   5.126
  819TIP3    H1 2414   3.836   4.497   5.102
  819TIP3    H2 2415   3.730   4.566   5.185
  820TIP3   OH2 2416   5.278   6.477   0.788
  820TIP3    H1 2417   5.201   6.528   0.765
  820TIP3    H2 2418   5.244   6.404   0.839
  821TIP3   OH2 2419   5.367   4.004   4.504
  821TIP3    H1 2420   5.425   3.933   4.477
  821TIP3    H2 2421   5.282   3.982   4.465
  822TIP3   OH2 2422   0.958   2.349   6.362
  822TIP3    H1 2423   0.994   2.278   6.309
  822TIP3    H2 2424   0.948   2.421   6.301
  823TIP3   OH2 2425   1.060   2.021   2.192
  823TIP3    H1 2426   1.019   1.984   2.271
  823TIP3    H2 2427   1.098   2.103   2.222
  824TIP3   OH2 2428   1.772   0.826   0.176
  824TIP3    H1 2429   1.684   0.811   0.209
  824TIP3    H2 2430   1.795   0.745   0.130
  825TIP3   OH2 2431   1.773   5.180   2.208
  825TIP3    H1 2432   1.769   5.229   2.126
  825TIP3    H2 2433   1.688   5.196   2.250
  826TIP3   OH2 2434   1.795   6.416   4.419
  826TIP3    H1 2435   1.780   6.322   4.433
  826TIP3    H2 2436   1.743   6.438   4.342
  827TIP3   OH2 2437   7.502   7.297   1.576
  827TIP3    H1 2438   7.487   7.357   1.649
  827TIP3    H2 2439   7.594   7.273   1.584
  828TIP3   OH2 2440   3.723   5.343   5.788
  828TIP3    H1 2441   3.662   5.409   5.820
  828TIP3    H2 2442   3.789   5.337   5.857
  829TIP3   OH2 2443   5.333   5.974   1.352
  829TIP3    H1 2444   5.399   5.930   1.406
  829TIP3    H2 2445   5.286   5.902   1.310
  830TIP3   OH2 2446   8.136   1.323   5.512
  830TIP3    H1 2447   8.044   1.302   5.495
  830TIP3    H2 2448   8.153   1.287   5.599
  831TIP3   OH2 2449   6.216   7.103   2.044
  831TIP3    H1 2450   6.190   7.103   1.952
  831TIP3    H2 2451   6.139   7.133   2.091
  832TIP3   OH2 2452   0.883   1.925   3.189
  832TIP3    H1 2453   0.817   1.944   3.256
  832TIP3    H2 2454   0.889   1.830   3.188
  833TIP3   OH2 2455   2.750   5.211   3.523
  833TIP3    H1 2456   2.779   5.281   3.581
  833TIP3    H2 2457   2.827   5.192   3.469
  834TIP3   OH2 2458   4.486   6.230   6.218
  834TIP3    H1 2459   4.427   6.305   6.227
  834TIP3    H2 2460   4.463   6.191   6.134
  835TIP3   OH2 2461   2.888   4.707   1.331
  835TIP3    H1 2462   2.831   4.782   1.311
  835TIP3    H2 2463   2.925   4.681   1.247
  836TIP3   OH2 2464   5.073   6.264   1.373
  836TIP3    H1 2465   5.167   6.248   1.384
  836TIP3    H2 2466   5.052   6.222   1.290
  837TIP3   OH2 2467   3.553   2.874   0.047
  837TIP3    H1 2468   3.464   2.898   0.074
  837TIP3    H2 2469   3.608   2.943   0.084
  838TIP3   OH2 2470   2.064   0.018   3.832
  838TIP3    H1 2471   2.140  -0.040   3.842
  838TIP3    H2 2472   2.094   0.087   3.772
  839TIP3   OH2 2473   5.414   0.981   6.465
  839TIP3    H1 2474   5.321   1.003   6.469
  839TIP3    H2 2475   5.432   0.966   6.372
  840TIP3   OH2 2476   5.024   1.833   3.670
  840TIP3    H1 2477   5.066   1.751   3.643
  840TIP3    H2 2478   5.056   1.848   3.759
  841TIP3   OH2 2479   7.153   5.402   2.714
  841TIP3    H1 2480   7.141   5.491   2.747
  841TIP3    H2 2481   7.211   5.413   2.638
  842TIP3   OH2 2482   4.212   3.917   2.294
  842TIP3    H1 2483   4.200   3.999   2.341
  842TIP3    H2 2484   4.160   3.853   2.344
  843TIP3   OH2 2485   4.999   4.132   4.934
  843TIP3    H1 2486   5.065   4.075   4.896
  843TIP3    H2 2487   5.041   4.170   5.011
  844TIP3   OH2 2488   6.040   7.214   4.675
  844TIP3    H1 2489   6.125   7.189   4.711
  844TIP3    H2 2490   6.001   7.271   4.742
  845TIP3   OH2 2491   2.058   5.194   6.783
  845TIP3    H1 2492   2.105   5.111   6.770
  845TIP3    H2 2493   2.038   5.224   6.695
  846TIP3   OH2 2494   0.632   2.138   5.373
  846TIP3    H1 2495   0.688   2.060   5.369
  846TIP3    H2 2496   0.547   2.104   5.401
  847TIP3   OH2 2497   1.119   7.141   4.112
  847TIP3    H1 2498   1.179   7.209   4.082
  847TIP3    H2 2499   1.154   7.113   4.196
  848TIP3   OH2 2500   1.774   7.722   6.201
  848TIP3    H1 2501   1.702   7.780   6.226
  848TIP3    H2 2502   1.797   7.749   6.112
  849TIP3   OH2 2503   5.553   7.203   3.685
  849TIP3    H1 2504   5.564   7.218   3.591
  849TIP3    H2 2505   5.543   7.108   3.693
  850TIP3   OH2 2506   0.464   2.648   2.058
  850TIP3    H1 2507   0.429   2.736   2.045
  850TIP3    H2 2508   0.555   2.654   2.029
  851TIP3   OH2 2509   4.974   2.796   5.205
  851TIP3    H1 2510   4.889   2.764   5.236
  851TIP3    H2 2511   5.037   2.764   5.271
  852TIP3   OH2 2512   1.518   4.878   6.703
  852TIP3    H1 2513   1.519   4.933   6.781
  852TIP3    H2 2514   1.425   4.869   6.682
  853TIP3   OH2 2515   6.246   5.695   2.828
  853TIP3    H1 2516   6.162   5.696   2.873
  853TIP3    H2 2517   6.278   5.606   2.839
  854TIP3   OH2 2518   4.138   0.601   3.789
  854TIP3    H1 2519   4.116   0.598   3.696
  854TIP3    H2 2520   4.055   0.614   3.833
  855TIP3   OH2 2521   0.720   4.105   3.208
  855TIP3    H1 2522   0.780   4.124   3.280
  855TIP3    H2 2523   0.771   4.050   3.148
  856TIP3   OH2 2524   3.107   6.584   1.756
  856TIP3    H1 2525   3.049   6.616   1.687
  856TIP3    H2 2526   3.186   6.555   1.710
  857TIP3   OH2 2527   6.396   1.242   6.337
  857TIP3    H1 2528   6.329   1.288   6.286
  857TIP3    H2 2529   6.379   1.149   6.318
  858TIP3   OH2 2530   6.449   1.546   2.893
  858TIP3    H1 2531   6.431   1.607   2.964
  858TIP3    H2 2532   6.507   1.594   2.834
  859TIP3   OH2 2533   5.425   6.323   5.683
  859TIP3    H1 2534   5.484   6.272   5.739
  859TIP3    H2 2535   5.478   6.345   5.606
  860TIP3   OH2 2536   3.284   2.660   1.473
  860TIP3    H1 2537   3.216   2.670   1.539
  860TIP3    H2 2538   3.326   2.576   1.494
  861TIP3   OH2 2539   1.586   5.179   5.779
  861TIP3    H1 2540   1.534   5.158   5.702
  861TIP3    H2 2541   1.632   5.097   5.800
  862TIP3   OH2 2542   1.275   0.667   4.666
  862TIP3    H1 2543   1.234   0.619   4.738
  862TIP3    H2 2544   1.257   0.759   4.685
  863TIP3   OH2 2545   0.207   1.867   4.717
  863TIP3    H1 2546   0.193   1.808   4.791
  863TIP3    H2 2547   0.148   1.941   4.734
  864TIP3   OH2 2548   6.720   2.086   5.631
  864TIP3    H1 2549   6.696   2.122   5.546
  864TIP3    H2 2550   6.811   2.058   5.620
  865TIP3   OH2 2551   6.511   0.571   3.332
  865TIP3    H1 2552   6.437   0.573   3.393
  865TIP3    H2 2553   6.505   0.654   3.284
  866TIP3   OH2 2554   2.249   4.703   2.968
  866TIP3    H1 2555   2.235   4.728   2.877
  866TIP3    H2 2556   2.207   4.618   2.976
  867TIP3   OH2 2557   5.120   6.439   3.502
  867TIP3    H1 2558   5.148   6.511   3.446
  867TIP3    H2 2559   5.131   6.361   3.448
  868TIP3   OH2 2560   5.173   2.285   2.968
  868TIP3    H1 2561   5.238   2.239   2.914
  868TIP3    H2 2562   5.190   2.255   3.057
  869TIP3   OH2 2563   3.203   5.839   3.291
  869TIP3    H1 2564   3.144   5.774   3.328
  869TIP3    H2 2565   3.147   5.914   3.270
  870TIP3   OH2 2566   7.134   4.900   6.551
  870TIP3    H1 2567   7.179   4.975   6.589
  870TIP3    H2 2568   7.202   4.854   6.501
  871TIP3   OH2 2569   5.328   2.861   5.120
  871TIP3    H1 2570   5.268   2.850   5.046
  871TIP3    H2 2571   5.415   2.856   5.081
  872TIP3   OH2 2572   3.916   1.332   5.480
  872TIP3    H1 2573   3.962   1.347   5.562
  872TIP3    H2 2574   3.825   1.357   5.498
  873TIP3   OH2 2575   0.792   5.788   5.783
  873TIP3    H1 2576   0.885   5.812   5.779
  873TIP3    H2 2577   0.792   5.693   5.789
  874TIP3   OH2 2578   3.229   4.345   5.567
  874TIP3    H1 2579   3.255   4.427   5.525
  874TIP3    H2 2580   3.170   4.303   5.505
  875TIP3   OH2 2581   3.667   3.095   4.069
  875TIP3    H1 2582   3.595   3.068   4.011
  875TIP3    H2 2583   3.746   3.080   4.017
  876TIP3   OH2 2584   4.214   1.958   1.663
  876TIP3    H1 2585   4.189   1.988   1.750
  876TIP3    H2 2586   4.301   1.995   1.649
  877TIP3   OH2 2587   4.903   0.040   0.246
  877TIP3    H1 2588   4.947   0.006   0.325
  877TIP3    H2 2589   4.975   0.062   0.186
  878TIP3   OH2 2590   6.334   0.380   3.190
  878TIP3    H1 2591   6.412   0.334   3.160
  878TIP3    H2 2592   6.350   0.396   3.283
  879TIP3   OH2 2593   5.625   6.241   5.822
  879TIP3    H1 2594   5.618   6.164   5.878
  879TIP3    H2 2595   5.694   6.218   5.759
  880TIP3   OH2 2596   5.105   4.930   4.036
  880TIP3    H1 2597   5.100   4.960   4.127
  880TIP3    H2 2598   5.073   4.840   4.038
  881TIP3   OH2 2599   5.018   3.048   2.229
  881TIP3    H1 2600   4.988   2.957   2.222
  881TIP3    H2 2601   5.022   3.064   2.324
  882TIP3   OH2 2602   0.329   7.750   5.530
  882TIP3    H1 2603   0.337   7.775   5.438
  882TIP3    H2 2604   0.264   7.810   5.566
  883TIP3   OH2 2605   5.489   1.580   5.878
  883TIP3    H1 2606   5.572   1.572   5.926
  883TIP3    H2 2607   5.425   1.606   5.944
  884TIP3   OH2 2608   6.032   3.198   0.397
  884TIP3    H1 2609   5.955   3.223   0.346
  884TIP3    H2 2610   6.088   3.151   0.335
  885TIP3   OH2 2611   6.715   4.504   4.378
  885TIP3    H1 2612   6.788   4.553   4.415
  885TIP3    H2 2613   6.661   4.480   4.453
  886TIP3   OH2 2614   6.420   6.664   4.309
  886TIP3    H1 2615   6.434   6.572   4.286
  886TIP3    H2 2616   6.508   6.699   4.323
  887TIP3   OH2 2617   0.998   0.197   3.215
  887TIP3    H1 2618   1.077   0.234   3.253
  887TIP3    H2 2619   1.010   0.206   3.120
  888TIP3   OH2 2620   0.586   4.521   3.428
  888TIP3    H1 2621   0.564   4.603   3.472
  888TIP3    H2 2622   0.508   4.499   3.377
  889TIP3   OH2 2623   7.098   3.137   3.849
  889TIP3    H1 2624   7.142   3.173   3.773
  889TIP3    H2 2625   7.010   3.176   3.847
  890TIP3   OH2 2626   5.706   5.107   4.501
  890TIP3    H1 2627   5.750   5.029   4.537
  890TIP3    H2 2628   5.778   5.160   4.466
  891TIP3   OH2 2629   2.473   4.146   2.816
  891TIP3    H1 2630   2.566   4.131   2.797
  891TIP3    H2 2631   2.455   4.092   2.893
  892TIP3   OH2 2632   3.014   7.724   0.851
  892TIP3    H1 2633   2.988   7.815   0.864
  892TIP3    H2 2634   3.108   7.723   0.868
  893TIP3   OH2 2635   7.462   5.593   1.346
  893TIP3    H1 2636   7.502   5.506   1.341
  893TIP3    H2 2637   7.509   5.644   1.279
  894TIP3   OH2 2638   7.505   5.771   4.423
  894TIP3    H1 2639   7.567   5.782   4.351
  894TIP3    H2 2640   7.432   5.829   4.401
  895TIP3   OH2 2641   5.629   3.523   5.746
  895TIP3    H1 2642   5.640   3.507   5.839
  895TIP3    H2 2643   5.597   3.613   5.740
  896TIP3   OH2 2644   5.118   0.511   6.257
  896TIP3    H1 2645   5.139   0.542   6.345
  896TIP3    H2 2646   5.158   0.574   6.199
  897TIP3   OH2 2647   5.020   1.521   3.667
  897TIP3    H1 2648   5.023   1.432   3.631
  897TIP3    H2 2649   4.943   1.522   3.724
  898TIP3   OH2 2650   4.402   6.691   2.968
  898TIP3    H1 2651   4.337   6.719   3.033
  898TIP3    H2 2652   4.438   6.772   2.934
  899TIP3   OH2 2653   3.030   3.899   6.677
  899TIP3    H1 2654   2.976   3.880   6.600
  899TIP3    H2 2655   3.046   3.814   6.717
  900TIP3   OH2 2656   0.634   2.690   3.896
  900TIP3    H1 2657   0.704   2.697   3.831
  900TIP3    H2 2658   0.657   2.612   3.947
  901TIP3   OH2 2659   1.602   0.196   1.086
  901TIP3    H1 2660   1.551   0.151   1.018
  901TIP3    H2 2661   1.567   0.285   1.087
  902TIP3   OH2 2662   2.593   3.643   5.674
  902TIP3    H1 2663   2.513   3.632   5.623
  902TIP3    H2 2664   2.580   3.724   5.723
  903TIP3   OH2 2665   5.243   4.098   1.397
  903TIP3    H1 2666   5.331   4.096   1.358
  903TIP3    H2 2667   5.187   4.056   1.331
  904TIP3   OH2 2668   1.410   2.159   5.068
  904TIP3    H1 2669   1.331   2.121   5.108
  904TIP3    H2 2670   1.381   2.244   5.034
  905TIP3   OH2 2671   2.378   2.484   5.866
  905TIP3    H1 2672   2.458   2.430   5.861
  905TIP3    H2 2673   2.317   2.431   5.917
  906TIP3   OH2 2674   1.988   7.613   5.209
  906TIP3    H1 2675   2.012   7.586   5.298
  906TIP3    H2 2676   2.071   7.627   5.164
  907TIP3   OH2 2677   6.141   5.353   3.680
  907TIP3    H1 2678   6.083   5.368   3.605
  907TIP3    H2 2679   6.148   5.258   3.685
  908TIP3   OH2 2680   7.824   0.743   6.527
  908TIP3    H1 2681   7.803   0.836   6.536
  908TIP3    H2 2682   7.911   0.742   6.487
  909TIP3   OH2 2683   6.822   5.371   5.437
  909TIP3    H1 2684   6.851   5.462   5.449
  909TIP3    H2 2685   6.894   5.319   5.472
  910TIP3   OH2 2686   3.441   5.783   5.181
  910TIP3    H1 2687   3.477   5.703   5.221
  910TIP3    H2 2688   3.409   5.834   5.256
  911TIP3   OH2 2689   2.000   5.349   5.107
  911TIP3    H1 2690   1.943   5.325   5.179
  911TIP3    H2 2691   2.080   5.299   5.123
  912TIP3   OH2 2692   0.270   1.134   3.713
  912TIP3    H1 2693   0.241   1.106   3.800
  912TIP3    H2 2694   0.210   1.205   3.689
  913TIP3   OH2 2695   3.314   7.436   5.363
  913TIP3    H1 2696   3.309   7.436   5.267
  913TIP3    H2 2697   3.234   7.481   5.391
  914TIP3   OH2 2698   3.913   6.988   0.536
  914TIP3    H1 2699   4.007   6.987   0.558
  914TIP3    H2 2700   3.884   7.076   0.561
  915TIP3   OH2 2701   5.894   5.402   5.923
  915TIP3    H1 2702   5.891   5.487   5.880
  915TIP3    H2 2703   5.883   5.422   6.016
  916TIP3   OH2 2704   3.394   4.256   3.353
  916TIP3    H1 2705   3.444   4.267   3.434
  916TIP3    H2 2706   3.445   4.304   3.287
  917TIP3   OH2 2707   6.281   2.592   0.565
  917TIP3    H1 2708   6.257   2.542   0.488
  917TIP3    H2 2709   6.356   2.545   0.602
  918TIP3   OH2 2710   4.911   6.785   3.693
  918TIP3    H1 2711   4.866   6.729   3.756
  918TIP3    H2 2712   4.992   6.810   3.737
  919TIP3   OH2 2713   6.517   7.258   5.828
  919TIP3    H1 2714   6.595   7.269   5.774
  919TIP3    H2 2715   6.492   7.167   5.815
  920TIP3   OH2 2716   4.792   2.614   5.358
  920TIP3    H1 2717   4.710   2.574   5.327
  920TIP3    H2 2718   4.828   2.550   5.419
  921TIP3   OH2 2719   5.885   6.417   0.453
  921TIP3    H1 2720   5.820   6.486   0.456
  921TIP3    H2 2721   5.962   6.454   0.496
  922TIP3   OH2 2722   1.054   4.719   3.925
  922TIP3    H1 2723   1.012   4.805   3.914
  922TIP3    H2 2724   1.021   4.667   3.852
  923TIP3   OH2 2725   5.656   3.922   4.395
  923TIP3    H1 2726   5.665   4.009   4.357
  923TIP3    H2 2727   5.663   3.936   4.490
  924TIP3   OH2 2728   1.291   4.240   2.747
  924TIP3    H1 2729   1.196   4.247   2.735
  924TIP3    H2 2730   1.327   4.273   2.664
  925TIP3   OH2 2731   5.106   6.193   0.746
  925TIP3    H1 2732   5.123   6.189   0.652
  925TIP3    H2 2733   5.193   6.192   0.786
  926TIP3   OH2 2734   8.112   0.912   3.907
  926TIP3    H1 2735   8.132   0.933   3.816
  926TIP3    H2 2736   8.030   0.959   3.924
  927TIP3   OH2 2737   0.075   0.236   4.940
  927TIP3    H1 2738   0.140   0.199   5.000
  927TIP3    H2 2739   0.047   0.317   4.982
  928TIP3   OH2 2740   5.306   1.498   6.789
  928TIP3    H1 2741   5.366   1.431   6.757
  928TIP3    H2 2742   5.247   1.514   6.715
  929TIP3   OH2 2743   4.090   5.183   3.509
  929TIP3    H1 2744   4.050   5.192   3.422
  929TIP3    H2 2745   4.178   5.220   3.498
  930TIP3   OH2 2746   5.632   1.987   1.624
  930TIP3    H1 2747   5.605   1.986   1.716
  930TIP3    H2 2748   5.726   1.970   1.626
  931TIP3   OH2 2749   6.652   6.755   3.512
  931TIP3    H1 2750   6.583   6.795   3.565
  931TIP3    H2 2751   6.680   6.824   3.451
  932TIP3   OH2 2752   3.265   2.290   4.668
  932TIP3    H1 2753   3.234   2.269   4.580
  932TIP3    H2 2754   3.357   2.314   4.656
  933TIP3   OH2 2755   2.038   1.022   6.130
  933TIP3    H1 2756   1.947   1.038   6.157
  933TIP3    H2 2757   2.068   0.953   6.188
  934TIP3   OH2 2758   1.192   2.490   0.233
  934TIP3    H1 2759   1.172   2.509   0.141
  934TIP3    H2 2760   1.228   2.571   0.267
  935TIP3   OH2 2761   3.574   2.471   0.679
  935TIP3    H1 2762   3.560   2.463   0.774
  935TIP3    H2 2763   3.670   2.473   0.670
  936TIP3   OH2 2764   2.680   0.807   4.741
  936TIP3    H1 2765   2.743   0.811   4.668
  936TIP3    H2 2766   2.596   0.828   4.701
  937TIP3   OH2 2767   0.104   6.820   5.329
  937TIP3    H1 2768   0.032   6.867   5.286
  937TIP3    H2 2769   0.115   6.740   5.278
  938TIP3   OH2 2770   4.458   5.714   4.900
  938TIP3    H1 2771   4.495   5.793   4.861
  938TIP3    H2 2772   4.516   5.695   4.974
  939TIP3   OH2 2773   6.534   5.726   4.266
  939TIP3    H1 2774   6.497   5.664   4.329
  939TIP3    H2 2775   6.626   5.734   4.290
  940TIP3   OH2 2776   4.959   3.019   3.458
  940TIP3    H1 2777   4.898   2.976   3.517
  940TIP3    H2 2778   4.960   3.110   3.487
  941TIP3   OH2 2779   6.352   6.816   0.207
  941TIP3    H1 2780   6.303   6.828   0.126
  941TIP3    H2 2781   6.286   6.824   0.276
  942TIP3   OH2 2782   3.814   5.242   1.623
  942TIP3    H1 2783   3.870   5.256   1.547
  942TIP3    H2 2784   3.833   5.315   1.682
  943TIP3   OH2 2785   2.306   3.444   6.337
  943TIP3    H1 2786   2.219   3.458   6.299
  943TIP3    H2 2787   2.322   3.350   6.327
  944TIP3   OH2 2788   0.390   0.740   0.493
  944TIP3    H1 2789   0.425   0.679   0.559
  944TIP3    H2 2790   0.351   0.683   0.426
  945TIP3   OH2 2791   6.985   4.220   4.790
  945TIP3    H1 2792   6.936   4.168   4.726
  945TIP3    H2 2793   7.037   4.157   4.838
  946TIP3   OH2 2794   4.758   7.809   4.486
  946TIP3    H1 2795   4.749   7.829   4.393
  946TIP3    H2 2796   4.836   7.859   4.513
  947TIP3   OH2 2797   2.158   4.609   1.389
  947TIP3    H1 2798   2.202   4.609   1.474
  947TIP3    H2 2799   2.088   4.674   1.398
  948TIP3   OH2 2800   0.171   0.552   6.181
  948TIP3    H1 2801   0.167   0.535   6.087
  948TIP3    H2 2802   0.160   0.647   6.189
  949TIP3   OH2 2803   6.437   0.238   2.056
  949TIP3    H1 2804   6.354   0.225   2.103
  949TIP3    H2 2805   6.478   0.152   2.056
  950TIP3   OH2 2806   6.542   4.307   5.172
  950TIP3    H1 2807   6.517   4.324   5.081
  950TIP3    H2 2808   6.563   4.214   5.175
  951TIP3   OH2 2809   8.116   7.285   0.320
  951TIP3    H1 2810   8.115   7.192   0.344
  951TIP3    H2 2811   8.181   7.324   0.379
  952TIP3   OH2 2812   6.772   7.807   5.780
  952TIP3    H1 2813   6.864   7.785   5.795
  952TIP3    H2 2814   6.726   7.724   5.796
  953TIP3   OH2 2815   3.590   6.685   5.738
  953TIP3    H1 2816   3.505   6.687   5.783
  953TIP3    H2 2817   3.587   6.761   5.680
  954TIP3   OH2 2818   0.840   3.413   6.115
  954TIP3    H1 2819   0.757   3.368   6.131
  954TIP3    H2 2820   0.841   3.428   6.020
  955TIP3   OH2 2821   6.128   2.366   3.816
  955TIP3    H1 2822   6.197   2.422   3.849
  955TIP3    H2 2823   6.101   2.313   3.891
  956TIP3   OH2 2824   6.079   4.616   6.220
  956TIP3    H1 2825   6.082   4.576   6.307
  956TIP3    H2 2826   6.147   4.684   6.223
  957TIP3   OH2 2827   6.412   4.935   4.293
  957TIP3    H1 2828   6.486   4.875   4.290
  957TIP3    H2 2829   6.336   4.880   4.272
  958TIP3   OH2 2830   5.916   5.522   5.620
  958TIP3    H1 2831   5.976   5.523   5.544
  958TIP3    H2 2832   5.971   5.549   5.693
  959TIP3   OH2 2833   3.366   2.203   4.919
  959TIP3    H1 2834   3.388   2.109   4.921
  959TIP3    H2 2835   3.330   2.216   4.831
  960TIP3   OH2 2836   2.402   3.448   0.977
  960TIP3    H1 2837   2.351   3.444   1.058
  960TIP3    H2 2838   2.483   3.493   1.002
  961TIP3   OH2 2839   1.069   7.723   5.722
  961TIP3    H1 2840   1.112   7.771   5.794
  961TIP3    H2 2841   1.086   7.777   5.645
  962TIP3   OH2 2842   3.188   4.555   0.160
  962TIP3    H1 2843   3.139   4.475   0.143
  962TIP3    H2 2844   3.156   4.586   0.245
  963TIP3   OH2 2845   4.316   6.869   3.893
  963TIP3    H1 2846   4.306   6.819   3.812
  963TIP3    H2 2847   4.232   6.856   3.939
  964TIP3   OH2 2848   7.684   4.876   1.320
  964TIP3    H1 2849   7.749   4.937   1.286
  964TIP3    H2 2850   7.600   4.920   1.306
  965TIP3   OH2 2851   7.270   3.923   4.437
  965TIP3    H1 2852   7.212   3.871   4.382
  965TIP3    H2 2853   7.246   4.014   4.420
  966TIP3   OH2 2854   6.930   2.593   3.554
  966TIP3    H1 2855   6.844   2.606   3.595
  966TIP3    H2 2856   6.911   2.542   3.475
  967TIP3   OH2 2857   7.329   3.675   4.502
  967TIP3    H1 2858   7.306   3.768   4.510
  967TIP3    H2 2859   7.335   3.660   4.408
  968TIP3   OH2 2860   7.037   1.868   6.573
  968TIP3    H1 2861   7.016   1.953   6.534
  968TIP3    H2 2862   7.026   1.882   6.667
  969TIP3   OH2 2863   4.904   5.940   6.061
  969TIP3    H1 2864   4.841   5.883   6.105
  969TIP3    H2 2865   4.884   5.931   5.968
  970TIP3   OH2 2866   4.686   5.288   5.945
  970TIP3    H1 2867   4.645   5.202   5.957
  970TIP3    H2 2868   4.738   5.278   5.866
  971TIP3   OH2 2869   2.635   0.019   3.778
  971TIP3    H1 2870   2.708   0.068   3.817
  971TIP3    H2 2871   2.677  -0.046   3.723
  972TIP3   OH2 2872   7.337   3.678   6.496
  972TIP3    H1 2873   7.413   3.647   6.447
  972TIP3    H2 2874   7.352   3.772   6.506
  973TIP3   OH2 2875   0.623   2.395   2.982
  973TIP3    H1 2876   0.579   2.396   2.896
  973TIP3    H2 2877   0.618   2.485   3.012
  974TIP3   OH2 2878   7.207   6.182   1.622
  974TIP3    H1 2879   7.260   6.212   1.694
  974TIP3    H2 2880   7.198   6.258   1.564
  975TIP3   OH2 2881  -0.020   4.755   5.616
  975TIP3    H1 2882  -0.004   4.849   5.606
  975TIP3    H2 2883   0.019   4.733   5.701
  976TIP3   OH2 2884   2.699   2.394   1.661
  976TIP3    H1 2885   2.616   2.362   1.697
  976TIP3    H2 2886   2.760   2.392   1.735
  977TIP3   OH2 2887   4.586   3.708   3.367
  977TIP3    H1 2888   4.601   3.622   3.328
  977TIP3    H2 2889   4.669   3.729   3.410
  978TIP3   OH2 2890   6.201   0.879   5.103
  978TIP3    H1 2891   6.185   0.843   5.015
  978TIP3    H2 2892   6.150   0.823   5.161
  979TIP3   OH2 2893   6.764   7.135   2.846
  979TIP3    H1 2894   6.847   7.133   2.895
  979TIP3    H2 2895   6.718   7.211   2.882
  980TIP3   OH2 2896   4.413   6.930   2.037
  980TIP3    H1 2897   4.354   6.990   2.083
  980TIP3    H2 2898   4.372   6.844   2.047
  981TIP3   OH2 2899   4.556   0.441   4.995
  981TIP3    H1 2900   4.619   0.369   4.995
  981TIP3    H2 2901   4.473   0.400   4.969
  982TIP3   OH2 2902   0.920   6.509   1.066
  982TIP3    H1 2903   0.863   6.542   1.135
  982TIP3    H2 2904   0.986   6.578   1.055
  983TIP3   OH2 2905   6.981   6.467   5.014
  983TIP3    H1 2906   7.001   6.382   5.053
  983TIP3    H2 2907   6.958   6.446   4.923
  984TIP3   OH2 2908   3.629   3.883   4.752
  984TIP3    H1 2909   3.553   3.828   4.736
  984TIP3    H2 2910   3.627   3.900   4.846
  985TIP3   OH2 2911   3.872   1.641   4.557
  985TIP3    H1 2912   3.886   1.734   4.577
  985TIP3    H2 2913   3.800   1.641   4.494
  986TIP3   OH2 2914   5.267   7.162   1.678
  986TIP3    H1 2915   5.180   7.130   1.700
  986TIP3    H2 2916   5.257   7.206   1.594
  987TIP3   OH2 2917   0.545   6.601   0.120
  987TIP3    H1 2918   0.600   6.547   0.177
  987TIP3    H2 2919   0.456   6.574   0.140
  988TIP3   OH2 2920   8.310   2.089   1.787
  988TIP3    H1 2921   8.227   2.058   1.751
  988TIP3    H2 2922   8.286   2.161   1.845
  989TIP3   OH2 2923   1.585   6.186   2.967
  989TIP3    H1 2924   1.676   6.182   2.938
  989TIP3    H2 2925   1.588   6.227   3.053
  990TIP3   OH2 2926   6.774   5.124   4.002
  990TIP3    H1 2927   6.796   5.182   3.929
  990TIP3    H2 2928   6.683   5.145   4.022
  991TIP3   OH2 2929   3.515   3.512   5.751
  991TIP3    H1 2930   3.604   3.488   5.778
  991TIP3    H2 2931   3.525   3.546   5.662
  992TIP3   OH2 2932   0.634   4.613   5.967
  992TIP3    H1 2933   0.654   4.694   6.012
  992TIP3    H2 2934   0.697   4.549   6.001
  993TIP3   OH2 2935   2.034   0.676   5.675
  993TIP3    H1 2936   2.022   0.593   5.721
  993TIP3    H2 2937   2.081   0.732   5.737
  994TIP3   OH2 2938   3.843   5.412   5.515
  994TIP3    H1 2939   3.847   5.499   5.556
  994TIP3    H2 2940   3.778   5.365   5.567
  995TIP3   OH2 2941   4.162   5.839   1.287
  995TIP3    H1 2942   4.204   5.764   1.329
  995TIP3    H2 2943   4.230   5.876   1.230
  996TIP3   OH2 2944   2.031   5.539   5.941
  996TIP3    H1 2945   2.083   5.585   6.006
  996TIP3    H2 2946   2.070   5.451   5.936
  997TIP3   OH2 2947   3.233   0.888   3.680
  997TIP3    H1 2948   3.169   0.913   3.613
  997TIP3    H2 2949   3.243   0.794   3.670
  998TIP3   OH2 2950   7.315   5.023   2.540
  998TIP3    H1 2951   7.397   5.064   2.511
  998TIP3    H2 2952   7.296   5.064   2.624
  999TIP3   OH2 2953   1.511   6.142   6.348
  999TIP3    H1 2954   1.437   6.089   6.378
  999TIP3    H2 2955   1.588   6.095   6.380
 1000TIP3   OH2 2956   2.941   4.904   1.134
 1000TIP3    H1 2957   2.953   4.942   1.222
 1000TIP3    H2 2958   3.022   4.926   1.088
 1001TIP3   OH2 2959   6.853   6.325   1.650
 1001TIP3    H1 2960   6.771   6.341   1.698
 1001TIP3    H2 2961   6.838   6.242   1.605
 1002TIP3   OH2 2962   6.400   5.021   2.162
 1002TIP3    H1 2963   6.439   5.083   2.101
 1002TIP3    H2 2964   6.365   5.076   2.232
 1003TIP3   OH2 2965   1.806   1.031   6.300
 1003TIP3    H1 2966   1.723   1.064   6.265
 1003TIP3    H2 2967   1.780   0.959   6.357
 1004TIP3   OH2 2968   6.567   0.357   1.377
 1004TIP3    H1 2969   6.570   0.412   1.455
 1004TIP3    H2 2970   6.491   0.388   1.328
 1005TIP3   OH2 2971   5.784   0.149   4.026
 1005TIP3    H1 2972   5.708   0.138   3.969
 1005TIP3    H2 2973   5.855   0.105   3.980
 1006TIP3   OH2 2974   5.304   5.017   5.530
 1006TIP3    H1 2975   5.374   5.081   5.545
 1006TIP3    H2 2976   5.269   4.999   5.617
 1007TIP3   OH2 2977   8.042   7.114   5.024
 1007TIP3    H1 2978   7.977   7.166   4.976
 1007TIP3    H2 2979   7.991   7.060   5.083
 1008TIP3   OH2 2980   3.244   3.736   3.353
 1008TIP3    H1 2981   3.318   3.780   3.310
 1008TIP3    H2 2982   3.252   3.762   3.445
 1009TIP3   OH2 2983   1.013   1.479   3.018
 1009TIP3    H1 2984   1.049   1.531   3.088
 1009TIP3    H2 2985   0.923   1.461   3.045
 1010TIP3   OH2 2986   1.207   2.670   2.608
 1010TIP3    H1 2987   1.223   2.603   2.674
 1010TIP3    H2 2988   1.295   2.700   2.583
 1011TIP3   OH2 2989   1.713   7.758   2.313
 1011TIP3    H1 2990   1.713   7.770   2.408
 1011TIP3    H2 2991   1.637   7.807   2.283
 1012TIP3   OH2 2992   6.073   0.206   3.802
 1012TIP3    H1 2993   6.075   0.256   3.884
 1012TIP3    H2 2994   6.163   0.208   3.770
 1013TIP3   OH2 2995   2.643   0.024   3.318
 1013TIP3    H1 2996   2.653   0.119   3.305
 1013TIP3    H2 2997   2.588   0.017   3.397
 1014TIP3   OH2 2998   5.918   0.702   3.494
 1014TIP3    H1 2999   5.957   0.615   3.482
 1014TIP3    H2 3000   5.973   0.760   3.442
 1015TIP3   OH2 3001   2.993   5.247   0.806
 1015TIP3    H1 3002   3.076   5.240   0.758
 1015TIP3    H2 3003   2.932   5.287   0.745
 1016TIP3   OH2 3004   0.298   2.260   6.523
 1016TIP3    H1 3005   0.371   2.312   6.489
 1016TIP3    H2 3006   0.331   2.225   6.606
 1017TIP3   OH2 3007   4.591   4.648   0.034
 1017TIP3    H1 3008   4.567   4.728   0.080
 1017TIP3    H2 3009   4.664   4.612   0.084
 1018TIP3   OH2 3010   7.571   0.590   0.192
 1018TIP3    H1 3011   7.632   0.539   0.245
 1018TIP3    H2 3012   7.507   0.624   0.255
 1019TIP3   OH2 3013   4.411   5.921   4.040
 1019TIP3    H1 3014   4.501   5.935   4.071
 1019TIP3    H2 3015   4.408   5.964   3.955
 1020TIP3   OH2 3016   3.151   2.553   3.104
 1020TIP3    H1 3017   3.113   2.631   3.063
 1020TIP3    H2 3018   3.203   2.588   3.177
 1021TIP3   OH2 3019   3.804   5.242   4.117
 1021TIP3    H1 3020   3.860   5.299   4.063
 1021TIP3    H2 3021   3.781   5.170   4.058
 1022TIP3   OH2 3022   4.088   4.505   5.363
 1022TIP3    H1 3023   4.173   4.542   5.389
 1022TIP3    H2 3024   4.039   4.496   5.445
 1023TIP3   OH2 3025   5.485   1.486   3.161
 1023TIP3    H1 3026   5.480   1.570   3.205
 1023TIP3    H2 3027   5.415   1.434   3.200
 1024TIP3   OH2 3028   8.014   3.397   5.712
 1024TIP3    H1 3029   8.073   3.321   5.715
 1024TIP3    H2 3030   7.971   3.390   5.627
 1025TIP3   OH2 3031   2.761   7.802   6.122
 1025TIP3    H1 3032   2.804   7.777   6.203
 1025TIP3    H2 3033   2.790   7.737   6.057
 1026TIP3   OH2 3034   6.434   2.289   4.061
 1026TIP3    H1 3035   6.520   2.283   4.103
 1026TIP3    H2 3036   6.373   2.258   4.127
 1027TIP3   OH2 3037   0.160   6.265   2.257
 1027TIP3    H1 3038   0.223   6.286   2.326
 1027TIP3    H2 3039   0.150   6.170   2.262
 1028TIP3   OH2 3040   1.110   4.276   1.244
 1028TIP3    H1 3041   1.163   4.237   1.312
 1028TIP3    H2 3042   1.020   4.267   1.275
 1029TIP3   OH2 3043   7.354   4.586   3.386
 1029TIP3    H1 3044   7.272   4.635   3.382
 1029TIP3    H2 3045   7.326   4.494   3.392
 1030TIP3   OH2 3046   7.991   1.789   5.565
 1030TIP3    H1 3047   8.072   1.738   5.558
 1030TIP3    H2 3048   7.975   1.796   5.659
 1031TIP3   OH2 3049   0.346   5.707   4.452
 1031TIP3    H1 3050   0.319   5.789   4.493
 1031TIP3    H2 3051   0.424   5.681   4.500
 1032TIP3   OH2 3052   4.012   0.850   3.253
 1032TIP3    H1 3053   4.089   0.794   3.264
 1032TIP3    H2 3054   4.039   0.915   3.188
 1033TIP3   OH2 3055   4.727   0.976   4.374
 1033TIP3    H1 3056   4.794   0.975   4.444
 1033TIP3    H2 3057   4.686   1.062   4.382
 1034TIP3   OH2 3058   1.201   0.555   2.597
 1034TIP3    H1 3059   1.139   0.617   2.558
 1034TIP3    H2 3060   1.184   0.473   2.551
 1035TIP3   OH2 3061   3.536   2.512   3.984
 1035TIP3    H1 3062   3.491   2.500   3.900
 1035TIP3    H2 3063   3.466   2.533   4.046
 1036TIP3   OH2 3064   5.180   1.942   4.885
 1036TIP3    H1 3065   5.114   2.004   4.852
 1036TIP3    H2 3066   5.216   1.985   4.962
 1037TIP3   OH2 3067   8.162   0.388   0.172
 1037TIP3    H1 3068   8.214   0.468   0.161
 1037TIP3    H2 3069   8.138   0.388   0.265
 1038TIP3   OH2 3070   0.208   4.450   3.019
 1038TIP3    H1 3071   0.241   4.475   2.933
 1038TIP3    H2 3072   0.156   4.372   3.003
 1039TIP3   OH2 3073   7.771   0.164   4.150
 1039TIP3    H1 3074   7.751   0.107   4.076
 1039TIP3    H2 3075   7.784   0.104   4.223
 1040TIP3   OH2 3076   6.318   3.570   4.105
 1040TIP3    H1 3077   6.268   3.562   4.186
 1040TIP3    H2 3078   6.357   3.657   4.110
 1041TIP3   OH2 3079   2.972   2.823   5.799
 1041TIP3    H1 3080   2.886   2.815   5.756
 1041TIP3    H2 3081   2.999   2.732   5.813
 1042TIP3   OH2 3082   5.678   6.319   4.849
 1042TIP3    H1 3083   5.727   6.245   4.885
 1042TIP3    H2 3084   5.607   6.278   4.799
 1043TIP3   OH2 3085   1.057   5.360   5.445
 1043TIP3    H1 3086   0.963   5.340   5.439
 1043TIP3    H2 3087   1.060   5.454   5.459
 1044TIP3   OH2 3088   2.002   5.775   3.957
 1044TIP3    H1 3089   2.023   5.836   4.028
 1044TIP3    H2 3090   1.932   5.818   3.908
 1045TIP3   OH2 3091   6.769   5.887   4.469
 1045TIP3    H1 3092   6.817   5.958   4.510
 1045TIP3    H2 3093   6.726   5.841   4.541
 1046TIP3   OH2 3094   0.755   1.870   3.661
 1046TIP3    H1 3095   0.839   1.840   3.696
 1046TIP3    H2 3096   0.706   1.790   3.642
 1047TIP3   OH2 3097   2.014   6.364   6.480
 1047TIP3    H1 3098   2.104   6.372   6.446
 1047TIP3    H2 3099   2.026   6.341   6.572
 1048TIP3   OH2 3100   3.080   6.543   3.803
 1048TIP3    H1 3101   3.156   6.509   3.755
 1048TIP3    H2 3102   3.009   6.483   3.779
 1049TIP3   OH2 3103   1.159   7.459   1.422
 1049TIP3    H1 3104   1.178   7.503   1.339
 1049TIP3    H2 3105   1.077   7.412   1.407
 1050TIP3   OH2 3106   3.073   4.510   6.760
 1050TIP3    H1 3107   3.166   4.527   6.746
 1050TIP3    H2 3108   3.049   4.566   6.834
 1051TIP3   OH2 3109   0.262   3.908   5.333
 1051TIP3    H1 3110   0.346   3.865   5.349
 1051TIP3    H2 3111   0.209   3.889   5.410
 1052TIP3   OH2 3112   6.490   3.414   4.476
 1052TIP3    H1 3113   6.557   3.435   4.541
 1052TIP3    H2 3114   6.411   3.459   4.506
 1053TIP3   OH2 3115   0.363   5.564   0.062
 1053TIP3    H1 3116   0.399   5.500   0.001
 1053TIP3    H2 3117   0.390   5.649   0.028
 1054TIP3   OH2 3118   5.513   3.546   5.378
 1054TIP3    H1 3119   5.510   3.594   5.461
 1054TIP3    H2 3120   5.500   3.613   5.311
 1055TIP3   OH2 3121   2.318   2.928   3.480
 1055TIP3    H1 3122   2.314   2.872   3.557
 1055TIP3    H2 3123   2.338   2.868   3.408
 1056TIP3   OH2 3124   3.058   5.800   5.155
 1056TIP3    H1 3125   2.974   5.846   5.149
 1056TIP3    H2 3126   3.062   5.748   5.075
 1057TIP3   OH2 3127   5.230   0.328   0.845
 1057TIP3    H1 3128   5.226   0.422   0.827
 1057TIP3    H2 3129   5.180   0.317   0.926
 1058TIP3   OH2 3130   4.490   6.200   6.490
 1058TIP3    H1 3131   4.486   6.220   6.396
 1058TIP3    H2 3132   4.495   6.286   6.532
 1059TIP3   OH2 3133   2.147   4.634   4.725
 1059TIP3    H1 3134   2.132   4.581   4.803
 1059TIP3    H2 3135   2.071   4.617   4.669
 1060TIP3   OH2 3136   0.320   2.134   2.577
 1060TIP3    H1 3137   0.379   2.183   2.520
 1060TIP3    H2 3138   0.240   2.123   2.525
 1061TIP3   OH2 3139   5.348   2.023   6.193
 1061TIP3    H1 3140   5.431   1.987   6.224
 1061TIP3    H2 3141   5.367   2.055   6.105
 1062TIP3   OH2 3142   3.705   3.238   6.376
 1062TIP3    H1 3143   3.754   3.320   6.376
 1062TIP3    H2 3144   3.614   3.264   6.390
 1063TIP3   OH2 3145   5.178   2.030   2.434
 1063TIP3    H1 3146   5.117   1.984   2.492
 1063TIP3    H2 3147   5.131   2.038   2.351
 1064TIP3   OH2 3148   8.266   1.234   2.907
 1064TIP3    H1 3149   8.314   1.190   2.836
 1064TIP3    H2 3150   8.198   1.284   2.862
 1065TIP3   OH2 3151   0.047   1.091   0.601
 1065TIP3    H1 3152   0.053   1.133   0.686
 1065TIP3    H2 3153  -0.025   1.029   0.609
 1066TIP3   OH2 3154   2.584   2.438   0.533
 1066TIP3    H1 3155   2.607   2.494   0.460
 1066TIP3    H2 3156   2.635   2.471   0.607
 1067TIP3   OH2 3157   8.241   4.241   1.486
 1067TIP3    H1 3158   8.241   4.154   1.525
 1067TIP3    H2 3159   8.251   4.226   1.392
 1068TIP3   OH2 3160   4.720   3.519   4.136
 1068TIP3    H1 3161   4.665   3.553   4.207
 1068TIP3    H2 3162   4.724   3.591   4.073
 1069TIP3   OH2 3163   4.124   5.445   4.545
 1069TIP3    H1 3164   4.041   5.433   4.592
 1069TIP3    H2 3165   4.099   5.442   4.452
 1070TIP3   OH2 3166   6.933   3.257   3.139
 1070TIP3    H1 3167   6.848   3.299   3.130
 1070TIP3    H2 3168   6.954   3.226   3.051
 1071TIP3   OH2 3169   7.778   3.593   5.080
 1071TIP3    H1 3170   7.832   3.535   5.026
 1071TIP3    H2 3171   7.716   3.632   5.018
 1072TIP3   OH2 3172   3.163   4.777   3.050
 1072TIP3    H1 3173   3.210   4.857   3.073
 1072TIP3    H2 3174   3.123   4.748   3.132
 1073TIP3   OH2 3175   6.801   3.321   1.373
 1073TIP3    H1 3176   6.813   3.328   1.467
 1073TIP3    H2 3177   6.888   3.336   1.336
 1074TIP3   OH2 3178   2.732   0.833   1.623
 1074TIP3    H1 3179   2.814   0.817   1.576
 1074TIP3    H2 3180   2.747   0.795   1.710
 1075TIP3   OH2 3181   1.365   1.629   6.471
 1075TIP3    H1 3182   1.334   1.592   6.388
 1075TIP3    H2 3183   1.459   1.639   6.459
 1076TIP3   OH2 3184   4.366   3.877   4.889
 1076TIP3    H1 3185   4.336   3.867   4.799
 1076TIP3    H2 3186   4.407   3.963   4.892
 1077TIP3   OH2 3187   2.612   4.077   0.578
 1077TIP3    H1 3188   2.539   4.051   0.522
 1077TIP3    H2 3189   2.572   4.102   0.661
 1078TIP3   OH2 3190   2.629   3.809   2.889
 1078TIP3    H1 3191   2.541   3.778   2.868
 1078TIP3    H2 3192   2.674   3.810   2.805
 1079TIP3   OH2 3193   5.361   0.989   4.340
 1079TIP3    H1 3194   5.438   1.023   4.295
 1079TIP3    H2 3195   5.348   1.048   4.414
 1080TIP3   OH2 3196   4.828   4.258   0.539
 1080TIP3    H1 3197   4.749   4.264   0.485
 1080TIP3    H2 3198   4.822   4.171   0.580
 1081TIP3   OH2 3199   7.683   7.711   0.686
 1081TIP3    H1 3200   7.606   7.762   0.663
 1081TIP3    H2 3201   7.666   7.624   0.651
 1082TIP3   OH2 3202   2.134   4.548   4.978
 1082TIP3    H1 3203   2.137   4.483   5.048
 1082TIP3    H2 3204   2.111   4.630   5.021
 1083TIP3   OH2 3205   5.976   7.074   2.746
 1083TIP3    H1 3206   6.007   7.025   2.821
 1083TIP3    H2 3207   5.883   7.086   2.761
 1084TIP3   OH2 3208   7.662   2.351   2.753
 1084TIP3    H1 3209   7.693   2.286   2.816
 1084TIP3    H2 3210   7.722   2.425   2.765
 1085TIP3   OH2 3211   1.406   2.765   4.224
 1085TIP3    H1 3212   1.481   2.721   4.184
 1085TIP3    H2 3213   1.388   2.714   4.303
 1086TIP3   OH2 3214   1.723   7.185   0.823
 1086TIP3    H1 3215   1.764   7.199   0.738
 1086TIP3    H2 3216   1.766   7.249   0.881
 1087TIP3   OH2 3217   7.058   4.639   5.294
 1087TIP3    H1 3218   7.026   4.561   5.247
 1087TIP3    H2 3219   7.127   4.606   5.350
 1088TIP3   OH2 3220   3.686   4.708   4.032
 1088TIP3    H1 3221   3.760   4.740   3.980
 1088TIP3    H2 3222   3.718   4.710   4.122
 1089TIP3   OH2 3223   7.882   0.445   1.169
 1089TIP3    H1 3224   7.803   0.487   1.135
 1089TIP3    H2 3225   7.867   0.351   1.156
 1090TIP3   OH2 3226   0.785   1.650   1.402
 1090TIP3    H1 3227   0.768   1.738   1.435
 1090TIP3    H2 3228   0.725   1.641   1.328
 1091TIP3   OH2 3229   2.323   0.344   2.209
 1091TIP3    H1 3230   2.385   0.313   2.275
 1091TIP3    H2 3231   2.331   0.440   2.212
 1092TIP3   OH2 3232   4.263   4.010   4.035
 1092TIP3    H1 3233   4.294   4.095   4.005
 1092TIP3    H2 3234   4.337   3.951   4.024
 1093TIP3   OH2 3235   5.889   4.220   5.854
 1093TIP3    H1 3236   5.849   4.134   5.858
 1093TIP3    H2 3237   5.818   4.281   5.872
 1094TIP3   OH2 3238   7.841   7.456   1.024
 1094TIP3    H1 3239   7.856   7.541   1.064
 1094TIP3    H2 3240   7.785   7.409   1.086
 1095TIP3   OH2 3241   5.219   2.881   2.867
 1095TIP3    H1 3242   5.278   2.883   2.792
 1095TIP3    H2 3243   5.132   2.867   2.830
 1096TIP3   OH2 3244   5.385   6.287   6.764
 1096TIP3    H1 3245   5.328   6.236   6.705
 1096TIP3    H2 3246   5.472   6.249   6.751
 1097TIP3   OH2 3247   4.316   2.649   0.825
 1097TIP3    H1 3248   4.402   2.621   0.793
 1097TIP3    H2 3249   4.256   2.627   0.753
 1098TIP3   OH2 3250   5.549   1.741   4.551
 1098TIP3    H1 3251   5.479   1.805   4.542
 1098TIP3    H2 3252   5.520   1.665   4.500
 1099TIP3   OH2 3253   1.924   2.946   6.666
 1099TIP3    H1 3254   1.913   3.020   6.726
 1099TIP3    H2 3255   1.857   2.883   6.693
 1100TIP3   OH2 3256   8.261   6.695   2.497
 1100TIP3    H1 3257   8.269   6.606   2.531
 1100TIP3    H2 3258   8.317   6.696   2.420
 1101TIP3   OH2 3259   4.383   5.182   6.227
 1101TIP3    H1 3260   4.474   5.152   6.219
 1101TIP3    H2 3261   4.359   5.208   6.138
 1102TIP3   OH2 3262   4.105   6.485   2.481
 1102TIP3    H1 3263   4.088   6.507   2.389
 1102TIP3    H2 3264   4.101   6.568   2.527
 1103TIP3   OH2 3265   5.248   7.760   5.311
 1103TIP3    H1 3266   5.255   7.672   5.347
 1103TIP3    H2 3267   5.306   7.759   5.235
 1104TIP3   OH2 3268   5.266   6.175   4.455
 1104TIP3    H1 3269   5.291   6.155   4.365
 1104TIP3    H2 3270   5.322   6.248   4.481
 1105TIP3   OH2 3271   1.209   1.609   3.468
 1105TIP3    H1 3272   1.143   1.552   3.508
 1105TIP3    H2 3273   1.188   1.696   3.501
 1106TIP3   OH2 3274   0.399   3.657   3.125
 1106TIP3    H1 3275   0.428   3.744   3.097
 1106TIP3    H2 3276   0.429   3.599   3.055
 1107TIP3   OH2 3277   4.172   5.750   4.072
 1107TIP3    H1 3278   4.258   5.788   4.054
 1107TIP3    H2 3279   4.156   5.691   3.998
 1108TIP3   OH2 3280   2.915   6.463   2.600
 1108TIP3    H1 3281   2.969   6.474   2.522
 1108TIP3    H2 3282   2.937   6.375   2.632
 1109TIP3   OH2 3283   4.293   6.921   3.189
 1109TIP3    H1 3284   4.307   6.895   3.280
 1109TIP3    H2 3285   4.201   6.898   3.171
 1110TIP3   OH2 3286   0.023   6.550   4.638
 1110TIP3    H1 3287   0.064   6.614   4.580
 1110TIP3    H2 3288  -0.002   6.478   4.580
 1111TIP3   OH2 3289   3.914   1.197   6.617
 1111TIP3    H1 3290   3.972   1.266   6.587
 1111TIP3    H2 3291   3.936   1.121   6.563
 1112TIP3   OH2 3292   3.993   0.511   4.428
 1112TIP3    H1 3293   3.985   0.416   4.440
 1112TIP3    H2 3294   3.902   0.541   4.421
 1113TIP3   OH2 3295   1.772   0.993   3.671
 1113TIP3    H1 3296   1.679   1.000   3.648
 1113TIP3    H2 3297   1.808   1.080   3.654
 1114TIP3   OH2 3298   0.830   0.728   5.037
 1114TIP3    H1 3299   0.899   0.733   5.103
 1114TIP3    H2 3300   0.775   0.804   5.053
 1115TIP3   OH2 3301   3.042   7.682   0.480
 1115TIP3    H1 3302   2.994   7.758   0.512
 1115TIP3    H2 3303   3.122   7.680   0.532
 1116TIP3   OH2 3304   0.746   0.773   0.233
 1116TIP3    H1 3305   0.682   0.843   0.241
 1116TIP3    H2 3306   0.799   0.797   0.157
 1117TIP3   OH2 3307   8.250   7.068   0.626
 1117TIP3    H1 3308   8.195   7.139   0.659
 1117TIP3    H2 3309   8.193   7.015   0.571
 1118TIP3   OH2 3310   6.077   3.049   2.459
 1118TIP3    H1 3311   6.080   3.064   2.364
 1118TIP3    H2 3312   6.052   3.133   2.496
 1119TIP3   OH2 3313   1.017   3.604   1.623
 1119TIP3    H1 3314   0.925   3.617   1.646
 1119TIP3    H2 3315   1.051   3.692   1.608
 1120TIP3   OH2 3316   7.057   3.971   6.005
 1120TIP3    H1 3317   7.034   3.883   6.035
 1120TIP3    H2 3318   7.124   4.000   6.066
 1121TIP3   OH2 3319   1.038   0.662   5.278
 1121TIP3    H1 3320   0.994   0.595   5.332
 1121TIP3    H2 3321   1.129   0.633   5.274
 1122TIP3   OH2 3322   0.391   7.381   2.994
 1122TIP3    H1 3323   0.456   7.375   2.924
 1122TIP3    H2 3324   0.352   7.468   2.983
 1123TIP3   OH2 3325   0.902   6.224   0.354
 1123TIP3    H1 3326   0.994   6.213   0.376
 1123TIP3    H2 3327   0.855   6.186   0.429
 1124TIP3   OH2 3328   0.759   6.320   1.880
 1124TIP3    H1 3329   0.709   6.401   1.890
 1124TIP3    H2 3330   0.803   6.328   1.796
 1125TIP3   OH2 3331   2.235   0.578   4.537
 1125TIP3    H1 3332   2.251   0.615   4.450
 1125TIP3    H2 3333   2.323   0.554   4.568
 1126TIP3   OH2 3334   3.258   2.181   3.062
 1126TIP3    H1 3335   3.222   2.245   3.123
 1126TIP3    H2 3336   3.236   2.096   3.101
 1127TIP3   OH2 3337   0.323   6.696   2.081
 1127TIP3    H1 3338   0.317   6.630   2.013
 1127TIP3    H2 3339   0.392   6.755   2.052
 1128TIP3   OH2 3340   7.704   5.078   6.062
 1128TIP3    H1 3341   7.708   5.014   5.991
 1128TIP3    H2 3342   7.780   5.135   6.046
 1129TIP3   OH2 3343   0.665   0.331   4.104
 1129TIP3    H1 3344   0.608   0.395   4.147
 1129TIP3    H2 3345   0.688   0.373   4.021
 1130TIP3   OH2 3346   2.996   0.513   1.671
 1130TIP3    H1 3347   2.942   0.583   1.707
 1130TIP3    H2 3348   3.046   0.555   1.600
 1131TIP3   OH2 3349   0.662   0.945   4.705
 1131TIP3    H1 3350   0.652   0.879   4.774
 1131TIP3    H2 3351   0.594   0.922   4.641
 1132TIP3   OH2 3352   3.822   0.174   1.374
 1132TIP3    H1 3353   3.795   0.170   1.466
 1132TIP3    H2 3354   3.807   0.086   1.341
 1133TIP3   OH2 3355   5.742   7.556   2.280
 1133TIP3    H1 3356   5.651   7.585   2.291
 1133TIP3    H2 3357   5.749   7.478   2.335
 1134TIP3   OH2 3358   4.774   0.676   5.323
 1134TIP3    H1 3359   4.800   0.669   5.231
 1134TIP3    H2 3360   4.681   0.696   5.320
 1135TIP3   OH2 3361   3.416   3.055   4.265
 1135TIP3    H1 3362   3.396   3.149   4.273
 1135TIP3    H2 3363   3.498   3.052   4.215
 1136TIP3   OH2 3364   6.931   1.203   0.414
 1136TIP3    H1 3365   6.999   1.176   0.352
 1136TIP3    H2 3366   6.940   1.298   0.420
 1137TIP3   OH2 3367   7.269   4.351   0.515
 1137TIP3    H1 3368   7.235   4.278   0.567
 1137TIP3    H2 3369   7.339   4.312   0.463
 1138TIP3   OH2 3370   1.839   7.370   5.277
 1138TIP3    H1 3371   1.913   7.311   5.292
 1138TIP3    H2 3372   1.872   7.434   5.213
 1139TIP3   OH2 3373   4.884   0.043   5.029
 1139TIP3    H1 3374   4.911  -0.023   5.093
 1139TIP3    H2 3375   4.936   0.022   4.951
 1140TIP3   OH2 3376   6.290   5.074   5.747
 1140TIP3    H1 3377   6.207   5.112   5.776
 1140TIP3    H2 3378   6.268   5.027   5.666
 1141TIP3   OH2 3379   2.152   6.623   1.989
 1141TIP3    H1 3380   2.208   6.690   1.949
 1141TIP3    H2 3381   2.182   6.617   2.080
 1142TIP3   OH2 3382   8.210   6.654   3.127
 1142TIP3    H1 3383   8.273   6.688   3.191
 1142TIP3    H2 3384   8.150   6.727   3.112
 1143TIP3   OH2 3385   0.793   7.286   4.213
 1143TIP3    H1 3386   0.771   7.194   4.200
 1143TIP3    H2 3387   0.864   7.285   4.277
 1144TIP3   OH2 3388   7.073   3.274   2.647
 1144TIP3    H1 3389   7.092   3.332   2.574
 1144TIP3    H2 3390   7.068   3.331   2.723
 1145TIP3   OH2 3391   3.401   0.920   1.340
 1145TIP3    H1 3392   3.314   0.956   1.320
 1145TIP3    H2 3393   3.438   0.981   1.404
 1146TIP3   OH2 3394   1.832   3.459   3.134
 1146TIP3    H1 3395   1.891   3.526   3.169
 1146TIP3    H2 3396   1.777   3.506   3.070
 1147TIP3   OH2 3397   5.010   3.533   3.835
 1147TIP3    H1 3398   4.998   3.455   3.889
 1147TIP3    H2 3399   5.090   3.515   3.786
 1148TIP3   OH2 3400   5.162   2.524   5.451
 1148TIP3    H1 3401   5.162   2.619   5.437
 1148TIP3    H2 3402   5.073   2.497   5.432
 1149TIP3   OH2 3403   6.773   2.968   1.206
 1149TIP3    H1 3404   6.836   2.942   1.273
 1149TIP3    H2 3405   6.701   3.007   1.255
 1150TIP3   OH2 3406   1.382   5.279   1.997
 1150TIP3    H1 3407   1.382   5.370   1.968
 1150TIP3    H2 3408   1.395   5.228   1.917
 1151TIP3   OH2 3409   0.236   0.560   1.135
 1151TIP3    H1 3410   0.184   0.518   1.203
 1151TIP3    H2 3411   0.195   0.645   1.122
 1152TIP3   OH2 3412   3.875   0.690   0.953
 1152TIP3    H1 3413   3.801   0.647   0.995
 1152TIP3    H2 3414   3.835   0.752   0.892
 1153TIP3   OH2 3415   5.692   4.160   6.473
 1153TIP3    H1 3416   5.698   4.158   6.378
 1153TIP3    H2 3417   5.654   4.246   6.492
 1154TIP3   OH2 3418   0.446   5.962   0.164
 1154TIP3    H1 3419   0.529   5.915   0.163
 1154TIP3    H2 3420   0.415   5.955   0.254
 1155TIP3   OH2 3421   2.464   7.183   1.355
 1155TIP3    H1 3422   2.526   7.240   1.307
 1155TIP3    H2 3423   2.407   7.244   1.401
 1156TIP3   OH2 3424   0.265   2.553   6.252
 1156TIP3    H1 3425   0.334   2.607   6.213
 1156TIP3    H2 3426   0.303   2.466   6.259
 1157TIP3   OH2 3427   0.433   2.278   4.804
 1157TIP3    H1 3428   0.377   2.215   4.850
 1157TIP3    H2 3429   0.474   2.228   4.734
 1158TIP3   OH2 3430   6.679   7.731   4.072
 1158TIP3    H1 3431   6.698   7.788   4.146
 1158TIP3    H2 3432   6.764   7.697   4.044
 1159TIP3   OH2 3433   4.282   1.691   5.991
 1159TIP3    H1 3434   4.314   1.631   5.924
 1159TIP3    H2 3435   4.360   1.741   6.018
 1160TIP3   OH2 3436   2.333   2.489   1.153
 1160TIP3    H1 3437   2.409   2.548   1.156
 1160TIP3    H2 3438   2.349   2.432   1.078
 1161TIP3   OH2 3439   5.322   7.774   3.374
 1161TIP3    H1 3440   5.394   7.837   3.368
 1161TIP3    H2 3441   5.272   7.802   3.451
 1162TIP3   OH2 3442   5.993   0.200   3.535
 1162TIP3    H1 3443   6.023   0.138   3.468
 1162TIP3    H2 3444   6.023   0.162   3.617
 1163TIP3   OH2 3445   6.571   6.967   0.463
 1163TIP3    H1 3446   6.520   7.023   0.404
 1163TIP3    H2 3447   6.651   6.947   0.414
 1164TIP3   OH2 3448   0.828   2.517   0.097
 1164TIP3    H1 3449   0.908   2.508   0.044
 1164TIP3    H2 3450   0.762   2.467   0.049
 1165TIP3   OH2 3451   4.730   2.017   1.453
 1165TIP3    H1 3452   4.668   1.953   1.488
 1165TIP3    H2 3453   4.723   2.092   1.512
 1166TIP3   OH2 3454   2.651   4.386   0.685
 1166TIP3    H1 3455   2.721   4.340   0.639
 1166TIP3    H2 3456   2.584   4.400   0.619
 1167TIP3   OH2 3457   6.641   4.724   3.051
 1167TIP3    H1 3458   6.626   4.634   3.078
 1167TIP3    H2 3459   6.719   4.720   2.995
 1168TIP3   OH2 3460   0.301   0.130   2.050
 1168TIP3    H1 3461   0.299   0.115   2.144
 1168TIP3    H2 3462   0.217   0.172   2.030
 1169TIP3   OH2 3463   0.921   0.421   3.519
 1169TIP3    H1 3464   0.916   0.359   3.592
 1169TIP3    H2 3465   0.833   0.422   3.482
 1170TIP3   OH2 3466   4.002   4.972   1.362
 1170TIP3    H1 3467   3.938   4.920   1.409
 1170TIP3    H2 3468   4.075   4.982   1.423
 1171TIP3   OH2 3469   5.670   7.109   2.697
 1171TIP3    H1 3470   5.653   7.090   2.789
 1171TIP3    H2 3471   5.597   7.067   2.650
 1172TIP3   OH2 3472   1.166   7.520   5.553
 1172TIP3    H1 3473   1.244   7.571   5.532
 1172TIP3    H2 3474   1.116   7.575   5.613
 1173TIP3   OH2 3475   3.529   3.382   2.131
 1173TIP3    H1 3476   3.476   3.441   2.185
 1173TIP3    H2 3477   3.587   3.441   2.082
 1174TIP3   OH2 3478   7.078   5.903   2.327
 1174TIP3    H1 3479   7.164   5.861   2.320
 1174TIP3    H2 3480   7.097   5.991   2.360
 1175TIP3   OH2 3481   2.392   3.365   4.181
 1175TIP3    H1 3482   2.384   3.375   4.276
 1175TIP3    H2 3483   2.482   3.393   4.161
 1176TIP3   OH2 3484   7.861   6.490   4.783
 1176TIP3    H1 3485   7.856   6.395   4.797
 1176TIP3    H2 3486   7.770   6.516   4.764
 1177TIP3   OH2 3487   1.885   3.810   2.894
 1177TIP3    H1 3488   1.942   3.780   2.823
 1177TIP3    H2 3489   1.893   3.905   2.894
 1178TIP3   OH2 3490   8.150   4.660   6.781
 1178TIP3    H1 3491   8.240   4.687   6.798
 1178TIP3    H2 3492   8.158   4.584   6.723
 1179TIP3   OH2 3493   4.637   1.756   6.352
 1179TIP3    H1 3494   4.621   1.810   6.429
 1179TIP3    H2 3495   4.642   1.818   6.280
 1180TIP3   OH2 3496   4.478   1.764   5.724
 1180TIP3    H1 3497   4.451   1.673   5.733
 1180TIP3    H2 3498   4.559   1.770   5.775
 1181TIP3   OH2 3499   7.332   4.176   2.761
 1181TIP3    H1 3500   7.262   4.211   2.706
 1181TIP3    H2 3501   7.408   4.230   2.738
 1182TIP3   OH2 3502   2.817   4.057   0.755
 1182TIP3    H1 3503   2.757   4.062   0.681
 1182TIP3    H2 3504   2.787   3.982   0.805
 1183TIP3   OH2 3505   3.325   4.776   1.545
 1183TIP3    H1 3506   3.391   4.706   1.545
 1183TIP3    H2 3507   3.324   4.809   1.455
 1184TIP3   OH2 3508   3.508   7.347   0.268
 1184TIP3    H1 3509   3.461   7.411   0.320
 1184TIP3    H2 3510   3.573   7.399   0.220
 1185TIP3   OH2 3511   0.477   0.753   1.965
 1185TIP3    H1 3512   0.402   0.806   1.991
 1185TIP3    H2 3513   0.505   0.709   2.045
 1186TIP3   OH2 3514   4.414   0.254   5.879
 1186TIP3    H1 3515   4.360   0.322   5.838
 1186TIP3    H2 3516   4.491   0.301   5.911
 1187TIP3   OH2 3517   3.391   1.996   0.967
 1187TIP3    H1 3518   3.318   1.951   1.009
 1187TIP3    H2 3519   3.350   2.066   0.916
 1188TIP3   OH2 3520   5.927   3.413   3.543
 1188TIP3    H1 3521   5.965   3.400   3.456
 1188TIP3    H2 3522   5.840   3.375   3.537
 1189TIP3   OH2 3523   3.908   1.481   0.607
 1189TIP3    H1 3524   3.978   1.524   0.656
 1189TIP3    H2 3525   3.846   1.452   0.675
 1190TIP3   OH2 3526   6.387   2.537   5.130
 1190TIP3    H1 3527   6.304   2.494   5.148
 1190TIP3    H2 3528   6.412   2.507   5.043
 1191TIP3   OH2 3529   5.843   2.334   1.836
 1191TIP3    H1 3530   5.906   2.405   1.821
 1191TIP3    H2 3531   5.798   2.323   1.752
 1192TIP3   OH2 3532   5.767   6.019   2.012
 1192TIP3    H1 3533   5.836   5.959   2.039
 1192TIP3    H2 3534   5.727   5.977   1.936
 1193TIP3   OH2 3535   7.928   1.754   6.760
 1193TIP3    H1 3536   7.918   1.693   6.686
 1193TIP3    H2 3537   8.016   1.790   6.748
 1194TIP3   OH2 3538   3.765   3.880   6.566
 1194TIP3    H1 3539   3.792   3.960   6.610
 1194TIP3    H2 3540   3.805   3.810   6.618
 1195TIP3   OH2 3541   0.131   0.581   5.881
 1195TIP3    H1 3542   0.214   0.613   5.848
 1195TIP3    H2 3543   0.075   0.659   5.886
 1196TIP3   OH2 3544   1.718   5.932   0.415
 1196TIP3    H1 3545   1.801   5.955   0.457
 1196TIP3    H2 3546   1.683   5.860   0.468
 1197TIP3   OH2 3547   6.765   0.785   2.789
 1197TIP3    H1 3548   6.757   0.854   2.856
 1197TIP3    H2 3549   6.850   0.745   2.807
 1198TIP3   OH2 3550   0.759   1.443   5.017
 1198TIP3    H1 3551   0.805   1.392   4.951
 1198TIP3    H2 3552   0.794   1.412   5.101
 1199TIP3   OH2 3553   3.228   0.419   5.557
 1199TIP3    H1 3554   3.305   0.455   5.601
 1199TIP3    H2 3555   3.225   0.465   5.473
 1200TIP3   OH2 3556   3.084   5.541   4.582
 1200TIP3    H1 3557   3.007   5.570   4.531
 1200TIP3    H2 3558   3.046   5.497   4.658
 1201TIP3   OH2 3559   6.675   4.050   2.255
 1201TIP3    H1 3560   6.705   4.104   2.182
 1201TIP3    H2 3561   6.751   3.994   2.275
 1202TIP3   OH2 3562   4.671   5.519   0.616
 1202TIP3    H1 3563   4.684   5.528   0.522
 1202TIP3    H2 3564   4.683   5.607   0.651
 1203TIP3   OH2 3565   0.125   4.674   1.738
 1203TIP3    H1 3566   0.068   4.740   1.697
 1203TIP3    H2 3567   0.208   4.720   1.753
 1204TIP3   OH2 3568   8.243   2.139   0.412
 1204TIP3    H1 3569   8.210   2.122   0.501
 1204TIP3    H2 3570   8.216   2.228   0.393
 1205TIP3   OH2 3571   5.762   4.883   0.883
 1205TIP3    H1 3572   5.771   4.974   0.910
 1205TIP3    H2 3573   5.792   4.882   0.792
 1206TIP3   OH2 3574   0.267   6.268   3.707
 1206TIP3    H1 3575   0.313   6.311   3.779
 1206TIP3    H2 3576   0.229   6.189   3.747
 1207TIP3   OH2 3577   2.844   2.070   4.639
 1207TIP3    H1 3578   2.888   1.995   4.599
 1207TIP3    H2 3579   2.907   2.103   4.704
 1208TIP3   OH2 3580   5.971   2.003   3.452
 1208TIP3    H1 3581   6.039   1.938   3.472
 1208TIP3    H2 3582   5.997   2.081   3.501
 1209TIP3   OH2 3583   2.423   3.913   0.416
 1209TIP3    H1 3584   2.397   3.987   0.363
 1209TIP3    H2 3585   2.506   3.884   0.378
 1210TIP3   OH2 3586   5.674   2.526   2.537
 1210TIP3    H1 3587   5.665   2.493   2.626
 1210TIP3    H2 3588   5.695   2.619   2.548
 1211TIP3   OH2 3589   6.277   0.027   1.318
 1211TIP3    H1 3590   6.351  -0.016   1.276
 1211TIP3    H2 3591   6.317   0.097   1.370
 1212TIP3   OH2 3592   3.120   3.642   6.038
 1212TIP3    H1 3593   3.035   3.684   6.026
 1212TIP3    H2 3594   3.131   3.587   5.961
 1213TIP3   OH2 3595   3.418   3.591   0.428
 1213TIP3    H1 3596   3.434   3.591   0.333
 1213TIP3    H2 3597   3.364   3.669   0.442
 1214TIP3   OH2 3598   7.812   0.719   0.412
 1214TIP3    H1 3599   7.770   0.651   0.359
 1214TIP3    H2 3600   7.744   0.746   0.474
 1215TIP3   OH2 3601   1.647   3.210   6.680
 1215TIP3    H1 3602   1.735   3.187   6.710
 1215TIP3    H2 3603   1.649   3.192   6.585
 1216TIP3   OH2 3604   7.750   2.145   1.179
 1216TIP3    H1 3605   7.685   2.213   1.161
 1216TIP3    H2 3606   7.723   2.109   1.264
 1217TIP3   OH2 3607   3.858   5.421   0.620
 1217TIP3    H1 3608   3.919   5.350   0.598
 1217TIP3    H2 3609   3.775   5.393   0.581
 1218TIP3   OH2 3610   4.812   6.470   1.271
 1218TIP3    H1 3611   4.883   6.406   1.257
 1218TIP3    H2 3612   4.808   6.519   1.189
 1219TIP3   OH2 3613   4.847   2.689   1.110
 1219TIP3    H1 3614   4.920   2.739   1.146
 1219TIP3    H2 3615   4.799   2.658   1.186
 1220TIP3   OH2 3616   1.327   5.947   5.454
 1220TIP3    H1 3617   1.298   6.022   5.403
 1220TIP3    H2 3618   1.251   5.925   5.509
 1221TIP3   OH2 3619   3.659   4.008   6.328
 1221TIP3    H1 3620   3.743   4.046   6.302
 1221TIP3    H2 3621   3.680   3.951   6.401
 1222TIP3   OH2 3622   5.919   0.456   0.574
 1222TIP3    H1 3623   5.954   0.372   0.545
 1222TIP3    H2 3624   5.880   0.494   0.496
 1223TIP3   OH2 3625   5.052   5.134   5.238
 1223TIP3    H1 3626   5.117   5.063   5.242
 1223TIP3    H2 3627   5.016   5.129   5.150
 1224TIP3   OH2 3628   5.088   6.278   1.749
 1224TIP3    H1 3629   5.141   6.274   1.670
 1224TIP3    H2 3630   5.107   6.365   1.786
 1225TIP3   OH2 3631   3.747   0.067   0.220
 1225TIP3    H1 3632   3.733  -0.018   0.261
 1225TIP3    H2 3633   3.767   0.047   0.129
 1226TIP3   OH2 3634   7.751   6.702   2.031
 1226TIP3    H1 3635   7.767   6.642   2.104
 1226TIP3    H2 3636   7.718   6.781   2.072
 1227TIP3   OH2 3637   5.516   4.921   1.754
 1227TIP3    H1 3638   5.522   4.971   1.835
 1227TIP3    H2 3639   5.460   4.974   1.696
 1228TIP3   OH2 3640   5.890   0.161   0.300
 1228TIP3    H1 3641   5.805   0.117   0.288
 1228TIP3    H2 3642   5.947   0.119   0.236
 1229TIP3   OH2 3643   2.917   6.035   4.113
 1229TIP3    H1 3644   3.010   6.047   4.094
 1229TIP3    H2 3645   2.915   5.983   4.194
 1230TIP3   OH2 3646   5.568   7.564   2.700
 1230TIP3    H1 3647   5.509   7.514   2.643
 1230TIP3    H2 3648   5.524   7.564   2.785
 1231TIP3   OH2 3649   7.000   1.770   1.264
 1231TIP3    H1 3650   7.011   1.836   1.196
 1231TIP3    H2 3651   7.079   1.777   1.317
 1232TIP3   OH2 3652   3.997   6.712   6.696
 1232TIP3    H1 3653   3.921   6.745   6.647
 1232TIP3    H2 3654   3.964   6.633   6.740
 1233TIP3   OH2 3655   5.304   7.578   1.556
 1233TIP3    H1 3656   5.221   7.627   1.556
 1233TIP3    H2 3657   5.278   7.486   1.549
 1234TIP3   OH2 3658   6.567   0.630   4.290
 1234TIP3    H1 3659   6.561   0.682   4.370
 1234TIP3    H2 3660   6.524   0.548   4.312
 1235TIP3   OH2 3661   3.661   1.652   3.400
 1235TIP3    H1 3662   3.579   1.655   3.450
 1235TIP3    H2 3663   3.672   1.559   3.379
 1236TIP3   OH2 3664   6.536   7.527   5.115
 1236TIP3    H1 3665   6.515   7.433   5.111
 1236TIP3    H2 3666   6.588   7.543   5.037
 1237TIP3   OH2 3667   0.973   2.937   2.130
 1237TIP3    H1 3668   0.904   2.972   2.073
 1237TIP3    H2 3669   1.004   3.014   2.178
 1238TIP3   OH2 3670   4.282   7.721   6.523
 1238TIP3    H1 3671   4.242   7.710   6.437
 1238TIP3    H2 3672   4.211   7.702   6.584
 1239TIP3   OH2 3673   5.303   4.250   4.630
 1239TIP3    H1 3674   5.255   4.246   4.713
 1239TIP3    H2 3675   5.287   4.166   4.588
 1240TIP3   OH2 3676   2.578   7.743   4.170
 1240TIP3    H1 3677   2.556   7.651   4.156
 1240TIP3    H2 3678   2.672   7.742   4.188
 1241TIP3   OH2 3679   8.077   3.554   0.217
 1241TIP3    H1 3680   8.149   3.617   0.217
 1241TIP3    H2 3681   8.107   3.482   0.272
 1242TIP3   OH2 3682   7.050   6.995   2.511
 1242TIP3    H1 3683   7.078   6.975   2.600
 1242TIP3    H2 3684   6.972   6.942   2.498
 1243TIP3   OH2 3685   0.834   4.660   1.890
 1243TIP3    H1 3686   0.787   4.601   1.832
 1243TIP3    H2 3687   0.771   4.729   1.911
 1244TIP3   OH2 3688   6.133   1.469   1.162
 1244TIP3    H1 3689   6.071   1.411   1.205
 1244TIP3    H2 3690   6.079   1.530   1.112
 1245TIP3   OH2 3691   4.050   1.716   2.704
 1245TIP3    H1 3692   4.024   1.704   2.613
 1245TIP3    H2 3693   3.975   1.760   2.745
 1246TIP3   OH2 3694   1.340   7.416   6.325
 1246TIP3    H1 3695   1.310   7.497   6.284
 1246TIP3    H2 3696   1.297   7.415   6.411
 1247TIP3   OH2 3697   3.132   6.624   2.784
 1247TIP3    H1 3698   3.077   6.690   2.743
 1247TIP3    H2 3699   3.222   6.652   2.767
 1248TIP3   OH2 3700   0.790   5.098   4.212
 1248TIP3    H1 3701   0.852   5.061   4.276
 1248TIP3    H2 3702   0.813   5.055   4.130
 1249TIP3   OH2 3703   3.556   0.685   5.229
 1249TIP3    H1 3704   3.475   0.678   5.279
 1249TIP3    H2 3705   3.624   0.693   5.295
 1250TIP3   OH2 3706   0.215   3.531   4.722
 1250TIP3    H1 3707   0.309   3.520   4.710
 1250TIP3    H2 3708   0.206   3.615   4.768
 1251TIP3   OH2 3709   8.162   3.844   5.406
 1251TIP3    H1 3710   8.097   3.810   5.467
 1251TIP3    H2 3711   8.235   3.782   5.412
 1252TIP3   OH2 3712   1.491   2.159   6.253
 1252TIP3    H1 3713   1.452   2.102   6.187
 1252TIP3    H2 3714   1.584   2.138   6.252
 1253TIP3   OH2 3715   6.030   1.921   5.627
 1253TIP3    H1 3716   6.052   1.939   5.535
 1253TIP3    H2 3717   6.088   1.979   5.677
 1254TIP3   OH2 3718   3.816   7.208   0.004
 1254TIP3    H1 3719   3.812   7.141   0.073
 1254TIP3    H2 3720   3.909   7.213  -0.018
 1255TIP3   OH2 3721   6.181   5.040   1.558
 1255TIP3    H1 3722   6.126   4.963   1.567
 1255TIP3    H2 3723   6.271   5.007   1.557
 1256TIP3   OH2 3724   0.218   0.324   5.585
 1256TIP3    H1 3725   0.219   0.293   5.676
 1256TIP3    H2 3726   0.246   0.248   5.534
 1257TIP3   OH2 3727   7.920   6.753   1.003
 1257TIP3    H1 3728   7.978   6.676   1.002
 1257TIP3    H2 3729   7.973   6.823   1.041
 1258TIP3   OH2 3730   6.891   6.344   5.606
 1258TIP3    H1 3731   6.855   6.310   5.688
 1258TIP3    H2 3732   6.836   6.307   5.537
 1259TIP3   OH2 3733   8.109   1.813   3.660
 1259TIP3    H1 3734   8.056   1.863   3.597
 1259TIP3    H2 3735   8.070   1.726   3.661
 1260TIP3   OH2 3736   0.902   0.692   2.266
 1260TIP3    H1 3737   0.948   0.737   2.337
 1260TIP3    H2 3738   0.878   0.607   2.303
 1261TIP3   OH2 3739   0.096   5.057   2.586
 1261TIP3    H1 3740   0.145   5.124   2.537
 1261TIP3    H2 3741   0.011   5.098   2.603
 1262TIP3   OH2 3742   3.925   4.115   6.023
 1262TIP3    H1 3743   3.983   4.116   5.946
 1262TIP3    H2 3744   3.944   4.197   6.068
 1263TIP3   OH2 3745   7.783   7.236   6.282
 1263TIP3    H1 3746   7.729   7.246   6.203
 1263TIP3    H2 3747   7.764   7.147   6.313
 1264TIP3   OH2 3748   5.692   3.755   2.824
 1264TIP3    H1 3749   5.671   3.710   2.742
 1264TIP3    H2 3750   5.664   3.694   2.893
 1265TIP3   OH2 3751   5.966   5.030   0.723
 1265TIP3    H1 3752   6.020   5.108   0.731
 1265TIP3    H2 3753   6.019   4.959   0.760
 1266TIP3   OH2 3754   8.063   7.620   5.090
 1266TIP3    H1 3755   8.071   7.593   5.182
 1266TIP3    H2 3756   8.146   7.664   5.071
 1267TIP3   OH2 3757   5.645   7.022   3.447
 1267TIP3    H1 3758   5.620   6.982   3.531
 1267TIP3    H2 3759   5.659   6.947   3.389
 1268TIP3   OH2 3760   6.043   0.298   5.689
 1268TIP3    H1 3761   6.035   0.291   5.784
 1268TIP3    H2 3762   5.957   0.273   5.656
 1269TIP3   OH2 3763   7.473   2.090   4.401
 1269TIP3    H1 3764   7.483   2.072   4.307
 1269TIP3    H2 3765   7.562   2.094   4.434
 1270TIP3   OH2 3766   1.696   1.262   0.921
 1270TIP3    H1 3767   1.610   1.218   0.921
 1270TIP3    H2 3768   1.734   1.238   0.836
 1271TIP3   OH2 3769   7.005   3.593   1.519
 1271TIP3    H1 3770   7.052   3.673   1.495
 1271TIP3    H2 3771   6.959   3.616   1.600
 1272TIP3   OH2 3772   3.633   2.207   2.487
 1272TIP3    H1 3773   3.654   2.241   2.574
 1272TIP3    H2 3774   3.659   2.115   2.490
 1273TIP3   OH2 3775   1.488   1.429   5.947
 1273TIP3    H1 3776   1.560   1.383   5.903
 1273TIP3    H2 3777   1.429   1.360   5.976
 1274TIP3   OH2 3778   2.764   3.874   3.429
 1274TIP3    H1 3779   2.697   3.806   3.433
 1274TIP3    H2 3780   2.757   3.910   3.341
 1275TIP3   OH2 3781   5.124   2.798   5.417
 1275TIP3    H1 3782   5.039   2.841   5.429
 1275TIP3    H2 3783   5.187   2.859   5.453
 1276TIP3   OH2 3784   5.310   5.075   2.321
 1276TIP3    H1 3785   5.265   5.036   2.396
 1276TIP3    H2 3786   5.320   5.167   2.344
 1277TIP3   OH2 3787   7.718   6.905   4.443
 1277TIP3    H1 3788   7.644   6.895   4.384
 1277TIP3    H2 3789   7.683   6.881   4.529
 1278TIP3   OH2 3790   4.119   1.431   2.514
 1278TIP3    H1 3791   4.064   1.418   2.591
 1278TIP3    H2 3792   4.199   1.383   2.532
 1279TIP3   OH2 3793   4.496   6.148   0.866
 1279TIP3    H1 3794   4.428   6.086   0.841
 1279TIP3    H2 3795   4.465   6.187   0.948
 1280TIP3   OH2 3796   1.535   6.755   6.350
 1280TIP3    H1 3797   1.488   6.707   6.282
 1280TIP3    H2 3798   1.499   6.844   6.347
 1281TIP3   OH2 3799   2.468   1.348   4.545
 1281TIP3    H1 3800   2.536   1.390   4.599
 1281TIP3    H2 3801   2.515   1.284   4.492
 1282TIP3   OH2 3802   4.190   5.533   3.874
 1282TIP3    H1 3803   4.282   5.512   3.855
 1282TIP3    H2 3804   4.152   5.554   3.789
 1283TIP3   OH2 3805   1.735   6.851   6.679
 1283TIP3    H1 3806   1.804   6.872   6.741
 1283TIP3    H2 3807   1.727   6.756   6.684
 1284TIP3   OH2 3808   6.961   1.641   5.061
 1284TIP3    H1 3809   6.912   1.621   4.981
 1284TIP3    H2 3810   7.049   1.607   5.043
 1285TIP3   OH2 3811   6.708   2.120   4.373
 1285TIP3    H1 3812   6.699   2.200   4.322
 1285TIP3    H2 3813   6.802   2.106   4.379
 1286TIP3   OH2 3814   0.376   5.739   6.536
 1286TIP3    H1 3815   0.350   5.707   6.450
 1286TIP3    H2 3816   0.465   5.708   6.548
 1287TIP3   OH2 3817   3.664   7.563   2.156
 1287TIP3    H1 3818   3.673   7.570   2.251
 1287TIP3    H2 3819   3.703   7.644   2.122
 1288TIP3   OH2 3820   5.540   2.031   5.370
 1288TIP3    H1 3821   5.450   2.061   5.380
 1288TIP3    H2 3822   5.548   1.958   5.432
 1289TIP3   OH2 3823   4.050   0.984   1.538
 1289TIP3    H1 3824   4.065   1.044   1.612
 1289TIP3    H2 3825   3.955   0.973   1.536
 1290TIP3   OH2 3826   7.657   3.897   0.447
 1290TIP3    H1 3827   7.691   3.821   0.400
 1290TIP3    H2 3828   7.689   3.972   0.397
 1291TIP3   OH2 3829   6.057   4.231   1.628
 1291TIP3    H1 3830   6.002   4.302   1.593
 1291TIP3    H2 3831   6.007   4.197   1.702
 1292TIP3   OH2 3832   0.345   0.758   5.836
 1292TIP3    H1 3833   0.415   0.696   5.857
 1292TIP3    H2 3834   0.374   0.841   5.873
 1293TIP3   OH2 3835   5.539   0.735   2.306
 1293TIP3    H1 3836   5.552   0.663   2.368
 1293TIP3    H2 3837   5.474   0.702   2.244
 1294TIP3   OH2 3838   3.810   6.188   6.740
 1294TIP3    H1 3839   3.739   6.142   6.784
 1294TIP3    H2 3840   3.824   6.138   6.660
 1295TIP3   OH2 3841   4.199   4.536   1.041
 1295TIP3    H1 3842   4.198   4.470   0.971
 1295TIP3    H2 3843   4.291   4.559   1.051
 1296TIP3   OH2 3844   8.011   5.619   2.795
 1296TIP3    H1 3845   7.930   5.641   2.749
 1296TIP3    H2 3846   8.016   5.523   2.789
 1297TIP3   OH2 3847   7.359   4.928   2.239
 1297TIP3    H1 3848   7.318   5.010   2.214
 1297TIP3    H2 3849   7.305   4.895   2.311
 1298TIP3   OH2 3850   0.482   6.161   1.774
 1298TIP3    H1 3851   0.486   6.199   1.862
 1298TIP3    H2 3852   0.550   6.094   1.774
 1299TIP3   OH2 3853   2.332   3.743   6.667
 1299TIP3    H1 3854   2.291   3.768   6.584
 1299TIP3    H2 3855   2.372   3.658   6.649
 1300TIP3   OH2 3856   2.885   2.636   6.663
 1300TIP3    H1 3857   2.900   2.685   6.744
 1300TIP3    H2 3858   2.793   2.649   6.643
 1301TIP3   OH2 3859   7.541   6.138   3.633
 1301TIP3    H1 3860   7.559   6.093   3.716
 1301TIP3    H2 3861   7.572   6.227   3.647
 1302TIP3   OH2 3862   1.398   0.966   1.431
 1302TIP3    H1 3863   1.492   0.967   1.450
 1302TIP3    H2 3864   1.376   1.057   1.412
 1303TIP3   OH2 3865   2.172   5.894   4.628
 1303TIP3    H1 3866   2.154   5.802   4.647
 1303TIP3    H2 3867   2.087   5.937   4.631
 1304TIP3   OH2 3868   6.880   0.857   3.225
 1304TIP3    H1 3869   6.830   0.833   3.303
 1304TIP3    H2 3870   6.963   0.891   3.259
 1305TIP3   OH2 3871   3.474   3.642   0.162
 1305TIP3    H1 3872   3.504   3.732   0.172
 1305TIP3    H2 3873   3.421   3.643   0.083
 1306TIP3   OH2 3874   2.164   7.413   0.127
 1306TIP3    H1 3875   2.093   7.477   0.120
 1306TIP3    H2 3876   2.150   7.371   0.212
 1307TIP3   OH2 3877   2.642   5.360   4.078
 1307TIP3    H1 3878   2.683   5.314   4.151
 1307TIP3    H2 3879   2.558   5.390   4.112
 1308TIP3   OH2 3880   6.316   5.289   5.245
 1308TIP3    H1 3881   6.329   5.358   5.310
 1308TIP3    H2 3882   6.221   5.282   5.236
 1309TIP3   OH2 3883   1.539   2.956   1.808
 1309TIP3    H1 3884   1.502   3.039   1.777
 1309TIP3    H2 3885   1.518   2.953   1.901
 1310TIP3   OH2 3886   1.195   2.356   2.978
 1310TIP3    H1 3887   1.194   2.356   2.882
 1310TIP3    H2 3888   1.105   2.375   3.003
 1311TIP3   OH2 3889   5.740   2.136   3.103
 1311TIP3    H1 3890   5.783   2.189   3.036
 1311TIP3    H2 3891   5.647   2.148   3.087
 1312TIP3   OH2 3892   2.664   4.886   1.325
 1312TIP3    H1 3893   2.646   4.919   1.238
 1312TIP3    H2 3894   2.739   4.937   1.356
 1313TIP3   OH2 3895   1.264   0.064   4.235
 1313TIP3    H1 3896   1.282   0.155   4.214
 1313TIP3    H2 3897   1.236   0.066   4.327
 1314TIP3   OH2 3898   6.465   6.553   2.054
 1314TIP3    H1 3899   6.450   6.645   2.033
 1314TIP3    H2 3900   6.416   6.539   2.135
 1315TIP3   OH2 3901   1.292   2.465   5.516
 1315TIP3    H1 3902   1.363   2.407   5.543
 1315TIP3    H2 3903   1.230   2.407   5.471
 1316TIP3   OH2 3904   2.508   6.382   5.021
 1316TIP3    H1 3905   2.519   6.477   5.029
 1316TIP3    H2 3906   2.597   6.348   5.016
 1317TIP3   OH2 3907   2.910   5.752   0.804
 1317TIP3    H1 3908   2.950   5.704   0.731
 1317TIP3    H2 3909   2.979   5.811   0.834
 1318TIP3   OH2 3910   0.710   4.315   2.079
 1318TIP3    H1 3911   0.713   4.223   2.053
 1318TIP3    H2 3912   0.797   4.332   2.116
 1319TIP3   OH2 3913   6.606   4.790   0.543
 1319TIP3    H1 3914   6.660   4.808   0.620
 1319TIP3    H2 3915   6.619   4.865   0.486
 1320TIP3   OH2 3916   0.712   3.685   5.678
 1320TIP3    H1 3917   0.727   3.697   5.772
 1320TIP3    H2 3918   0.799   3.673   5.641
 1321TIP3   OH2 3919   6.540   0.442   1.033
 1321TIP3    H1 3920   6.514   0.362   0.987
 1321TIP3    H2 3921   6.463   0.464   1.087
 1322TIP3   OH2 3922   7.379   0.363   2.527
 1322TIP3    H1 3923   7.377   0.311   2.607
 1322TIP3    H2 3924   7.472   0.383   2.513
 1323TIP3   OH2 3925   0.095   5.892   4.362
 1323TIP3    H1 3926   0.005   5.867   4.381
 1323TIP3    H2 3927   0.132   5.918   4.446
 1324TIP3   OH2 3928   2.838   6.751   3.496
 1324TIP3    H1 3929   2.799   6.747   3.583
 1324TIP3    H2 3930   2.832   6.662   3.462
 1325TIP3   OH2 3931   4.932   0.121   2.985
 1325TIP3    H1 3932   5.017   0.159   2.967
 1325TIP3    H2 3933   4.952   0.034   3.021
 1326TIP3   OH2 3934   3.933   5.966   1.337
 1326TIP3    H1 3935   3.958   6.047   1.381
 1326TIP3    H2 3936   4.016   5.924   1.316
 1327TIP3   OH2 3937   2.026   2.347   3.892
 1327TIP3    H1 3938   2.110   2.327   3.850
 1327TIP3    H2 3939   1.961   2.322   3.826
 1328TIP3   OH2 3940   7.707   7.345   6.050
 1328TIP3    H1 3941   7.727   7.305   5.966
 1328TIP3    H2 3942   7.615   7.371   6.043
 1329TIP3   OH2 3943   6.506   6.150   0.426
 1329TIP3    H1 3944   6.589   6.160   0.379
 1329TIP3    H2 3945   6.476   6.062   0.403
 1330TIP3   OH2 3946   6.660   1.338   5.143
 1330TIP3    H1 3947   6.637   1.248   5.118
 1330TIP3    H2 3948   6.726   1.329   5.211
 1331TIP3   OH2 3949   2.328   1.394   5.903
 1331TIP3    H1 3950   2.366   1.455   5.840
 1331TIP3    H2 3951   2.242   1.372   5.867
 1332TIP3   OH2 3952   2.323   7.626  -0.042
 1332TIP3    H1 3953   2.409   7.644  -0.002
 1332TIP3    H2 3954   2.280   7.567   0.019
 1333TIP3   OH2 3955   1.019   5.243   4.131
 1333TIP3    H1 3956   1.053   5.199   4.053
 1333TIP3    H2 3957   0.926   5.218   4.134
 1334TIP3   OH2 3958   4.471   4.513   1.369
 1334TIP3    H1 3959   4.528   4.497   1.293
 1334TIP3    H2 3960   4.393   4.554   1.332
 1335TIP3   OH2 3961   1.722   0.470   3.137
 1335TIP3    H1 3962   1.709   0.452   3.230
 1335TIP3    H2 3963   1.636   0.458   3.098
 1336TIP3   OH2 3964   2.179   7.608   3.792
 1336TIP3    H1 3965   2.093   7.566   3.788
 1336TIP3    H2 3966   2.181   7.650   3.878
 1337TIP3   OH2 3967   3.651   0.903   4.389
 1337TIP3    H1 3968   3.673   0.825   4.441
 1337TIP3    H2 3969   3.627   0.969   4.455
 1338TIP3   OH2 3970   5.678   5.719   3.450
 1338TIP3    H1 3971   5.709   5.641   3.495
 1338TIP3    H2 3972   5.758   5.762   3.419
 1339TIP3   OH2 3973   5.130   0.106   6.708
 1339TIP3    H1 3974   5.097   0.106   6.619
 1339TIP3    H2 3975   5.218   0.143   6.700
 1340TIP3   OH2 3976   1.386   5.873   5.061
 1340TIP3    H1 3977   1.447   5.894   4.990
 1340TIP3    H2 3978   1.436   5.886   5.141
 1341TIP3   OH2 3979   6.671   7.395   0.667
 1341TIP3    H1 3980   6.681   7.345   0.748
 1341TIP3    H2 3981   6.640   7.330   0.603
 1342TIP3   OH2 3982   4.436   5.496   6.572
 1342TIP3    H1 3983   4.345   5.496   6.601
 1342TIP3    H2 3984   4.434   5.535   6.485
 1343TIP3   OH2 3985   5.206   7.807   0.723
 1343TIP3    H1 3986   5.162   7.782   0.805
 1343TIP3    H2 3987   5.186   7.736   0.662
 1344TIP3   OH2 3988   7.741   3.211   0.638
 1344TIP3    H1 3989   7.785   3.246   0.715
 1344TIP3    H2 3990   7.754   3.278   0.570
 1345TIP3   OH2 3991   8.108   6.987   2.578
 1345TIP3    H1 3992   8.111   6.950   2.666
 1345TIP3    H2 3993   8.130   6.914   2.520
 1346TIP3   OH2 3994   0.672   2.151   0.658
 1346TIP3    H1 3995   0.683   2.059   0.634
 1346TIP3    H2 3996   0.632   2.191   0.580
 1347TIP3   OH2 3997   6.066   6.194   5.008
 1347TIP3    H1 3998   6.092   6.285   5.023
 1347TIP3    H2 3999   6.138   6.142   5.045
 1348TIP3   OH2 4000   7.713   1.482   5.909
 1348TIP3    H1 4001   7.623   1.506   5.928
 1348TIP3    H2 4002   7.764   1.525   5.977
 1349TIP3   OH2 4003   3.840   4.382   6.651
 1349TIP3    H1 4004   3.757   4.352   6.616
 1349TIP3    H2 4005   3.817   4.434   6.728
 1350TIP3   OH2 4006   4.905   7.767   0.545
 1350TIP3    H1 4007   4.894   7.686   0.595
 1350TIP3    H2 4008   4.948   7.739   0.463
 1351TIP3   OH2 4009   2.041   6.166   6.664
 1351TIP3    H1 4010   2.028   6.072   6.656
 1351TIP3    H2 4011   2.131   6.176   6.697
 1352TIP3   OH2 4012   4.716   1.572   3.650
 1352TIP3    H1 4013   4.685   1.524   3.573
 1352TIP3    H2 4014   4.690   1.517   3.724
 1353TIP3   OH2 4015   3.166   0.722   2.958
 1353TIP3    H1 4016   3.138   0.813   2.955
 1353TIP3    H2 4017   3.121   0.686   3.034
 1354TIP3   OH2 4018   2.817   2.600   1.929
 1354TIP3    H1 4019   2.863   2.550   1.997
 1354TIP3    H2 4020   2.733   2.622   1.968
 1355TIP3   OH2 4021   5.687   6.322   1.759
 1355TIP3    H1 4022   5.702   6.344   1.851
 1355TIP3    H2 4023   5.593   6.331   1.747
 1356TIP3   OH2 4024   6.274   4.994   2.716
 1356TIP3    H1 4025   6.288   4.919   2.658
 1356TIP3    H2 4026   6.340   4.985   2.784
 1357TIP3   OH2 4027   2.416   1.215   3.744
 1357TIP3    H1 4028   2.428   1.121   3.735
 1357TIP3    H2 4029   2.346   1.224   3.809
 1358TIP3   OH2 4030   7.562   2.735   6.362
 1358TIP3    H1 4031   7.622   2.662   6.371
 1358TIP3    H2 4032   7.589   2.797   6.430
 1359TIP3   OH2 4033   4.956   1.058   2.164
 1359TIP3    H1 4034   4.889   1.114   2.204
 1359TIP3    H2 4035   4.931   1.053   2.072
 1360TIP3   OH2 4036   1.505   4.808   4.753
 1360TIP3    H1 4037   1.514   4.730   4.700
 1360TIP3    H2 4038   1.588   4.854   4.743
 1361TIP3   OH2 4039   0.688   1.788   6.424
 1361TIP3    H1 4040   0.631   1.860   6.397
 1361TIP3    H2 4041   0.629   1.713   6.434
 1362TIP3   OH2 4042   7.697   6.684   0.119
 1362TIP3    H1 4043   7.741   6.712   0.038
 1362TIP3    H2 4044   7.661   6.598   0.098
 1363TIP3   OH2 4045   5.336   2.533   6.412
 1363TIP3    H1 4046   5.351   2.554   6.320
 1363TIP3    H2 4047   5.407   2.473   6.434
 1364TIP3   OH2 4048   0.830   3.765   5.922
 1364TIP3    H1 4049   0.785   3.781   6.005
 1364TIP3    H2 4050   0.903   3.827   5.922
 1365TIP3   OH2 4051   8.070   2.812   0.095
 1365TIP3    H1 4052   8.074   2.892   0.042
 1365TIP3    H2 4053   7.982   2.813   0.133
 1366TIP3   OH2 4054   2.166   5.362   5.523
 1366TIP3    H1 4055   2.236   5.424   5.544
 1366TIP3    H2 4056   2.103   5.414   5.473
 1367TIP3   OH2 4057   1.051   2.583   5.310
 1367TIP3    H1 4058   1.023   2.672   5.331
 1367TIP3    H2 4059   1.001   2.560   5.231
 1368TIP3   OH2 4060   6.141   0.122   2.064
 1368TIP3    H1 4061   6.088   0.130   1.985
 1368TIP3    H2 4062   6.093   0.171   2.130
 1369TIP3   OH2 4063   3.393   0.288   3.358
 1369TIP3    H1 4064   3.388   0.233   3.280
 1369TIP3    H2 4065   3.470   0.342   3.345
 1370TIP3   OH2 4066   4.340   1.195   6.781
 1370TIP3    H1 4067   4.419   1.145   6.800
 1370TIP3    H2 4068   4.372   1.276   6.740
 1371TIP3   OH2 4069   3.097   0.959  -0.037
 1371TIP3    H1 4070   3.104   0.865  -0.055
 1371TIP3    H2 4071   3.024   0.966   0.024
 1372TIP3   OH2 4072   3.151   1.943   3.133
 1372TIP3    H1 4073   3.111   1.915   3.051
 1372TIP3    H2 4074   3.107   1.892   3.201
 1373TIP3   OH2 4075   7.914   3.921   6.526
 1373TIP3    H1 4076   7.955   3.837   6.547
 1373TIP3    H2 4077   7.988   3.981   6.517
 1374TIP3   OH2 4078   3.466   2.943   1.213
 1374TIP3    H1 4079   3.420   2.971   1.134
 1374TIP3    H2 4080   3.404   2.961   1.284
 1375TIP3   OH2 4081   3.261   4.605   2.338
 1375TIP3    H1 4082   3.169   4.633   2.336
 1375TIP3    H2 4083   3.299   4.652   2.413
 1376TIP3   OH2 4084   1.942   2.628   5.162
 1376TIP3    H1 4085   1.970   2.703   5.109
 1376TIP3    H2 4086   1.850   2.615   5.140
 1377TIP3   OH2 4087   8.137   3.559   3.246
 1377TIP3    H1 4088   8.121   3.624   3.314
 1377TIP3    H2 4089   8.100   3.478   3.281
 1378TIP3   OH2 4090   6.924   1.945   4.825
 1378TIP3    H1 4091   6.845   1.918   4.873
 1378TIP3    H2 4092   6.987   1.874   4.841
 1379TIP3   OH2 4093   7.662   2.886   3.468
 1379TIP3    H1 4094   7.586   2.838   3.499
 1379TIP3    H2 4095   7.736   2.828   3.488
 1380TIP3   OH2 4096   3.876   2.211   5.088
 1380TIP3    H1 4097   3.895   2.274   5.158
 1380TIP3    H2 4098   3.858   2.264   5.011
 1381TIP3   OH2 4099   0.615   1.558   1.228
 1381TIP3    H1 4100   0.675   1.514   1.167
 1381TIP3    H2 4101   0.592   1.490   1.291
 1382TIP3   OH2 4102   5.810   5.750   0.732
 1382TIP3    H1 4103   5.859   5.749   0.650
 1382TIP3    H2 4104   5.738   5.688   0.717
 1383TIP3   OH2 4105   7.548   5.412   5.572
 1383TIP3    H1 4106   7.463   5.370   5.580
 1383TIP3    H2 4107   7.602   5.369   5.639
 1384TIP3   OH2 4108   1.516   1.048   0.038
 1384TIP3    H1 4109   1.575   0.974   0.042
 1384TIP3    H2 4110   1.497   1.058  -0.056
 1385TIP3   OH2 4111   5.309   3.258   4.823
 1385TIP3    H1 4112   5.300   3.353   4.821
 1385TIP3    H2 4113   5.246   3.229   4.889
 1386TIP3   OH2 4114   1.791   7.774   0.986
 1386TIP3    H1 4115   1.839   7.823   0.919
 1386TIP3    H2 4116   1.708   7.751   0.944
 1387TIP3   OH2 4117   6.510   2.325   0.090
 1387TIP3    H1 4118   6.463   2.251   0.129
 1387TIP3    H2 4119   6.497   2.397   0.152
 1388TIP3   OH2 4120   1.344   6.446   5.473
 1388TIP3    H1 4121   1.275   6.453   5.407
 1388TIP3    H2 4122   1.369   6.536   5.491
 1389TIP3   OH2 4123   2.027   7.859   5.811
 1389TIP3    H1 4124   1.934   7.871   5.827
 1389TIP3    H2 4125   2.033   7.777   5.762
 1390TIP3   OH2 4126   0.012   4.316   4.554
 1390TIP3    H1 4127   0.085   4.298   4.612
 1390TIP3    H2 4128   0.044   4.293   4.466
 1391TIP3   OH2 4129   6.644   4.116   6.072
 1391TIP3    H1 4130   6.559   4.090   6.107
 1391TIP3    H2 4131   6.626   4.143   5.982
 1392TIP3   OH2 4132   5.161   0.068   1.051
 1392TIP3    H1 4133   5.227   0.120   1.005
 1392TIP3    H2 4134   5.097   0.132   1.080
 1393TIP3   OH2 4135   6.536   4.478   4.135
 1393TIP3    H1 4136   6.605   4.497   4.199
 1393TIP3    H2 4137   6.555   4.536   4.061
 1394TIP3   OH2 4138   5.485   6.280   0.155
 1394TIP3    H1 4139   5.455   6.364   0.189
 1394TIP3    H2 4140   5.577   6.274   0.181
 1395TIP3   OH2 4141   2.110   2.537   5.434
 1395TIP3    H1 4142   2.085   2.518   5.343
 1395TIP3    H2 4143   2.116   2.632   5.438
 1396TIP3   OH2 4144   3.484   0.041   3.660
 1396TIP3    H1 4145   3.415   0.098   3.694
 1396TIP3    H2 4146   3.437  -0.028   3.613
 1397TIP3   OH2 4147   5.795   6.519   5.005
 1397TIP3    H1 4148   5.731   6.467   4.955
 1397TIP3    H2 4149   5.793   6.481   5.093
 1398TIP3   OH2 4150   1.729   5.595   2.955
 1398TIP3    H1 4151   1.810   5.560   2.992
 1398TIP3    H2 4152   1.712   5.674   3.006
 1399TIP3   OH2 4153   3.779   0.970   5.559
 1399TIP3    H1 4154   3.831   1.023   5.499
 1399TIP3    H2 4155   3.842   0.908   5.597
 1400TIP3   OH2 4156   5.623   7.436   3.482
 1400TIP3    H1 4157   5.701   7.454   3.534
 1400TIP3    H2 4158   5.553   7.483   3.526
 1401TIP3   OH2 4159   7.968   1.782   4.573
 1401TIP3    H1 4160   8.012   1.704   4.609
 1401TIP3    H2 4161   8.022   1.806   4.498
 1402TIP3   OH2 4162   1.835   6.159   2.351
 1402TIP3    H1 4163   1.898   6.090   2.370
 1402TIP3    H2 4164   1.831   6.163   2.255
 1403TIP3   OH2 4165   6.445   2.747   3.840
 1403TIP3    H1 4166   6.441   2.789   3.754
 1403TIP3    H2 4167   6.536   2.756   3.866
 1404TIP3   OH2 4168   0.840   3.023   2.749
 1404TIP3    H1 4169   0.744   3.028   2.748
 1404TIP3    H2 4170   0.869   3.112   2.729
 1405TIP3   OH2 4171   6.764   6.257   5.824
 1405TIP3    H1 4172   6.778   6.270   5.918
 1405TIP3    H2 4173   6.677   6.292   5.807
 1406TIP3   OH2 4174   6.556   3.455   4.189
 1406TIP3    H1 4175   6.476   3.504   4.173
 1406TIP3    H2 4176   6.554   3.434   4.282
 1407TIP3   OH2 4177   0.840   3.835   2.278
 1407TIP3    H1 4178   0.748   3.811   2.273
 1407TIP3    H2 4179   0.884   3.773   2.221
 1408TIP3   OH2 4180   1.212   0.088   4.901
 1408TIP3    H1 4181   1.282   0.039   4.859
 1408TIP3    H2 4182   1.199   0.045   4.986
 1409TIP3   OH2 4183   5.633   2.655   0.510
 1409TIP3    H1 4184   5.538   2.664   0.505
 1409TIP3    H2 4185   5.666   2.745   0.510
 1410TIP3   OH2 4186   6.026   4.241   4.609
 1410TIP3    H1 4187   6.028   4.189   4.689
 1410TIP3    H2 4188   6.103   4.212   4.560
 1411TIP3   OH2 4189   6.017   4.743   4.134
 1411TIP3    H1 4190   6.023   4.668   4.193
 1411TIP3    H2 4191   5.967   4.808   4.183
 1412TIP3   OH2 4192   6.930   2.098   2.493
 1412TIP3    H1 4193   7.014   2.052   2.497
 1412TIP3    H2 4194   6.864   2.029   2.499
 1413TIP3   OH2 4195   5.199   1.836   1.309
 1413TIP3    H1 4196   5.125   1.895   1.319
 1413TIP3    H2 4197   5.162   1.749   1.317
 1414TIP3   OH2 4198   7.631   1.371   5.525
 1414TIP3    H1 4199   7.665   1.330   5.445
 1414TIP3    H2 4200   7.605   1.459   5.497
 1415TIP3   OH2 4201   7.040   1.445   0.034
 1415TIP3    H1 4202   7.039   1.439  -0.061
 1415TIP3    H2 4203   7.125   1.408   0.060
 1416TIP3   OH2 4204   1.060   5.327   5.726
 1416TIP3    H1 4205   1.079   5.331   5.632
 1416TIP3    H2 4206   1.037   5.235   5.742
 1417TIP3   OH2 4207   7.173   1.349   3.341
 1417TIP3    H1 4208   7.267   1.363   3.340
 1417TIP3    H2 4209   7.139   1.402   3.269
 1418TIP3   OH2 4210   4.352   4.034   6.002
 1418TIP3    H1 4211   4.341   4.087   5.923
 1418TIP3    H2 4212   4.307   4.084   6.070
 1419TIP3   OH2 4213   4.934   5.728   2.031
 1419TIP3    H1 4214   4.903   5.689   1.949
 1419TIP3    H2 4215   4.930   5.822   2.016
 1420TIP3   OH2 4216   5.913   3.334   4.643
 1420TIP3    H1 4217   5.824   3.305   4.665
 1420TIP3    H2 4218   5.934   3.400   4.708
 1421TIP3   OH2 4219   2.364   0.641   6.231
 1421TIP3    H1 4220   2.322   0.560   6.259
 1421TIP3    H2 4221   2.457   0.619   6.224
 1422TIP3   OH2 4222   5.668   4.966   3.663
 1422TIP3    H1 4223   5.654   5.013   3.745
 1422TIP3    H2 4224   5.580   4.942   3.633
 1423TIP3   OH2 4225   0.785   3.191   4.850
 1423TIP3    H1 4226   0.697   3.167   4.878
 1423TIP3    H2 4227   0.839   3.114   4.870
 1424TIP3   OH2 4228   4.134   1.508   4.514
 1424TIP3    H1 4229   4.137   1.499   4.610
 1424TIP3    H2 4230   4.051   1.552   4.497
 1425TIP3   OH2 4231   1.772   1.842   6.665
 1425TIP3    H1 4232   1.858   1.875   6.640
 1425TIP3    H2 4233   1.737   1.803   6.585
 1426TIP3   OH2 4234   0.170   2.572   2.660
 1426TIP3    H1 4235   0.080   2.550   2.684
 1426TIP3    H2 4236   0.220   2.559   2.741
 1427TIP3   OH2 4237   0.538   1.260   0.741
 1427TIP3    H1 4238   0.535   1.301   0.828
 1427TIP3    H2 4239   0.552   1.333   0.681
 1428TIP3   OH2 4240   5.939   6.643   1.995
 1428TIP3    H1 4241   5.979   6.565   1.955
 1428TIP3    H2 4242   5.990   6.657   2.075
 1429TIP3   OH2 4243   0.921   7.331   2.380
 1429TIP3    H1 4244   1.006   7.373   2.366
 1429TIP3    H2 4245   0.878   7.334   2.294
 1430TIP3   OH2 4246   1.242   0.281   5.141
 1430TIP3    H1 4247   1.193   0.279   5.059
 1430TIP3    H2 4248   1.333   0.295   5.115
 1431TIP3   OH2 4249   0.169   3.897   2.929
 1431TIP3    H1 4250   0.250   3.877   2.975
 1431TIP3    H2 4251   0.195   3.957   2.859
 1432TIP3   OH2 4252   0.806   2.441   3.940
 1432TIP3    H1 4253   0.854   2.359   3.948
 1432TIP3    H2 4254   0.867   2.500   3.895
 1433TIP3   OH2 4255   4.375   3.118   6.273
 1433TIP3    H1 4256   4.343   3.048   6.330
 1433TIP3    H2 4257   4.298   3.172   6.255
 1434TIP3   OH2 4258   2.606   2.586   2.440
 1434TIP3    H1 4259   2.640   2.676   2.440
 1434TIP3    H2 4260   2.520   2.593   2.398
 1435TIP3   OH2 4261   0.961   3.663   0.039
 1435TIP3    H1 4262   0.987   3.571   0.030
 1435TIP3    H2 4263   1.043   3.712   0.029
 1436TIP3   OH2 4264   0.029   5.019   5.662
 1436TIP3    H1 4265   0.039   5.027   5.757
 1436TIP3    H2 4266   0.064   5.101   5.627
 1437TIP3   OH2 4267   3.171   6.326   2.029
 1437TIP3    H1 4268   3.182   6.269   1.953
 1437TIP3    H2 4269   3.151   6.266   2.101
 1438TIP3   OH2 4270   3.728   1.953   5.165
 1438TIP3    H1 4271   3.727   1.920   5.076
 1438TIP3    H2 4272   3.744   2.047   5.156
 1439TIP3   OH2 4273   4.331   2.336   3.886
 1439TIP3    H1 4274   4.398   2.311   3.950
 1439TIP3    H2 4275   4.268   2.388   3.936
 1440TIP3   OH2 4276   1.929   7.028   4.710
 1440TIP3    H1 4277   1.975   6.944   4.697
 1440TIP3    H2 4278   1.976   7.070   4.781
 1441TIP3   OH2 4279   0.230   5.980   5.517
 1441TIP3    H1 4280   0.267   5.894   5.499
 1441TIP3    H2 4281   0.227   5.985   5.612
 1442TIP3   OH2 4282   6.030   4.413   3.201
 1442TIP3    H1 4283   5.956   4.396   3.259
 1442TIP3    H2 4284   6.085   4.475   3.249
 1443TIP3   OH2 4285   3.163   5.906   6.247
 1443TIP3    H1 4286   3.100   5.923   6.318
 1443TIP3    H2 4287   3.109   5.871   6.176
 1444TIP3   OH2 4288   6.937   7.007   2.136
 1444TIP3    H1 4289   6.842   7.001   2.131
 1444TIP3    H2 4290   6.954   7.074   2.202
 1445TIP3   OH2 4291   7.472   2.160   5.456
 1445TIP3    H1 4292   7.440   2.079   5.496
 1445TIP3    H2 4293   7.469   2.144   5.362
 1446TIP3   OH2 4294   5.602   0.507   2.967
 1446TIP3    H1 4295   5.670   0.504   2.900
 1446TIP3    H2 4296   5.634   0.572   3.030
 1447TIP3   OH2 4297   5.639   5.393   1.647
 1447TIP3    H1 4298   5.655   5.298   1.643
 1447TIP3    H2 4299   5.634   5.420   1.555
 1448TIP3   OH2 4300   7.348   7.349   5.639
 1448TIP3    H1 4301   7.372   7.256   5.633
 1448TIP3    H2 4302   7.335   7.376   5.548
 1449TIP3   OH2 4303   4.723   2.078   5.058
 1449TIP3    H1 4304   4.733   2.038   5.145
 1449TIP3    H2 4305   4.750   2.009   4.998
 1450TIP3   OH2 4306   5.935   3.352   3.820
 1450TIP3    H1 4307   6.012   3.392   3.862
 1450TIP3    H2 4308   5.945   3.372   3.727
 1451TIP3   OH2 4309   3.457   3.505   6.733
 1451TIP3    H1 4310   3.366   3.479   6.747
 1451TIP3    H2 4311   3.460   3.597   6.758
 1452TIP3   OH2 4312   3.425   5.796   2.550
 1452TIP3    H1 4313   3.410   5.773   2.458
 1452TIP3    H2 4314   3.435   5.891   2.549
 1453TIP3   OH2 4315   4.283   5.196   2.973
 1453TIP3    H1 4316   4.206   5.143   2.994
 1453TIP3    H2 4317   4.247   5.283   2.953
 1454TIP3   OH2 4318   1.465   2.357   4.025
 1454TIP3    H1 4319   1.504   2.270   4.040
 1454TIP3    H2 4320   1.504   2.412   4.093
 1455TIP3   OH2 4321   5.654   3.269   5.048
 1455TIP3    H1 4322   5.588   3.338   5.049
 1455TIP3    H2 4323   5.723   3.303   4.990
 1456TIP3   OH2 4324   2.072   6.942   2.168
 1456TIP3    H1 4325   2.114   6.950   2.254
 1456TIP3    H2 4326   1.988   6.901   2.187
 1457TIP3   OH2 4327   3.860   0.583   5.851
 1457TIP3    H1 4328   3.767   0.588   5.871
 1457TIP3    H2 4329   3.866   0.514   5.784
 1458TIP3   OH2 4330   7.133   1.520   1.536
 1458TIP3    H1 4331   7.175   1.585   1.478
 1458TIP3    H2 4332   7.040   1.543   1.534
 1459TIP3   OH2 4333   0.309   7.446   2.341
 1459TIP3    H1 4334   0.349   7.481   2.262
 1459TIP3    H2 4335   0.351   7.361   2.354
 1460TIP3   OH2 4336   4.931   3.473   2.158
 1460TIP3    H1 4337   4.909   3.548   2.104
 1460TIP3    H2 4338   4.862   3.469   2.224
 1461TIP3   OH2 4339   4.874   6.083   5.127
 1461TIP3    H1 4340   4.929   6.057   5.053
 1461TIP3    H2 4341   4.786   6.055   5.103
 1462TIP3   OH2 4342   2.326   5.478   3.536
 1462TIP3    H1 4343   2.306   5.387   3.557
 1462TIP3    H2 4344   2.403   5.474   3.478
 1463TIP3   OH2 4345   7.858   5.063   2.714
 1463TIP3    H1 4346   7.833   5.004   2.785
 1463TIP3    H2 4347   7.782   5.064   2.656
 1464TIP3   OH2 4348   3.111   4.502   5.241
 1464TIP3    H1 4349   3.022   4.470   5.224
 1464TIP3    H2 4350   3.168   4.442   5.192
 1465TIP3   OH2 4351   2.665   0.431   3.491
 1465TIP3    H1 4352   2.660   0.388   3.406
 1465TIP3    H2 4353   2.746   0.399   3.530
 1466TIP3   OH2 4354   6.434   1.321   1.408
 1466TIP3    H1 4355   6.414   1.314   1.314
 1466TIP3    H2 4356   6.527   1.343   1.410
 1467TIP3   OH2 4357   6.750   5.115   3.454
 1467TIP3    H1 4358   6.792   5.163   3.382
 1467TIP3    H2 4359   6.823   5.081   3.505
 1468TIP3   OH2 4360   7.295   7.024   3.154
 1468TIP3    H1 4361   7.362   7.011   3.221
 1468TIP3    H2 4362   7.338   7.078   3.088
 1469TIP3   OH2 4363   1.695   0.769   3.917
 1469TIP3    H1 4364   1.615   0.770   3.865
 1469TIP3    H2 4365   1.761   0.731   3.859
 1470TIP3   OH2 4366   6.274   0.878   4.539
 1470TIP3    H1 4367   6.273   0.783   4.552
 1470TIP3    H2 4368   6.307   0.889   4.450
 1471TIP3   OH2 4369   7.072   7.645   5.625
 1471TIP3    H1 4370   7.044   7.644   5.717
 1471TIP3    H2 4371   7.139   7.714   5.621
 1472TIP3   OH2 4372   2.996   3.912   3.580
 1472TIP3    H1 4373   3.056   3.960   3.523
 1472TIP3    H2 4374   2.915   3.907   3.529
 1473TIP3   OH2 4375   0.769   6.948   5.819
 1473TIP3    H1 4376   0.694   6.906   5.776
 1473TIP3    H2 4377   0.735   7.033   5.848
 1474TIP3   OH2 4378   0.401   2.391   0.185
 1474TIP3    H1 4379   0.438   2.435   0.262
 1474TIP3    H2 4380   0.390   2.300   0.212
 1475TIP3   OH2 4381   1.505   4.882   1.649
 1475TIP3    H1 4382   1.418   4.921   1.638
 1475TIP3    H2 4383   1.553   4.945   1.702
 1476TIP3   OH2 4384   2.637   0.171   1.951
 1476TIP3    H1 4385   2.700   0.101   1.931
 1476TIP3    H2 4386   2.553   0.136   1.922
 1477TIP3   OH2 4387   0.390   3.382   1.124
 1477TIP3    H1 4388   0.427   3.295   1.119
 1477TIP3    H2 4389   0.314   3.380   1.066
 1478TIP3   OH2 4390   4.032   6.870   3.118
 1478TIP3    H1 4391   3.963   6.818   3.160
 1478TIP3    H2 4392   3.986   6.926   3.056
 1479TIP3   OH2 4393   0.880   3.788   1.903
 1479TIP3    H1 4394   0.800   3.753   1.864
 1479TIP3    H2 4395   0.911   3.853   1.840
 1480TIP3   OH2 4396   5.539   3.960   4.166
 1480TIP3    H1 4397   5.587   3.920   4.093
 1480TIP3    H2 4398   5.572   3.915   4.244
 1481TIP3   OH2 4399   4.172   6.180   1.282
 1481TIP3    H1 4400   4.235   6.196   1.352
 1481TIP3    H2 4401   4.211   6.109   1.231
 1482TIP3   OH2 4402   7.800   1.444   6.659
 1482TIP3    H1 4403   7.836   1.496   6.588
 1482TIP3    H2 4404   7.836   1.356   6.644
 1483TIP3   OH2 4405   7.642   4.158   6.600
 1483TIP3    H1 4406   7.709   4.163   6.532
 1483TIP3    H2 4407   7.682   4.104   6.669
 1484TIP3   OH2 4408   6.697   4.148   0.763
 1484TIP3    H1 4409   6.672   4.077   0.822
 1484TIP3    H2 4410   6.677   4.228   0.811
 1485TIP3   OH2 4411   0.600   5.429   1.147
 1485TIP3    H1 4412   0.637   5.434   1.235
 1485TIP3    H2 4413   0.567   5.340   1.139
 1486TIP3   OH2 4414   7.915   0.844   3.076
 1486TIP3    H1 4415   8.004   0.846   3.110
 1486TIP3    H2 4416   7.915   0.770   3.015
 1487TIP3   OH2 4417   4.959   6.300   6.110
 1487TIP3    H1 4418   4.958   6.245   6.031
 1487TIP3    H2 4419   4.902   6.254   6.172
 1488TIP3   OH2 4420   2.013   4.302   3.917
 1488TIP3    H1 4421   1.991   4.252   3.838
 1488TIP3    H2 4422   1.961   4.261   3.987
 1489TIP3   OH2 4423   1.547   1.455   1.770
 1489TIP3    H1 4424   1.584   1.536   1.804
 1489TIP3    H2 4425   1.461   1.481   1.736
 1490TIP3   OH2 4426   8.221   6.553   6.127
 1490TIP3    H1 4427   8.250   6.502   6.203
 1490TIP3    H2 4428   8.257   6.507   6.051
 1491TIP3   OH2 4429   0.295   0.147   6.667
 1491TIP3    H1 4430   0.280   0.060   6.629
 1491TIP3    H2 4431   0.366   0.134   6.729
 1492TIP3   OH2 4432   0.028   7.699   0.142
 1492TIP3    H1 4433   0.042   7.781   0.095
 1492TIP3    H2 4434   0.046   7.721   0.234
 1493TIP3   OH2 4435   2.588   4.688   2.775
 1493TIP3    H1 4436   2.640   4.740   2.836
 1493TIP3    H2 4437   2.601   4.597   2.803
 1494TIP3   OH2 4438   7.521   6.284   2.162
 1494TIP3    H1 4439   7.562   6.198   2.161
 1494TIP3    H2 4440   7.484   6.293   2.250
 1495TIP3   OH2 4441   5.071   2.354   5.943
 1495TIP3    H1 4442   5.149   2.312   5.980
 1495TIP3    H2 4443   5.097   2.381   5.855
 1496TIP3   OH2 4444   6.153   7.657   1.977
 1496TIP3    H1 4445   6.073   7.625   2.019
 1496TIP3    H2 4446   6.214   7.584   1.983
 1497TIP3   OH2 4447   0.389   0.247   2.435
 1497TIP3    H1 4448   0.374   0.154   2.416
 1497TIP3    H2 4449   0.350   0.293   2.360
 1498TIP3   OH2 4450   0.105   6.757   3.301
 1498TIP3    H1 4451   0.132   6.800   3.382
 1498TIP3    H2 4452   0.098   6.828   3.237
 1499TIP3   OH2 4453   6.732   2.320   1.106
 1499TIP3    H1 4454   6.688   2.333   1.190
 1499TIP3    H2 4455   6.824   2.311   1.129
 1500TIP3   OH2 4456   2.120   5.885   5.159
 1500TIP3    H1 4457   2.135   5.791   5.167
 1500TIP3    H2 4458   2.034   5.893   5.118
 1501TIP3   OH2 4459   2.053   0.692   3.331
 1501TIP3    H1 4460   2.111   0.766   3.349
 1501TIP3    H2 4461   2.042   0.693   3.236
 1502TIP3   OH2 4462   3.012   7.478   6.696
 1502TIP3    H1 4463   3.063   7.556   6.677
 1502TIP3    H2 4464   3.064   7.406   6.661
 1503TIP3   OH2 4465   8.190   3.168   4.014
 1503TIP3    H1 4466   8.155   3.210   4.093
 1503TIP3    H2 4467   8.135   3.091   4.001
 1504TIP3   OH2 4468   0.352   0.558   0.276
 1504TIP3    H1 4469   0.425   0.543   0.216
 1504TIP3    H2 4470   0.306   0.633   0.239
 1505TIP3   OH2 4471   4.363   6.450   2.864
 1505TIP3    H1 4472   4.374   6.535   2.906
 1505TIP3    H2 4473   4.350   6.389   2.937
 1506TIP3   OH2 4474   2.523   6.873   0.808
 1506TIP3    H1 4475   2.491   6.814   0.740
 1506TIP3    H2 4476   2.612   6.841   0.827
 1507TIP3   OH2 4477   8.164   0.849   3.185
 1507TIP3    H1 4478   8.221   0.785   3.142
 1507TIP3    H2 4479   8.154   0.816   3.274
 1508TIP3   OH2 4480   6.648   7.794   5.491
 1508TIP3    H1 4481   6.719   7.811   5.554
 1508TIP3    H2 4482   6.690   7.745   5.420
 1509TIP3   OH2 4483   4.374   4.331   3.499
 1509TIP3    H1 4484   4.390   4.240   3.523
 1509TIP3    H2 4485   4.350   4.374   3.581
 1510TIP3   OH2 4486   2.207   0.248   2.903
 1510TIP3    H1 4487   2.285   0.290   2.938
 1510TIP3    H2 4488   2.135   0.306   2.925
 1511TIP3   OH2 4489   7.819   6.231   3.516
 1511TIP3    H1 4490   7.864   6.170   3.457
 1511TIP3    H2 4491   7.726   6.211   3.504
 1512TIP3   OH2 4492   5.992   0.351   1.831
 1512TIP3    H1 4493   6.011   0.279   1.770
 1512TIP3    H2 4494   5.897   0.365   1.823
 1513TIP3   OH2 4495   2.124   4.466   0.605
 1513TIP3    H1 4496   2.191   4.533   0.615
 1513TIP3    H2 4497   2.127   4.443   0.512
 1514TIP3   OH2 4498   3.358   0.239   5.029
 1514TIP3    H1 4499   3.385   0.149   5.007
 1514TIP3    H2 4500   3.435   0.278   5.070
 1515TIP3   OH2 4501   3.417   6.245   4.073
 1515TIP3    H1 4502   3.407   6.338   4.054
 1515TIP3    H2 4503   3.486   6.216   4.013
 1516TIP3   OH2 4504   7.269   6.213   4.894
 1516TIP3    H1 4505   7.289   6.301   4.861
 1516TIP3    H2 4506   7.242   6.228   4.985
 1517TIP3   OH2 4507   0.025   3.162   3.303
 1517TIP3    H1 4508   0.103   3.186   3.253
 1517TIP3    H2 4509   0.060   3.120   3.382
 1518TIP3   OH2 4510   7.948   6.420   5.818
 1518TIP3    H1 4511   7.986   6.376   5.894
 1518TIP3    H2 4512   7.994   6.503   5.812
 1519TIP3   OH2 4513   0.053   0.030   5.300
 1519TIP3    H1 4514   0.144   0.028   5.271
 1519TIP3    H2 4515   0.003   0.005   5.223
 1520TIP3   OH2 4516   3.093   3.642   0.019
 1520TIP3    H1 4517   3.058   3.696   0.090
 1520TIP3    H2 4518   3.181   3.677   0.003
 1521TIP3   OH2 4519   1.955   0.239   0.932
 1521TIP3    H1 4520   1.976   0.199   1.016
 1521TIP3    H2 4521   1.889   0.305   0.952
 1522TIP3   OH2 4522   6.030   0.764   0.294
 1522TIP3    H1 4523   6.023   0.683   0.243
 1522TIP3    H2 4524   6.113   0.756   0.340
 1523TIP3   OH2 4525   7.317   4.051   3.231
 1523TIP3    H1 4526   7.227   4.050   3.199
 1523TIP3    H2 4527   7.370   4.074   3.155
 1524TIP3   OH2 4528   4.518   5.294   0.517
 1524TIP3    H1 4529   4.591   5.232   0.515
 1524TIP3    H2 4530   4.558   5.377   0.542
 1525TIP3   OH2 4531   1.108   4.899   2.140
 1525TIP3    H1 4532   1.031   4.902   2.197
 1525TIP3    H2 4533   1.093   4.823   2.084
 1526TIP3   OH2 4534   3.876   2.661   6.681
 1526TIP3    H1 4535   3.785   2.643   6.706
 1526TIP3    H2 4536   3.912   2.576   6.657
 1527TIP3   OH2 4537   3.663   6.554   1.543
 1527TIP3    H1 4538   3.629   6.466   1.528
 1527TIP3    H2 4539   3.648   6.571   1.636
 1528TIP3   OH2 4540   3.575   0.163   2.729
 1528TIP3    H1 4541   3.492   0.174   2.682
 1528TIP3    H2 4542   3.621   0.094   2.682
 1529TIP3   OH2 4543   1.725   0.356   3.403
 1529TIP3    H1 4544   1.790   0.299   3.362
 1529TIP3    H2 4545   1.758   0.371   3.491
 1530TIP3   OH2 4546   0.227   0.410   6.424
 1530TIP3    H1 4547   0.143   0.426   6.468
 1530TIP3    H2 4548   0.214   0.442   6.335
 1531TIP3   OH2 4549   4.829   2.483   1.586
 1531TIP3    H1 4550   4.745   2.484   1.632
 1531TIP3    H2 4551   4.889   2.531   1.645
 1532TIP3   OH2 4552   2.737   4.052   2.803
 1532TIP3    H1 4553   2.821   4.016   2.775
 1532TIP3    H2 4554   2.719   4.011   2.888
 1533TIP3   OH2 4555   4.208   6.270   0.595
 1533TIP3    H1 4556   4.240   6.293   0.508
 1533TIP3    H2 4557   4.233   6.178   0.607
 1534TIP3   OH2 4558   0.082   3.632   3.883
 1534TIP3    H1 4559   0.092   3.632   3.788
 1534TIP3    H2 4560   0.000   3.587   3.899
 1535TIP3   OH2 4561   7.259   6.005   6.038
 1535TIP3    H1 4562   7.302   6.032   6.119
 1535TIP3    H2 4563   7.217   5.922   6.059
 1536TIP3   OH2 4564   4.213   2.440   1.486
 1536TIP3    H1 4565   4.149   2.428   1.557
 1536TIP3    H2 4566   4.165   2.489   1.420
 1537TIP3   OH2 4567   6.235   2.052   5.790
 1537TIP3    H1 4568   6.329   2.037   5.791
 1537TIP3    H2 4569   6.215   2.087   5.877
 1538TIP3   OH2 4570   1.234   4.200   2.074
 1538TIP3    H1 4571   1.299   4.258   2.114
 1538TIP3    H2 4572   1.206   4.144   2.146
 1539TIP3   OH2 4573   5.245   7.256   3.536
 1539TIP3    H1 4574   5.175   7.273   3.473
 1539TIP3    H2 4575   5.268   7.164   3.521
 1540TIP3   OH2 4576   6.965   1.487   2.744
 1540TIP3    H1 4577   6.951   1.576   2.712
 1540TIP3    H2 4578   6.876   1.454   2.760
 1541TIP3   OH2 4579   2.183   6.521   6.660
 1541TIP3    H1 4580   2.139   6.598   6.624
 1541TIP3    H2 4581   2.113   6.472   6.704
 1542TIP3   OH2 4582   2.189   0.716   1.822
 1542TIP3    H1 4583   2.258   0.771   1.785
 1542TIP3    H2 4584   2.188   0.738   1.915
 1543TIP3   OH2 4585   6.635   7.716   6.772
 1543TIP3    H1 4586   6.656   7.642   6.715
 1543TIP3    H2 4587   6.571   7.682   6.835
 1544TIP3   OH2 4588   4.610   6.392   0.123
 1544TIP3    H1 4589   4.608   6.353   0.211
 1544TIP3    H2 4590   4.527   6.366   0.083
 1545TIP3   OH2 4591   6.099   7.458   3.868
 1545TIP3    H1 4592   6.041   7.392   3.832
 1545TIP3    H2 4593   6.094   7.445   3.963
 1546TIP3   OH2 4594   5.101   3.231   4.964
 1546TIP3    H1 4595   5.058   3.172   5.025
 1546TIP3    H2 4596   5.031   3.288   4.932
 1547TIP3   OH2 4597   5.606   7.221   1.010
 1547TIP3    H1 4598   5.524   7.182   0.980
 1547TIP3    H2 4599   5.669   7.149   1.007
 1548TIP3   OH2 4600   7.001   1.168   5.726
 1548TIP3    H1 4601   6.908   1.174   5.749
 1548TIP3    H2 4602   7.008   1.217   5.644
 1549TIP3   OH2 4603   5.488   6.913   3.643
 1549TIP3    H1 4604   5.473   6.821   3.665
 1549TIP3    H2 4605   5.405   6.943   3.606
 1550TIP3   OH2 4606   6.914   3.060   0.673
 1550TIP3    H1 4607   6.946   3.067   0.583
 1550TIP3    H2 4608   6.828   3.019   0.664
 1551TIP3   OH2 4609   1.291   7.147  -0.003
 1551TIP3    H1 4610   1.236   7.143   0.075
 1551TIP3    H2 4611   1.229   7.147  -0.076
 1552TIP3   OH2 4612   7.644   3.806   5.825
 1552TIP3    H1 4613   7.566   3.815   5.772
 1552TIP3    H2 4614   7.617   3.748   5.897
 1553TIP3   OH2 4615   3.174   6.973   2.915
 1553TIP3    H1 4616   3.143   7.048   2.864
 1553TIP3    H2 4617   3.094   6.926   2.939
 1554TIP3   OH2 4618   7.150   6.096   5.638
 1554TIP3    H1 4619   7.105   6.101   5.722
 1554TIP3    H2 4620   7.228   6.043   5.656
 1555TIP3   OH2 4621   6.848   4.718   3.844
 1555TIP3    H1 4622   6.761   4.734   3.881
 1555TIP3    H2 4623   6.892   4.665   3.910
 1556TIP3   OH2 4624   6.718   1.330   2.705
 1556TIP3    H1 4625   6.660   1.369   2.640
 1556TIP3    H2 4626   6.660   1.288   2.768
 1557TIP3   OH2 4627   1.698   5.877   3.034
 1557TIP3    H1 4628   1.716   5.897   2.942
 1557TIP3    H2 4629   1.603   5.878   3.041
 1558TIP3   OH2 4630   0.263   7.503   4.733
 1558TIP3    H1 4631   0.340   7.474   4.782
 1558TIP3    H2 4632   0.255   7.440   4.661
 1559TIP3   OH2 4633   1.566   3.749   0.743
 1559TIP3    H1 4634   1.539   3.756   0.651
 1559TIP3    H2 4635   1.491   3.710   0.787
 1560TIP3   OH2 4636   3.979   5.551   4.286
 1560TIP3    H1 4637   3.998   5.644   4.299
 1560TIP3    H2 4638   4.060   5.514   4.251
 1561TIP3   OH2 4639   5.688   4.296   2.008
 1561TIP3    H1 4640   5.635   4.341   1.942
 1561TIP3    H2 4641   5.625   4.268   2.075
 1562TIP3   OH2 4642   2.640   7.297   0.581
 1562TIP3    H1 4643   2.595   7.307   0.665
 1562TIP3    H2 4644   2.687   7.379   0.570
 1563TIP3   OH2 4645   3.496   1.186   0.531
 1563TIP3    H1 4646   3.556   1.130   0.482
 1563TIP3    H2 4647   3.453   1.240   0.464
 1564TIP3   OH2 4648   0.342   2.052   5.719
 1564TIP3    H1 4649   0.375   2.137   5.749
 1564TIP3    H2 4650   0.382   1.989   5.779
 1565TIP3   OH2 4651   8.037   7.603   3.323
 1565TIP3    H1 4652   8.112   7.572   3.375
 1565TIP3    H2 4653   8.074   7.669   3.266
 1566TIP3   OH2 4654   5.244   0.332   1.291
 1566TIP3    H1 4655   5.310   0.279   1.246
 1566TIP3    H2 4656   5.182   0.355   1.222
 1567TIP3   OH2 4657   1.979   1.700   1.417
 1567TIP3    H1 4658   2.019   1.774   1.462
 1567TIP3    H2 4659   1.895   1.734   1.385
 1568TIP3   OH2 4660   8.199   0.733   5.348
 1568TIP3    H1 4661   8.259   0.805   5.369
 1568TIP3    H2 4662   8.213   0.669   5.417
 1569TIP3   OH2 4663   6.558   2.572   6.059
 1569TIP3    H1 4664   6.477   2.618   6.039
 1569TIP3    H2 4665   6.627   2.629   6.023
 1570TIP3   OH2 4666   5.911   4.821   2.144
 1570TIP3    H1 4667   5.948   4.745   2.100
 1570TIP3    H2 4668   5.817   4.806   2.145
 1571TIP3   OH2 4669   7.940   3.177   5.925
 1571TIP3    H1 4670   7.933   3.269   5.897
 1571TIP3    H2 4671   7.851   3.154   5.953
 1572TIP3   OH2 4672   7.279   0.219   0.561
 1572TIP3    H1 4673   7.359   0.197   0.513
 1572TIP3    H2 4674   7.210   0.170   0.516
 1573TIP3   OH2 4675   0.971   6.507   3.613
 1573TIP3    H1 4676   1.053   6.486   3.657
 1573TIP3    H2 4677   0.913   6.434   3.635
 1574TIP3   OH2 4678   7.889   2.483   4.637
 1574TIP3    H1 4679   7.979   2.482   4.605
 1574TIP3    H2 4680   7.875   2.395   4.673
 1575TIP3   OH2 4681   7.925   6.306   3.196
 1575TIP3    H1 4682   7.923   6.212   3.216
 1575TIP3    H2 4683   7.975   6.312   3.115
 1576TIP3   OH2 4684   7.636   3.843   4.184
 1576TIP3    H1 4685   7.708   3.824   4.124
 1576TIP3    H2 4686   7.574   3.772   4.169
 1577TIP3   OH2 4687   0.874   4.128   5.627
 1577TIP3    H1 4688   0.910   4.150   5.713
 1577TIP3    H2 4689   0.847   4.213   5.591
 1578TIP3   OH2 4690   6.630   5.554   1.286
 1578TIP3    H1 4691   6.535   5.559   1.279
 1578TIP3    H2 4692   6.654   5.477   1.234
 1579TIP3   OH2 4693   0.710   1.874   0.760
 1579TIP3    H1 4694   0.745   1.866   0.849
 1579TIP3    H2 4695   0.629   1.822   0.762
 1580TIP3   OH2 4696   3.954   3.391   4.940
 1580TIP3    H1 4697   3.976   3.430   5.025
 1580TIP3    H2 4698   4.025   3.420   4.882
 1581TIP3   OH2 4699   0.510   5.188   0.923
 1581TIP3    H1 4700   0.555   5.114   0.964
 1581TIP3    H2 4701   0.434   5.150   0.879
 1582TIP3   OH2 4702   3.580   0.099   3.226
 1582TIP3    H1 4703   3.563   0.056   3.309
 1582TIP3    H2 4704   3.635   0.174   3.249
 1583TIP3   OH2 4705   3.794   3.358   3.540
 1583TIP3    H1 4706   3.861   3.302   3.501
 1583TIP3    H2 4707   3.768   3.312   3.620
 1584TIP3   OH2 4708   6.711   7.058   6.701
 1584TIP3    H1 4709   6.653   7.135   6.700
 1584TIP3    H2 4710   6.717   7.034   6.793
 1585TIP3   OH2 4711   1.578   1.503   1.352
 1585TIP3    H1 4712   1.577   1.450   1.273
 1585TIP3    H2 4713   1.632   1.454   1.413
 1586TIP3   OH2 4714   5.728   7.330   5.288
 1586TIP3    H1 4715   5.680   7.413   5.293
 1586TIP3    H2 4716   5.665   7.264   5.318
 1587TIP3   OH2 4717   6.463   2.340   2.343
 1587TIP3    H1 4718   6.434   2.307   2.428
 1587TIP3    H2 4719   6.558   2.326   2.343
 1588TIP3   OH2 4720   4.065   4.389   4.062
 1588TIP3    H1 4721   4.096   4.456   4.001
 1588TIP3    H2 4722   4.038   4.316   4.006
 1589TIP3   OH2 4723   5.078   2.123   0.693
 1589TIP3    H1 4724   5.170   2.149   0.685
 1589TIP3    H2 4725   5.042   2.135   0.606
 1590TIP3   OH2 4726   2.341   2.775   2.044
 1590TIP3    H1 4727   2.268   2.784   1.983
 1590TIP3    H2 4728   2.394   2.853   2.031
 1591TIP3   OH2 4729   4.607   6.019   1.540
 1591TIP3    H1 4730   4.560   6.031   1.458
 1591TIP3    H2 4731   4.687   6.070   1.530
 1592TIP3   OH2 4732   3.311   2.371   6.354
 1592TIP3    H1 4733   3.263   2.447   6.387
 1592TIP3    H2 4734   3.305   2.378   6.259
 1593TIP3   OH2 4735   5.860   3.770   6.723
 1593TIP3    H1 4736   5.862   3.811   6.809
 1593TIP3    H2 4737   5.946   3.729   6.713
 1594TIP3   OH2 4738   4.480   5.900   3.277
 1594TIP3    H1 4739   4.473   5.805   3.275
 1594TIP3    H2 4740   4.548   5.918   3.342
 1595TIP3   OH2 4741   7.983   1.478   5.053
 1595TIP3    H1 4742   8.070   1.517   5.054
 1595TIP3    H2 4743   7.997   1.389   5.087
 1596TIP3   OH2 4744   8.188   3.685   4.341
 1596TIP3    H1 4745   8.243   3.638   4.403
 1596TIP3    H2 4746   8.246   3.707   4.269
 1597TIP3   OH2 4747   2.620   4.526   2.510
 1597TIP3    H1 4748   2.664   4.608   2.530
 1597TIP3    H2 4749   2.639   4.469   2.585
 1598TIP3   OH2 4750   0.836   4.957   2.296
 1598TIP3    H1 4751   0.795   4.884   2.250
 1598TIP3    H2 4752   0.797   5.036   2.257
 1599TIP3   OH2 4753   3.072   1.520   0.869
 1599TIP3    H1 4754   2.990   1.567   0.886
 1599TIP3    H2 4755   3.048   1.428   0.877
 1600TIP3   OH2 4756   0.628   0.649   6.398
 1600TIP3    H1 4757   0.604   0.557   6.397
 1600TIP3    H2 4758   0.609   0.680   6.309
 1601TIP3   OH2 4759   4.660   5.993   4.128
 1601TIP3    H1 4760   4.684   6.085   4.119
 1601TIP3    H2 4761   4.664   5.977   4.222
 1602TIP3   OH2 4762   5.142   1.876   3.907
 1602TIP3    H1 4763   5.202   1.907   3.974
 1602TIP3    H2 4764   5.103   1.796   3.944
 1603TIP3   OH2 4765   0.389   4.833   1.805
 1603TIP3    H1 4766   0.421   4.761   1.751
 1603TIP3    H2 4767   0.457   4.900   1.800
 1604TIP3   OH2 4768   7.176   6.381   3.208
 1604TIP3    H1 4769   7.258   6.364   3.255
 1604TIP3    H2 4770   7.185   6.334   3.126
 1605TIP3   OH2 4771   5.312   2.070   0.378
 1605TIP3    H1 4772   5.336   2.162   0.391
 1605TIP3    H2 4773   5.332   2.028   0.461
 1606TIP3   OH2 4774   3.192   7.768   5.806
 1606TIP3    H1 4775   3.117   7.777   5.864
 1606TIP3    H2 4776   3.203   7.856   5.768
 1607TIP3   OH2 4777   3.071   1.548   2.183
 1607TIP3    H1 4778   3.023   1.628   2.205
 1607TIP3    H2 4779   3.163   1.572   2.195
 1608TIP3   OH2 4780   0.858   2.943   4.976
 1608TIP3    H1 4781   0.899   2.858   4.959
 1608TIP3    H2 4782   0.788   2.924   5.038
 1609TIP3   OH2 4783   8.245   7.290   1.869
 1609TIP3    H1 4784   8.315   7.308   1.806
 1609TIP3    H2 4785   8.285   7.308   1.954
 1610TIP3   OH2 4786   3.894   4.898   2.938
 1610TIP3    H1 4787   3.956   4.943   2.995
 1610TIP3    H2 4788   3.809   4.910   2.982
 1611TIP3   OH2 4789   4.443   5.426   1.840
 1611TIP3    H1 4790   4.383   5.363   1.801
 1611TIP3    H2 4791   4.510   5.372   1.883
 1612TIP3   OH2 4792   3.772   2.511   5.646
 1612TIP3    H1 4793   3.855   2.557   5.643
 1612TIP3    H2 4794   3.789   2.436   5.703
 1613TIP3   OH2 4795   2.277   2.457   4.835
 1613TIP3    H1 4796   2.220   2.526   4.802
 1613TIP3    H2 4797   2.311   2.414   4.756
 1614TIP3   OH2 4798   7.819   4.851   2.898
 1614TIP3    H1 4799   7.842   4.779   2.956
 1614TIP3    H2 4800   7.779   4.809   2.822
 1615TIP3   OH2 4801   6.920   7.103  -0.009
 1615TIP3    H1 4802   6.995   7.080  -0.064
 1615TIP3    H2 4803   6.956   7.161   0.058
 1616TIP3   OH2 4804   1.967   4.330   3.174
 1616TIP3    H1 4805   1.882   4.287   3.187
 1616TIP3    H2 4806   2.004   4.337   3.262
 1617TIP3   OH2 4807   4.575   3.799   0.797
 1617TIP3    H1 4808   4.569   3.708   0.825
 1617TIP3    H2 4809   4.592   3.793   0.703
 1618TIP3   OH2 4810   2.891   0.529   5.332
 1618TIP3    H1 4811   2.810   0.539   5.283
 1618TIP3    H2 4812   2.909   0.616   5.368
 1619TIP3   OH2 4813   7.963   1.804   0.718
 1619TIP3    H1 4814   7.891   1.774   0.661
 1619TIP3    H2 4815   7.929   1.793   0.807
 1620TIP3   OH2 4816   1.476   0.426   3.045
 1620TIP3    H1 4817   1.463   0.348   3.098
 1620TIP3    H2 4818   1.395   0.435   2.994
 1621TIP3   OH2 4819   5.616   4.510   2.428
 1621TIP3    H1 4820   5.641   4.591   2.474
 1621TIP3    H2 4821   5.698   4.466   2.409
 1622TIP3   OH2 4822   2.968   3.924   1.117
 1622TIP3    H1 4823   2.973   3.883   1.203
 1622TIP3    H2 4824   2.964   3.851   1.056
 1623TIP3   OH2 4825   6.085   0.268   2.893
 1623TIP3    H1 4826   6.059   0.344   2.945
 1623TIP3    H2 4827   6.004   0.237   2.853
 1624TIP3   OH2 4828   6.451   0.620   5.260
 1624TIP3    H1 4829   6.457   0.541   5.206
 1624TIP3    H2 4830   6.360   0.622   5.290
 1625TIP3   OH2 4831   7.465   7.449   6.103
 1625TIP3    H1 4832   7.393   7.461   6.041
 1625TIP3    H2 4833   7.430   7.476   6.187
 1626TIP3   OH2 4834   1.074   0.975   1.179
 1626TIP3    H1 4835   1.097   1.066   1.159
 1626TIP3    H2 4836   1.041   0.939   1.097
 1627TIP3   OH2 4837   7.527   7.582   5.406
 1627TIP3    H1 4838   7.584   7.598   5.330
 1627TIP3    H2 4839   7.452   7.536   5.369
 1628TIP3   OH2 4840   5.197   4.357   1.423
 1628TIP3    H1 4841   5.202   4.262   1.422
 1628TIP3    H2 4842   5.234   4.384   1.339
 1629TIP3   OH2 4843   0.616   5.474   0.177
 1629TIP3    H1 4844   0.635   5.381   0.193
 1629TIP3    H2 4845   0.524   5.475   0.153
 1630TIP3   OH2 4846   7.301   4.565   5.392
 1630TIP3    H1 4847   7.290   4.470   5.395
 1630TIP3    H2 4848   7.394   4.577   5.372
 1631TIP3   OH2 4849   3.406   2.879   3.233
 1631TIP3    H1 4850   3.424   2.856   3.142
 1631TIP3    H2 4851   3.416   2.974   3.236
 1632TIP3   OH2 4852   6.472   6.369   6.055
 1632TIP3    H1 4853   6.402   6.365   5.990
 1632TIP3    H2 4854   6.508   6.280   6.057
 1633TIP3   OH2 4855   4.841   1.447   0.399
 1633TIP3    H1 4856   4.867   1.375   0.457
 1633TIP3    H2 4857   4.835   1.523   0.455
 1634TIP3   OH2 4858   4.289   0.835   0.459
 1634TIP3    H1 4859   4.238   0.755   0.453
 1634TIP3    H2 4860   4.309   0.844   0.553
 1635TIP3   OH2 4861   5.954   0.457   4.753
 1635TIP3    H1 4862   5.895   0.459   4.678
 1635TIP3    H2 4863   5.920   0.524   4.813
 1636TIP3   OH2 4864   1.513   3.298   3.804
 1636TIP3    H1 4865   1.558   3.378   3.778
 1636TIP3    H2 4866   1.535   3.234   3.736
 1637TIP3   OH2 4867   5.915   0.414   3.130
 1637TIP3    H1 4868   5.901   0.501   3.092
 1637TIP3    H2 4869   5.951   0.431   3.217
 1638TIP3   OH2 4870   7.986   1.577   3.633
 1638TIP3    H1 4871   7.917   1.529   3.679
 1638TIP3    H2 4872   8.015   1.518   3.564
 1639TIP3   OH2 4873   6.505   0.468   6.182
 1639TIP3    H1 4874   6.534   0.516   6.104
 1639TIP3    H2 4875   6.484   0.381   6.149
 1640TIP3   OH2 4876   7.906   5.423   5.055
 1640TIP3    H1 4877   7.823   5.379   5.036
 1640TIP3    H2 4878   7.922   5.477   4.978
 1641TIP3   OH2 4879   4.541   3.709   4.355
 1641TIP3    H1 4880   4.556   3.799   4.382
 1641TIP3    H2 4881   4.596   3.656   4.413
 1642TIP3   OH2 4882   5.256   7.700   4.220
 1642TIP3    H1 4883   5.324   7.764   4.199
 1642TIP3    H2 4884   5.201   7.745   4.285
 1643TIP3   OH2 4885   0.643   0.081   5.067
 1643TIP3    H1 4886   0.705   0.009   5.083
 1643TIP3    H2 4887   0.582   0.046   5.002
 1644TIP3   OH2 4888   2.711   1.343   2.334
 1644TIP3    H1 4889   2.709   1.299   2.419
 1644TIP3    H2 4890   2.644   1.298   2.282
 1645TIP3   OH2 4891   4.679   1.511   5.658
 1645TIP3    H1 4892   4.609   1.478   5.600
 1645TIP3    H2 4893   4.663   1.468   5.742
 1646TIP3   OH2 4894   1.739   6.977   2.911
 1646TIP3    H1 4895   1.718   6.912   2.844
 1646TIP3    H2 4896   1.660   7.031   2.918
 1647TIP3   OH2 4897   7.430   1.382   0.355
 1647TIP3    H1 4898   7.365   1.398   0.287
 1647TIP3    H2 4899   7.475   1.466   0.365
 1648TIP3   OH2 4900   8.137   2.632   5.817
 1648TIP3    H1 4901   8.078   2.696   5.776
 1648TIP3    H2 4902   8.219   2.641   5.768
 1649TIP3   OH2 4903   5.169   4.157   5.138
 1649TIP3    H1 4904   5.154   4.068   5.170
 1649TIP3    H2 4905   5.129   4.213   5.204
 1650TIP3   OH2 4906   3.462   4.640   5.594
 1650TIP3    H1 4907   3.400   4.640   5.667
 1650TIP3    H2 4908   3.414   4.678   5.521
 1651TIP3   OH2 4909   5.357   5.302   2.060
 1651TIP3    H1 4910   5.347   5.329   2.151
 1651TIP3    H2 4911   5.276   5.254   2.039
 1652TIP3   OH2 4912   4.580   7.301   1.762
 1652TIP3    H1 4913   4.524   7.376   1.746
 1652TIP3    H2 4914   4.552   7.268   1.847
 1653TIP3   OH2 4915   6.790   4.837   3.592
 1653TIP3    H1 4916   6.810   4.795   3.675
 1653TIP3    H2 4917   6.869   4.886   3.569
 1654TIP3   OH2 4918   0.527   2.929   4.175
 1654TIP3    H1 4919   0.620   2.937   4.195
 1654TIP3    H2 4920   0.502   3.015   4.143
 1655TIP3   OH2 4921   7.790   3.245   0.248
 1655TIP3    H1 4922   7.704   3.224   0.284
 1655TIP3    H2 4923   7.772   3.302   0.173
 1656TIP3   OH2 4924   3.180   5.607   5.339
 1656TIP3    H1 4925   3.136   5.674   5.287
 1656TIP3    H2 4926   3.136   5.525   5.315
 1657TIP3   OH2 4927   6.997   6.911   3.834
 1657TIP3    H1 4928   7.064   6.849   3.804
 1657TIP3    H2 4929   6.933   6.858   3.881
 1658TIP3   OH2 4930   1.226   6.509   4.711
 1658TIP3    H1 4931   1.185   6.573   4.653
 1658TIP3    H2 4932   1.308   6.486   4.667
 1659TIP3   OH2 4933   6.295   6.470   4.030
 1659TIP3    H1 4934   6.203   6.493   4.017
 1659TIP3    H2 4935   6.326   6.448   3.943
 1660TIP3   OH2 4936   7.372   1.202   5.230
 1660TIP3    H1 4937   7.357   1.183   5.323
 1660TIP3    H2 4938   7.398   1.118   5.192
 1661TIP3   OH2 4939   3.196   6.327   3.191
 1661TIP3    H1 4940   3.143   6.368   3.260
 1661TIP3    H2 4941   3.163   6.364   3.110
 1662TIP3   OH2 4942   2.233   1.515   6.365
 1662TIP3    H1 4943   2.273   1.493   6.449
 1662TIP3    H2 4944   2.140   1.521   6.384
 1663TIP3   OH2 4945   5.444   1.803   1.563
 1663TIP3    H1 4946   5.509   1.870   1.582
 1663TIP3    H2 4947   5.362   1.851   1.549
 1664TIP3   OH2 4948   8.112   1.649   2.830
 1664TIP3    H1 4949   8.204   1.656   2.856
 1664TIP3    H2 4950   8.082   1.740   2.827
 1665TIP3   OH2 4951   0.927   3.573   4.188
 1665TIP3    H1 4952   1.022   3.571   4.203
 1665TIP3    H2 4953   0.896   3.644   4.244
 1666TIP3   OH2 4954   6.689   2.273   6.717
 1666TIP3    H1 4955   6.740   2.285   6.637
 1666TIP3    H2 4956   6.664   2.181   6.716
 1667TIP3   OH2 4957   1.895   0.129   1.524
 1667TIP3    H1 4958   1.848   0.125   1.441
 1667TIP3    H2 4959   1.987   0.137   1.499
 1668TIP3   OH2 4960   6.810   4.972   4.428
 1668TIP3    H1 4961   6.901   5.002   4.419
 1668TIP3    H2 4962   6.815   4.904   4.495
 1669TIP3   OH2 4963   8.187   5.596   5.112
 1669TIP3    H1 4964   8.161   5.560   5.028
 1669TIP3    H2 4965   8.282   5.584   5.116
 1670TIP3   OH2 4966   5.015   2.239   1.861
 1670TIP3    H1 4967   5.109   2.249   1.872
 1670TIP3    H2 4968   5.004   2.219   1.768
 1671TIP3   OH2 4969   0.204   1.256   4.061
 1671TIP3    H1 4970   0.285   1.256   4.111
 1671TIP3    H2 4971   0.164   1.171   4.080
 1672TIP3   OH2 4972   4.394   4.641   6.377
 1672TIP3    H1 4973   4.338   4.673   6.306
 1672TIP3    H2 4974   4.342   4.654   6.456
 1673TIP3   OH2 4975   2.584   6.318   6.721
 1673TIP3    H1 4976   2.500   6.342   6.681
 1673TIP3    H2 4977   2.625   6.260   6.656
 1674TIP3   OH2 4978   7.563   5.351   1.360
 1674TIP3    H1 4979   7.497   5.313   1.418
 1674TIP3    H2 4980   7.639   5.295   1.370
 1675TIP3   OH2 4981   6.153   5.379   4.121
 1675TIP3    H1 4982   6.151   5.291   4.159
 1675TIP3    H2 4983   6.213   5.373   4.047
 1676TIP3   OH2 4984   7.623   1.264   6.217
 1676TIP3    H1 4985   7.655   1.202   6.151
 1676TIP3    H2 4986   7.691   1.263   6.285
 1677TIP3   OH2 4987   4.517   3.340   4.330
 1677TIP3    H1 4988   4.431   3.366   4.362
 1677TIP3    H2 4989   4.499   3.273   4.264
 1678TIP3   OH2 4990   3.724   1.628   5.762
 1678TIP3    H1 4991   3.729   1.623   5.857
 1678TIP3    H2 4992   3.806   1.669   5.735
 1679TIP3   OH2 4993   4.567   7.045   3.089
 1679TIP3    H1 4994   4.510   6.983   3.135
 1679TIP3    H2 4995   4.651   7.039   3.134
 1680TIP3   OH2 4996   2.730   6.944   5.124
 1680TIP3    H1 4997   2.816   6.903   5.112
 1680TIP3    H2 4998   2.672   6.891   5.069
 1681TIP3   OH2 4999   7.061   4.619   5.948
 1681TIP3    H1 5000   7.023   4.706   5.957
 1681TIP3    H2 5001   7.109   4.604   6.029
 1682TIP3   OH2 5002   0.161   3.715   0.788
 1682TIP3    H1 5003   0.120   3.705   0.703
 1682TIP3    H2 5004   0.117   3.790   0.828
 1683TIP3   OH2 5005   1.276   6.874   5.363
 1683TIP3    H1 5006   1.360   6.876   5.316
 1683TIP3    H2 5007   1.301   6.886   5.455
 1684TIP3   OH2 5008   4.746   4.679   1.270
 1684TIP3    H1 5009   4.819   4.624   1.297
 1684TIP3    H2 5010   4.696   4.625   1.209
 1685TIP3   OH2 5011   2.815   4.488   1.967
 1685TIP3    H1 5012   2.827   4.583   1.960
 1685TIP3    H2 5013   2.723   4.478   1.993
 1686TIP3   OH2 5014   0.275   6.530   0.801
 1686TIP3    H1 5015   0.286   6.574   0.885
 1686TIP3    H2 5016   0.325   6.449   0.810
 1687TIP3   OH2 5017   7.603   5.256   4.149
 1687TIP3    H1 5018   7.633   5.178   4.102
 1687TIP3    H2 5019   7.508   5.257   4.135
 1688TIP3   OH2 5020   5.356   4.267   5.924
 1688TIP3    H1 5021   5.270   4.303   5.902
 1688TIP3    H2 5022   5.341   4.215   6.003
 1689TIP3   OH2 5023   0.574   1.685   5.203
 1689TIP3    H1 5024   0.562   1.619   5.135
 1689TIP3    H2 5025   0.669   1.686   5.219
 1690TIP3   OH2 5026   2.425   4.226   0.780
 1690TIP3    H1 5027   2.473   4.309   0.771
 1690TIP3    H2 5028   2.362   4.227   0.708
 1691TIP3   OH2 5029   0.529   0.003   0.413
 1691TIP3    H1 5030   0.521  -0.010   0.319
 1691TIP3    H2 5031   0.447   0.046   0.438
 1692TIP3   OH2 5032   1.389   5.802   3.516
 1692TIP3    H1 5033   1.455   5.777   3.451
 1692TIP3    H2 5034   1.309   5.760   3.486
 1693TIP3   OH2 5035   0.155   3.951   5.596
 1693TIP3    H1 5036   0.127   4.035   5.633
 1693TIP3    H2 5037   0.119   3.885   5.655
 1694TIP3   OH2 5038   0.840   5.380   2.400
 1694TIP3    H1 5039   0.915   5.320   2.404
 1694TIP3    H2 5040   0.862   5.441   2.330
 1695TIP3   OH2 5041   7.168   5.129   2.225
 1695TIP3    H1 5042   7.112   5.207   2.232
 1695TIP3    H2 5043   7.235   5.154   2.161
 1696TIP3   OH2 5044   2.505   3.544   6.487
 1696TIP3    H1 5045   2.433   3.491   6.450
 1696TIP3    H2 5046   2.518   3.614   6.424
 1697TIP3   OH2 5047   2.760   7.146   3.877
 1697TIP3    H1 5048   2.763   7.063   3.924
 1697TIP3    H2 5049   2.711   7.127   3.797
 1698TIP3   OH2 5050   5.425   0.092   2.264
 1698TIP3    H1 5051   5.479   0.018   2.238
 1698TIP3    H2 5052   5.488   0.155   2.301
 1699TIP3   OH2 5053   7.878   2.398   6.709
 1699TIP3    H1 5054   7.917   2.449   6.638
 1699TIP3    H2 5055   7.938   2.408   6.782
 1700TIP3   OH2 5056   5.579   4.706   3.959
 1700TIP3    H1 5057   5.600   4.618   3.991
 1700TIP3    H2 5058   5.489   4.721   3.986
 1701TIP3   OH2 5059   7.113   3.455   2.462
 1701TIP3    H1 5060   7.070   3.538   2.442
 1701TIP3    H2 5061   7.206   3.471   2.442
 1702TIP3   OH2 5062   5.361   5.178   6.337
 1702TIP3    H1 5063   5.279   5.164   6.384
 1702TIP3    H2 5064   5.427   5.133   6.389
 1703TIP3   OH2 5065   4.689   3.509   0.544
 1703TIP3    H1 5066   4.770   3.515   0.595
 1703TIP3    H2 5067   4.649   3.427   0.573
 1704TIP3   OH2 5068   2.463   2.430   3.137
 1704TIP3    H1 5069   2.534   2.463   3.193
 1704TIP3    H2 5070   2.454   2.496   3.068
 1705TIP3   OH2 5071   6.778   5.132   4.964
 1705TIP3    H1 5072   6.728   5.058   4.997
 1705TIP3    H2 5073   6.712   5.194   4.932
 1706TIP3   OH2 5074   0.958   5.884   2.661
 1706TIP3    H1 5075   0.967   5.947   2.733
 1706TIP3    H2 5076   0.961   5.798   2.704
 1707TIP3   OH2 5077   8.284   6.771   4.831
 1707TIP3    H1 5078   8.301   6.696   4.774
 1707TIP3    H2 5079   8.197   6.754   4.868
 1708TIP3   OH2 5080   3.037   3.753   0.282
 1708TIP3    H1 5081   3.030   3.848   0.279
 1708TIP3    H2 5082   3.081   3.735   0.366
 1709TIP3   OH2 5083   7.466   0.436   0.569
 1709TIP3    H1 5084   7.515   0.368   0.524
 1709TIP3    H2 5085   7.377   0.401   0.575
 1710TIP3   OH2 5086   6.820   5.319   1.709
 1710TIP3    H1 5087   6.862   5.392   1.663
 1710TIP3    H2 5088   6.832   5.339   1.802
 1711TIP3   OH2 5089   1.963   4.845   0.261
 1711TIP3    H1 5090   1.898   4.814   0.323
 1711TIP3    H2 5091   1.914   4.859   0.180
 1712TIP3   OH2 5092   7.427   4.376   4.260
 1712TIP3    H1 5093   7.378   4.319   4.320
 1712TIP3    H2 5094   7.488   4.317   4.216
 1713TIP3   OH2 5095   4.021   2.751   0.144
 1713TIP3    H1 5096   3.998   2.843   0.153
 1713TIP3    H2 5097   3.937   2.706   0.134
 1714TIP3   OH2 5098   4.639   1.124   2.926
 1714TIP3    H1 5099   4.588   1.044   2.944
 1714TIP3    H2 5100   4.730   1.095   2.930
 1715TIP3   OH2 5101   1.008   3.737   4.724
 1715TIP3    H1 5102   0.923   3.694   4.716
 1715TIP3    H2 5103   1.067   3.670   4.756
 1716TIP3   OH2 5104   4.762   4.008   3.874
 1716TIP3    H1 5105   4.726   4.049   3.953
 1716TIP3    H2 5106   4.767   4.078   3.810
 1717TIP3   OH2 5107   1.748   1.467   0.463
 1717TIP3    H1 5108   1.713   1.495   0.379
 1717TIP3    H2 5109   1.808   1.537   0.489
 1718TIP3   OH2 5110   4.168   6.220   1.695
 1718TIP3    H1 5111   4.099   6.246   1.756
 1718TIP3    H2 5112   4.237   6.284   1.707
 1719TIP3   OH2 5113   2.809   4.408   4.159
 1719TIP3    H1 5114   2.728   4.434   4.202
 1719TIP3    H2 5115   2.789   4.409   4.066
 1720TIP3   OH2 5116   0.026   6.589   1.736
 1720TIP3    H1 5117   0.081   6.512   1.722
 1720TIP3    H2 5118  -0.002   6.615   1.648
 1721TIP3   OH2 5119   7.447   5.676   5.517
 1721TIP3    H1 5120   7.491   5.590   5.517
 1721TIP3    H2 5121   7.392   5.674   5.596
 1722TIP3   OH2 5122   7.830   7.528   5.639
 1722TIP3    H1 5123   7.736   7.548   5.643
 1722TIP3    H2 5124   7.873   7.609   5.666
 1723TIP3   OH2 5125   3.689   2.545   1.141
 1723TIP3    H1 5126   3.731   2.517   1.223
 1723TIP3    H2 5127   3.628   2.613   1.167
 1724TIP3   OH2 5128   3.145   7.520   2.713
 1724TIP3    H1 5129   3.111   7.575   2.643
 1724TIP3    H2 5130   3.068   7.473   2.746
 1725TIP3   OH2 5131   2.630   1.742   4.572
 1725TIP3    H1 5132   2.554   1.722   4.517
 1725TIP3    H2 5133   2.600   1.813   4.629
 1726TIP3   OH2 5134   2.465   2.965   6.676
 1726TIP3    H1 5135   2.527   2.948   6.747
 1726TIP3    H2 5136   2.386   2.919   6.701
 1727TIP3   OH2 5137   0.239   2.900   1.339
 1727TIP3    H1 5138   0.231   2.949   1.421
 1727TIP3    H2 5139   0.303   2.832   1.359
 1728TIP3   OH2 5140   5.880   5.641   4.397
 1728TIP3    H1 5141   5.936   5.699   4.448
 1728TIP3    H2 5142   5.808   5.697   4.367
 1729TIP3   OH2 5143   3.340   6.685   5.120
 1729TIP3    H1 5144   3.380   6.599   5.133
 1729TIP3    H2 5145   3.404   6.734   5.070
 1730TIP3   OH2 5146   4.619   3.508   1.392
 1730TIP3    H1 5147   4.527   3.497   1.368
 1730TIP3    H2 5148   4.658   3.553   1.317
 1731TIP3   OH2 5149   8.011   2.599   0.872
 1731TIP3    H1 5150   7.953   2.653   0.819
 1731TIP3    H2 5151   7.952   2.555   0.934
 1732TIP3   OH2 5152   6.191   0.615   3.104
 1732TIP3    H1 5153   6.249   0.549   3.143
 1732TIP3    H2 5154   6.210   0.695   3.152
 1733TIP3   OH2 5155   0.275   2.424   1.323
 1733TIP3    H1 5156   0.276   2.349   1.263
 1733TIP3    H2 5157   0.336   2.400   1.392
 1734TIP3   OH2 5158   8.148   0.088   3.984
 1734TIP3    H1 5159   8.129   0.095   4.078
 1734TIP3    H2 5160   8.242   0.109   3.977
 1735TIP3   OH2 5161   0.836   6.682   4.909
 1735TIP3    H1 5162   0.784   6.698   4.831
 1735TIP3    H2 5163   0.841   6.586   4.915
 1736TIP3   OH2 5164   2.124   3.075   1.523
 1736TIP3    H1 5165   2.210   3.113   1.539
 1736TIP3    H2 5166   2.064   3.150   1.519
 1737TIP3   OH2 5167   5.493   0.122   0.015
 1737TIP3    H1 5168   5.542   0.191  -0.030
 1737TIP3    H2 5169   5.545   0.042   0.001
 1738TIP3   OH2 5170   6.985   7.603   4.941
 1738TIP3    H1 5171   6.890   7.591   4.942
 1738TIP3    H2 5172   7.002   7.668   5.008
 1739TIP3   OH2 5173   7.512   5.836   2.742
 1739TIP3    H1 5174   7.548   5.823   2.830
 1739TIP3    H2 5175   7.423   5.799   2.747
 1740TIP3   OH2 5176   3.579   7.317   0.559
 1740TIP3    H1 5177   3.549   7.304   0.469
 1740TIP3    H2 5178   3.499   7.330   0.610
 1741TIP3   OH2 5179   5.384   1.079   3.949
 1741TIP3    H1 5180   5.385   1.170   3.919
 1741TIP3    H2 5181   5.431   1.081   4.032
 1742TIP3   OH2 5182   7.172   0.123   5.812
 1742TIP3    H1 5183   7.253   0.078   5.833
 1742TIP3    H2 5184   7.157   0.104   5.719
 1743TIP3   OH2 5185   0.293   2.754   3.626
 1743TIP3    H1 5186   0.355   2.733   3.556
 1743TIP3    H2 5187   0.221   2.798   3.582
 1744TIP3   OH2 5188   4.118   1.912   6.221
 1744TIP3    H1 5189   4.089   1.991   6.266
 1744TIP3    H2 5190   4.111   1.933   6.128
 1745TIP3   OH2 5191   1.724   0.690   5.994
 1745TIP3    H1 5192   1.791   0.755   5.973
 1745TIP3    H2 5193   1.767   0.606   5.980
 1746TIP3   OH2 5194   4.251   6.011   0.846
 1746TIP3    H1 5195   4.254   5.997   0.751
 1746TIP3    H2 5196   4.158   6.015   0.866
 1747TIP3   OH2 5197   1.611   6.577   0.445
 1747TIP3    H1 5198   1.705   6.594   0.449
 1747TIP3    H2 5199   1.591   6.572   0.351
 1748TIP3   OH2 5200   1.919   1.041   4.731
 1748TIP3    H1 5201   1.967   0.988   4.668
 1748TIP3    H2 5202   1.920   0.989   4.811
 1749TIP3   OH2 5203   7.381   2.899   6.604
 1749TIP3    H1 5204   7.343   2.954   6.673
 1749TIP3    H2 5205   7.307   2.876   6.548
 1750TIP3   OH2 5206   3.953   0.230   6.136
 1750TIP3    H1 5207   3.917   0.237   6.225
 1750TIP3    H2 5208   4.045   0.257   6.146
 1751TIP3   OH2 5209   2.663   3.686   3.721
 1751TIP3    H1 5210   2.757   3.679   3.703
 1751TIP3    H2 5211   2.621   3.661   3.639
 1752TIP3   OH2 5212   6.607   7.337   2.921
 1752TIP3    H1 5213   6.572   7.409   2.973
 1752TIP3    H2 5214   6.612   7.373   2.832
 1753TIP3   OH2 5215   5.144   6.226   6.639
 1753TIP3    H1 5216   5.113   6.241   6.550
 1753TIP3    H2 5217   5.128   6.133   6.655
 1754TIP3   OH2 5218   3.127   4.688   6.311
 1754TIP3    H1 5219   3.169   4.605   6.332
 1754TIP3    H2 5220   3.179   4.754   6.358
 1755TIP3   OH2 5221   5.947   3.605   5.420
 1755TIP3    H1 5222   5.868   3.638   5.464
 1755TIP3    H2 5223   5.920   3.593   5.329
 1756TIP3   OH2 5224   6.378   3.164   2.539
 1756TIP3    H1 5225   6.351   3.256   2.531
 1756TIP3    H2 5226   6.450   3.155   2.476
 1757TIP3   OH2 5227   4.868   7.410   2.318
 1757TIP3    H1 5228   4.783   7.405   2.274
 1757TIP3    H2 5229   4.930   7.425   2.247
 1758TIP3   OH2 5230   7.922   1.704   2.638
 1758TIP3    H1 5231   7.954   1.781   2.592
 1758TIP3    H2 5232   7.996   1.676   2.692
 1759TIP3   OH2 5233   0.582   3.944   3.922
 1759TIP3    H1 5234   0.607   3.853   3.909
 1759TIP3    H2 5235   0.657   3.984   3.965
 1760TIP3   OH2 5236   5.715   5.178   1.007
 1760TIP3    H1 5237   5.697   5.228   0.927
 1760TIP3    H2 5238   5.810   5.179   1.015
 1761TIP3   OH2 5239   7.481   1.637   5.953
 1761TIP3    H1 5240   7.433   1.681   6.023
 1761TIP3    H2 5241   7.452   1.681   5.873
 1762TIP3   OH2 5242   5.697   6.500   5.909
 1762TIP3    H1 5243   5.677   6.545   5.826
 1762TIP3    H2 5244   5.700   6.408   5.885
 1763TIP3   OH2 5245   5.684   6.017   1.248
 1763TIP3    H1 5246   5.674   6.030   1.342
 1763TIP3    H2 5247   5.697   5.923   1.237
 1764TIP3   OH2 5248   1.143   3.145   4.972
 1764TIP3    H1 5249   1.228   3.151   5.015
 1764TIP3    H2 5250   1.160   3.098   4.890
 1765TIP3   OH2 5251   5.987   1.812   5.146
 1765TIP3    H1 5252   6.043   1.736   5.130
 1765TIP3    H2 5253   5.986   1.859   5.063
 1766TIP3   OH2 5254   5.168   3.483   0.436
 1766TIP3    H1 5255   5.146   3.412   0.496
 1766TIP3    H2 5256   5.153   3.447   0.349
 1767TIP3   OH2 5257   7.772   1.595   2.333
 1767TIP3    H1 5258   7.697   1.648   2.361
 1767TIP3    H2 5259   7.732   1.518   2.292
 1768TIP3   OH2 5260   3.311   3.611   2.106
 1768TIP3    H1 5261   3.320   3.660   2.188
 1768TIP3    H2 5262   3.395   3.622   2.062
 1769TIP3   OH2 5263   0.718   5.456   6.212
 1769TIP3    H1 5264   0.749   5.545   6.233
 1769TIP3    H2 5265   0.786   5.420   6.155
 1770TIP3   OH2 5266   0.735   0.945   1.858
 1770TIP3    H1 5267   0.728   1.040   1.860
 1770TIP3    H2 5268   0.644   0.915   1.856
 1771TIP3   OH2 5269   5.707   1.323   3.266
 1771TIP3    H1 5270   5.674   1.233   3.268
 1771TIP3    H2 5271   5.703   1.348   3.173
 1772TIP3   OH2 5272   5.014   1.823   2.005
 1772TIP3    H1 5273   5.003   1.872   1.923
 1772TIP3    H2 5274   5.027   1.733   1.978
 1773TIP3   OH2 5275   2.649   6.622   6.625
 1773TIP3    H1 5276   2.651   6.717   6.627
 1773TIP3    H2 5277   2.621   6.596   6.713
 1774TIP3   OH2 5278   1.691   0.363   5.145
 1774TIP3    H1 5279   1.738   0.439   5.110
 1774TIP3    H2 5280   1.622   0.346   5.081
 1775TIP3   OH2 5281   5.329   3.005   2.445
 1775TIP3    H1 5282   5.314   2.978   2.354
 1775TIP3    H2 5283   5.246   2.988   2.489
 1776TIP3   OH2 5284   4.402   1.377   0.604
 1776TIP3    H1 5285   4.474   1.338   0.554
 1776TIP3    H2 5286   4.439   1.459   0.638
 1777TIP3   OH2 5287   0.907   2.727   5.685
 1777TIP3    H1 5288   0.929   2.817   5.662
 1777TIP3    H2 5289   0.933   2.719   5.777
 1778TIP3   OH2 5290   3.878   5.561   2.715
 1778TIP3    H1 5291   3.851   5.593   2.801
 1778TIP3    H2 5292   3.848   5.628   2.654
 1779TIP3   OH2 5293   2.994   7.376   4.305
 1779TIP3    H1 5294   2.975   7.282   4.304
 1779TIP3    H2 5295   3.056   7.386   4.378
 1780TIP3   OH2 5296   7.383   6.543   2.585
 1780TIP3    H1 5297   7.344   6.618   2.628
 1780TIP3    H2 5298   7.474   6.543   2.615
 1781TIP3   OH2 5299   0.631   0.062   4.135
 1781TIP3    H1 5300   0.638   0.157   4.130
 1781TIP3    H2 5301   0.538   0.045   4.147
 1782TIP3   OH2 5302   4.210   4.140   2.451
 1782TIP3    H1 5303   4.246   4.119   2.537
 1782TIP3    H2 5304   4.270   4.205   2.414
 1783TIP3   OH2 5305   5.544   0.258   2.480
 1783TIP3    H1 5306   5.479   0.326   2.493
 1783TIP3    H2 5307   5.628   0.299   2.501
 1784TIP3   OH2 5308   4.009   6.978   1.508
 1784TIP3    H1 5309   4.067   7.048   1.537
 1784TIP3    H2 5310   3.949   6.964   1.581
 1785TIP3   OH2 5311   2.781   0.312   0.675
 1785TIP3    H1 5312   2.809   0.348   0.759
 1785TIP3    H2 5313   2.695   0.273   0.693
 1786TIP3   OH2 5314   4.439   5.450   3.112
 1786TIP3    H1 5315   4.513   5.434   3.052
 1786TIP3    H2 5316   4.473   5.515   3.174
 1787TIP3   OH2 5317   1.490   1.366   3.373
 1787TIP3    H1 5318   1.478   1.301   3.305
 1787TIP3    H2 5319   1.438   1.334   3.447
 1788TIP3   OH2 5320   3.831   4.616   6.430
 1788TIP3    H1 5321   3.911   4.669   6.440
 1788TIP3    H2 5322   3.862   4.526   6.427
 1789TIP3   OH2 5323   0.885   6.568   0.512
 1789TIP3    H1 5324   0.953   6.502   0.528
 1789TIP3    H2 5325   0.842   6.579   0.597
 1790TIP3   OH2 5326   0.965   5.394   0.384
 1790TIP3    H1 5327   1.035   5.381   0.447
 1790TIP3    H2 5328   0.889   5.349   0.422
 1791TIP3   OH2 5329   5.850   7.512   5.660
 1791TIP3    H1 5330   5.835   7.421   5.635
 1791TIP3    H2 5331   5.762   7.548   5.671
 1792TIP3   OH2 5332   3.486   0.401   4.123
 1792TIP3    H1 5333   3.577   0.392   4.149
 1792TIP3    H2 5334   3.468   0.495   4.130
 1793TIP3   OH2 5335   2.999   1.894   1.146
 1793TIP3    H1 5336   2.938   1.967   1.149
 1793TIP3    H2 5337   2.968   1.834   1.214
 1794TIP3   OH2 5338   7.641   7.413   4.683
 1794TIP3    H1 5339   7.547   7.423   4.668
 1794TIP3    H2 5340   7.661   7.325   4.653
 1795TIP3   OH2 5341   3.322   0.737   6.702
 1795TIP3    H1 5342   3.277   0.762   6.621
 1795TIP3    H2 5343   3.413   0.764   6.688
 1796TIP3   OH2 5344   6.335   2.311   1.771
 1796TIP3    H1 5345   6.264   2.366   1.737
 1796TIP3    H2 5346   6.399   2.373   1.805
 1797TIP3   OH2 5347   0.126   0.869   4.286
 1797TIP3    H1 5348   0.060   0.840   4.222
 1797TIP3    H2 5349   0.079   0.927   4.345
 1798TIP3   OH2 5350   6.549   1.164   4.409
 1798TIP3    H1 5351   6.461   1.184   4.440
 1798TIP3    H2 5352   6.604   1.234   4.444
 1799TIP3   OH2 5353   6.135   3.458   2.604
 1799TIP3    H1 5354   6.104   3.505   2.681
 1799TIP3    H2 5355   6.203   3.514   2.567
 1800TIP3   OH2 5356   3.426   2.244   1.738
 1800TIP3    H1 5357   3.452   2.226   1.829
 1800TIP3    H2 5358   3.450   2.164   1.691
 1801TIP3   OH2 5359   3.355   6.216   4.328
 1801TIP3    H1 5360   3.262   6.232   4.347
 1801TIP3    H2 5361   3.363   6.229   4.234
 1802TIP3   OH2 5362   3.781   2.269   3.597
 1802TIP3    H1 5363   3.817   2.274   3.508
 1802TIP3    H2 5364   3.790   2.177   3.622
 1803TIP3   OH2 5365   0.491   1.865   3.188
 1803TIP3    H1 5366   0.477   1.956   3.162
 1803TIP3    H2 5367   0.454   1.858   3.276
 1804TIP3   OH2 5368   0.642   7.212   1.636
 1804TIP3    H1 5369   0.617   7.268   1.563
 1804TIP3    H2 5370   0.650   7.124   1.597
 1805TIP3   OH2 5371   6.462   3.336   6.409
 1805TIP3    H1 5372   6.469   3.388   6.329
 1805TIP3    H2 5373   6.371   3.347   6.437
 1806TIP3   OH2 5374   0.951   1.558   3.620
 1806TIP3    H1 5375   0.937   1.616   3.695
 1806TIP3    H2 5376   0.923   1.609   3.544
 1807TIP3   OH2 5377   5.487   1.423   6.525
 1807TIP3    H1 5378   5.528   1.407   6.610
 1807TIP3    H2 5379   5.548   1.384   6.462
 1808TIP3   OH2 5380   3.415   5.447   2.583
 1808TIP3    H1 5381   3.467   5.480   2.657
 1808TIP3    H2 5382   3.324   5.458   2.611
 1809TIP3   OH2 5383   4.274   0.315   5.166
 1809TIP3    H1 5384   4.255   0.405   5.190
 1809TIP3    H2 5385   4.367   0.303   5.186
 1810TIP3   OH2 5386   3.735   7.266   6.467
 1810TIP3    H1 5387   3.672   7.259   6.395
 1810TIP3    H2 5388   3.729   7.357   6.496
 1811TIP3   OH2 5389   0.556   3.905   2.232
 1811TIP3    H1 5390   0.513   3.973   2.181
 1811TIP3    H2 5391   0.576   3.947   2.316
 1812TIP3   OH2 5392   6.295   4.912   1.180
 1812TIP3    H1 5393   6.298   5.004   1.203
 1812TIP3    H2 5394   6.331   4.866   1.256
 1813TIP3   OH2 5395   4.068   6.928   2.351
 1813TIP3    H1 5396   4.089   6.873   2.425
 1813TIP3    H2 5397   4.015   6.872   2.293
 1814TIP3   OH2 5398   8.129   4.097   4.484
 1814TIP3    H1 5399   8.188   4.169   4.508
 1814TIP3    H2 5400   8.122   4.101   4.389
 1815TIP3   OH2 5401   1.016   0.467   6.244
 1815TIP3    H1 5402   0.995   0.529   6.174
 1815TIP3    H2 5403   1.110   0.451   6.234
 1816TIP3   OH2 5404   2.929   3.221   1.919
 1816TIP3    H1 5405   2.895   3.184   1.837
 1816TIP3    H2 5406   3.002   3.277   1.892
 1817TIP3   OH2 5407   7.188   0.370   1.776
 1817TIP3    H1 5408   7.104   0.413   1.758
 1817TIP3    H2 5409   7.218   0.339   1.690
 1818TIP3   OH2 5410   7.591   1.657   1.628
 1818TIP3    H1 5411   7.501   1.642   1.655
 1818TIP3    H2 5412   7.639   1.672   1.710
 1819TIP3   OH2 5413   6.618   7.555   1.901
 1819TIP3    H1 5414   6.595   7.492   1.832
 1819TIP3    H2 5415   6.713   7.558   1.899
 1820TIP3   OH2 5416   5.217   1.345   4.844
 1820TIP3    H1 5417   5.289   1.282   4.854
 1820TIP3    H2 5418   5.244   1.420   4.897
 1821TIP3   OH2 5419   6.164   3.252   5.682
 1821TIP3    H1 5420   6.191   3.314   5.749
 1821TIP3    H2 5421   6.164   3.302   5.601
 1822TIP3   OH2 5422   0.736   3.155   3.200
 1822TIP3    H1 5423   0.790   3.111   3.133
 1822TIP3    H2 5424   0.797   3.215   3.243
 1823TIP3   OH2 5425   3.808   0.428   3.560
 1823TIP3    H1 5426   3.867   0.495   3.527
 1823TIP3    H2 5427   3.847   0.400   3.643
 1824TIP3   OH2 5428   6.058   7.342   0.203
 1824TIP3    H1 5429   6.104   7.420   0.234
 1824TIP3    H2 5430   5.970   7.374   0.183
 1825TIP3   OH2 5431   1.387   2.535   1.366
 1825TIP3    H1 5432   1.472   2.491   1.371
 1825TIP3    H2 5433   1.341   2.489   1.296
 1826TIP3   OH2 5434   7.054   2.986   2.167
 1826TIP3    H1 5435   7.081   3.031   2.248
 1826TIP3    H2 5436   6.958   2.991   2.169
 1827TIP3   OH2 5437   0.817   4.308   0.112
 1827TIP3    H1 5438   0.793   4.329   0.021
 1827TIP3    H2 5439   0.911   4.324   0.116
 1828TIP3   OH2 5440   7.372   7.082   5.626
 1828TIP3    H1 5441   7.291   7.034   5.612
 1828TIP3    H2 5442   7.410   7.044   5.706
 1829TIP3   OH2 5443   2.594   5.218   1.538
 1829TIP3    H1 5444   2.601   5.236   1.444
 1829TIP3    H2 5445   2.676   5.175   1.560
 1830TIP3   OH2 5446   7.728   6.433   0.877
 1830TIP3    H1 5447   7.661   6.501   0.869
 1830TIP3    H2 5448   7.811   6.480   0.866
 1831TIP3   OH2 5449   0.776   5.097   4.761
 1831TIP3    H1 5450   0.725   5.055   4.830
 1831TIP3    H2 5451   0.780   5.031   4.691
 1832TIP3   OH2 5452   1.073   0.442   5.903
 1832TIP3    H1 5453   1.121   0.365   5.873
 1832TIP3    H2 5454   0.990   0.408   5.935
 1833TIP3   OH2 5455   1.726   4.968   2.599
 1833TIP3    H1 5456   1.821   4.979   2.597
 1833TIP3    H2 5457   1.701   4.980   2.690
 1834TIP3   OH2 5458   6.793   2.883   0.950
 1834TIP3    H1 5459   6.791   2.917   1.040
 1834TIP3    H2 5460   6.884   2.892   0.923
 1835TIP3   OH2 5461   1.534   1.067   4.073
 1835TIP3    H1 5462   1.462   1.119   4.038
 1835TIP3    H2 5463   1.525   1.074   4.168
 1836TIP3   OH2 5464   1.350   0.845   5.433
 1836TIP3    H1 5465   1.441   0.858   5.408
 1836TIP3    H2 5466   1.304   0.834   5.350
 1837TIP3   OH2 5467   6.378   5.427   2.853
 1837TIP3    H1 5468   6.411   5.389   2.772
 1837TIP3    H2 5469   6.456   5.458   2.898
 1838TIP3   OH2 5470   7.773   0.964   5.111
 1838TIP3    H1 5471   7.841   0.978   5.045
 1838TIP3    H2 5472   7.710   1.034   5.095
 1839TIP3   OH2 5473   6.669   5.785   1.945
 1839TIP3    H1 5474   6.680   5.876   1.916
 1839TIP3    H2 5475   6.704   5.732   1.873
 1840TIP3   OH2 5476   1.490   0.285   4.988
 1840TIP3    H1 5477   1.550   0.246   4.925
 1840TIP3    H2 5478   1.466   0.369   4.950
 1841TIP3   OH2 5479   7.938   7.862   1.899
 1841TIP3    H1 5480   7.902   7.783   1.940
 1841TIP3    H2 5481   7.989   7.829   1.825
 1842TIP3   OH2 5482   4.262   6.799   6.203
 1842TIP3    H1 5483   4.287   6.745   6.278
 1842TIP3    H2 5484   4.310   6.881   6.215
 1843TIP3   OH2 5485   5.114   6.501   0.561
 1843TIP3    H1 5486   5.060   6.422   0.562
 1843TIP3    H2 5487   5.202   6.469   0.539
 1844TIP3   OH2 5488   8.233   3.166   5.452
 1844TIP3    H1 5489   8.320   3.198   5.428
 1844TIP3    H2 5490   8.225   3.188   5.545
 1845TIP3   OH2 5491   5.898   4.148   5.572
 1845TIP3    H1 5492   5.813   4.180   5.541
 1845TIP3    H2 5493   5.936   4.222   5.619
 1846TIP3   OH2 5494   5.437   4.193   5.304
 1846TIP3    H1 5495   5.358   4.142   5.292
 1846TIP3    H2 5496   5.406   4.277   5.338
 1847TIP3   OH2 5497   8.060   3.908   5.772
 1847TIP3    H1 5498   8.027   3.855   5.699
 1847TIP3    H2 5499   7.984   3.919   5.830
 1848TIP3   OH2 5500   7.099   2.696   4.395
 1848TIP3    H1 5501   7.122   2.769   4.453
 1848TIP3    H2 5502   7.177   2.641   4.393
 1849TIP3   OH2 5503   0.130   2.963   2.511
 1849TIP3    H1 5504   0.094   2.958   2.422
 1849TIP3    H2 5505   0.069   3.019   2.559
 1850TIP3   OH2 5506   4.861   6.890   2.332
 1850TIP3    H1 5507   4.841   6.861   2.421
 1850TIP3    H2 5508   4.775   6.906   2.292
 1851TIP3   OH2 5509   7.716   3.378   4.577
 1851TIP3    H1 5510   7.676   3.345   4.496
 1851TIP3    H2 5511   7.658   3.449   4.605
 1852TIP3   OH2 5512   4.285   0.974   4.271
 1852TIP3    H1 5513   4.320   0.986   4.359
 1852TIP3    H2 5514   4.353   0.925   4.224
 1853TIP3   OH2 5515   5.171   6.035   3.002
 1853TIP3    H1 5516   5.099   6.061   2.946
 1853TIP3    H2 5517   5.129   6.009   3.084
 1854TIP3   OH2 5518   3.335   2.149   2.163
 1854TIP3    H1 5519   3.323   2.111   2.250
 1854TIP3    H2 5520   3.427   2.133   2.142
 1855TIP3   OH2 5521   3.870   1.061   3.630
 1855TIP3    H1 5522   3.800   1.107   3.584
 1855TIP3    H2 5523   3.875   0.976   3.587
 1856TIP3   OH2 5524   3.598   6.946   2.945
 1856TIP3    H1 5525   3.584   7.029   2.990
 1856TIP3    H2 5526   3.575   6.964   2.854
 1857TIP3   OH2 5527   0.904   2.392   5.464
 1857TIP3    H1 5528   0.972   2.412   5.529
 1857TIP3    H2 5529   0.947   2.406   5.380
 1858TIP3   OH2 5530   1.406   3.280   5.059
 1858TIP3    H1 5531   1.439   3.288   4.970
 1858TIP3    H2 5532   1.484   3.261   5.112
 1859TIP3   OH2 5533   8.150   1.431   2.677
 1859TIP3    H1 5534   8.157   1.515   2.723
 1859TIP3    H2 5535   8.231   1.425   2.626
 1860TIP3   OH2 5536   7.453   4.075   2.994
 1860TIP3    H1 5537   7.480   4.050   2.906
 1860TIP3    H2 5538   7.370   4.121   2.981
 1861TIP3   OH2 5539   3.409   6.770   0.446
 1861TIP3    H1 5540   3.382   6.753   0.355
 1861TIP3    H2 5541   3.500   6.798   0.438
 1862TIP3   OH2 5542   4.708   0.460   2.153
 1862TIP3    H1 5543   4.721   0.549   2.183
 1862TIP3    H2 5544   4.633   0.465   2.093
 1863TIP3   OH2 5545   4.882   5.644   2.804
 1863TIP3    H1 5546   4.910   5.557   2.776
 1863TIP3    H2 5547   4.882   5.696   2.724
 1864TIP3   OH2 5548   2.740   2.106   0.737
 1864TIP3    H1 5549   2.798   2.133   0.666
 1864TIP3    H2 5550   2.790   2.040   0.785
 1865TIP3   OH2 5551   0.844   4.749   3.487
 1865TIP3    H1 5552   0.776   4.806   3.522
 1865TIP3    H2 5553   0.868   4.692   3.560
 1866TIP3   OH2 5554   5.964   5.377   1.429
 1866TIP3    H1 5555   5.977   5.283   1.413
 1866TIP3    H2 5556   5.999   5.392   1.516
 1867TIP3   OH2 5557   5.473   2.204   3.819
 1867TIP3    H1 5558   5.546   2.253   3.857
 1867TIP3    H2 5559   5.410   2.272   3.793
 1868TIP3   OH2 5560   3.877   6.674   3.331
 1868TIP3    H1 5561   3.823   6.598   3.312
 1868TIP3    H2 5562   3.820   6.749   3.313
 1869TIP3   OH2 5563   1.135   2.023   1.081
 1869TIP3    H1 5564   1.207   2.004   1.020
 1869TIP3    H2 5565   1.155   2.110   1.116
 1870TIP3   OH2 5566   5.409   2.188   4.362
 1870TIP3    H1 5567   5.456   2.133   4.425
 1870TIP3    H2 5568   5.454   2.173   4.279
 1871TIP3   OH2 5569   4.624   6.284   1.347
 1871TIP3    H1 5570   4.666   6.357   1.302
 1871TIP3    H2 5571   4.697   6.234   1.385
 1872TIP3   OH2 5572   6.051   6.737   2.239
 1872TIP3    H1 5573   5.989   6.759   2.309
 1872TIP3    H2 5574   6.116   6.680   2.282
 1873TIP3   OH2 5575   6.773   5.662   1.463
 1873TIP3    H1 5576   6.794   5.733   1.403
 1873TIP3    H2 5577   6.701   5.615   1.420
 1874TIP3   OH2 5578   3.525   6.123   0.356
 1874TIP3    H1 5579   3.520   6.216   0.334
 1874TIP3    H2 5580   3.450   6.108   0.413
 1875TIP3   OH2 5581   4.089   3.889   4.220
 1875TIP3    H1 5582   4.135   3.946   4.158
 1875TIP3    H2 5583   4.028   3.948   4.265
 1876TIP3   OH2 5584   3.255   3.574   5.069
 1876TIP3    H1 5585   3.160   3.581   5.060
 1876TIP3    H2 5586   3.273   3.481   5.057
 1877TIP3   OH2 5587   5.827   4.921   2.802
 1877TIP3    H1 5588   5.897   4.898   2.862
 1877TIP3    H2 5589   5.806   5.012   2.822
 1878TIP3   OH2 5590   6.728   0.897   1.270
 1878TIP3    H1 5591   6.740   0.968   1.207
 1878TIP3    H2 5592   6.709   0.942   1.353
 1879TIP3   OH2 5593   3.955   4.059   5.537
 1879TIP3    H1 5594   3.932   4.091   5.624
 1879TIP3    H2 5595   4.014   4.126   5.501
 1880TIP3   OH2 5596   6.376   1.211   5.665
 1880TIP3    H1 5597   6.343   1.257   5.587
 1880TIP3    H2 5598   6.430   1.277   5.709
 1881TIP3   OH2 5599   5.097   3.511   1.638
 1881TIP3    H1 5600   5.033   3.570   1.598
 1881TIP3    H2 5601   5.058   3.487   1.722
 1882TIP3   OH2 5602   7.630   4.220   4.149
 1882TIP3    H1 5603   7.617   4.160   4.223
 1882TIP3    H2 5604   7.661   4.163   4.078
 1883TIP3   OH2 5605   5.116   3.913   2.801
 1883TIP3    H1 5606   5.201   3.879   2.770
 1883TIP3    H2 5607   5.138   3.964   2.878
 1884TIP3   OH2 5608   4.174   2.229   2.317
 1884TIP3    H1 5609   4.098   2.182   2.350
 1884TIP3    H2 5610   4.152   2.321   2.329
 1885TIP3   OH2 5611   3.346   4.597   6.651
 1885TIP3    H1 5612   3.417   4.612   6.588
 1885TIP3    H2 5613   3.298   4.679   6.655
 1886TIP3   OH2 5614   1.599   7.466   1.044
 1886TIP3    H1 5615   1.590   7.451   1.138
 1886TIP3    H2 5616   1.693   7.465   1.028
 1887TIP3   OH2 5617   2.600   2.392   6.572
 1887TIP3    H1 5618   2.676   2.338   6.552
 1887TIP3    H2 5619   2.627   2.481   6.548
 1888TIP3   OH2 5620   1.642   4.483   2.263
 1888TIP3    H1 5621   1.605   4.557   2.214
 1888TIP3    H2 5622   1.610   4.496   2.352
 1889TIP3   OH2 5623   2.250   3.853   3.996
 1889TIP3    H1 5624   2.164   3.816   4.016
 1889TIP3    H2 5625   2.312   3.799   4.044
 1890TIP3   OH2 5626   5.186   5.990   6.444
 1890TIP3    H1 5627   5.145   5.920   6.394
 1890TIP3    H2 5628   5.183   5.959   6.535
 1891TIP3   OH2 5629   6.333   5.866   1.052
 1891TIP3    H1 5630   6.405   5.927   1.065
 1891TIP3    H2 5631   6.254   5.917   1.074
 1892TIP3   OH2 5632   0.051   5.061   5.933
 1892TIP3    H1 5633   0.118   5.033   5.996
 1892TIP3    H2 5634   0.066   5.155   5.922
 1893TIP3   OH2 5635   5.463   1.677   6.159
 1893TIP3    H1 5636   5.465   1.630   6.243
 1893TIP3    H2 5637   5.520   1.753   6.173
 1894TIP3   OH2 5638   4.072   3.861   1.471
 1894TIP3    H1 5639   4.037   3.926   1.532
 1894TIP3    H2 5640   4.003   3.795   1.466
 1895TIP3   OH2 5641   0.404   6.735   3.139
 1895TIP3    H1 5642   0.478   6.691   3.180
 1895TIP3    H2 5643   0.340   6.743   3.210
 1896TIP3   OH2 5644   1.348  -0.015   6.345
 1896TIP3    H1 5645   1.267   0.035   6.352
 1896TIP3    H2 5646   1.415   0.050   6.326
 1897TIP3   OH2 5647   4.083   0.331   3.264
 1897TIP3    H1 5648   4.142   0.306   3.335
 1897TIP3    H2 5649   4.013   0.265   3.267
 1898TIP3   OH2 5650   3.665   1.431   2.766
 1898TIP3    H1 5651   3.657   1.428   2.861
 1898TIP3    H2 5652   3.587   1.477   2.737
 1899TIP3   OH2 5653   4.260   6.649   0.165
 1899TIP3    H1 5654   4.182   6.701   0.184
 1899TIP3    H2 5655   4.239   6.602   0.085
 1900TIP3   OH2 5656   8.016   6.246   0.782
 1900TIP3    H1 5657   7.981   6.263   0.869
 1900TIP3    H2 5658   8.101   6.206   0.798
 1901TIP3   OH2 5659   3.630   1.624   2.010
 1901TIP3    H1 5660   3.697   1.637   1.942
 1901TIP3    H2 5661   3.644   1.697   2.071
 1902TIP3   OH2 5662   7.126   2.002   5.902
 1902TIP3    H1 5663   7.169   1.959   5.976
 1902TIP3    H2 5664   7.196   2.017   5.838
 1903TIP3   OH2 5665   2.587   7.121   2.385
 1903TIP3    H1 5666   2.601   7.026   2.393
 1903TIP3    H2 5667   2.528   7.142   2.458
 1904TIP3   OH2 5668   4.427   4.445   2.600
 1904TIP3    H1 5669   4.487   4.411   2.667
 1904TIP3    H2 5670   4.363   4.496   2.650
 1905TIP3   OH2 5671   2.571   7.336   2.800
 1905TIP3    H1 5672   2.557   7.421   2.842
 1905TIP3    H2 5673   2.604   7.356   2.713
 1906TIP3   OH2 5674   5.684   1.083   4.810
 1906TIP3    H1 5675   5.771   1.044   4.803
 1906TIP3    H2 5676   5.633   1.042   4.741
 1907TIP3   OH2 5677   7.281   6.076   2.159
 1907TIP3    H1 5678   7.217   6.126   2.108
 1907TIP3    H2 5679   7.307   6.004   2.101
 1908TIP3   OH2 5680   7.160   1.732   2.321
 1908TIP3    H1 5681   7.090   1.742   2.257
 1908TIP3    H2 5682   7.200   1.648   2.301
 1909TIP3   OH2 5683   7.526   6.050   3.290
 1909TIP3    H1 5684   7.571   5.967   3.299
 1909TIP3    H2 5685   7.465   6.053   3.364
 1910TIP3   OH2 5686   7.204   4.194   4.348
 1910TIP3    H1 5687   7.166   4.161   4.267
 1910TIP3    H2 5688   7.130   4.233   4.395
 1911TIP3   OH2 5689   2.762   3.343   2.688
 1911TIP3    H1 5690   2.717   3.345   2.772
 1911TIP3    H2 5691   2.773   3.435   2.665
 1912TIP3   OH2 5692   5.376   7.398   3.757
 1912TIP3    H1 5693   5.329   7.367   3.679
 1912TIP3    H2 5694   5.453   7.343   3.762
 1913TIP3   OH2 5695   1.911   1.975   2.650
 1913TIP3    H1 5696   1.916   1.880   2.645
 1913TIP3    H2 5697   1.993   2.006   2.611
 1914TIP3   OH2 5698   3.521   0.506   2.662
 1914TIP3    H1 5699   3.536   0.590   2.704
 1914TIP3    H2 5700   3.447   0.468   2.711
 1915TIP3   OH2 5701   4.916   1.330   2.885
 1915TIP3    H1 5702   4.839   1.336   2.828
 1915TIP3    H2 5703   4.942   1.421   2.899
 1916TIP3   OH2 5704   4.104   4.901   4.215
 1916TIP3    H1 5705   4.168   4.863   4.155
 1916TIP3    H2 5706   4.071   4.827   4.265
 1917TIP3   OH2 5707   1.803   1.923   4.177
 1917TIP3    H1 5708   1.874   1.894   4.235
 1917TIP3    H2 5709   1.724   1.910   4.228
 1918TIP3   OH2 5710   4.209   3.661   3.744
 1918TIP3    H1 5711   4.138   3.600   3.766
 1918TIP3    H2 5712   4.216   3.718   3.821
 1919TIP3   OH2 5713   2.881   2.554   0.148
 1919TIP3    H1 5714   2.944   2.524   0.083
 1919TIP3    H2 5715   2.825   2.616   0.102
 1920TIP3   OH2 5716   2.450   0.210   2.398
 1920TIP3    H1 5717   2.434   0.223   2.492
 1920TIP3    H2 5718   2.507   0.134   2.393
 1921TIP3   OH2 5719   5.417   7.230   4.347
 1921TIP3    H1 5720   5.453   7.319   4.355
 1921TIP3    H2 5721   5.371   7.231   4.263
 1922TIP3   OH2 5722   5.269   4.968   4.657
 1922TIP3    H1 5723   5.246   4.902   4.592
 1922TIP3    H2 5724   5.287   4.919   4.737
 1923TIP3   OH2 5725   2.446   7.084   1.747
 1923TIP3    H1 5726   2.515   7.151   1.746
 1923TIP3    H2 5727   2.405   7.092   1.833
 1924TIP3   OH2 5728   6.486   4.665   6.511
 1924TIP3    H1 5729   6.434   4.732   6.555
 1924TIP3    H2 5730   6.503   4.600   6.579
 1925TIP3   OH2 5731   0.472   4.898   1.340
 1925TIP3    H1 5732   0.485   4.867   1.429
 1925TIP3    H2 5733   0.550   4.948   1.320
 1926TIP3   OH2 5734   1.169   0.607   0.509
 1926TIP3    H1 5735   1.125   0.692   0.508
 1926TIP3    H2 5736   1.102   0.546   0.478
 1927TIP3   OH2 5737   4.763   5.536   4.278
 1927TIP3    H1 5738   4.693   5.496   4.227
 1927TIP3    H2 5739   4.719   5.602   4.332
 1928TIP3   OH2 5740   4.904   4.893   5.737
 1928TIP3    H1 5741   4.956   4.949   5.794
 1928TIP3    H2 5742   4.915   4.931   5.649
 1929TIP3   OH2 5743   4.382   3.505   3.977
 1929TIP3    H1 5744   4.316   3.436   3.979
 1929TIP3    H2 5745   4.367   3.555   4.057
 1930TIP3   OH2 5746   6.971   2.735   1.471
 1930TIP3    H1 5747   6.909   2.730   1.544
 1930TIP3    H2 5748   6.991   2.828   1.463
 1931TIP3   OH2 5749   6.068   2.339   4.611
 1931TIP3    H1 5750   6.048   2.377   4.697
 1931TIP3    H2 5751   6.042   2.406   4.548
 1932TIP3   OH2 5752   8.231   1.032   3.680
 1932TIP3    H1 5753   8.176   1.038   3.603
 1932TIP3    H2 5754   8.319   1.016   3.646
 1933TIP3   OH2 5755   4.844   1.028   6.173
 1933TIP3    H1 5756   4.861   0.972   6.249
 1933TIP3    H2 5757   4.838   1.116   6.210
 1934TIP3   OH2 5758   2.418   6.745   3.135
 1934TIP3    H1 5759   2.437   6.838   3.145
 1934TIP3    H2 5760   2.455   6.722   3.050
 1935TIP3   OH2 5761   1.771   5.033   2.862
 1935TIP3    H1 5762   1.790   4.940   2.870
 1935TIP3    H2 5763   1.774   5.066   2.952
 1936TIP3   OH2 5764   6.697   1.422   0.394
 1936TIP3    H1 5765   6.637   1.472   0.339
 1936TIP3    H2 5766   6.696   1.467   0.478
 1937TIP3   OH2 5767   7.526   2.477   2.110
 1937TIP3    H1 5768   7.509   2.436   2.025
 1937TIP3    H2 5769   7.516   2.405   2.173
 1938TIP3   OH2 5770   0.619   7.785   4.974
 1938TIP3    H1 5771   0.696   7.729   4.965
 1938TIP3    H2 5772   0.594   7.777   5.066
 1939TIP3   OH2 5773   4.735   6.066   6.635
 1939TIP3    H1 5774   4.747   5.975   6.607
 1939TIP3    H2 5775   4.669   6.101   6.574
 1940TIP3   OH2 5776   5.737   4.579   1.753
 1940TIP3    H1 5777   5.683   4.500   1.740
 1940TIP3    H2 5778   5.706   4.640   1.686
 1941TIP3   OH2 5779   4.429   7.842   1.870
 1941TIP3    H1 5780   4.341   7.860   1.838
 1941TIP3    H2 5781   4.418   7.822   1.963
 1942TIP3   OH2 5782   8.051   5.085   2.013
 1942TIP3    H1 5783   8.058   5.002   1.965
 1942TIP3    H2 5784   7.982   5.133   1.969
 1943TIP3   OH2 5785   5.456   6.190   5.086
 1943TIP3    H1 5786   5.460   6.179   4.991
 1943TIP3    H2 5787   5.492   6.277   5.102
 1944TIP3   OH2 5788   5.712   7.277   5.006
 1944TIP3    H1 5789   5.617   7.290   5.017
 1944TIP3    H2 5790   5.745   7.268   5.095
 1945TIP3   OH2 5791   3.251   4.556   0.814
 1945TIP3    H1 5792   3.155   4.554   0.811
 1945TIP3    H2 5793   3.275   4.627   0.755
 1946TIP3   OH2 5794   0.228   0.343   2.635
 1946TIP3    H1 5795   0.287   0.288   2.584
 1946TIP3    H2 5796   0.240   0.431   2.599
 1947TIP3   OH2 5797   3.430   4.338   2.594
 1947TIP3    H1 5798   3.481   4.387   2.530
 1947TIP3    H2 5799   3.347   4.385   2.600
 1948TIP3   OH2 5800   6.655   1.657   3.207
 1948TIP3    H1 5801   6.595   1.589   3.239
 1948TIP3    H2 5802   6.710   1.678   3.283
 1949TIP3   OH2 5803   1.164   2.167   1.862
 1949TIP3    H1 5804   1.235   2.227   1.838
 1949TIP3    H2 5805   1.138   2.194   1.950
 1950TIP3   OH2 5806   1.401   1.915   5.569
 1950TIP3    H1 5807   1.442   1.927   5.654
 1950TIP3    H2 5808   1.419   1.824   5.546
 1951TIP3   OH2 5809   0.457   7.495   5.415
 1951TIP3    H1 5810   0.415   7.545   5.486
 1951TIP3    H2 5811   0.507   7.427   5.460
 1952TIP3   OH2 5812   7.252   1.489   6.709
 1952TIP3    H1 5813   7.342   1.522   6.707
 1952TIP3    H2 5814   7.218   1.507   6.621
 1953TIP3   OH2 5815   5.246   3.131   0.928
 1953TIP3    H1 5816   5.288   3.216   0.946
 1953TIP3    H2 5817   5.288   3.100   0.848
 1954TIP3   OH2 5818   7.929   2.783   3.568
 1954TIP3    H1 5819   7.924   2.705   3.513
 1954TIP3    H2 5820   7.900   2.754   3.654
 1955TIP3   OH2 5821   8.315   1.340   1.091
 1955TIP3    H1 5822   8.220   1.349   1.106
 1955TIP3    H2 5823   8.326   1.360   0.998
 1956TIP3   OH2 5824   8.177   1.754   1.663
 1956TIP3    H1 5825   8.124   1.726   1.588
 1956TIP3    H2 5826   8.144   1.841   1.684
 1957TIP3   OH2 5827   1.446   5.930   3.024
 1957TIP3    H1 5828   1.446   5.998   3.091
 1957TIP3    H2 5829   1.420   5.975   2.944
 1958TIP3   OH2 5830   6.836   7.481   1.519
 1958TIP3    H1 5831   6.804   7.483   1.609
 1958TIP3    H2 5832   6.847   7.388   1.499
 1959TIP3   OH2 5833   7.660   5.509   4.101
 1959TIP3    H1 5834   7.669   5.417   4.127
 1959TIP3    H2 5835   7.566   5.524   4.097
 1960TIP3   OH2 5836   2.417   5.724   0.470
 1960TIP3    H1 5837   2.442   5.632   0.460
 1960TIP3    H2 5838   2.470   5.756   0.543
 1961TIP3   OH2 5839   3.666   3.131   3.718
 1961TIP3    H1 5840   3.589   3.074   3.721
 1961TIP3    H2 5841   3.736   3.078   3.758
 1962TIP3   OH2 5842   1.288   0.272   6.508
 1962TIP3    H1 5843   1.270   0.307   6.420
 1962TIP3    H2 5844   1.220   0.311   6.563
 1963TIP3   OH2 5845   4.693   7.443   4.745
 1963TIP3    H1 5846   4.735   7.362   4.773
 1963TIP3    H2 5847   4.656   7.480   4.825
 1964TIP3   OH2 5848   1.150   2.523   0.848
 1964TIP3    H1 5849   1.230   2.471   0.846
 1964TIP3    H2 5850   1.103   2.491   0.926
 1965TIP3   OH2 5851   7.074   5.473   3.026
 1965TIP3    H1 5852   7.090   5.539   2.959
 1965TIP3    H2 5853   6.983   5.486   3.052
 1966TIP3   OH2 5854   3.517   2.538   2.654
 1966TIP3    H1 5855   3.487   2.611   2.600
 1966TIP3    H2 5856   3.612   2.550   2.660
 1967TIP3   OH2 5857   1.154   3.568   4.922
 1967TIP3    H1 5858   1.226   3.577   4.985
 1967TIP3    H2 5859   1.133   3.475   4.923
 1968TIP3   OH2 5860   4.950   1.566   2.493
 1968TIP3    H1 5861   4.938   1.659   2.471
 1968TIP3    H2 5862   5.032   1.542   2.451
 1969TIP3   OH2 5863   2.827   3.176   3.935
 1969TIP3    H1 5864   2.895   3.141   3.878
 1969TIP3    H2 5865   2.870   3.248   3.982
 1970TIP3   OH2 5866   3.750   1.482   1.285
 1970TIP3    H1 5867   3.712   1.505   1.200
 1970TIP3    H2 5868   3.833   1.441   1.264
 1971TIP3   OH2 5869   4.228   3.297   1.368
 1971TIP3    H1 5870   4.141   3.284   1.329
 1971TIP3    H2 5871   4.287   3.249   1.310
 1972TIP3   OH2 5872   4.552   0.834   4.705
 1972TIP3    H1 5873   4.575   0.775   4.633
 1972TIP3    H2 5874   4.521   0.914   4.663
 1973TIP3   OH2 5875   5.046   6.757   6.754
 1973TIP3    H1 5876   5.126   6.720   6.791
 1973TIP3    H2 5877   5.014   6.689   6.694
 1974TIP3   OH2 5878   6.130   6.195   5.754
 1974TIP3    H1 5879   6.052   6.234   5.715
 1974TIP3    H2 5880   6.136   6.108   5.715
 1975TIP3   OH2 5881   1.696   6.358   6.075
 1975TIP3    H1 5882   1.727   6.420   6.141
 1975TIP3    H2 5883   1.687   6.411   5.995
 1976TIP3   OH2 5884   1.889   6.533   3.126
 1976TIP3    H1 5885   1.952   6.586   3.175
 1976TIP3    H2 5886   1.859   6.591   3.055
 1977TIP3   OH2 5887   0.437   3.786   5.687
 1977TIP3    H1 5888   0.431   3.828   5.601
 1977TIP3    H2 5889   0.503   3.718   5.676
 1978TIP3   OH2 5890   3.733   7.629   6.219
 1978TIP3    H1 5891   3.779   7.547   6.200
 1978TIP3    H2 5892   3.721   7.671   6.134
 1979TIP3   OH2 5893   0.896   7.161   0.028
 1979TIP3    H1 5894   0.814   7.147  -0.020
 1979TIP3    H2 5895   0.879   7.123   0.114
 1980TIP3   OH2 5896   1.165   4.425   2.454
 1980TIP3    H1 5897   1.170   4.511   2.495
 1980TIP3    H2 5898   1.111   4.373   2.514
 1981TIP3   OH2 5899   0.747   2.403   5.873
 1981TIP3    H1 5900   0.781   2.357   5.950
 1981TIP3    H2 5901   0.753   2.339   5.803
 1982TIP3   OH2 5902   4.421   7.342   1.422
 1982TIP3    H1 5903   4.393   7.330   1.331
 1982TIP3    H2 5904   4.462   7.428   1.423
 1983TIP3   OH2 5905   4.138   5.548   3.422
 1983TIP3    H1 5906   4.158   5.516   3.334
 1983TIP3    H2 5907   4.223   5.569   3.460
 1984TIP3   OH2 5908   5.940   1.863   4.865
 1984TIP3    H1 5909   5.924   1.772   4.890
 1984TIP3    H2 5910   5.890   1.874   4.783
 1985TIP3   OH2 5911   0.223   7.669   4.345
 1985TIP3    H1 5912   0.140   7.715   4.334
 1985TIP3    H2 5913   0.198   7.581   4.374
 1986TIP3   OH2 5914   4.300   6.180   2.292
 1986TIP3    H1 5915   4.234   6.191   2.361
 1986TIP3    H2 5916   4.366   6.123   2.332
 1987TIP3   OH2 5917   5.098   5.741   2.477
 1987TIP3    H1 5918   5.161   5.686   2.430
 1987TIP3    H2 5919   5.092   5.820   2.424
 1988TIP3   OH2 5920   8.181   2.578   4.573
 1988TIP3    H1 5921   8.236   2.517   4.524
 1988TIP3    H2 5922   8.241   2.621   4.634
 1989TIP3   OH2 5923   3.588   4.626   6.516
 1989TIP3    H1 5924   3.678   4.635   6.486
 1989TIP3    H2 5925   3.584   4.538   6.554
 1990TIP3   OH2 5926   6.188   2.976   4.396
 1990TIP3    H1 5927   6.249   3.049   4.397
 1990TIP3    H2 5928   6.120   3.002   4.333
 1991TIP3   OH2 5929   3.914   0.678   3.931
 1991TIP3    H1 5930   3.934   0.759   3.884
 1991TIP3    H2 5931   3.901   0.705   4.021
 1992TIP3   OH2 5932   0.665   7.148   4.984
 1992TIP3    H1 5933   0.661   7.163   5.079
 1992TIP3    H2 5934   0.749   7.104   4.971
 1993TIP3   OH2 5935   3.496   6.781   2.320
 1993TIP3    H1 5936   3.437   6.810   2.250
 1993TIP3    H2 5937   3.555   6.855   2.333
 1994TIP3   OH2 5938   3.631   7.681   3.465
 1994TIP3    H1 5939   3.673   7.646   3.543
 1994TIP3    H2 5940   3.683   7.647   3.392
 1995TIP3   OH2 5941   6.317   6.198   5.265
 1995TIP3    H1 5942   6.337   6.284   5.301
 1995TIP3    H2 5943   6.375   6.189   5.189
 1996TIP3   OH2 5944   3.371   0.280   4.548
 1996TIP3    H1 5945   3.303   0.218   4.523
 1996TIP3    H2 5946   3.439   0.226   4.588
 1997TIP3   OH2 5947   0.852   3.516   2.424
 1997TIP3    H1 5948   0.765   3.534   2.387
 1997TIP3    H2 5949   0.894   3.601   2.430
 1998TIP3   OH2 5950   2.125   5.972   4.125
 1998TIP3    H1 5951   2.110   5.939   4.214
 1998TIP3    H2 5952   2.219   5.965   4.112
 1999TIP3   OH2 5953   6.219   2.678   0.220
 1999TIP3    H1 5954   6.258   2.706   0.303
 1999TIP3    H2 5955   6.289   2.690   0.156
 2000TIP3   OH2 5956   1.554   6.138   1.649
 2000TIP3    H1 5957   1.463   6.153   1.674
 2000TIP3    H2 5958   1.601   6.214   1.685
 2001TIP3   OH2 5959   7.039   5.031   4.601
 2001TIP3    H1 5960   7.032   4.950   4.651
 2001TIP3    H2 5961   7.040   5.100   4.668
 2002TIP3   OH2 5962   3.497   0.710   3.382
 2002TIP3    H1 5963   3.586   0.745   3.371
 2002TIP3    H2 5964   3.450   0.739   3.304
 2003TIP3   OH2 5965   7.780   7.489   1.733
 2003TIP3    H1 5966   7.850   7.512   1.671
 2003TIP3    H2 5967   7.700   7.491   1.681
 2004TIP3   OH2 5968   6.705   2.484   3.273
 2004TIP3    H1 5969   6.736   2.574   3.263
 2004TIP3    H2 5970   6.616   2.494   3.308
 2005TIP3   OH2 5971   4.475   7.173   2.746
 2005TIP3    H1 5972   4.483   7.210   2.658
 2005TIP3    H2 5973   4.520   7.236   2.802
 2006TIP3   OH2 5974   0.210   7.284   2.629
 2006TIP3    H1 5975   0.238   7.288   2.537
 2006TIP3    H2 5976   0.256   7.358   2.670
 2007TIP3   OH2 5977   0.492   5.033   0.224
 2007TIP3    H1 5978   0.447   5.079   0.295
 2007TIP3    H2 5979   0.585   5.050   0.241
 2008TIP3   OH2 5980   3.711   2.142   0.608
 2008TIP3    H1 5981   3.729   2.227   0.648
 2008TIP3    H2 5982   3.794   2.094   0.615
 2009TIP3   OH2 5983   0.665   2.084   0.233
 2009TIP3    H1 5984   0.635   2.026   0.303
 2009TIP3    H2 5985   0.587   2.100   0.180
 2010TIP3   OH2 5986   7.519   1.133   4.560
 2010TIP3    H1 5987   7.437   1.183   4.557
 2010TIP3    H2 5988   7.586   1.199   4.575
 2011TIP3   OH2 5989   7.669   5.684   4.921
 2011TIP3    H1 5990   7.626   5.683   5.007
 2011TIP3    H2 5991   7.611   5.633   4.865
 2012TIP3   OH2 5992   1.830   7.834   5.266
 2012TIP3    H1 5993   1.882   7.763   5.230
 2012TIP3    H2 5994   1.890   7.881   5.324
 2013TIP3   OH2 5995   2.436   4.019   3.558
 2013TIP3    H1 5996   2.433   3.930   3.593
 2013TIP3    H2 5997   2.518   4.055   3.592
 2014TIP3   OH2 5998   6.644   3.385   2.789
 2014TIP3    H1 5999   6.704   3.426   2.727
 2014TIP3    H2 6000   6.676   3.295   2.799
 2015TIP3   OH2 6001   4.945   7.577   0.314
 2015TIP3    H1 6002   4.996   7.524   0.253
 2015TIP3    H2 6003   4.873   7.520   0.340
 2016TIP3   OH2 6004   6.137   4.197   5.160
 2016TIP3    H1 6005   6.123   4.288   5.183
 2016TIP3    H2 6006   6.122   4.148   5.241
 2017TIP3   OH2 6007   0.816   4.285   0.975
 2017TIP3    H1 6008   0.741   4.251   0.925
 2017TIP3    H2 6009   0.892   4.240   0.937
 2018TIP3   OH2 6010   6.506   5.185   1.993
 2018TIP3    H1 6011   6.475   5.129   1.922
 2018TIP3    H2 6012   6.440   5.253   2.002
 2019TIP3   OH2 6013   6.419   5.131   3.245
 2019TIP3    H1 6014   6.465   5.093   3.171
 2019TIP3    H2 6015   6.476   5.116   3.320
 2020TIP3   OH2 6016   5.240   3.374   4.086
 2020TIP3    H1 6017   5.223   3.376   4.181
 2020TIP3    H2 6018   5.157   3.346   4.048
 2021TIP3   OH2 6019   1.280   3.986   2.822
 2021TIP3    H1 6020   1.294   4.080   2.809
 2021TIP3    H2 6021   1.256   3.954   2.735
 2022TIP3   OH2 6022   3.374   1.884   4.984
 2022TIP3    H1 6023   3.460   1.902   4.946
 2022TIP3    H2 6024   3.336   1.818   4.926
 2023TIP3   OH2 6025   5.414   2.041   2.158
 2023TIP3    H1 6026   5.365   1.959   2.165
 2023TIP3    H2 6027   5.347   2.109   2.167
 2024TIP3   OH2 6028   2.759   3.875   5.314
 2024TIP3    H1 6029   2.718   3.814   5.253
 2024TIP3    H2 6030   2.688   3.905   5.370
 2025TIP3   OH2 6031   2.037   5.291   3.281
 2025TIP3    H1 6032   2.070   5.228   3.345
 2025TIP3    H2 6033   2.116   5.334   3.248
 2026TIP3   OH2 6034   6.737   6.218   2.356
 2026TIP3    H1 6035   6.732   6.310   2.331
 2026TIP3    H2 6036   6.777   6.175   2.281
 2027TIP3   OH2 6037   6.813   0.820   2.504
 2027TIP3    H1 6038   6.732   0.821   2.453
 2027TIP3    H2 6039   6.784   0.833   2.595
 2028TIP3   OH2 6040   3.706   1.591   4.856
 2028TIP3    H1 6041   3.790   1.584   4.810
 2028TIP3    H2 6042   3.670   1.503   4.854
 2029TIP3   OH2 6043   3.017   1.962   0.797
 2029TIP3    H1 6044   3.073   1.886   0.779
 2029TIP3    H2 6045   3.042   2.026   0.729
 2030TIP3   OH2 6046   6.195   4.573   2.359
 2030TIP3    H1 6047   6.239   4.535   2.284
 2030TIP3    H2 6048   6.216   4.666   2.355
 2031TIP3   OH2 6049   4.156   4.196   5.386
 2031TIP3    H1 6050   4.123   4.263   5.325
 2031TIP3    H2 6051   4.224   4.151   5.337
 2032TIP3   OH2 6052   7.348   2.530   2.399
 2032TIP3    H1 6053   7.340   2.569   2.311
 2032TIP3    H2 6054   7.265   2.551   2.442
 2033TIP3   OH2 6055   5.218   0.437   4.390
 2033TIP3    H1 6056   5.186   0.461   4.303
 2033TIP3    H2 6057   5.142   0.444   4.447
 2034TIP3   OH2 6058   1.322   6.200   1.760
 2034TIP3    H1 6059   1.347   6.292   1.756
 2034TIP3    H2 6060   1.262   6.188   1.686
 2035TIP3   OH2 6061   7.490   4.560   6.312
 2035TIP3    H1 6062   7.485   4.591   6.403
 2035TIP3    H2 6063   7.567   4.504   6.311
 2036TIP3   OH2 6064   3.532   6.947   3.351
 2036TIP3    H1 6065   3.524   7.035   3.315
 2036TIP3    H2 6066   3.473   6.893   3.298
 2037TIP3   OH2 6067   7.151   2.792   6.457
 2037TIP3    H1 6068   7.173   2.727   6.524
 2037TIP3    H2 6069   7.075   2.755   6.412
 2038TIP3   OH2 6070   6.231   7.675   3.289
 2038TIP3    H1 6071   6.217   7.674   3.195
 2038TIP3    H2 6072   6.246   7.767   3.310
 2039TIP3   OH2 6073   1.865   6.176   2.922
 2039TIP3    H1 6074   1.953   6.158   2.891
 2039TIP3    H2 6075   1.875   6.199   3.014
 2040TIP3   OH2 6076   7.769   0.984   1.993
 2040TIP3    H1 6077   7.740   1.016   1.907
 2040TIP3    H2 6078   7.687   0.967   2.040
 2041TIP3   OH2 6079   3.707   0.744   1.366
 2041TIP3    H1 6080   3.757   0.699   1.298
 2041TIP3    H2 6081   3.670   0.674   1.419
 2042TIP3   OH2 6082   4.705   1.175   2.227
 2042TIP3    H1 6083   4.671   1.096   2.184
 2042TIP3    H2 6084   4.644   1.244   2.201
 2043TIP3   OH2 6085   6.745   6.740   1.057
 2043TIP3    H1 6086   6.819   6.682   1.077
 2043TIP3    H2 6087   6.683   6.684   1.011
 2044TIP3   OH2 6088   3.150   2.486   4.864
 2044TIP3    H1 6089   3.236   2.484   4.906
 2044TIP3    H2 6090   3.154   2.419   4.797
 2045TIP3   OH2 6091   6.760   1.253   1.976
 2045TIP3    H1 6092   6.750   1.332   2.028
 2045TIP3    H2 6093   6.830   1.204   2.020
 2046TIP3   OH2 6094   7.454   2.052   6.462
 2046TIP3    H1 6095   7.401   2.129   6.443
 2046TIP3    H2 6096   7.467   2.010   6.377
 2047TIP3   OH2 6097   1.508   3.779   1.804
 2047TIP3    H1 6098   1.462   3.721   1.864
 2047TIP3    H2 6099   1.578   3.817   1.857
 2048TIP3   OH2 6100   7.061   6.933   3.208
 2048TIP3    H1 6101   7.073   6.839   3.192
 2048TIP3    H2 6102   7.150   6.969   3.208
 2049TIP3   OH2 6103   5.590   1.673   2.771
 2049TIP3    H1 6104   5.529   1.600   2.774
 2049TIP3    H2 6105   5.627   1.677   2.860
 2050TIP3   OH2 6106   7.760   4.669   5.885
 2050TIP3    H1 6107   7.800   4.632   5.964
 2050TIP3    H2 6108   7.835   4.692   5.829
 2051TIP3   OH2 6109   1.951   1.661   1.901
 2051TIP3    H1 6110   1.863   1.694   1.918
 2051TIP3    H2 6111   1.941   1.605   1.824
 2052TIP3   OH2 6112   6.947   5.655   4.099
 2052TIP3    H1 6113   6.857   5.623   4.090
 2052TIP3    H2 6114   6.943   5.717   4.172
 2053TIP3   OH2 6115   5.453   1.786   0.816
 2053TIP3    H1 6116   5.423   1.762   0.904
 2053TIP3    H2 6117   5.519   1.853   0.830
 2054TIP3   OH2 6118   4.454   6.824   6.591
 2054TIP3    H1 6119   4.393   6.889   6.625
 2054TIP3    H2 6120   4.529   6.876   6.560
 2055TIP3   OH2 6121   4.700   1.201   0.783
 2055TIP3    H1 6122   4.665   1.114   0.765
 2055TIP3    H2 6123   4.698   1.246   0.699
 2056TIP3   OH2 6124   1.011   0.655   4.815
 2056TIP3    H1 6125   0.954   0.682   4.743
 2056TIP3    H2 6126   0.958   0.668   4.894
 2057TIP3   OH2 6127   0.178   0.857   2.356
 2057TIP3    H1 6128   0.145   0.822   2.439
 2057TIP3    H2 6129   0.130   0.809   2.289
 2058TIP3   OH2 6130   0.718   0.660   5.413
 2058TIP3    H1 6131   0.640   0.622   5.453
 2058TIP3    H2 6132   0.788   0.597   5.433
 2059TIP3   OH2 6133   4.707   4.789   3.148
 2059TIP3    H1 6134   4.664   4.872   3.126
 2059TIP3    H2 6135   4.636   4.736   3.186
 2060TIP3   OH2 6136   6.188   6.282   3.284
 2060TIP3    H1 6137   6.277   6.296   3.251
 2060TIP3    H2 6138   6.200   6.226   3.361
 2061TIP3   OH2 6139   7.000   2.622   0.977
 2061TIP3    H1 6140   7.014   2.616   1.072
 2061TIP3    H2 6141   6.912   2.659   0.968
 2062TIP3   OH2 6142   7.712   0.988   6.589
 2062TIP3    H1 6143   7.624   1.016   6.564
 2062TIP3    H2 6144   7.739   1.050   6.657
 2063TIP3   OH2 6145   7.077   1.099   1.826
 2063TIP3    H1 6146   7.008   1.077   1.763
 2063TIP3    H2 6147   7.060   1.040   1.900
 2064TIP3   OH2 6148   0.536   3.358   6.415
 2064TIP3    H1 6149   0.529   3.282   6.472
 2064TIP3    H2 6150   0.467   3.346   6.350
 2065TIP3   OH2 6151   5.489   5.066   0.728
 2065TIP3    H1 6152   5.573   5.080   0.770
 2065TIP3    H2 6153   5.427   5.116   0.781
 2066TIP3   OH2 6154   3.052   1.219   0.327
 2066TIP3    H1 6155   2.991   1.288   0.303
 2066TIP3    H2 6156   3.080   1.242   0.416
 2067TIP3   OH2 6157   2.099   4.721   4.388
 2067TIP3    H1 6158   2.189   4.736   4.360
 2067TIP3    H2 6159   2.080   4.791   4.450
 2068TIP3   OH2 6160   8.053   0.163   4.509
 2068TIP3    H1 6161   8.022   0.213   4.584
 2068TIP3    H2 6162   8.145   0.190   4.499
 2069TIP3   OH2 6163   3.923   4.131   4.308
 2069TIP3    H1 6164   3.837   4.100   4.280
 2069TIP3    H2 6165   3.904   4.200   4.372
 2070TIP3   OH2 6166   6.859   7.004   5.111
 2070TIP3    H1 6167   6.778   7.023   5.065
 2070TIP3    H2 6168   6.894   7.090   5.135
 2071TIP3   OH2 6169   0.432   1.551   4.189
 2071TIP3    H1 6170   0.512   1.512   4.224
 2071TIP3    H2 6171   0.452   1.571   4.098
 2072TIP3   OH2 6172   1.115   4.613   5.388
 2072TIP3    H1 6173   1.062   4.546   5.432
 2072TIP3    H2 6174   1.133   4.678   5.455
 2073TIP3   OH2 6175   1.300   5.100   6.603
 2073TIP3    H1 6176   1.369   5.137   6.658
 2073TIP3    H2 6177   1.241   5.174   6.585
 2074TIP3   OH2 6178   4.111   5.971   6.602
 2074TIP3    H1 6179   4.123   6.038   6.670
 2074TIP3    H2 6180   4.181   5.988   6.539
 2075TIP3   OH2 6181   4.113   5.736   0.470
 2075TIP3    H1 6182   4.135   5.775   0.385
 2075TIP3    H2 6183   4.025   5.767   0.489
 2076TIP3   OH2 6184   3.470   6.602   2.031
 2076TIP3    H1 6185   3.411   6.665   2.072
 2076TIP3    H2 6186   3.453   6.519   2.077
 2077TIP3   OH2 6187   7.142   3.769   6.310
 2077TIP3    H1 6188   7.179   3.846   6.354
 2077TIP3    H2 6189   7.199   3.697   6.335
 2078TIP3   OH2 6190   2.134   1.414   4.209
 2078TIP3    H1 6191   2.182   1.495   4.188
 2078TIP3    H2 6192   2.137   1.410   4.305
 2079TIP3   OH2 6193   4.909   3.844   5.858
 2079TIP3    H1 6194   4.926   3.937   5.875
 2079TIP3    H2 6195   4.817   3.841   5.834
 2080TIP3   OH2 6196   7.353   7.364   0.276
 2080TIP3    H1 6197   7.275   7.373   0.330
 2080TIP3    H2 6198   7.425   7.384   0.335
 2081TIP3   OH2 6199   4.667   7.296   2.925
 2081TIP3    H1 6200   4.732   7.242   2.970
 2081TIP3    H2 6201   4.592   7.300   2.985
 2082TIP3   OH2 6202   1.718   2.950   1.182
 2082TIP3    H1 6203   1.633   2.906   1.178
 2082TIP3    H2 6204   1.696   3.044   1.175
 2083TIP3   OH2 6205   0.908   7.610   4.955
 2083TIP3    H1 6206   1.001   7.597   4.969
 2083TIP3    H2 6207   0.870   7.611   5.043
 2084TIP3   OH2 6208   7.482   1.968   1.089
 2084TIP3    H1 6209   7.424   2.041   1.065
 2084TIP3    H2 6210   7.538   2.004   1.157
 2085TIP3   OH2 6211   6.774   1.389   4.382
 2085TIP3    H1 6212   6.838   1.456   4.355
 2085TIP3    H2 6213   6.746   1.349   4.300
 2086TIP3   OH2 6214   6.190   4.195   3.408
 2086TIP3    H1 6215   6.131   4.156   3.473
 2086TIP3    H2 6216   6.152   4.169   3.324
 2087TIP3   OH2 6217   3.467   7.088   0.736
 2087TIP3    H1 6218   3.441   6.996   0.748
 2087TIP3    H2 6219   3.562   7.087   0.745
 2088TIP3   OH2 6220   0.998   1.015   4.922
 2088TIP3    H1 6221   0.984   1.110   4.927
 2088TIP3    H2 6222   0.990   0.985   5.013
 2089TIP3   OH2 6223   0.239   4.209   4.696
 2089TIP3    H1 6224   0.267   4.126   4.659
 2089TIP3    H2 6225   0.315   4.266   4.689
 2090TIP3   OH2 6226   7.318   7.411   5.340
 2090TIP3    H1 6227   7.327   7.379   5.250
 2090TIP3    H2 6228   7.233   7.454   5.341
 2091TIP3   OH2 6229   6.072   5.352   6.754
 2091TIP3    H1 6230   6.028   5.269   6.737
 2091TIP3    H2 6231   6.074   5.397   6.669
 2092TIP3   OH2 6232   7.392   3.437   2.972
 2092TIP3    H1 6233   7.400   3.363   3.033
 2092TIP3    H2 6234   7.434   3.510   3.018
 2093TIP3   OH2 6235   4.930   4.510   5.547
 2093TIP3    H1 6236   4.873   4.453   5.597
 2093TIP3    H2 6237   4.999   4.535   5.609
 2094TIP3   OH2 6238   2.296   1.333   3.525
 2094TIP3    H1 6239   2.353   1.284   3.585
 2094TIP3    H2 6240   2.328   1.311   3.438
 2095TIP3   OH2 6241   3.687   2.721   4.776
 2095TIP3    H1 6242   3.652   2.809   4.761
 2095TIP3    H2 6243   3.732   2.699   4.695
 2096TIP3   OH2 6244   1.616   4.067   6.695
 2096TIP3    H1 6245   1.533   4.114   6.691
 2096TIP3    H2 6246   1.592   3.978   6.722
 2097TIP3   OH2 6247   0.975   3.199   1.737
 2097TIP3    H1 6248   1.050   3.180   1.792
 2097TIP3    H2 6249   1.010   3.257   1.668
 2098TIP3   OH2 6250   0.768   5.292   5.437
 2098TIP3    H1 6251   0.692   5.251   5.478
 2098TIP3    H2 6252   0.731   5.365   5.387
 2099TIP3   OH2 6253   1.435   7.235   2.225
 2099TIP3    H1 6254   1.459   7.325   2.243
 2099TIP3    H2 6255   1.385   7.240   2.143
 2100TIP3   OH2 6256   0.898   6.577   4.530
 2100TIP3    H1 6257   0.950   6.500   4.551
 2100TIP3    H2 6258   0.919   6.639   4.600
 2101TIP3   OH2 6259   3.048   3.668   4.177
 2101TIP3    H1 6260   3.121   3.730   4.174
 2101TIP3    H2 6261   2.983   3.706   4.118
 2102TIP3   OH2 6262   6.760   1.599   0.602
 2102TIP3    H1 6263   6.836   1.651   0.576
 2102TIP3    H2 6264   6.756   1.609   0.697
 2103TIP3   OH2 6265   0.897   2.266   3.562
 2103TIP3    H1 6266   0.967   2.253   3.626
 2103TIP3    H2 6267   0.819   2.228   3.603
 2104TIP3   OH2 6268   3.207   0.883   3.959
 2104TIP3    H1 6269   3.223   0.888   3.865
 2104TIP3    H2 6270   3.124   0.928   3.972
 2105TIP3   OH2 6271   5.746   6.944   0.233
 2105TIP3    H1 6272   5.736   6.985   0.146
 2105TIP3    H2 6273   5.807   7.001   0.279
 2106TIP3   OH2 6274   1.262   6.751   0.536
 2106TIP3    H1 6275   1.204   6.742   0.611
 2106TIP3    H2 6276   1.259   6.666   0.493
 2107TIP3   OH2 6277   2.224   4.953   6.733
 2107TIP3    H1 6278   2.230   4.956   6.637
 2107TIP3    H2 6279   2.205   4.861   6.752
 2108TIP3   OH2 6280   3.924   7.624   2.628
 2108TIP3    H1 6281   3.853   7.686   2.613
 2108TIP3    H2 6282   4.000   7.678   2.651
 2109TIP3   OH2 6283   0.218   4.449   4.185
 2109TIP3    H1 6284   0.144   4.476   4.131
 2109TIP3    H2 6285   0.259   4.531   4.212
 2110TIP3   OH2 6286   4.309   2.804   4.449
 2110TIP3    H1 6287   4.213   2.802   4.456
 2110TIP3    H2 6288   4.327   2.879   4.393
 2111TIP3   OH2 6289   5.668   3.563   3.083
 2111TIP3    H1 6290   5.722   3.602   3.152
 2111TIP3    H2 6291   5.634   3.483   3.122
 2112TIP3   OH2 6292   5.367   6.671   4.061
 2112TIP3    H1 6293   5.368   6.612   4.136
 2112TIP3    H2 6294   5.460   6.688   4.044
 2113TIP3   OH2 6295   1.144   5.997   2.957
 2113TIP3    H1 6296   1.231   6.010   2.918
 2113TIP3    H2 6297   1.136   5.902   2.966
 2114TIP3   OH2 6298   7.747   4.410   0.400
 2114TIP3    H1 6299   7.799   4.334   0.374
 2114TIP3    H2 6300   7.777   4.430   0.489
 2115TIP3   OH2 6301   5.907   1.542   6.392
 2115TIP3    H1 6302   5.947   1.544   6.479
 2115TIP3    H2 6303   5.838   1.608   6.395
 2116TIP3   OH2 6304   3.885   1.697   5.013
 2116TIP3    H1 6305   3.855   1.665   5.098
 2116TIP3    H2 6306   3.817   1.670   4.952
 2117TIP3   OH2 6307   4.522   1.336   2.147
 2117TIP3    H1 6308   4.451   1.400   2.157
 2117TIP3    H2 6309   4.480   1.260   2.107
 2118TIP3   OH2 6310   2.878   5.482   2.214
 2118TIP3    H1 6311   2.879   5.386   2.214
 2118TIP3    H2 6312   2.943   5.507   2.280
 2119TIP3   OH2 6313   0.031   1.552   5.748
 2119TIP3    H1 6314   0.044   1.630   5.802
 2119TIP3    H2 6315   0.119   1.516   5.736
 2120TIP3   OH2 6316   5.223   0.730   1.560
 2120TIP3    H1 6317   5.289   0.696   1.500
 2120TIP3    H2 6318   5.142   0.732   1.508
 2121TIP3   OH2 6319   1.781   5.180   3.523
 2121TIP3    H1 6320   1.782   5.257   3.466
 2121TIP3    H2 6321   1.874   5.165   3.544
 2122TIP3   OH2 6322   8.127   4.222   0.759
 2122TIP3    H1 6323   8.051   4.196   0.707
 2122TIP3    H2 6324   8.159   4.141   0.798
 2123TIP3   OH2 6325   0.938   1.066   0.471
 2123TIP3    H1 6326   0.993   1.133   0.432
 2123TIP3    H2 6327   0.869   1.115   0.517
 2124TIP3   OH2 6328   5.760   3.769   0.515
 2124TIP3    H1 6329   5.827   3.820   0.470
 2124TIP3    H2 6330   5.705   3.734   0.445
 2125TIP3   OH2 6331   4.971   2.334   4.173
 2125TIP3    H1 6332   5.023   2.253   4.172
 2125TIP3    H2 6333   4.891   2.311   4.220
 2126TIP3   OH2 6334   2.700   1.652   2.728
 2126TIP3    H1 6335   2.745   1.736   2.728
 2126TIP3    H2 6336   2.701   1.624   2.636
 2127TIP3   OH2 6337   1.399   6.796   3.619
 2127TIP3    H1 6338   1.457   6.720   3.614
 2127TIP3    H2 6339   1.313   6.762   3.594
 2128TIP3   OH2 6340   3.655   1.145   3.021
 2128TIP3    H1 6341   3.613   1.138   2.935
 2128TIP3    H2 6342   3.620   1.072   3.071
 2129TIP3   OH2 6343   0.172   1.921   3.578
 2129TIP3    H1 6344   0.141   2.009   3.557
 2129TIP3    H2 6345   0.157   1.911   3.672
 2130TIP3   OH2 6346   2.824   4.089   4.676
 2130TIP3    H1 6347   2.832   4.176   4.638
 2130TIP3    H2 6348   2.781   4.037   4.609
 2131TIP3   OH2 6349   0.998   5.091   6.362
 2131TIP3    H1 6350   0.938   5.150   6.408
 2131TIP3    H2 6351   1.072   5.147   6.338
 2132TIP3   OH2 6352   1.210   3.446   1.778
 2132TIP3    H1 6353   1.243   3.392   1.706
 2132TIP3    H2 6354   1.132   3.489   1.742
 2133TIP3   OH2 6355   1.261   4.827  -0.008
 2133TIP3    H1 6356   1.172   4.796  -0.020
 2133TIP3    H2 6357   1.257   4.885   0.068
 2134TIP3   OH2 6358   0.160   3.511   3.080
 2134TIP3    H1 6359   0.091   3.555   3.031
 2134TIP3    H2 6360   0.227   3.578   3.094
 2135TIP3   OH2 6361   6.224   1.258   1.014
 2135TIP3    H1 6362   6.226   1.347   1.049
 2135TIP3    H2 6363   6.224   1.202   1.092
 2136TIP3   OH2 6364   1.750   7.310   4.892
 2136TIP3    H1 6365   1.752   7.287   4.799
 2136TIP3    H2 6366   1.702   7.392   4.895
 2137TIP3   OH2 6367   7.336   5.228   2.043
 2137TIP3    H1 6368   7.425   5.262   2.037
 2137TIP3    H2 6369   7.283   5.289   1.993
 2138TIP3   OH2 6370   3.227   2.421   3.456
 2138TIP3    H1 6371   3.145   2.463   3.481
 2138TIP3    H2 6372   3.282   2.492   3.423
 2139TIP3   OH2 6373   4.474   4.998   1.752
 2139TIP3    H1 6374   4.404   4.947   1.710
 2139TIP3    H2 6375   4.482   4.959   1.839
 2140TIP3   OH2 6376   1.929   6.140   4.026
 2140TIP3    H1 6377   2.011   6.100   4.055
 2140TIP3    H2 6378   1.910   6.098   3.942
 2141TIP3   OH2 6379   7.700   0.739   3.863
 2141TIP3    H1 6380   7.719   0.754   3.771
 2141TIP3    H2 6381   7.769   0.787   3.910
 2142TIP3   OH2 6382   3.672   0.420   6.311
 2142TIP3    H1 6383   3.681   0.368   6.231
 2142TIP3    H2 6384   3.604   0.376   6.361
 2143TIP3   OH2 6385   2.242   4.960   0.770
 2143TIP3    H1 6386   2.160   4.945   0.817
 2143TIP3    H2 6387   2.221   4.939   0.678
 2144TIP3   OH2 6388   0.015   4.688   1.294
 2144TIP3    H1 6389   0.057   4.753   1.350
 2144TIP3    H2 6390   0.009   4.609   1.348
 2145TIP3   OH2 6391   7.074   1.887   0.828
 2145TIP3    H1 6392   7.066   1.964   0.884
 2145TIP3    H2 6393   7.105   1.818   0.887
 2146TIP3   OH2 6394   4.404   0.423   5.541
 2146TIP3    H1 6395   4.437   0.335   5.519
 2146TIP3    H2 6396   4.482   0.478   5.545
 2147TIP3   OH2 6397   7.876   7.838   0.494
 2147TIP3    H1 6398   7.901   7.784   0.569
 2147TIP3    H2 6399   7.782   7.853   0.506
 2148TIP3   OH2 6400   4.694   0.498   3.861
 2148TIP3    H1 6401   4.681   0.563   3.930
 2148TIP3    H2 6402   4.675   0.414   3.903
 2149TIP3   OH2 6403   3.247   3.036   2.147
 2149TIP3    H1 6404   3.234   3.047   2.053
 2149TIP3    H2 6405   3.342   3.047   2.159
 2150TIP3   OH2 6406   3.565   4.528   5.874
 2150TIP3    H1 6407   3.581   4.439   5.905
 2150TIP3    H2 6408   3.471   4.531   5.856
 2151TIP3   OH2 6409   4.703   5.158   0.843
 2151TIP3    H1 6410   4.652   5.078   0.853
 2151TIP3    H2 6411   4.639   5.225   0.821
 2152TIP3   OH2 6412   3.000   2.521   5.849
 2152TIP3    H1 6413   2.970   2.438   5.886
 2152TIP3    H2 6414   3.063   2.554   5.913
 2153TIP3   OH2 6415   3.667   7.483   3.275
 2153TIP3    H1 6416   3.576   7.473   3.247
 2153TIP3    H2 6417   3.683   7.408   3.332
 2154TIP3   OH2 6418   5.539   2.777   2.991
 2154TIP3    H1 6419   5.497   2.812   3.069
 2154TIP3    H2 6420   5.491   2.697   2.970
 2155TIP3   OH2 6421   0.144   3.242   0.764
 2155TIP3    H1 6422   0.071   3.234   0.704
 2155TIP3    H2 6423   0.220   3.255   0.708
 2156TIP3   OH2 6424   3.225   7.316   4.795
 2156TIP3    H1 6425   3.163   7.262   4.746
 2156TIP3    H2 6426   3.170   7.382   4.838
 2157TIP3   OH2 6427   6.555   6.746   2.281
 2157TIP3    H1 6428   6.528   6.763   2.371
 2157TIP3    H2 6429   6.485   6.782   2.228
 2158TIP3   OH2 6430   2.314   0.524   3.286
 2158TIP3    H1 6431   2.328   0.430   3.298
 2158TIP3    H2 6432   2.247   0.530   3.217
 2159TIP3   OH2 6433   6.810   7.815   3.008
 2159TIP3    H1 6434   6.846   7.903   3.003
 2159TIP3    H2 6435   6.818   7.780   2.920
 2160TIP3   OH2 6436   2.342   4.600   0.632
 2160TIP3    H1 6437   2.404   4.553   0.577
 2160TIP3    H2 6438   2.374   4.690   0.634
 2161TIP3   OH2 6439   3.355   7.597   3.713
 2161TIP3    H1 6440   3.287   7.558   3.658
 2161TIP3    H2 6441   3.430   7.538   3.704
 2162TIP3   OH2 6442   2.125   1.633   3.855
 2162TIP3    H1 6443   2.179   1.610   3.779
 2162TIP3    H2 6444   2.048   1.577   3.848
 2163TIP3   OH2 6445   7.882   1.637   6.495
 2163TIP3    H1 6446   7.948   1.602   6.435
 2163TIP3    H2 6447   7.853   1.718   6.454
 2164TIP3   OH2 6448   0.067   0.058   2.916
 2164TIP3    H1 6449   0.137   0.115   2.883
 2164TIP3    H2 6450   0.110   0.000   2.979
 2165TIP3   OH2 6451   3.577   4.591   2.177
 2165TIP3    H1 6452   3.640   4.575   2.108
 2165TIP3    H2 6453   3.579   4.686   2.189
 2166TIP3   OH2 6454   0.765   5.848   0.994
 2166TIP3    H1 6455   0.831   5.836   0.926
 2166TIP3    H2 6456   0.814   5.882   1.069
 2167TIP3   OH2 6457   1.019   2.129   1.637
 2167TIP3    H1 6458   1.059   2.165   1.717
 2167TIP3    H2 6459   0.999   2.038   1.660
 2168TIP3   OH2 6460   6.606   7.326   3.504
 2168TIP3    H1 6461   6.525   7.337   3.454
 2168TIP3    H2 6462   6.645   7.413   3.504
 2169TIP3   OH2 6463   2.591   0.251   5.015
 2169TIP3    H1 6464   2.546   0.270   4.933
 2169TIP3    H2 6465   2.682   0.273   4.998
 2170TIP3   OH2 6466   1.964   7.282   3.467
 2170TIP3    H1 6467   1.869   7.290   3.463
 2170TIP3    H2 6468   1.979   7.209   3.527
 2171TIP3   OH2 6469   0.977   2.964   4.459
 2171TIP3    H1 6470   0.912   2.915   4.509
 2171TIP3    H2 6471   0.957   3.056   4.476
 2172TIP3   OH2 6472   7.054   7.505   6.161
 2172TIP3    H1 6473   7.107   7.429   6.184
 2172TIP3    H2 6474   7.036   7.548   6.245
 2173TIP3   OH2 6475   7.920   4.648   1.854
 2173TIP3    H1 6476   7.837   4.658   1.807
 2173TIP3    H2 6477   7.912   4.566   1.902
 2174TIP3   OH2 6478   6.934   0.580   3.647
 2174TIP3    H1 6479   7.008   0.639   3.639
 2174TIP3    H2 6480   6.972   0.496   3.673
 2175TIP3   OH2 6481   6.076   5.999   3.119
 2175TIP3    H1 6482   6.042   6.071   3.171
 2175TIP3    H2 6483   6.169   6.017   3.109
 2176TIP3   OH2 6484   6.236   5.860   5.234
 2176TIP3    H1 6485   6.289   5.785   5.207
 2176TIP3    H2 6486   6.231   5.916   5.156
 2177TIP3   OH2 6487   2.664   5.756   1.475
 2177TIP3    H1 6488   2.696   5.683   1.529
 2177TIP3    H2 6489   2.741   5.811   1.462
 2178TIP3   OH2 6490   0.455   4.079   5.284
 2178TIP3    H1 6491   0.376   4.027   5.265
 2178TIP3    H2 6492   0.436   4.122   5.367
 2179TIP3   OH2 6493   1.573   5.705   3.259
 2179TIP3    H1 6494   1.587   5.798   3.246
 2179TIP3    H2 6495   1.486   5.688   3.224
 2180TIP3   OH2 6496   3.240   6.489   0.153
 2180TIP3    H1 6497   3.226   6.429   0.079
 2180TIP3    H2 6498   3.233   6.576   0.114
 2181TIP3   OH2 6499   8.028   4.227   6.258
 2181TIP3    H1 6500   7.997   4.310   6.221
 2181TIP3    H2 6501   8.119   4.220   6.228
 2182TIP3   OH2 6502   5.758   0.156   6.483
 2182TIP3    H1 6503   5.727   0.238   6.522
 2182TIP3    H2 6504   5.679   0.105   6.468
 2183TIP3   OH2 6505   1.534   4.944   2.015
 2183TIP3    H1 6506   1.589   4.968   1.940
 2183TIP3    H2 6507   1.445   4.967   1.988
 2184TIP3   OH2 6508   4.767   6.117   6.250
 2184TIP3    H1 6509   4.746   6.023   6.245
 2184TIP3    H2 6510   4.683   6.161   6.238
 2185TIP3   OH2 6511   7.474   1.788   6.585
 2185TIP3    H1 6512   7.510   1.864   6.540
 2185TIP3    H2 6513   7.490   1.805   6.678
 2186TIP3   OH2 6514   1.317   1.590   2.772
 2186TIP3    H1 6515   1.383   1.623   2.710
 2186TIP3    H2 6516   1.354   1.611   2.858
 2187TIP3   OH2 6517   1.513   6.990   6.536
 2187TIP3    H1 6518   1.485   7.045   6.609
 2187TIP3    H2 6519   1.584   6.937   6.571
 2188TIP3   OH2 6520   1.712   5.611   3.682
 2188TIP3    H1 6521   1.700   5.649   3.769
 2188TIP3    H2 6522   1.786   5.551   3.693
 2189TIP3   OH2 6523   3.494   6.825   0.860
 2189TIP3    H1 6524   3.495   6.871   0.944
 2189TIP3    H2 6525   3.584   6.794   0.849
 2190TIP3   OH2 6526   0.999   5.246   2.175
 2190TIP3    H1 6527   1.039   5.253   2.262
 2190TIP3    H2 6528   0.962   5.333   2.159
 2191TIP3   OH2 6529   3.018   7.355   5.858
 2191TIP3    H1 6530   2.941   7.370   5.912
 2191TIP3    H2 6531   3.089   7.400   5.905
 2192TIP3   OH2 6532   0.731   2.022   4.035
 2192TIP3    H1 6533   0.644   2.046   4.004
 2192TIP3    H2 6534   0.715   1.968   4.112
 2193TIP3   OH2 6535   6.071   3.284   5.108
 2193TIP3    H1 6536   6.030   3.216   5.055
 2193TIP3    H2 6537   6.124   3.334   5.047
 2194TIP3   OH2 6538   3.706   5.005   3.953
 2194TIP3    H1 6539   3.771   4.936   3.938
 2194TIP3    H2 6540   3.624   4.958   3.963
 2195TIP3   OH2 6541   3.596   6.478   4.783
 2195TIP3    H1 6542   3.611   6.391   4.745
 2195TIP3    H2 6543   3.629   6.539   4.718
 2196TIP3   OH2 6544   2.252   1.079   2.897
 2196TIP3    H1 6545   2.188   1.081   2.825
 2196TIP3    H2 6546   2.272   0.987   2.909
 2197TIP3   OH2 6547   0.330   6.420   5.625
 2197TIP3    H1 6548   0.294   6.373   5.550
 2197TIP3    H2 6549   0.379   6.355   5.674
 2198TIP3   OH2 6550   1.779   2.287   1.572
 2198TIP3    H1 6551   1.856   2.272   1.518
 2198TIP3    H2 6552   1.722   2.212   1.554
 2199TIP3   OH2 6553   7.595   6.450   5.391
 2199TIP3    H1 6554   7.618   6.460   5.483
 2199TIP3    H2 6555   7.537   6.524   5.372
 2200TIP3   OH2 6556   6.097   0.695   5.282
 2200TIP3    H1 6557   6.138   0.624   5.331
 2200TIP3    H2 6558   6.005   0.671   5.277
 2201TIP3   OH2 6559   6.560   0.184   5.077
 2201TIP3    H1 6560   6.610   0.261   5.101
 2201TIP3    H2 6561   6.568   0.179   4.981
 2202TIP3   OH2 6562   2.283   2.310   3.770
 2202TIP3    H1 6563   2.242   2.314   3.684
 2202TIP3    H2 6564   2.366   2.357   3.760
 2203TIP3   OH2 6565   1.903   4.938   2.179
 2203TIP3    H1 6566   1.859   4.853   2.174
 2203TIP3    H2 6567   1.832   5.002   2.183
 2204TIP3   OH2 6568   1.988   3.000   1.128
 2204TIP3    H1 6569   1.904   2.975   1.168
 2204TIP3    H2 6570   2.036   2.918   1.118
 2205TIP3   OH2 6571   1.211   2.713   4.993
 2205TIP3    H1 6572   1.243   2.638   5.044
 2205TIP3    H2 6573   1.196   2.782   5.058
 2206TIP3   OH2 6574   4.859   5.358   6.143
 2206TIP3    H1 6575   4.939   5.387   6.100
 2206TIP3    H2 6576   4.804   5.325   6.072
 2207TIP3   OH2 6577   7.413   1.671   4.966
 2207TIP3    H1 6578   7.432   1.599   5.026
 2207TIP3    H2 6579   7.486   1.732   4.978
 2208TIP3   OH2 6580   7.428   2.344   1.842
 2208TIP3    H1 6581   7.382   2.377   1.765
 2208TIP3    H2 6582   7.511   2.311   1.808
 2209TIP3   OH2 6583   8.202   5.890   6.318
 2209TIP3    H1 6584   8.144   5.903   6.393
 2209TIP3    H2 6585   8.237   5.977   6.299
 2210TIP3   OH2 6586   0.622   1.811   4.840
 2210TIP3    H1 6587   0.670   1.883   4.881
 2210TIP3    H2 6588   0.664   1.731   4.873
 2211TIP3   OH2 6589   4.328   4.789   6.097
 2211TIP3    H1 6590   4.242   4.783   6.056
 2211TIP3    H2 6591   4.386   4.741   6.037
 2212TIP3   OH2 6592   6.191   1.070   6.685
 2212TIP3    H1 6593   6.171   1.009   6.756
 2212TIP3    H2 6594   6.150   1.033   6.608
 2213TIP3   OH2 6595   6.339   0.684   2.379
 2213TIP3    H1 6596   6.263   0.741   2.366
 2213TIP3    H2 6597   6.332   0.618   2.311
 2214TIP3   OH2 6598   4.680   2.449   3.773
 2214TIP3    H1 6599   4.703   2.372   3.721
 2214TIP3    H2 6600   4.750   2.512   3.756
 2215TIP3   OH2 6601   8.144   3.273   0.317
 2215TIP3    H1 6602   8.179   3.243   0.401
 2215TIP3    H2 6603   8.078   3.207   0.294
 2216TIP3   OH2 6604   4.596   7.691   5.186
 2216TIP3    H1 6605   4.600   7.610   5.135
 2216TIP3    H2 6606   4.626   7.665   5.274
 2217TIP3   OH2 6607   3.865   3.597   5.275
 2217TIP3    H1 6608   3.870   3.510   5.315
 2217TIP3    H2 6609   3.813   3.649   5.335
 2218TIP3   OH2 6610   8.031   2.730   6.247
 2218TIP3    H1 6611   7.967   2.797   6.224
 2218TIP3    H2 6612   8.115   2.777   6.249
 2219TIP3   OH2 6613   7.325   1.330   4.525
 2219TIP3    H1 6614   7.235   1.319   4.554
 2219TIP3    H2 6615   7.350   1.417   4.556
 2220TIP3   OH2 6616   7.493  -0.012   4.805
 2220TIP3    H1 6617   7.420   0.022   4.857
 2220TIP3    H2 6618   7.461  -0.012   4.715
 2221TIP3   OH2 6619   1.093   7.517   1.103
 2221TIP3    H1 6620   1.034   7.516   1.028
 2221TIP3    H2 6621   1.169   7.466   1.075
 2222TIP3   OH2 6622   5.171   3.103   5.343
 2222TIP3    H1 6623   5.109   3.095   5.270
 2222TIP3    H2 6624   5.253   3.129   5.302
 2223TIP3   OH2 6625   6.330   2.979   2.067
 2223TIP3    H1 6626   6.375   3.011   1.988
 2223TIP3    H2 6627   6.294   2.895   2.041
 2224TIP3   OH2 6628   2.189   4.888   2.190
 2224TIP3    H1 6629   2.094   4.876   2.183
 2224TIP3    H2 6630   2.219   4.897   2.100
 2225TIP3   OH2 6631   7.691   1.761   3.080
 2225TIP3    H1 6632   7.776   1.786   3.043
 2225TIP3    H2 6633   7.712   1.735   3.170
 2226TIP3   OH2 6634   4.336   1.164   2.046
 2226TIP3    H1 6635   4.268   1.207   1.995
 2226TIP3    H2 6636   4.334   1.073   2.016
 2227TIP3   OH2 6637   5.475   3.290   2.425
 2227TIP3    H1 6638   5.486   3.276   2.519
 2227TIP3    H2 6639   5.398   3.238   2.401
 2228TIP3   OH2 6640   4.534   0.762   3.407
 2228TIP3    H1 6641   4.587   0.790   3.481
 2228TIP3    H2 6642   4.444   0.766   3.440
 2229TIP3   OH2 6643   7.316   1.548   5.294
 2229TIP3    H1 6644   7.399   1.559   5.341
 2229TIP3    H2 6645   7.341   1.523   5.205
 2230TIP3   OH2 6646   4.058   4.839   6.059
 2230TIP3    H1 6647   3.996   4.771   6.035
 2230TIP3    H2 6648   4.003   4.914   6.084
 2231TIP3   OH2 6649   6.766   5.301   4.580
 2231TIP3    H1 6650   6.698   5.237   4.561
 2231TIP3    H2 6651   6.846   5.250   4.591
 2232TIP3   OH2 6652   2.735   0.339   3.219
 2232TIP3    H1 6653   2.713   0.350   3.127
 2232TIP3    H2 6654   2.828   0.316   3.220
 2233TIP3   OH2 6655   0.994   0.515   4.454
 2233TIP3    H1 6656   1.021   0.581   4.517
 2233TIP3    H2 6657   0.942   0.453   4.505
 2234TIP3   OH2 6658   0.045   0.560   3.772
 2234TIP3    H1 6659   0.017   0.499   3.840
 2234TIP3    H2 6660  -0.002   0.531   3.694
 2235TIP3   OH2 6661   6.880   7.404   5.690
 2235TIP3    H1 6662   6.940   7.414   5.616
 2235TIP3    H2 6663   6.845   7.315   5.680
 2236TIP3   OH2 6664   2.112   5.615   1.270
 2236TIP3    H1 6665   2.127   5.554   1.342
 2236TIP3    H2 6666   2.047   5.676   1.305
 2237TIP3   OH2 6667   7.649   0.929   3.631
 2237TIP3    H1 6668   7.582   0.944   3.697
 2237TIP3    H2 6669   7.606   0.878   3.563
 2238TIP3   OH2 6670   6.412   5.992   1.651
 2238TIP3    H1 6671   6.465   6.068   1.675
 2238TIP3    H2 6672   6.413   5.937   1.730
 2239TIP3   OH2 6673   1.981   6.357   1.689
 2239TIP3    H1 6674   1.994   6.398   1.775
 2239TIP3    H2 6675   2.069   6.340   1.657
 2240TIP3   OH2 6676   3.777   5.473   3.274
 2240TIP3    H1 6677   3.691   5.476   3.316
 2240TIP3    H2 6678   3.760   5.437   3.187
 2241TIP3   OH2 6679   2.160   4.181   6.722
 2241TIP3    H1 6680   2.082   4.133   6.694
 2241TIP3    H2 6681   2.221   4.112   6.749
 2242TIP3   OH2 6682   4.319   3.061   5.156
 2242TIP3    H1 6683   4.334   3.124   5.086
 2242TIP3    H2 6684   4.401   3.012   5.163
 2243TIP3   OH2 6685   6.516   4.782   2.219
 2243TIP3    H1 6686   6.475   4.867   2.207
 2243TIP3    H2 6687   6.491   4.731   2.142
 2244TIP3   OH2 6688   1.479   1.933   3.517
 2244TIP3    H1 6689   1.464   1.879   3.440
 2244TIP3    H2 6690   1.510   1.873   3.584
 2245TIP3   OH2 6691   6.316   0.975   6.260
 2245TIP3    H1 6692   6.379   0.941   6.197
 2245TIP3    H2 6693   6.268   0.899   6.290
 2246TIP3   OH2 6694   1.520   1.634   5.417
 2246TIP3    H1 6695   1.515   1.554   5.364
 2246TIP3    H2 6696   1.614   1.649   5.428
 2247TIP3   OH2 6697   5.997   5.883   5.916
 2247TIP3    H1 6698   6.088   5.863   5.892
 2247TIP3    H2 6699   5.998   5.891   6.011
 2248TIP3   OH2 6700   2.069   2.483   2.858
 2248TIP3    H1 6701   2.091   2.392   2.837
 2248TIP3    H2 6702   2.003   2.507   2.793
 2249TIP3   OH2 6703   0.821   2.913   1.461
 2249TIP3    H1 6704   0.841   2.919   1.367
 2249TIP3    H2 6705   0.757   2.842   1.467
 2250TIP3   OH2 6706   2.035   4.200   6.158
 2250TIP3    H1 6707   2.129   4.216   6.166
 2250TIP3    H2 6708   1.998   4.238   6.238
 2251TIP3   OH2 6709   1.933   3.637   4.586
 2251TIP3    H1 6710   1.851   3.589   4.574
 2251TIP3    H2 6711   1.947   3.637   4.681
 2252TIP3   OH2 6712   0.293   3.548   1.767
 2252TIP3    H1 6713   0.218   3.606   1.756
 2252TIP3    H2 6714   0.272   3.471   1.714
 2253TIP3   OH2 6715   0.413   4.717   2.110
 2253TIP3    H1 6716   0.437   4.730   2.202
 2253TIP3    H2 6717   0.472   4.647   2.080
 2254TIP3   OH2 6718   5.614   3.030   6.373
 2254TIP3    H1 6719   5.557   2.954   6.384
 2254TIP3    H2 6720   5.701   2.997   6.396
 2255TIP3   OH2 6721   4.978   1.619   2.914
 2255TIP3    H1 6722   5.056   1.666   2.883
 2255TIP3    H2 6723   4.905   1.666   2.875
 2256TIP3   OH2 6724   7.163   1.457   5.686
 2256TIP3    H1 6725   7.138   1.436   5.776
 2256TIP3    H2 6726   7.202   1.376   5.652
 2257TIP3   OH2 6727   1.393   1.251   1.143
 2257TIP3    H1 6728   1.447   1.329   1.133
 2257TIP3    H2 6729   1.368   1.250   1.235
 2258TIP3   OH2 6730   7.854   4.996   0.241
 2258TIP3    H1 6731   7.891   4.908   0.241
 2258TIP3    H2 6732   7.858   5.024   0.150
 2259TIP3   OH2 6733   4.998   4.778   6.011
 2259TIP3    H1 6734   5.044   4.705   6.054
 2259TIP3    H2 6735   4.982   4.747   5.922
 2260TIP3   OH2 6736   7.623   2.438   0.268
 2260TIP3    H1 6737   7.711   2.402   0.274
 2260TIP3    H2 6738   7.568   2.373   0.313
 2261TIP3   OH2 6739   1.101   1.856   4.061
 2261TIP3    H1 6740   1.147   1.923   4.113
 2261TIP3    H2 6741   1.164   1.784   4.055
 2262TIP3   OH2 6742   7.899   1.696   1.707
 2262TIP3    H1 6743   7.871   1.647   1.630
 2262TIP3    H2 6744   7.836   1.671   1.775
 2263TIP3   OH2 6745   5.484   4.922   4.449
 2263TIP3    H1 6746   5.542   4.984   4.494
 2263TIP3    H2 6747   5.496   4.941   4.356
 2264TIP3   OH2 6748   3.831   6.011   2.957
 2264TIP3    H1 6749   3.741   5.985   2.974
 2264TIP3    H2 6750   3.825   6.072   2.884
 2265TIP3   OH2 6751   5.927   6.336   3.059
 2265TIP3    H1 6752   5.884   6.348   3.143
 2265TIP3    H2 6753   5.897   6.250   3.029
 2266TIP3   OH2 6754   0.906   4.781   2.500
 2266TIP3    H1 6755   0.859   4.837   2.438
 2266TIP3    H2 6756   0.964   4.840   2.548
 2267TIP3   OH2 6757   7.625   7.470   0.386
 2267TIP3    H1 6758   7.702   7.451   0.333
 2267TIP3    H2 6759   7.633   7.411   0.461
 2268TIP3   OH2 6760   6.512   6.641   2.870
 2268TIP3    H1 6761   6.509   6.695   2.949
 2268TIP3    H2 6762   6.597   6.661   2.831
 2269TIP3   OH2 6763   5.418   0.955   2.354
 2269TIP3    H1 6764   5.474   0.878   2.343
 2269TIP3    H2 6765   5.478   1.029   2.354
 2270TIP3   OH2 6766   7.376   5.640   3.283
 2270TIP3    H1 6767   7.327   5.604   3.357
 2270TIP3    H2 6768   7.330   5.722   3.263
 2271TIP3   OH2 6769   0.515   0.877   3.008
 2271TIP3    H1 6770   0.589   0.821   2.986
 2271TIP3    H2 6771   0.528   0.956   2.956
 2272TIP3   OH2 6772   4.734   7.591   1.749
 2272TIP3    H1 6773   4.686   7.540   1.815
 2272TIP3    H2 6774   4.806   7.534   1.722
 2273TIP3   OH2 6775   6.443   0.436   4.667
 2273TIP3    H1 6776   6.467   0.357   4.619
 2273TIP3    H2 6777   6.502   0.437   4.742
 2274TIP3   OH2 6778   8.145   3.130   0.574
 2274TIP3    H1 6779   8.146   3.218   0.612
 2274TIP3    H2 6780   8.235   3.115   0.546
 2275TIP3   OH2 6781   2.990   1.323   2.336
 2275TIP3    H1 6782   2.910   1.310   2.387
 2275TIP3    H2 6783   2.977   1.406   2.291
 2276TIP3   OH2 6784   5.807   7.143   6.559
 2276TIP3    H1 6785   5.853   7.099   6.631
 2276TIP3    H2 6786   5.793   7.232   6.590
 2277TIP3   OH2 6787   0.978   7.018   3.018
 2277TIP3    H1 6788   0.897   7.007   2.968
 2277TIP3    H2 6789   0.958   6.980   3.103
 2278TIP3   OH2 6790   3.953   6.431   6.093
 2278TIP3    H1 6791   3.987   6.474   6.015
 2278TIP3    H2 6792   3.981   6.488   6.166
 2279TIP3   OH2 6793   1.184   5.274   4.829
 2279TIP3    H1 6794   1.203   5.185   4.800
 2279TIP3    H2 6795   1.270   5.314   4.842
 2280TIP3   OH2 6796   0.936   3.300   5.646
 2280TIP3    H1 6797   0.989   3.366   5.601
 2280TIP3    H2 6798   0.947   3.321   5.739
 2281TIP3   OH2 6799   4.026   5.042   3.936
 2281TIP3    H1 6800   4.039   5.013   3.846
 2281TIP3    H2 6801   3.975   4.972   3.977
 2282TIP3   OH2 6802   3.415   5.744   2.290
 2282TIP3    H1 6803   3.342   5.694   2.252
 2282TIP3    H2 6804   3.492   5.713   2.243
 2283TIP3   OH2 6805   8.000   4.523   1.257
 2283TIP3    H1 6806   7.985   4.471   1.178
 2283TIP3    H2 6807   8.044   4.602   1.225
 2284TIP3   OH2 6808   3.695   1.034   2.344
 2284TIP3    H1 6809   3.767   0.976   2.317
 2284TIP3    H2 6810   3.616   0.991   2.312
 2285TIP3   OH2 6811   5.892   3.056   3.706
 2285TIP3    H1 6812   5.922   3.119   3.771
 2285TIP3    H2 6813   5.803   3.035   3.732
 2286TIP3   OH2 6814   4.065   2.752   4.115
 2286TIP3    H1 6815   4.072   2.811   4.039
 2286TIP3    H2 6816   4.151   2.712   4.122
 2287TIP3   OH2 6817   1.288   1.246   5.982
 2287TIP3    H1 6818   1.271   1.181   5.914
 2287TIP3    H2 6819   1.254   1.208   6.062
 2288TIP3   OH2 6820   6.112   1.517   2.966
 2288TIP3    H1 6821   6.099   1.609   2.944
 2288TIP3    H2 6822   6.152   1.479   2.888
 2289TIP3   OH2 6823   4.196   4.728   0.104
 2289TIP3    H1 6824   4.223   4.644   0.066
 2289TIP3    H2 6825   4.255   4.740   0.179
 2290TIP3   OH2 6826   2.952   6.911   0.526
 2290TIP3    H1 6827   3.018   6.947   0.585
 2290TIP3    H2 6828   2.868   6.933   0.567
 2291TIP3   OH2 6829   5.350   2.338   0.442
 2291TIP3    H1 6830   5.370   2.301   0.528
 2291TIP3    H2 6831   5.272   2.392   0.457
 2292TIP3   OH2 6832   4.310   6.432   0.825
 2292TIP3    H1 6833   4.275   6.382   0.752
 2292TIP3    H2 6834   4.405   6.432   0.812
 2293TIP3   OH2 6835   3.054   6.540   5.455
 2293TIP3    H1 6836   3.094   6.614   5.411
 2293TIP3    H2 6837   3.117   6.515   5.523
 2294TIP3   OH2 6838   1.930   7.655   2.179
 2294TIP3    H1 6839   1.868   7.693   2.242
 2294TIP3    H2 6840   1.887   7.664   2.094
 2295TIP3   OH2 6841   1.793   7.017   3.960
 2295TIP3    H1 6842   1.818   7.105   3.986
 2295TIP3    H2 6843   1.723   6.992   4.020
 2296TIP3   OH2 6844   2.277   6.622   5.923
 2296TIP3    H1 6845   2.208   6.620   5.990
 2296TIP3    H2 6846   2.244   6.568   5.852
 2297TIP3   OH2 6847   1.465   7.326   3.730
 2297TIP3    H1 6848   1.450   7.242   3.687
 2297TIP3    H2 6849   1.560   7.329   3.744
 2298TIP3   OH2 6850   1.984   1.532   6.508
 2298TIP3    H1 6851   1.909   1.474   6.524
 2298TIP3    H2 6852   1.988   1.588   6.586
 2299TIP3   OH2 6853   7.777   7.032   0.475
 2299TIP3    H1 6854   7.775   7.128   0.480
 2299TIP3    H2 6855   7.788   7.004   0.566
 2300TIP3   OH2 6856   5.052   6.748   0.611
 2300TIP3    H1 6857   5.060   6.741   0.706
 2300TIP3    H2 6858   5.048   6.657   0.581
 2301TIP3   OH2 6859   1.230   0.074   0.153
 2301TIP3    H1 6860   1.311   0.051   0.199
 2301TIP3    H2 6861   1.189  -0.010   0.133
 2302TIP3   OH2 6862   3.950   2.496   4.639
 2302TIP3    H1 6863   3.894   2.440   4.584
 2302TIP3    H2 6864   4.021   2.523   4.582
 2303TIP3   OH2 6865   2.861   4.435   5.161
 2303TIP3    H1 6866   2.785   4.376   5.169
 2303TIP3    H2 6867   2.863   4.459   5.069
 2304TIP3   OH2 6868   4.865   1.261   4.127
 2304TIP3    H1 6869   4.808   1.192   4.094
 2304TIP3    H2 6870   4.832   1.278   4.216
 2305TIP3   OH2 6871   0.950   5.342   6.044
 2305TIP3    H1 6872   1.022   5.292   6.081
 2305TIP3    H2 6873   0.907   5.282   5.982
 2306TIP3   OH2 6874   2.437   4.734   6.643
 2306TIP3    H1 6875   2.459   4.709   6.553
 2306TIP3    H2 6876   2.388   4.816   6.634
 2307TIP3   OH2 6877   4.857   1.953   3.976
 2307TIP3    H1 6878   4.805   1.977   4.053
 2307TIP3    H2 6879   4.907   1.877   4.004
 2308TIP3   OH2 6880   7.731   1.217   4.984
 2308TIP3    H1 6881   7.816   1.246   4.953
 2308TIP3    H2 6882   7.691   1.173   4.908
 2309TIP3   OH2 6883   0.995   1.794   3.819
 2309TIP3    H1 6884   1.019   1.816   3.909
 2309TIP3    H2 6885   1.042   1.858   3.765
 2310TIP3   OH2 6886   3.985   3.086   1.313
 2310TIP3    H1 6887   3.900   3.055   1.283
 2310TIP3    H2 6888   4.032   3.006   1.338
 2311TIP3   OH2 6889   7.801   0.728   5.847
 2311TIP3    H1 6890   7.727   0.720   5.907
 2311TIP3    H2 6891   7.810   0.822   5.832
 2312TIP3   OH2 6892   0.970   4.459   0.646
 2312TIP3    H1 6893   1.007   4.494   0.565
 2312TIP3    H2 6894   0.907   4.524   0.675
 2313TIP3   OH2 6895   7.515   4.004   6.383
 2313TIP3    H1 6896   7.550   4.085   6.419
 2313TIP3    H2 6897   7.445   3.979   6.444
 2314TIP3   OH2 6898   1.981   3.988   6.657
 2314TIP3    H1 6899   1.913   3.965   6.594
 2314TIP3    H2 6900   2.051   3.925   6.641
 2315TIP3   OH2 6901   5.523   7.820   0.593
 2315TIP3    H1 6902   5.499   7.887   0.530
 2315TIP3    H2 6903   5.582   7.864   0.655
 2316TIP3   OH2 6904   5.809   4.836   5.434
 2316TIP3    H1 6905   5.795   4.864   5.344
 2316TIP3    H2 6906   5.782   4.910   5.487
 2317TIP3   OH2 6907   2.949   4.732   6.613
 2317TIP3    H1 6908   3.007   4.799   6.577
 2317TIP3    H2 6909   3.005   4.681   6.671
 2318TIP3   OH2 6910   4.333   7.459   6.196
 2318TIP3    H1 6911   4.303   7.549   6.205
 2318TIP3    H2 6912   4.348   7.429   6.286
 2319TIP3   OH2 6913   7.086   1.076   0.207
 2319TIP3    H1 6914   7.134   0.998   0.233
 2319TIP3    H2 6915   6.994   1.049   0.206
 2320TIP3   OH2 6916   7.819   2.915   5.639
 2320TIP3    H1 6917   7.800   2.894   5.547
 2320TIP3    H2 6918   7.752   2.978   5.664
 2321TIP3   OH2 6919   2.836   2.049   5.746
 2321TIP3    H1 6920   2.856   2.100   5.667
 2321TIP3    H2 6921   2.861   1.959   5.724
 2322TIP3   OH2 6922   4.289   3.320   2.765
 2322TIP3    H1 6923   4.295   3.393   2.827
 2322TIP3    H2 6924   4.201   3.285   2.778
 2323TIP3   OH2 6925   3.363   6.791   2.978
 2323TIP3    H1 6926   3.299   6.857   2.949
 2323TIP3    H2 6927   3.442   6.841   2.995
 2324TIP3   OH2 6928   1.570   6.135   6.665
 2324TIP3    H1 6929   1.644   6.188   6.694
 2324TIP3    H2 6930   1.557   6.071   6.735
 2325TIP3   OH2 6931   0.514   3.432   4.476
 2325TIP3    H1 6932   0.547   3.468   4.394
 2325TIP3    H2 6933   0.442   3.375   4.450
 2326TIP3   OH2 6934   7.140   7.737   0.135
 2326TIP3    H1 6935   7.114   7.731   0.043
 2326TIP3    H2 6936   7.114   7.653   0.173
 2327TIP3   OH2 6937   1.566   1.175   1.777
 2327TIP3    H1 6938   1.546   1.266   1.754
 2327TIP3    H2 6939   1.656   1.178   1.808
 2328TIP3   OH2 6940   0.738   2.598   5.461
 2328TIP3    H1 6941   0.761   2.647   5.540
 2328TIP3    H2 6942   0.793   2.521   5.463
 2329TIP3   OH2 6943   5.243   4.942   5.806
 2329TIP3    H1 6944   5.337   4.938   5.826
 2329TIP3    H2 6945   5.208   5.001   5.874
 2330TIP3   OH2 6946   0.191   0.102   3.623
 2330TIP3    H1 6947   0.203   0.020   3.576
 2330TIP3    H2 6948   0.098   0.122   3.614
 2331TIP3   OH2 6949   1.141   3.073   4.681
 2331TIP3    H1 6950   1.154   3.132   4.607
 2331TIP3    H2 6951   1.119   2.989   4.642
 2332TIP3   OH2 6952   1.034   5.765   2.397
 2332TIP3    H1 6953   1.052   5.708   2.472
 2332TIP3    H2 6954   1.120   5.797   2.370
 2333TIP3   OH2 6955   5.252   3.759   3.867
 2333TIP3    H1 6956   5.173   3.807   3.840
 2333TIP3    H2 6957   5.221   3.701   3.937
 2334TIP3   OH2 6958   3.371   3.046   2.570
 2334TIP3    H1 6959   3.316   2.990   2.514
 2334TIP3    H2 6960   3.341   3.028   2.659
 2335TIP3   OH2 6961   0.048   3.922   3.239
 2335TIP3    H1 6962   0.048   3.916   3.143
 2335TIP3    H2 6963  -0.043   3.902   3.264
 2336TIP3   OH2 6964   3.976   6.563   4.529
 2336TIP3    H1 6965   3.931   6.514   4.598
 2336TIP3    H2 6966   4.042   6.614   4.575
 2337TIP3   OH2 6967   3.573   5.156   1.514
 2337TIP3    H1 6968   3.580   5.065   1.484
 2337TIP3    H2 6969   3.658   5.175   1.553
 2338TIP3   OH2 6970   7.609   4.569   0.809
 2338TIP3    H1 6971   7.623   4.569   0.903
 2338TIP3    H2 6972   7.545   4.639   0.794
 2339TIP3   OH2 6973   3.966   6.056   1.977
 2339TIP3    H1 6974   4.053   6.093   1.994
 2339TIP3    H2 6975   3.913   6.130   1.949
 2340TIP3   OH2 6976   3.542   2.403   0.037
 2340TIP3    H1 6977   3.475   2.340   0.011
 2340TIP3    H2 6978   3.503   2.489   0.017
 2341TIP3   OH2 6979   0.025   0.626   1.625
 2341TIP3    H1 6980  -0.055   0.587   1.659
 2341TIP3    H2 6981   0.037   0.587   1.539
 2342TIP3   OH2 6982   3.964   1.164   4.211
 2342TIP3    H1 6983   3.969   1.145   4.305
 2342TIP3    H2 6984   3.914   1.091   4.174
 2343TIP3   OH2 6985   7.193   6.228   2.990
 2343TIP3    H1 6986   7.210   6.135   3.006
 2343TIP3    H2 6987   7.255   6.252   2.922
 2344TIP3   OH2 6988   0.660   4.037   3.659
 2344TIP3    H1 6989   0.632   4.067   3.746
 2344TIP3    H2 6990   0.580   4.002   3.619
 2345TIP3   OH2 6991   4.055   5.032   3.102
 2345TIP3    H1 6992   4.016   5.108   3.146
 2345TIP3    H2 6993   4.133   5.012   3.153
 2346TIP3   OH2 6994   5.791   5.299   5.215
 2346TIP3    H1 6995   5.777   5.372   5.154
 2346TIP3    H2 6996   5.791   5.341   5.302
 2347TIP3   OH2 6997   3.903   4.443   5.557
 2347TIP3    H1 6998   3.841   4.386   5.512
 2347TIP3    H2 6999   3.849   4.512   5.595
 2348TIP3   OH2 7000   2.230   0.151   4.856
 2348TIP3    H1 7001   2.146   0.119   4.823
 2348TIP3    H2 7002   2.294   0.087   4.825
 2349TIP3   OH2 7003   2.221   2.718   2.892
 2349TIP3    H1 7004   2.169   2.638   2.903
 2349TIP3    H2 7005   2.293   2.692   2.834
 2350TIP3   OH2 7006   5.388   2.093   5.637
 2350TIP3    H1 7007   5.317   2.031   5.620
 2350TIP3    H2 7008   5.369   2.168   5.580
 2351TIP3   OH2 7009   1.634   7.517   2.565
 2351TIP3    H1 7010   1.717   7.563   2.549
 2351TIP3    H2 7011   1.657   7.446   2.624
 2352TIP3   OH2 7012   0.695   6.727   4.115
 2352TIP3    H1 7013   0.695   6.819   4.142
 2352TIP3    H2 7014   0.736   6.728   4.029
 2353TIP3   OH2 7015   3.963   4.264   2.118
 2353TIP3    H1 7016   4.056   4.284   2.108
 2353TIP3    H2 7017   3.958   4.215   2.200
 2354TIP3   OH2 7018   6.139   4.441   4.844
 2354TIP3    H1 7019   6.096   4.491   4.913
 2354TIP3    H2 7020   6.081   4.365   4.830
 2355TIP3   OH2 7021   2.577   6.964   1.227
 2355TIP3    H1 7022   2.512   7.009   1.280
 2355TIP3    H2 7023   2.610   7.030   1.166
 2356TIP3   OH2 7024   6.272   4.141   4.534
 2356TIP3    H1 7025   6.290   4.109   4.446
 2356TIP3    H2 7026   6.331   4.091   4.590
 2357TIP3   OH2 7027   7.806   1.900   5.398
 2357TIP3    H1 7028   7.747   1.835   5.359
 2357TIP3    H2 7029   7.859   1.851   5.460
 2358TIP3   OH2 7030   0.902   0.731   1.858
 2358TIP3    H1 7031   0.838   0.801   1.849
 2358TIP3    H2 7032   0.870   0.679   1.932
 2359TIP3   OH2 7033   5.866   5.702   2.306
 2359TIP3    H1 7034   5.931   5.638   2.333
 2359TIP3    H2 7035   5.833   5.670   2.222
 2360TIP3   OH2 7036   0.144   5.452   4.149
 2360TIP3    H1 7037   0.118   5.509   4.221
 2360TIP3    H2 7038   0.062   5.419   4.113
 2361TIP3   OH2 7039   0.749   0.048   6.312
 2361TIP3    H1 7040   0.690   0.105   6.261
 2361TIP3    H2 7041   0.801   0.002   6.247
 2362TIP3   OH2 7042   1.070   4.217   3.433
 2362TIP3    H1 7043   1.115   4.279   3.490
 2362TIP3    H2 7044   0.981   4.252   3.425
 2363TIP3   OH2 7045   1.765   6.494   5.486
 2363TIP3    H1 7046   1.684   6.465   5.444
 2363TIP3    H2 7047   1.779   6.430   5.556
 2364TIP3   OH2 7048   7.350   0.633   1.134
 2364TIP3    H1 7049   7.341   0.544   1.098
 2364TIP3    H2 7050   7.265   0.674   1.117
 2365TIP3   OH2 7051   8.237   6.436   2.252
 2365TIP3    H1 7052   8.301   6.381   2.298
 2365TIP3    H2 7053   8.277   6.523   2.252
 2366TIP3   OH2 7054   3.241   6.297   2.599
 2366TIP3    H1 7055   3.233   6.227   2.664
 2366TIP3    H2 7056   3.332   6.324   2.604
 2367TIP3   OH2 7057   3.197   5.265   4.043
 2367TIP3    H1 7058   3.255   5.334   4.012
 2367TIP3    H2 7059   3.208   5.266   4.138
 2368TIP3   OH2 7060   4.255   5.314   5.998
 2368TIP3    H1 7061   4.209   5.390   5.962
 2368TIP3    H2 7062   4.344   5.322   5.964
 2369TIP3   OH2 7063   2.415   5.363   5.240
 2369TIP3    H1 7064   2.423   5.390   5.332
 2369TIP3    H2 7065   2.505   5.362   5.207
 2370TIP3   OH2 7066   4.309   6.579   5.420
 2370TIP3    H1 7067   4.229   6.548   5.377
 2370TIP3    H2 7068   4.379   6.556   5.360
 2371TIP3   OH2 7069   0.816   6.073   1.979
 2371TIP3    H1 7070   0.789   6.150   1.928
 2371TIP3    H2 7071   0.784   6.090   2.067
 2372TIP3   OH2 7072   4.683   5.437   5.183
 2372TIP3    H1 7073   4.708   5.410   5.271
 2372TIP3    H2 7074   4.649   5.357   5.143
 2373TIP3   OH2 7075   1.777   4.843   5.007
 2373TIP3    H1 7076   1.728   4.799   5.077
 2373TIP3    H2 7077   1.868   4.843   5.038
 2374TIP3   OH2 7078   0.174   2.338   5.182
 2374TIP3    H1 7079   0.173   2.362   5.089
 2374TIP3    H2 7080   0.267   2.326   5.202
 2375TIP3   OH2 7081   4.323   5.113   4.903
 2375TIP3    H1 7082   4.230   5.102   4.924
 2375TIP3    H2 7083   4.324   5.156   4.818
 2376TIP3   OH2 7084   0.856   2.363   1.640
 2376TIP3    H1 7085   0.887   2.272   1.633
 2376TIP3    H2 7086   0.801   2.363   1.718
 2377TIP3   OH2 7087   3.050   2.442   0.722
 2377TIP3    H1 7088   3.128   2.498   0.725
 2377TIP3    H2 7089   2.977   2.503   0.708
 2378TIP3   OH2 7090   0.715   0.216   5.441
 2378TIP3    H1 7091   0.651   0.238   5.373
 2378TIP3    H2 7092   0.736   0.124   5.427
 2379TIP3   OH2 7093   3.061   0.703   0.400
 2379TIP3    H1 7094   2.966   0.701   0.405
 2379TIP3    H2 7095   3.085   0.794   0.418
 2380TIP3   OH2 7096   5.992   1.822   1.243
 2380TIP3    H1 7097   5.978   1.781   1.157
 2380TIP3    H2 7098   5.912   1.870   1.260
 2381TIP3   OH2 7099   4.432   1.815   1.063
 2381TIP3    H1 7100   4.386   1.771   1.134
 2381TIP3    H2 7101   4.492   1.875   1.106
 2382TIP3   OH2 7102   0.085   3.019   3.575
 2382TIP3    H1 7103   0.112   2.994   3.664
 2382TIP3    H2 7104  -0.010   3.014   3.577
 2383TIP3   OH2 7105   5.434   2.482   1.110
 2383TIP3    H1 7106   5.456   2.415   1.175
 2383TIP3    H2 7107   5.344   2.463   1.085
 2384TIP3   OH2 7108   7.912   3.320   0.854
 2384TIP3    H1 7109   7.923   3.246   0.913
 2384TIP3    H2 7110   7.894   3.394   0.912
 2385TIP3   OH2 7111   6.896   5.304   2.208
 2385TIP3    H1 7112   6.812   5.325   2.249
 2385TIP3    H2 7113   6.877   5.230   2.151
 2386TIP3   OH2 7114   4.212   6.769   3.670
 2386TIP3    H1 7115   4.132   6.804   3.709
 2386TIP3    H2 7116   4.195   6.770   3.576
 2387TIP3   OH2 7117   7.589   1.922   2.897
 2387TIP3    H1 7118   7.581   1.856   2.966
 2387TIP3    H2 7119   7.599   1.871   2.816
 2388TIP3   OH2 7120   7.776   3.796   3.099
 2388TIP3    H1 7121   7.689   3.757   3.094
 2388TIP3    H2 7122   7.761   3.886   3.129
 2389TIP3   OH2 7123   7.448   6.890   4.973
 2389TIP3    H1 7124   7.442   6.798   5.001
 2389TIP3    H2 7125   7.357   6.921   4.972
 2390TIP3   OH2 7126   8.176   2.801   0.952
 2390TIP3    H1 7127   8.124   2.722   0.939
 2390TIP3    H2 7128   8.194   2.803   1.046
 2391TIP3   OH2 7129   4.131   3.242   5.392
 2391TIP3    H1 7130   4.175   3.240   5.307
 2391TIP3    H2 7131   4.046   3.282   5.373
 2392TIP3   OH2 7132   3.911   0.022   5.476
 2392TIP3    H1 7133   3.860   0.092   5.435
 2392TIP3    H2 7134   3.988   0.066   5.512
 2393TIP3   OH2 7135   6.108   4.181   2.072
 2393TIP3    H1 7136   6.174   4.214   2.011
 2393TIP3    H2 7137   6.067   4.107   2.025
 2394TIP3   OH2 7138   3.502   6.365   0.234
 2394TIP3    H1 7139   3.430   6.424   0.214
 2394TIP3    H2 7140   3.578   6.422   0.243
 2395TIP3   OH2 7141   4.905   6.356   5.175
 2395TIP3    H1 7142   4.997   6.352   5.150
 2395TIP3    H2 7143   4.876   6.265   5.176
 2396TIP3   OH2 7144   5.227   3.575   2.329
 2396TIP3    H1 7145   5.277   3.521   2.267
 2396TIP3    H2 7146   5.292   3.631   2.370
 2397TIP3   OH2 7147   0.896   0.452   5.436
 2397TIP3    H1 7148   0.988   0.425   5.443
 2397TIP3    H2 7149   0.847   0.370   5.444
 2398TIP3   OH2 7150   3.850   4.086   5.250
 2398TIP3    H1 7151   3.891   4.035   5.320
 2398TIP3    H2 7152   3.922   4.138   5.214
 2399TIP3   OH2 7153   5.398   3.151   5.169
 2399TIP3    H1 7154   5.481   3.169   5.126
 2399TIP3    H2 7155   5.391   3.056   5.169
 2400TIP3   OH2 7156   1.435   6.356   0.494
 2400TIP3    H1 7157   1.488   6.277   0.483
 2400TIP3    H2 7158   1.498   6.424   0.518
 2401TIP3   OH2 7159   5.957   5.107   6.594
 2401TIP3    H1 7160   5.945   5.032   6.652
 2401TIP3    H2 7161   5.927   5.077   6.508
 2402TIP3   OH2 7162   6.885   5.859   4.779
 2402TIP3    H1 7163   6.951   5.825   4.840
 2402TIP3    H2 7164   6.877   5.792   4.712
 2403TIP3   OH2 7165   0.949   5.305   1.684
 2403TIP3    H1 7166   1.012   5.356   1.633
 2403TIP3    H2 7167   0.993   5.292   1.768
 2404TIP3   OH2 7168   2.594   2.963   6.136
 2404TIP3    H1 7169   2.611   2.923   6.221
 2404TIP3    H2 7170   2.534   2.902   6.092
 2405TIP3   OH2 7171   0.827   5.657   1.203
 2405TIP3    H1 7172   0.766   5.633   1.272
 2405TIP3    H2 7173   0.773   5.698   1.136
 2406TIP3   OH2 7174   6.769   5.400   0.572
 2406TIP3    H1 7175   6.786   5.468   0.638
 2406TIP3    H2 7176   6.831   5.420   0.502
 2407TIP3   OH2 7177   0.512   3.797   5.073
 2407TIP3    H1 7178   0.506   3.702   5.084
 2407TIP3    H2 7179   0.491   3.833   5.158
 2408TIP3   OH2 7180   1.406   0.532   0.426
 2408TIP3    H1 7181   1.416   0.565   0.337
 2408TIP3    H2 7182   1.317   0.557   0.451
 2409TIP3   OH2 7183   7.339   0.317   6.612
 2409TIP3    H1 7184   7.372   0.278   6.693
 2409TIP3    H2 7185   7.284   0.390   6.642
 2410TIP3   OH2 7186   0.541   6.186   2.282
 2410TIP3    H1 7187   0.510   6.134   2.356
 2410TIP3    H2 7188   0.637   6.185   2.291
 2411TIP3   OH2 7189   8.226   4.186   1.229
 2411TIP3    H1 7190   8.155   4.124   1.244
 2411TIP3    H2 7191   8.210   4.220   1.141
 2412TIP3   OH2 7192   0.119   2.654   5.782
 2412TIP3    H1 7193   0.211   2.673   5.802
 2412TIP3    H2 7194   0.112   2.559   5.792
 2413TIP3   OH2 7195   6.141   4.715   3.860
 2413TIP3    H1 7196   6.069   4.690   3.917
 2413TIP3    H2 7197   6.103   4.779   3.799
 2414TIP3   OH2 7198   6.517   6.235   3.961
 2414TIP3    H1 7199   6.579   6.208   3.893
 2414TIP3    H2 7200   6.449   6.169   3.960
 2415TIP3   OH2 7201   1.701   4.229   0.525
 2415TIP3    H1 7202   1.757   4.172   0.473
 2415TIP3    H2 7203   1.761   4.275   0.584
 2416TIP3   OH2 7204   3.727   0.628   4.477
 2416TIP3    H1 7205   3.687   0.687   4.541
 2416TIP3    H2 7206   3.698   0.541   4.502
 2417TIP3   OH2 7207   3.837   1.733   3.604
 2417TIP3    H1 7208   3.806   1.703   3.689
 2417TIP3    H2 7209   3.779   1.691   3.540
 2418TIP3   OH2 7210   7.395   3.846   0.092
 2418TIP3    H1 7211   7.399   3.920   0.153
 2418TIP3    H2 7212   7.445   3.876   0.016
 2419TIP3   OH2 7213   2.309   4.704   5.911
 2419TIP3    H1 7214   2.360   4.754   5.974
 2419TIP3    H2 7215   2.301   4.761   5.834
 2420TIP3   OH2 7216   1.393   5.462   0.333
 2420TIP3    H1 7217   1.323   5.475   0.269
 2420TIP3    H2 7218   1.399   5.546   0.379
 2421TIP3   OH2 7219   5.017   0.705   6.687
 2421TIP3    H1 7220   4.922   0.713   6.693
 2421TIP3    H2 7221   5.042   0.645   6.757
 2422TIP3   OH2 7222   1.036   5.607   5.211
 2422TIP3    H1 7223   1.008   5.629   5.300
 2422TIP3    H2 7224   1.083   5.684   5.180
 2423TIP3   OH2 7225   2.375   1.499   5.613
 2423TIP3    H1 7226   2.347   1.451   5.535
 2423TIP3    H2 7227   2.420   1.576   5.579
 2424TIP3   OH2 7228   1.655   5.854   1.728
 2424TIP3    H1 7229   1.738   5.810   1.743
 2424TIP3    H2 7230   1.665   5.940   1.770
 2425TIP3   OH2 7231   2.102   2.639   0.187
 2425TIP3    H1 7232   2.017   2.682   0.194
 2425TIP3    H2 7233   2.152   2.673   0.261
 2426TIP3   OH2 7234   3.045   0.750   1.193
 2426TIP3    H1 7235   3.040   0.707   1.107
 2426TIP3    H2 7236   2.982   0.821   1.188
 2427TIP3   OH2 7237   6.065   3.902   1.941
 2427TIP3    H1 7238   6.013   3.877   2.017
 2427TIP3    H2 7239   6.006   3.889   1.867
 2428TIP3   OH2 7240   2.640   3.553   6.067
 2428TIP3    H1 7241   2.597   3.472   6.095
 2428TIP3    H2 7242   2.705   3.524   6.002
 2429TIP3   OH2 7243   1.264   5.296   1.040
 2429TIP3    H1 7244   1.205   5.309   1.115
 2429TIP3    H2 7245   1.318   5.375   1.039
 2430TIP3   OH2 7246   3.329   4.797   2.129
 2430TIP3    H1 7247   3.324   4.710   2.170
 2430TIP3    H2 7248   3.363   4.854   2.199
 2431TIP3   OH2 7249   4.326   0.203   4.902
 2431TIP3    H1 7250   4.289   0.219   4.989
 2431TIP3    H2 7251   4.407   0.154   4.919
 2432TIP3   OH2 7252   1.495   2.276   4.633
 2432TIP3    H1 7253   1.559   2.347   4.629
 2432TIP3    H2 7254   1.536   2.210   4.690
 2433TIP3   OH2 7255   7.207   6.956   4.369
 2433TIP3    H1 7256   7.213   6.862   4.385
 2433TIP3    H2 7257   7.214   6.965   4.274
 2434TIP3   OH2 7258   6.557   5.830   3.081
 2434TIP3    H1 7259   6.620   5.901   3.091
 2434TIP3    H2 7260   6.551   5.816   2.987
 2435TIP3   OH2 7261   0.418   3.153   4.790
 2435TIP3    H1 7262   0.326   3.180   4.787
 2435TIP3    H2 7263   0.429   3.117   4.878
 2436TIP3   OH2 7264   2.728   5.222   2.497
 2436TIP3    H1 7265   2.646   5.173   2.499
 2436TIP3    H2 7266   2.701   5.313   2.483
 2437TIP3   OH2 7267   1.457   2.014   6.523
 2437TIP3    H1 7268   1.377   2.020   6.576
 2437TIP3    H2 7269   1.440   2.071   6.448
 2438TIP3   OH2 7270   0.329   4.621   5.159
 2438TIP3    H1 7271   0.363   4.547   5.110
 2438TIP3    H2 7272   0.240   4.634   5.124
 2439TIP3   OH2 7273   4.563   3.157   3.284
 2439TIP3    H1 7274   4.567   3.062   3.296
 2439TIP3    H2 7275   4.569   3.192   3.373
 2440TIP3   OH2 7276   1.477   0.792   6.572
 2440TIP3    H1 7277   1.446   0.870   6.618
 2440TIP3    H2 7278   1.397   0.747   6.544
 2441TIP3   OH2 7279   7.129   3.006   0.888
 2441TIP3    H1 7280   7.129   3.082   0.946
 2441TIP3    H2 7281   7.083   3.036   0.809
 2442TIP3   OH2 7282   2.532   7.774   4.754
 2442TIP3    H1 7283   2.627   7.784   4.765
 2442TIP3    H2 7284   2.523   7.710   4.684
 2443TIP3   OH2 7285   3.473   2.327   5.549
 2443TIP3    H1 7286   3.464   2.237   5.518
 2443TIP3    H2 7287   3.393   2.371   5.521
 2444TIP3   OH2 7288   2.204   6.623   5.071
 2444TIP3    H1 7289   2.261   6.602   5.144
 2444TIP3    H2 7290   2.263   6.645   4.999
 2445TIP3   OH2 7291   6.075   3.800   1.053
 2445TIP3    H1 7292   6.093   3.861   0.982
 2445TIP3    H2 7293   6.014   3.737   1.016
 2446TIP3   OH2 7294   1.303   4.701   1.916
 2446TIP3    H1 7295   1.229   4.675   1.972
 2446TIP3    H2 7296   1.284   4.792   1.892
 2447TIP3   OH2 7297   6.049   5.339   4.754
 2447TIP3    H1 7298   6.008   5.307   4.674
 2447TIP3    H2 7299   6.007   5.289   4.824
 2448TIP3   OH2 7300   2.155   2.321   4.367
 2448TIP3    H1 7301   2.211   2.354   4.438
 2448TIP3    H2 7302   2.103   2.251   4.407
 2449TIP3   OH2 7303   0.216   7.018   6.373
 2449TIP3    H1 7304   0.183   6.984   6.456
 2449TIP3    H2 7305   0.302   7.054   6.394
 2450TIP3   OH2 7306   7.074   1.499   0.870
 2450TIP3    H1 7307   7.121   1.571   0.913
 2450TIP3    H2 7308   7.043   1.536   0.788
 2451TIP3   OH2 7309   8.241   0.401   5.533
 2451TIP3    H1 7310   8.238   0.306   5.537
 2451TIP3    H2 7311   8.334   0.423   5.543
 2452TIP3   OH2 7312   1.342   3.299   3.433
 2452TIP3    H1 7313   1.342   3.394   3.441
 2452TIP3    H2 7314   1.286   3.281   3.358
 2453TIP3   OH2 7315   5.089   2.922   3.716
 2453TIP3    H1 7316   5.101   2.842   3.769
 2453TIP3    H2 7317   5.090   2.891   3.626
 2454TIP3   OH2 7318   7.829   3.433   0.456
 2454TIP3    H1 7319   7.855   3.383   0.378
 2454TIP3    H2 7320   7.811   3.520   0.423
 2455TIP3   OH2 7321   7.924   0.133   2.007
 2455TIP3    H1 7322   7.829   0.127   1.997
 2455TIP3    H2 7323   7.940   0.104   2.097
 2456TIP3   OH2 7324   6.159   4.407   0.150
 2456TIP3    H1 7325   6.176   4.313   0.155
 2456TIP3    H2 7326   6.246   4.447   0.155
 2457TIP3   OH2 7327   4.320   3.419   3.637
 2457TIP3    H1 7328   4.281   3.503   3.663
 2457TIP3    H2 7329   4.278   3.355   3.694
 2458TIP3   OH2 7330   6.602   1.659   2.280
 2458TIP3    H1 7331   6.525   1.713   2.263
 2458TIP3    H2 7332   6.569   1.584   2.329
 2459TIP3   OH2 7333   2.698   3.501   6.668
 2459TIP3    H1 7334   2.639   3.434   6.703
 2459TIP3    H2 7335   2.645   3.547   6.602
 2460TIP3   OH2 7336   2.352   1.598   2.672
 2460TIP3    H1 7337   2.267   1.604   2.627
 2460TIP3    H2 7338   2.397   1.679   2.648
 2461TIP3   OH2 7339   8.183   1.846   4.156
 2461TIP3    H1 7340   8.199   1.767   4.207
 2461TIP3    H2 7341   8.126   1.817   4.085
 2462TIP3   OH2 7342   5.988   0.904   3.875
 2462TIP3    H1 7343   5.983   0.925   3.782
 2462TIP3    H2 7344   6.043   0.972   3.912
 2463TIP3   OH2 7345   6.338   1.757   6.292
 2463TIP3    H1 7346   6.313   1.847   6.268
 2463TIP3    H2 7347   6.415   1.738   6.239
 2464TIP3   OH2 7348   7.619   0.060   3.569
 2464TIP3    H1 7349   7.635  -0.034   3.571
 2464TIP3    H2 7350   7.697   0.097   3.527
 2465TIP3   OH2 7351   5.643   1.511   1.977
 2465TIP3    H1 7352   5.697   1.553   1.910
 2465TIP3    H2 7353   5.619   1.583   2.037
 2466TIP3   OH2 7354   3.947   0.975   5.314
 2466TIP3    H1 7355   3.883   1.019   5.258
 2466TIP3    H2 7356   4.023   0.963   5.258
 2467TIP3   OH2 7357   1.066   6.883   4.093
 2467TIP3    H1 7358   1.056   6.860   4.001
 2467TIP3    H2 7359   1.095   6.975   4.092
 2468TIP3   OH2 7360   1.437   3.747   0.500
 2468TIP3    H1 7361   1.361   3.729   0.445
 2468TIP3    H2 7362   1.506   3.771   0.439
 2469TIP3   OH2 7363   6.923   6.098   4.553
 2469TIP3    H1 7364   6.887   6.176   4.594
 2469TIP3    H2 7365   7.017   6.105   4.566
 2470TIP3   OH2 7366   4.481   7.513   6.739
 2470TIP3    H1 7367   4.464   7.532   6.647
 2470TIP3    H2 7368   4.407   7.551   6.786
 2471TIP3   OH2 7369   6.128   6.692   0.890
 2471TIP3    H1 7370   6.039   6.658   0.901
 2471TIP3    H2 7371   6.177   6.618   0.855
 2472TIP3   OH2 7372   5.439   1.801   2.557
 2472TIP3    H1 7373   5.445   1.896   2.565
 2472TIP3    H2 7374   5.473   1.768   2.640
 2473TIP3   OH2 7375   5.737   6.583   1.617
 2473TIP3    H1 7376   5.695   6.500   1.640
 2473TIP3    H2 7377   5.712   6.643   1.687
 2474TIP3   OH2 7378   7.060   0.580   6.429
 2474TIP3    H1 7379   7.145   0.582   6.472
 2474TIP3    H2 7380   7.014   0.657   6.464
 2475TIP3   OH2 7381   3.813   0.741   5.387
 2475TIP3    H1 7382   3.877   0.691   5.338
 2475TIP3    H2 7383   3.852   0.828   5.397
 2476TIP3   OH2 7384   3.428   6.258   3.712
 2476TIP3    H1 7385   3.372   6.181   3.726
 2476TIP3    H2 7386   3.501   6.247   3.773
 2477TIP3   OH2 7387   4.894   5.892   1.183
 2477TIP3    H1 7388   4.958   5.941   1.131
 2477TIP3    H2 7389   4.947   5.838   1.241
 2478TIP3   OH2 7390   7.159   1.261   1.145
 2478TIP3    H1 7391   7.179   1.180   1.097
 2478TIP3    H2 7392   7.064   1.268   1.140
 2479TIP3   OH2 7393   0.074   4.016   0.478
 2479TIP3    H1 7394   0.021   4.036   0.400
 2479TIP3    H2 7395   0.160   3.994   0.443
 2480TIP3   OH2 7396   7.356   0.094   4.017
 2480TIP3    H1 7397   7.332   0.002   4.032
 2480TIP3    H2 7398   7.408   0.118   4.094
 2481TIP3   OH2 7399   7.996   5.443   6.754
 2481TIP3    H1 7400   8.059   5.488   6.697
 2481TIP3    H2 7401   8.050   5.387   6.809
 2482TIP3   OH2 7402   3.540   6.854   4.545
 2482TIP3    H1 7403   3.567   6.945   4.560
 2482TIP3    H2 7404   3.586   6.827   4.466
 2483TIP3   OH2 7405   4.516   6.125   1.930
 2483TIP3    H1 7406   4.551   6.193   1.988
 2483TIP3    H2 7407   4.554   6.145   1.844
 2484TIP3   OH2 7408   3.325   2.639   4.122
 2484TIP3    H1 7409   3.304   2.628   4.215
 2484TIP3    H2 7410   3.251   2.599   4.077
 2485TIP3   OH2 7411   5.116   4.244   6.263
 2485TIP3    H1 7412   5.141   4.163   6.308
 2485TIP3    H2 7413   5.200   4.287   6.243
 2486TIP3   OH2 7414   6.770   3.753   0.723
 2486TIP3    H1 7415   6.710   3.680   0.710
 2486TIP3    H2 7416   6.789   3.752   0.817
 2487TIP3   OH2 7417   6.677   1.207   6.171
 2487TIP3    H1 7418   6.585   1.212   6.199
 2487TIP3    H2 7419   6.723   1.265   6.231
 2488TIP3   OH2 7420   0.694   5.646   1.528
 2488TIP3    H1 7421   0.783   5.643   1.563
 2488TIP3    H2 7422   0.639   5.612   1.598
 2489TIP3   OH2 7423   3.817   2.986   0.930
 2489TIP3    H1 7424   3.838   2.990   0.837
 2489TIP3    H2 7425   3.789   3.075   0.953
 2490TIP3   OH2 7426   3.610   2.083   1.152
 2490TIP3    H1 7427   3.662   2.129   1.086
 2490TIP3    H2 7428   3.535   2.048   1.103
 2491TIP3   OH2 7429   4.686   6.564   3.980
 2491TIP3    H1 7430   4.765   6.609   4.010
 2491TIP3    H2 7431   4.634   6.633   3.939
 2492TIP3   OH2 7432   2.032   0.487   1.391
 2492TIP3    H1 7433   1.995   0.484   1.479
 2492TIP3    H2 7434   2.127   0.483   1.404
 2493TIP3   OH2 7435   4.994   0.510   3.371
 2493TIP3    H1 7436   4.943   0.440   3.412
 2493TIP3    H2 7437   4.958   0.518   3.283
 2494TIP3   OH2 7438   8.255   3.262   6.494
 2494TIP3    H1 7439   8.199   3.326   6.539
 2494TIP3    H2 7440   8.194   3.211   6.440
 2495TIP3   OH2 7441   2.062   5.587   0.990
 2495TIP3    H1 7442   2.066   5.671   0.943
 2495TIP3    H2 7443   2.032   5.610   1.077
 2496TIP3   OH2 7444   8.078   1.505   6.360
 2496TIP3    H1 7445   8.134   1.509   6.438
 2496TIP3    H2 7446   8.125   1.554   6.293
 2497TIP3   OH2 7447   3.297   2.637   4.420
 2497TIP3    H1 7448   3.386   2.652   4.452
 2497TIP3    H2 7449   3.294   2.543   4.401
 2498TIP3   OH2 7450   4.254   4.756   2.592
 2498TIP3    H1 7451   4.190   4.707   2.541
 2498TIP3    H2 7452   4.270   4.702   2.669
 2499TIP3   OH2 7453   3.243   1.302   1.887
 2499TIP3    H1 7454   3.237   1.309   1.982
 2499TIP3    H2 7455   3.153   1.289   1.857
 2500TIP3   OH2 7456   3.504   2.532   3.533
 2500TIP3    H1 7457   3.571   2.520   3.600
 2500TIP3    H2 7458   3.542   2.594   3.471
 2501TIP3   OH2 7459   1.781   7.314   5.662
 2501TIP3    H1 7460   1.747   7.372   5.594
 2501TIP3    H2 7461   1.706   7.300   5.720
 2502TIP3   OH2 7462   7.356   3.741   1.130
 2502TIP3    H1 7463   7.386   3.664   1.179
 2502TIP3    H2 7464   7.329   3.706   1.045
 2503TIP3   OH2 7465   5.130   5.693   5.834
 2503TIP3    H1 7466   5.049   5.642   5.831
 2503TIP3    H2 7467   5.195   5.637   5.791
 2504TIP3   OH2 7468   6.076   4.502   5.960
 2504TIP3    H1 7469   6.078   4.561   6.035
 2504TIP3    H2 7470   6.019   4.430   5.986
 2505TIP3   OH2 7471   0.090   6.340   1.682
 2505TIP3    H1 7472   0.038   6.268   1.647
 2505TIP3    H2 7473   0.107   6.316   1.773
 2506TIP3   OH2 7474   6.286   4.443   1.708
 2506TIP3    H1 7475   6.192   4.453   1.718
 2506TIP3    H2 7476   6.319   4.532   1.694
 2507TIP3   OH2 7477   0.359   7.014   1.576
 2507TIP3    H1 7478   0.331   6.929   1.609
 2507TIP3    H2 7479   0.455   7.012   1.580
 2508TIP3   OH2 7480   7.108   3.675   5.970
 2508TIP3    H1 7481   7.151   3.697   5.887
 2508TIP3    H2 7482   7.161   3.604   6.006
 2509TIP3   OH2 7483   5.692   1.347   2.966
 2509TIP3    H1 7484   5.620   1.398   3.002
 2509TIP3    H2 7485   5.735   1.406   2.904
 2510TIP3   OH2 7486   0.934   0.716   1.516
 2510TIP3    H1 7487   0.959   0.758   1.598
 2510TIP3    H2 7488   1.010   0.729   1.459
 2511TIP3   OH2 7489   1.069   7.739   1.929
 2511TIP3    H1 7490   1.133   7.670   1.944
 2511TIP3    H2 7491   0.984   7.695   1.929
 2512TIP3   OH2 7492   5.404   2.420   4.214
 2512TIP3    H1 7493   5.406   2.336   4.260
 2512TIP3    H2 7494   5.420   2.485   4.282
 2513TIP3   OH2 7495   7.734   6.105   6.681
 2513TIP3    H1 7496   7.727   6.175   6.617
 2513TIP3    H2 7497   7.808   6.130   6.737
 2514TIP3   OH2 7498   1.501   2.528   5.249
 2514TIP3    H1 7499   1.533   2.606   5.205
 2514TIP3    H2 7500   1.567   2.511   5.316
 2515TIP3   OH2 7501   1.419   0.048   3.634
 2515TIP3    H1 7502   1.439   0.016   3.547
 2515TIP3    H2 7503   1.455   0.137   3.636
 2516TIP3   OH2 7504   4.564   0.955   2.128
 2516TIP3    H1 7505   4.483   0.967   2.079
 2516TIP3    H2 7506   4.625   0.916   2.066
 2517TIP3   OH2 7507   3.360   5.298   3.464
 2517TIP3    H1 7508   3.411   5.301   3.383
 2517TIP3    H2 7509   3.344   5.390   3.486
 2518TIP3   OH2 7510   4.868   0.138   6.056
 2518TIP3    H1 7511   4.859   0.074   5.986
 2518TIP3    H2 7512   4.857   0.223   6.012
 2519TIP3   OH2 7513   7.520   2.218   6.197
 2519TIP3    H1 7514   7.564   2.255   6.121
 2519TIP3    H2 7515   7.571   2.248   6.272
 2520TIP3   OH2 7516   5.939   1.417  -0.014
 2520TIP3    H1 7517   5.885   1.489  -0.047
 2520TIP3    H2 7518   5.914   1.408   0.078
 2521TIP3   OH2 7519   2.739   0.012   5.829
 2521TIP3    H1 7520   2.817   0.005   5.774
 2521TIP3    H2 7521   2.693   0.090   5.798
 2522TIP3   OH2 7522   1.742   2.830   3.412
 2522TIP3    H1 7523   1.711   2.762   3.472
 2522TIP3    H2 7524   1.674   2.835   3.345
 2523TIP3   OH2 7525   6.018   2.068   4.632
 2523TIP3    H1 7526   5.969   2.055   4.551
 2523TIP3    H2 7527   6.070   2.147   4.616
 2524TIP3   OH2 7528   6.698   5.762   5.653
 2524TIP3    H1 7529   6.737   5.838   5.697
 2524TIP3    H2 7530   6.604   5.774   5.663
 2525TIP3   OH2 7531   6.225   7.866   1.827
 2525TIP3    H1 7532   6.185   7.814   1.897
 2525TIP3    H2 7533   6.269   7.801   1.772
 2526TIP3   OH2 7534   0.526   3.788   5.364
 2526TIP3    H1 7535   0.520   3.694   5.382
 2526TIP3    H2 7536   0.617   3.801   5.336
 2527TIP3   OH2 7537   4.338   1.461   0.330
 2527TIP3    H1 7538   4.364   1.406   0.404
 2527TIP3    H2 7539   4.243   1.451   0.324
 2528TIP3   OH2 7540   3.641   1.650   0.397
 2528TIP3    H1 7541   3.731   1.681   0.409
 2528TIP3    H2 7542   3.651   1.561   0.363
 2529TIP3   OH2 7543   6.120   1.750   5.831
 2529TIP3    H1 7544   6.201   1.792   5.860
 2529TIP3    H2 7545   6.078   1.816   5.776
 2530TIP3   OH2 7546   0.438   1.347   3.604
 2530TIP3    H1 7547   0.378   1.274   3.617
 2530TIP3    H2 7548   0.509   1.311   3.551
 2531TIP3   OH2 7549   8.160   2.828   4.170
 2531TIP3    H1 7550   8.118   2.847   4.086
 2531TIP3    H2 7551   8.095   2.852   4.236
 2532TIP3   OH2 7552   3.507   3.494   1.642
 2532TIP3    H1 7553   3.560   3.434   1.696
 2532TIP3    H2 7554   3.422   3.497   1.686
 2533TIP3   OH2 7555   2.612   3.476   4.557
 2533TIP3    H1 7556   2.673   3.546   4.580
 2533TIP3    H2 7557   2.659   3.395   4.576
 2534TIP3   OH2 7558   5.896   3.869   1.751
 2534TIP3    H1 7559   5.808   3.906   1.749
 2534TIP3    H2 7560   5.932   3.891   1.665
 2535TIP3   OH2 7561   6.654   7.516   2.593
 2535TIP3    H1 7562   6.699   7.475   2.519
 2535TIP3    H2 7563   6.565   7.531   2.561
 2536TIP3   OH2 7564   4.470   7.765   0.438
 2536TIP3    H1 7565   4.501   7.795   0.352
 2536TIP3    H2 7566   4.392   7.713   0.418
 2537TIP3   OH2 7567   5.494   0.264   4.141
 2537TIP3    H1 7568   5.447   0.343   4.115
 2537TIP3    H2 7569   5.508   0.216   4.059
 2538TIP3   OH2 7570   0.900   3.739   3.258
 2538TIP3    H1 7571   0.976   3.719   3.312
 2538TIP3    H2 7572   0.905   3.834   3.244
 2539TIP3   OH2 7573   6.580   0.311   0.376
 2539TIP3    H1 7574   6.618   0.227   0.351
 2539TIP3    H2 7575   6.643   0.348   0.437
 2540TIP3   OH2 7576   7.178   6.612   5.737
 2540TIP3    H1 7577   7.268   6.597   5.765
 2540TIP3    H2 7578   7.181   6.603   5.642
 2541TIP3   OH2 7579   4.805   6.363   5.826
 2541TIP3    H1 7580   4.796   6.408   5.910
 2541TIP3    H2 7581   4.875   6.299   5.841
 2542TIP3   OH2 7582   1.615   0.766   4.194
 2542TIP3    H1 7583   1.637   0.748   4.102
 2542TIP3    H2 7584   1.660   0.849   4.213
 2543TIP3   OH2 7585   2.788   3.514   5.545
 2543TIP3    H1 7586   2.718   3.473   5.494
 2543TIP3    H2 7587   2.741   3.568   5.609
 2544TIP3   OH2 7588   4.062   1.664  -0.009
 2544TIP3    H1 7589   4.006   1.719   0.045
 2544TIP3    H2 7590   4.143   1.655   0.041
 2545TIP3   OH2 7591   0.889   1.534   1.650
 2545TIP3    H1 7592   0.827   1.564   1.583
 2545TIP3    H2 7593   0.868   1.442   1.663
 2546TIP3   OH2 7594   1.790   5.853   3.507
 2546TIP3    H1 7595   1.759   5.767   3.535
 2546TIP3    H2 7596   1.712   5.897   3.473
 2547TIP3   OH2 7597   5.252   4.245   1.920
 2547TIP3    H1 7598   5.168   4.224   1.961
 2547TIP3    H2 7599   5.304   4.165   1.930
 2548TIP3   OH2 7600   1.349   2.280   1.231
 2548TIP3    H1 7601   1.284   2.221   1.269
 2548TIP3    H2 7602   1.419   2.222   1.200
 2549TIP3   OH2 7603   8.039   5.837   3.840
 2549TIP3    H1 7604   8.102   5.798   3.900
 2549TIP3    H2 7605   8.082   5.915   3.806
 2550TIP3   OH2 7606   8.064   3.281   3.365
 2550TIP3    H1 7607   8.121   3.207   3.347
 2550TIP3    H2 7608   8.091   3.312   3.451
 2551TIP3   OH2 7609   0.405   2.104   0.175
 2551TIP3    H1 7610   0.340   2.082   0.109
 2551TIP3    H2 7611   0.384   2.049   0.251
 2552TIP3   OH2 7612   1.897   3.398   0.627
 2552TIP3    H1 7613   1.952   3.444   0.563
 2552TIP3    H2 7614   1.877   3.464   0.693
 2553TIP3   OH2 7615   6.234   2.866   1.064
 2553TIP3    H1 7616   6.321   2.828   1.051
 2553TIP3    H2 7617   6.249   2.949   1.108
 2554TIP3   OH2 7618   0.113   6.026   5.249
 2554TIP3    H1 7619   0.047   6.084   5.288
 2554TIP3    H2 7620   0.151   5.979   5.324
 2555TIP3   OH2 7621   5.907   1.255   3.633
 2555TIP3    H1 7622   5.875   1.275   3.721
 2555TIP3    H2 7623   5.867   1.321   3.577
 2556TIP3   OH2 7624   0.603   3.860   3.378
 2556TIP3    H1 7625   0.674   3.918   3.407
 2556TIP3    H2 7626   0.627   3.774   3.413
 2557TIP3   OH2 7627   6.808   5.386   3.840
 2557TIP3    H1 7628   6.766   5.397   3.755
 2557TIP3    H2 7629   6.887   5.441   3.836
 2558TIP3   OH2 7630   1.151   0.575   0.821
 2558TIP3    H1 7631   1.101   0.495   0.802
 2558TIP3    H2 7632   1.185   0.603   0.735
 2559TIP3   OH2 7633   7.968   3.354   4.663
 2559TIP3    H1 7634   8.032   3.317   4.602
 2559TIP3    H2 7635   7.886   3.356   4.612
 2560TIP3   OH2 7636   7.054   4.100   4.138
 2560TIP3    H1 7637   6.986   4.079   4.202
 2560TIP3    H2 7638   7.048   4.030   4.073
 2561TIP3   OH2 7639   6.847   4.383   5.677
 2561TIP3    H1 7640   6.846   4.347   5.766
 2561TIP3    H2 7641   6.936   4.368   5.646
 2562TIP3   OH2 7642   5.093   1.223   6.749
 2562TIP3    H1 7643   5.029   1.294   6.746
 2562TIP3    H2 7644   5.153   1.242   6.677
 2563TIP3   OH2 7645   3.201   7.500   6.026
 2563TIP3    H1 7646   3.142   7.576   6.030
 2563TIP3    H2 7647   3.204   7.468   6.116
 2564TIP3   OH2 7648   0.600   1.403   4.324
 2564TIP3    H1 7649   0.604   1.423   4.417
 2564TIP3    H2 7650   0.520   1.351   4.314
 2565TIP3   OH2 7651   5.819   4.127   4.080
 2565TIP3    H1 7652   5.742   4.145   4.134
 2565TIP3    H2 7653   5.876   4.203   4.092
 2566TIP3   OH2 7654   4.617   1.986   1.198
 2566TIP3    H1 7655   4.584   2.072   1.174
 2566TIP3    H2 7656   4.643   1.994   1.289
 2567TIP3   OH2 7657   7.020   7.711   5.880
 2567TIP3    H1 7658   7.098   7.743   5.926
 2567TIP3    H2 7659   6.951   7.712   5.947
 2568TIP3   OH2 7660   5.942   4.367   4.103
 2568TIP3    H1 7661   5.995   4.425   4.158
 2568TIP3    H2 7662   5.948   4.405   4.015
 2569TIP3   OH2 7663   7.056   6.074   5.886
 2569TIP3    H1 7664   7.134   6.030   5.920
 2569TIP3    H2 7665   7.023   6.126   5.959
 2570TIP3   OH2 7666   6.463   3.779   1.499
 2570TIP3    H1 7667   6.520   3.779   1.576
 2570TIP3    H2 7668   6.411   3.700   1.508
 2571TIP3   OH2 7669   2.536   7.036   4.887
 2571TIP3    H1 7670   2.522   6.945   4.914
 2571TIP3    H2 7671   2.462   7.084   4.924
 2572TIP3   OH2 7672   8.231   2.798   1.564
 2572TIP3    H1 7673   8.193   2.763   1.483
 2572TIP3    H2 7674   8.322   2.768   1.563
 2573TIP3   OH2 7675   0.016   1.065   3.166
 2573TIP3    H1 7676  -0.025   0.980   3.154
 2573TIP3    H2 7677   0.019   1.103   3.078
 2574TIP3   OH2 7678   2.516   3.617   1.445
 2574TIP3    H1 7679   2.591   3.672   1.421
 2574TIP3    H2 7680   2.516   3.618   1.541
 2575TIP3   OH2 7681   2.563   2.114   3.441
 2575TIP3    H1 7682   2.504   2.060   3.494
 2575TIP3    H2 7683   2.627   2.052   3.406
 2576TIP3   OH2 7684   3.160   5.497   0.966
 2576TIP3    H1 7685   3.078   5.496   1.015
 2576TIP3    H2 7686   3.209   5.422   1.000
 2577TIP3   OH2 7687   3.702   6.514   0.905
 2577TIP3    H1 7688   3.716   6.608   0.919
 2577TIP3    H2 7689   3.737   6.473   0.984
 2578TIP3   OH2 7690   5.943   2.643   6.401
 2578TIP3    H1 7691   6.007   2.639   6.472
 2578TIP3    H2 7692   5.965   2.569   6.344
 2579TIP3   OH2 7693   2.562   1.714   5.774
 2579TIP3    H1 7694   2.587   1.642   5.833
 2579TIP3    H2 7695   2.618   1.702   5.697
 2580TIP3   OH2 7696   7.756   6.102   2.921
 2580TIP3    H1 7697   7.710   6.184   2.941
 2580TIP3    H2 7698   7.782   6.111   2.830
 2581TIP3   OH2 7699   0.736   6.059   3.240
 2581TIP3    H1 7700   0.763   5.970   3.218
 2581TIP3    H2 7701   0.677   6.049   3.314
 2582TIP3   OH2 7702   8.066   6.043   5.184
 2582TIP3    H1 7703   8.055   5.949   5.199
 2582TIP3    H2 7704   8.008   6.085   5.247
 2583TIP3   OH2 7705   0.749   1.563   5.794
 2583TIP3    H1 7706   0.805   1.550   5.871
 2583TIP3    H2 7707   0.688   1.632   5.820
 2584TIP3   OH2 7708   6.347   4.330   6.553
 2584TIP3    H1 7709   6.421   4.326   6.613
 2584TIP3    H2 7710   6.386   4.314   6.467
 2585TIP3   OH2 7711   7.393   5.469   0.411
 2585TIP3    H1 7712   7.340   5.532   0.460
 2585TIP3    H2 7713   7.456   5.523   0.363
 2586TIP3   OH2 7714   5.986   3.975   4.489
 2586TIP3    H1 7715   6.079   3.951   4.486
 2586TIP3    H2 7716   5.980   4.036   4.563
 2587TIP3   OH2 7717   0.545   0.272   1.957
 2587TIP3    H1 7718   0.454   0.258   1.982
 2587TIP3    H2 7719   0.568   0.194   1.906
 2588TIP3   OH2 7720   5.699   2.657   0.036
 2588TIP3    H1 7721   5.699   2.642   0.130
 2588TIP3    H2 7722   5.608   2.680   0.015
 2589TIP3   OH2 7723   6.670   3.926   3.048
 2589TIP3    H1 7724   6.662   3.837   3.014
 2589TIP3    H2 7725   6.745   3.962   3.001
 2590TIP3   OH2 7726   4.645   2.444   3.381
 2590TIP3    H1 7727   4.618   2.366   3.429
 2590TIP3    H2 7728   4.615   2.517   3.436
 2591TIP3   OH2 7729   5.907   5.200   4.916
 2591TIP3    H1 7730   5.874   5.273   4.969
 2591TIP3    H2 7731   5.936   5.136   4.981
 2592TIP3   OH2 7732   1.372   7.822   6.605
 2592TIP3    H1 7733   1.415   7.767   6.671
 2592TIP3    H2 7734   1.278   7.811   6.622
 2593TIP3   OH2 7735   1.776   1.055   3.932
 2593TIP3    H1 7736   1.688   1.048   3.970
 2593TIP3    H2 7737   1.772   1.001   3.853
 2594TIP3   OH2 7738   6.775   0.691   4.128
 2594TIP3    H1 7739   6.711   0.636   4.174
 2594TIP3    H2 7740   6.860   0.662   4.162
 2595TIP3   OH2 7741   3.819   6.611   3.034
 2595TIP3    H1 7742   3.777   6.646   3.112
 2595TIP3    H2 7743   3.890   6.556   3.067
 2596TIP3   OH2 7744   7.899   6.660   4.529
 2596TIP3    H1 7745   7.811   6.627   4.509
 2596TIP3    H2 7746   7.932   6.601   4.597
 2597TIP3   OH2 7747   6.672   3.344   3.090
 2597TIP3    H1 7748   6.673   3.341   2.994
 2597TIP3    H2 7749   6.580   3.331   3.113
 2598TIP3   OH2 7750   4.048   2.514   3.657
 2598TIP3    H1 7751   4.081   2.425   3.641
 2598TIP3    H2 7752   3.999   2.507   3.739
 2599TIP3   OH2 7753   8.212   1.012   0.208
 2599TIP3    H1 7754   8.143   0.947   0.204
 2599TIP3    H2 7755   8.239   1.026   0.117
 2600TIP3   OH2 7756   0.259   2.349   2.198
 2600TIP3    H1 7757   0.333   2.332   2.140
 2600TIP3    H2 7758   0.182   2.336   2.142
 2601TIP3   OH2 7759   1.383   5.196   0.424
 2601TIP3    H1 7760   1.372   5.289   0.407
 2601TIP3    H2 7761   1.475   5.186   0.448
 2602TIP3   OH2 7762   5.735   3.669   5.016
 2602TIP3    H1 7763   5.756   3.593   5.071
 2602TIP3    H2 7764   5.742   3.744   5.074
 2603TIP3   OH2 7765   6.096   4.232   2.802
 2603TIP3    H1 7766   6.077   4.317   2.840
 2603TIP3    H2 7767   6.030   4.220   2.734
 2604TIP3   OH2 7768   7.900   2.142   0.000
 2604TIP3    H1 7769   7.934   2.207  -0.062
 2604TIP3    H2 7770   7.915   2.181   0.086
 2605TIP3   OH2 7771   6.546   1.478   6.594
 2605TIP3    H1 7772   6.560   1.383   6.604
 2605TIP3    H2 7773   6.473   1.485   6.533
 2606TIP3   OH2 7774   6.544   1.441   3.832
 2606TIP3    H1 7775   6.503   1.364   3.872
 2606TIP3    H2 7776   6.636   1.437   3.860
 2607TIP3   OH2 7777   4.915   5.133   1.301
 2607TIP3    H1 7778   4.945   5.200   1.362
 2607TIP3    H2 7779   4.843   5.175   1.253
 2608TIP3   OH2 7780   2.004   3.275   5.365
 2608TIP3    H1 7781   1.909   3.266   5.368
 2608TIP3    H2 7782   2.031   3.223   5.290
 2609TIP3   OH2 7783   6.394   2.454   4.499
 2609TIP3    H1 7784   6.471   2.498   4.464
 2609TIP3    H2 7785   6.427   2.371   4.534
 2610TIP3   OH2 7786   5.389   4.103   6.145
 2610TIP3    H1 7787   5.330   4.077   6.217
 2610TIP3    H2 7788   5.439   4.024   6.126
 2611TIP3   OH2 7789   3.535   3.564   2.350
 2611TIP3    H1 7790   3.526   3.532   2.439
 2611TIP3    H2 7791   3.530   3.659   2.358
 2612TIP3   OH2 7792   6.749   5.045   0.098
 2612TIP3    H1 7793   6.721   5.016   0.012
 2612TIP3    H2 7794   6.754   5.140   0.091
 2613TIP3   OH2 7795   7.568   2.054   1.844
 2613TIP3    H1 7796   7.544   2.035   1.935
 2613TIP3    H2 7797   7.484   2.056   1.798
 2614TIP3   OH2 7798   1.363   3.909   3.169
 2614TIP3    H1 7799   1.351   4.001   3.192
 2614TIP3    H2 7800   1.280   3.882   3.131
 2615TIP3   OH2 7801   4.492   3.617   5.364
 2615TIP3    H1 7802   4.475   3.682   5.295
 2615TIP3    H2 7803   4.533   3.666   5.434
 2616TIP3   OH2 7804   1.648   4.218   0.922
 2616TIP3    H1 7805   1.730   4.266   0.910
 2616TIP3    H2 7806   1.675   4.127   0.929
 2617TIP3   OH2 7807   4.893   2.316   5.006
 2617TIP3    H1 7808   4.891   2.221   5.005
 2617TIP3    H2 7809   4.845   2.342   4.928
 2618TIP3   OH2 7810   1.088   2.917   2.600
 2618TIP3    H1 7811   1.142   2.838   2.611
 2618TIP3    H2 7812   1.008   2.898   2.649
 2619TIP3   OH2 7813   4.207   3.638   2.759
 2619TIP3    H1 7814   4.256   3.609   2.836
 2619TIP3    H2 7815   4.116   3.639   2.789
 2620TIP3   OH2 7816   7.654   0.694   1.704
 2620TIP3    H1 7817   7.746   0.721   1.715
 2620TIP3    H2 7818   7.655   0.599   1.718
 2621TIP3   OH2 7819   3.762   1.102   5.163
 2621TIP3    H1 7820   3.792   1.044   5.093
 2621TIP3    H2 7821   3.667   1.089   5.165
 2622TIP3   OH2 7822   0.131   0.202   4.238
 2622TIP3    H1 7823   0.071   0.190   4.311
 2622TIP3    H2 7824   0.148   0.297   4.235
 2623TIP3   OH2 7825   0.998   5.884   6.425
 2623TIP3    H1 7826   1.016   5.876   6.519
 2623TIP3    H2 7827   0.908   5.852   6.415
 2624TIP3   OH2 7828   1.606   1.062   5.876
 2624TIP3    H1 7829   1.576   0.972   5.860
 2624TIP3    H2 7830   1.561   1.115   5.811
 2625TIP3   OH2 7831   7.873   0.336   5.598
 2625TIP3    H1 7832   7.881   0.418   5.550
 2625TIP3    H2 7833   7.794   0.295   5.563
 2626TIP3   OH2 7834   0.109   1.662   3.500
 2626TIP3    H1 7835   0.199   1.634   3.518
 2626TIP3    H2 7836   0.109   1.756   3.517
 2627TIP3   OH2 7837   4.310   2.285   0.610
 2627TIP3    H1 7838   4.364   2.235   0.550
 2627TIP3    H2 7839   4.325   2.245   0.695
 2628TIP3   OH2 7840   7.871   6.193   3.789
 2628TIP3    H1 7841   7.855   6.213   3.696
 2628TIP3    H2 7842   7.787   6.162   3.822
 2629TIP3   OH2 7843   7.123   3.456   2.879
 2629TIP3    H1 7844   7.139   3.544   2.844
 2629TIP3    H2 7845   7.202   3.436   2.929
 2630TIP3   OH2 7846   3.507   4.134   0.113
 2630TIP3    H1 7847   3.426   4.094   0.083
 2630TIP3    H2 7848   3.525   4.203   0.050
 2631TIP3   OH2 7849   2.885   3.832   4.019
 2631TIP3    H1 7850   2.925   3.842   3.933
 2631TIP3    H2 7851   2.926   3.899   4.074
 2632TIP3   OH2 7852   0.769   5.681   3.466
 2632TIP3    H1 7853   0.793   5.667   3.558
 2632TIP3    H2 7854   0.817   5.759   3.440
 2633TIP3   OH2 7855   0.837   1.637   4.075
 2633TIP3    H1 7856   0.913   1.679   4.033
 2633TIP3    H2 7857   0.761   1.675   4.031
 2634TIP3   OH2 7858   0.644   5.041   5.086
 2634TIP3    H1 7859   0.693   5.055   5.166
 2634TIP3    H2 7860   0.616   4.949   5.091
 2635TIP3   OH2 7861   2.542   3.224   0.912
 2635TIP3    H1 7862   2.511   3.315   0.911
 2635TIP3    H2 7863   2.551   3.203   1.005
 2636TIP3   OH2 7864   5.211   7.510   4.957
 2636TIP3    H1 7865   5.286   7.562   4.986
 2636TIP3    H2 7866   5.215   7.513   4.862
 2637TIP3   OH2 7867   3.862   0.673   4.199
 2637TIP3    H1 7868   3.815   0.629   4.270
 2637TIP3    H2 7869   3.917   0.738   4.243
 2638TIP3   OH2 7870   8.118   4.283   2.437
 2638TIP3    H1 7871   8.209   4.252   2.436
 2638TIP3    H2 7872   8.098   4.301   2.346
 2639TIP3   OH2 7873   0.096   4.484   3.672
 2639TIP3    H1 7874   0.035   4.461   3.741
 2639TIP3    H2 7875   0.048   4.545   3.616
 2640TIP3   OH2 7876   3.162   3.802   0.527
 2640TIP3    H1 7877   3.139   3.736   0.592
 2640TIP3    H2 7878   3.113   3.880   0.553
 2641TIP3   OH2 7879   2.902   1.315   4.350
 2641TIP3    H1 7880   2.823   1.367   4.341
 2641TIP3    H2 7881   2.967   1.361   4.297
 2642TIP3   OH2 7882   1.839   6.071   0.855
 2642TIP3    H1 7883   1.815   6.130   0.784
 2642TIP3    H2 7884   1.781   5.996   0.845
 2643TIP3   OH2 7885   4.586   7.335   6.075
 2643TIP3    H1 7886   4.661   7.393   6.066
 2643TIP3    H2 7887   4.516   7.390   6.110
 2644TIP3   OH2 7888   7.339   4.443   6.775
 2644TIP3    H1 7889   7.310   4.393   6.699
 2644TIP3    H2 7890   7.395   4.512   6.739
 2645TIP3   OH2 7891   7.660   7.042   5.016
 2645TIP3    H1 7892   7.719   6.967   5.023
 2645TIP3    H2 7893   7.572   7.004   5.009
 2646TIP3   OH2 7894   3.509   3.991   1.941
 2646TIP3    H1 7895   3.466   4.029   2.018
 2646TIP3    H2 7896   3.440   3.988   1.874
 2647TIP3   OH2 7897   2.710   1.058   5.033
 2647TIP3    H1 7898   2.698   1.096   4.946
 2647TIP3    H2 7899   2.753   0.974   5.018
 2648TIP3   OH2 7900   2.315   5.613   5.622
 2648TIP3    H1 7901   2.221   5.633   5.617
 2648TIP3    H2 7902   2.354   5.666   5.552
 2649TIP3   OH2 7903   3.150   7.240   6.519
 2649TIP3    H1 7904   3.120   7.198   6.439
 2649TIP3    H2 7905   3.114   7.186   6.590
 2650TIP3   OH2 7906   3.410   1.273   3.046
 2650TIP3    H1 7907   3.360   1.191   3.046
 2650TIP3    H2 7908   3.500   1.246   3.060
 2651TIP3   OH2 7909   5.572   3.233   5.896
 2651TIP3    H1 7910   5.571   3.227   5.992
 2651TIP3    H2 7911   5.663   3.252   5.874
 2652TIP3   OH2 7912   3.581   6.035   3.289
 2652TIP3    H1 7913   3.667   6.045   3.247
 2652TIP3    H2 7914   3.528   6.105   3.252
 2653TIP3   OH2 7915   4.404   3.035   0.868
 2653TIP3    H1 7916   4.494   3.003   0.870
 2653TIP3    H2 7917   4.387   3.051   0.775
 2654TIP3   OH2 7918   4.188   4.530   3.103
 2654TIP3    H1 7919   4.177   4.609   3.155
 2654TIP3    H2 7920   4.283   4.520   3.095
 2655TIP3   OH2 7921   7.898   6.579   0.481
 2655TIP3    H1 7922   7.983   6.584   0.525
 2655TIP3    H2 7923   7.888   6.665   0.439
 2656TIP3   OH2 7924   7.554   2.548   5.387
 2656TIP3    H1 7925   7.484   2.512   5.332
 2656TIP3    H2 7926   7.558   2.489   5.462
 2657TIP3   OH2 7927   0.181   7.846   6.426
 2657TIP3    H1 7928   0.190   7.762   6.381
 2657TIP3    H2 7929   0.099   7.838   6.476
 2658TIP3   OH2 7930   4.924   6.013   3.820
 2658TIP3    H1 7931   4.849   6.068   3.842
 2658TIP3    H2 7932   4.914   5.936   3.875
 2659TIP3   OH2 7933   2.212   6.557   2.963
 2659TIP3    H1 7934   2.279   6.493   2.988
 2659TIP3    H2 7935   2.204   6.614   3.039
 2660TIP3   OH2 7936   4.065   3.826   4.955
 2660TIP3    H1 7937   3.994   3.811   4.892
 2660TIP3    H2 7938   4.135   3.864   4.902
 2661TIP3   OH2 7939   0.380   3.530   5.072
 2661TIP3    H1 7940   0.384   3.531   4.976
 2661TIP3    H2 7941   0.408   3.442   5.096
 2662TIP3   OH2 7942   0.009   5.786   2.378
 2662TIP3    H1 7943   0.043   5.698   2.360
 2662TIP3    H2 7944  -0.033   5.779   2.463
 2663TIP3   OH2 7945   1.580   4.255   6.364
 2663TIP3    H1 7946   1.486   4.263   6.349
 2663TIP3    H2 7947   1.614   4.222   6.280
 2664TIP3   OH2 7948   7.721   0.943   2.863
 2664TIP3    H1 7949   7.811   0.919   2.840
 2664TIP3    H2 7950   7.727   0.972   2.954
 2665TIP3   OH2 7951   5.134   5.327   5.029
 2665TIP3    H1 7952   5.180   5.244   5.016
 2665TIP3    H2 7953   5.098   5.321   5.117
 2666TIP3   OH2 7954   1.785   5.149   0.937
 2666TIP3    H1 7955   1.854   5.102   0.891
 2666TIP3    H2 7956   1.807   5.242   0.925
 2667TIP3   OH2 7957   7.794   6.216   5.677
 2667TIP3    H1 7958   7.787   6.304   5.713
 2667TIP3    H2 7959   7.887   6.194   5.683
 2668TIP3   OH2 7960   3.296   3.750   5.376
 2668TIP3    H1 7961   3.323   3.782   5.290
 2668TIP3    H2 7962   3.203   3.730   5.365
 2669TIP3   OH2 7963   1.253   7.774   3.646
 2669TIP3    H1 7964   1.223   7.793   3.557
 2669TIP3    H2 7965   1.285   7.858   3.679
 2670TIP3   OH2 7966   0.528   7.702   5.218
 2670TIP3    H1 7967   0.507   7.629   5.276
 2670TIP3    H2 7968   0.547   7.775   5.278
 2671TIP3   OH2 7969   8.220   3.851   1.848
 2671TIP3    H1 7970   8.244   3.918   1.912
 2671TIP3    H2 7971   8.126   3.865   1.834
 2672TIP3   OH2 7972   1.772   4.678   3.696
 2672TIP3    H1 7973   1.831   4.634   3.757
 2672TIP3    H2 7974   1.769   4.769   3.727
 2673TIP3   OH2 7975   3.439   5.930   0.964
 2673TIP3    H1 7976   3.456   5.843   1.001
 2673TIP3    H2 7977   3.411   5.913   0.874
 2674TIP3   OH2 7978   4.042   4.539   3.820
 2674TIP3    H1 7979   3.953   4.504   3.811
 2674TIP3    H2 7980   4.092   4.495   3.751
 2675TIP3   OH2 7981   6.483   3.742   6.035
 2675TIP3    H1 7982   6.564   3.690   6.040
 2675TIP3    H2 7983   6.488   3.786   5.951
 2676TIP3   OH2 7984   3.406   2.464   4.990
 2676TIP3    H1 7985   3.404   2.368   4.989
 2676TIP3    H2 7986   3.486   2.486   5.038
 2677TIP3   OH2 7987   5.826   0.682   5.600
 2677TIP3    H1 7988   5.810   0.599   5.557
 2677TIP3    H2 7989   5.920   0.682   5.619
 2678TIP3   OH2 7990   6.988   0.306   1.058
 2678TIP3    H1 7991   6.962   0.317   0.966
 2678TIP3    H2 7992   6.915   0.342   1.108
 2679TIP3   OH2 7993   8.226   5.347   0.311
 2679TIP3    H1 7994   8.234   5.257   0.280
 2679TIP3    H2 7995   8.135   5.370   0.297
 2680TIP3   OH2 7996   7.034   4.876   1.450
 2680TIP3    H1 7997   7.010   4.942   1.384
 2680TIP3    H2 7998   7.127   4.889   1.464
 2681TIP3   OH2 7999   2.851   5.564   1.190
 2681TIP3    H1 8000   2.769   5.543   1.233
 2681TIP3    H2 8001   2.827   5.626   1.121
 2682TIP3   OH2 8002   3.275   7.007   3.207
 2682TIP3    H1 8003   3.309   7.019   3.118
 2682TIP3    H2 8004   3.213   7.078   3.220
 2683TIP3   OH2 8005   3.446   7.344   3.473
 2683TIP3    H1 8006   3.388   7.400   3.421
 2683TIP3    H2 8007   3.420   7.255   3.450
 2684TIP3   OH2 8008   0.213   4.609   0.432
 2684TIP3    H1 8009   0.221   4.687   0.377
 2684TIP3    H2 8010   0.178   4.642   0.515
 2685TIP3   OH2 8011   2.555   1.022   3.125
 2685TIP3    H1 8012   2.543   0.953   3.191
 2685TIP3    H2 8013   2.499   0.995   3.052
 2686TIP3   OH2 8014   4.129   5.484   5.007
 2686TIP3    H1 8015   4.084   5.430   5.072
 2686TIP3    H2 8016   4.135   5.570   5.047
 2687TIP3   OH2 8017   4.936   2.885   2.934
 2687TIP3    H1 8018   4.847   2.849   2.940
 2687TIP3    H2 8019   4.946   2.937   3.013
 2688TIP3   OH2 8020   7.265   4.088   3.878
 2688TIP3    H1 8021   7.314   4.021   3.832
 2688TIP3    H2 8022   7.285   4.074   3.971
 2689TIP3   OH2 8023   2.575   7.596   0.655
 2689TIP3    H1 8024   2.592   7.618   0.747
 2689TIP3    H2 8025   2.580   7.680   0.609
 2690TIP3   OH2 8026   6.207   5.768   2.225
 2690TIP3    H1 8027   6.194   5.691   2.281
 2690TIP3    H2 8028   6.297   5.796   2.243
 2691TIP3   OH2 8029   0.296   5.123   2.377
 2691TIP3    H1 8030   0.241   5.066   2.323
 2691TIP3    H2 8031   0.383   5.113   2.340
 2692TIP3   OH2 8032   6.198   5.345   2.607
 2692TIP3    H1 8033   6.244   5.324   2.689
 2692TIP3    H2 8034   6.133   5.276   2.598
 2693TIP3   OH2 8035   6.998   5.245   4.809
 2693TIP3    H1 8036   7.046   5.237   4.891
 2693TIP3    H2 8037   6.906   5.250   4.835
 2694TIP3   OH2 8038   5.584   0.710   5.752
 2694TIP3    H1 8039   5.545   0.796   5.733
 2694TIP3    H2 8040   5.673   0.717   5.715
 2695TIP3   OH2 8041   2.947   6.423   4.726
 2695TIP3    H1 8042   2.859   6.452   4.754
 2695TIP3    H2 8043   2.987   6.502   4.689
 2696TIP3   OH2 8044   6.957   0.575   2.091
 2696TIP3    H1 8045   7.039   0.603   2.131
 2696TIP3    H2 8046   6.908   0.534   2.162
 2697TIP3   OH2 8047   5.489   6.347   6.216
 2697TIP3    H1 8048   5.457   6.273   6.267
 2697TIP3    H2 8049   5.448   6.423   6.256
 2698TIP3   OH2 8050   3.737   3.022   1.267
 2698TIP3    H1 8051   3.700   3.110   1.273
 2698TIP3    H2 8052   3.676   2.974   1.211
 2699TIP3   OH2 8053   1.389   7.660   5.525
 2699TIP3    H1 8054   1.408   7.694   5.612
 2699TIP3    H2 8055   1.422   7.727   5.465
 2700TIP3   OH2 8056   7.310   5.915   4.304
 2700TIP3    H1 8057   7.323   6.008   4.322
 2700TIP3    H2 8058   7.224   5.895   4.344
 2701TIP3   OH2 8059   0.897   1.700   6.727
 2701TIP3    H1 8060   0.834   1.768   6.754
 2701TIP3    H2 8061   0.966   1.704   6.793
 2702TIP3   OH2 8062   7.998   6.679   4.930
 2702TIP3    H1 8063   7.986   6.606   4.869
 2702TIP3    H2 8064   8.007   6.637   5.016
 2703TIP3   OH2 8065   5.201   0.366   3.914
 2703TIP3    H1 8066   5.153   0.401   3.839
 2703TIP3    H2 8067   5.288   0.347   3.879
 2704TIP3   OH2 8068   5.418   1.932   0.163
 2704TIP3    H1 8069   5.336   1.924   0.113
 2704TIP3    H2 8070   5.392   1.975   0.244
 2705TIP3   OH2 8071   6.734   3.366   3.412
 2705TIP3    H1 8072   6.648   3.346   3.449
 2705TIP3    H2 8073   6.714   3.410   3.329
 2706TIP3   OH2 8074   1.637   2.807   0.090
 2706TIP3    H1 8075   1.671   2.773   0.007
 2706TIP3    H2 8076   1.584   2.882   0.064
 2707TIP3   OH2 8077   2.426   6.894   6.073
 2707TIP3    H1 8078   2.446   6.863   5.985
 2707TIP3    H2 8079   2.464   6.828   6.131
 2708TIP3   OH2 8080   0.249   6.536   6.080
 2708TIP3    H1 8081   0.177   6.486   6.118
 2708TIP3    H2 8082   0.320   6.473   6.070
 2709TIP3   OH2 8083   5.320   4.861   3.244
 2709TIP3    H1 8084   5.414   4.871   3.227
 2709TIP3    H2 8085   5.278   4.902   3.168
 2710TIP3   OH2 8086   5.382   4.678   5.921
 2710TIP3    H1 8087   5.389   4.689   5.826
 2710TIP3    H2 8088   5.292   4.648   5.935
 2711TIP3   OH2 8089   0.476   5.634   3.105
 2711TIP3    H1 8090   0.395   5.685   3.116
 2711TIP3    H2 8091   0.546   5.700   3.110
 2712TIP3   OH2 8092   7.758   0.608   5.557
 2712TIP3    H1 8093   7.748   0.645   5.644
 2712TIP3    H2 8094   7.839   0.647   5.523
 2713TIP3   OH2 8095   2.659   4.910   6.308
 2713TIP3    H1 8096   2.705   4.957   6.238
 2713TIP3    H2 8097   2.728   4.861   6.353
 2714TIP3   OH2 8098   5.755   1.621   2.251
 2714TIP3    H1 8099   5.833   1.578   2.288
 2714TIP3    H2 8100   5.686   1.604   2.314
 2715TIP3   OH2 8101   4.993   5.429   3.524
 2715TIP3    H1 8102   5.031   5.484   3.455
 2715TIP3    H2 8103   4.904   5.461   3.535
 2716TIP3   OH2 8104   1.949   4.432   0.108
 2716TIP3    H1 8105   1.859   4.465   0.110
 2716TIP3    H2 8106   1.981   4.457   0.021
 2717TIP3   OH2 8107   3.315   4.198   6.078
 2717TIP3    H1 8108   3.265   4.278   6.092
 2717TIP3    H2 8109   3.363   4.214   5.996
 2718TIP3   OH2 8110   0.658   6.601   6.216
 2718TIP3    H1 8111   0.621   6.538   6.277
 2718TIP3    H2 8112   0.727   6.552   6.170
 2719TIP3   OH2 8113   1.312   0.205   2.138
 2719TIP3    H1 8114   1.315   0.129   2.079
 2719TIP3    H2 8115   1.340   0.279   2.083
 2720TIP3   OH2 8116   1.353   2.652   4.758
 2720TIP3    H1 8117   1.432   2.700   4.784
 2720TIP3    H2 8118   1.290   2.673   4.826
 2721TIP3   OH2 8119   6.825   2.221   0.742
 2721TIP3    H1 8120   6.825   2.282   0.816
 2721TIP3    H2 8121   6.918   2.203   0.725
 2722TIP3   OH2 8122   6.228   1.087   3.200
 2722TIP3    H1 8123   6.182   1.126   3.274
 2722TIP3    H2 8124   6.246   1.160   3.141
 2723TIP3   OH2 8125   7.590   7.407   1.188
 2723TIP3    H1 8126   7.505   7.388   1.148
 2723TIP3    H2 8127   7.569   7.465   1.262
 2724TIP3   OH2 8128   0.249   6.231   5.437
 2724TIP3    H1 8129   0.161   6.242   5.402
 2724TIP3    H2 8130   0.252   6.139   5.463
 2725TIP3   OH2 8131   0.086   3.167   0.496
 2725TIP3    H1 8132   0.166   3.118   0.514
 2725TIP3    H2 8133   0.117   3.253   0.467
 2726TIP3   OH2 8134   4.102   4.177   3.304
 2726TIP3    H1 8135   4.082   4.262   3.344
 2726TIP3    H2 8136   4.122   4.197   3.213
 2727TIP3   OH2 8137   6.297   7.113   4.251
 2727TIP3    H1 8138   6.362   7.046   4.229
 2727TIP3    H2 8139   6.341   7.196   4.232
 2728TIP3   OH2 8140   3.811   7.168   1.054
 2728TIP3    H1 8141   3.838   7.116   1.129
 2728TIP3    H2 8142   3.717   7.182   1.067
 2729TIP3   OH2 8143   0.740   3.581   3.040
 2729TIP3    H1 8144   0.651   3.570   3.008
 2729TIP3    H2 8145   0.731   3.645   3.111
 2730TIP3   OH2 8146   2.878   2.400   6.444
 2730TIP3    H1 8147   2.841   2.461   6.380
 2730TIP3    H2 8148   2.870   2.314   6.403
 2731TIP3   OH2 8149   1.935   6.785   4.018
 2731TIP3    H1 8150   1.907   6.867   3.977
 2731TIP3    H2 8151   1.990   6.812   4.091
 2732TIP3   OH2 8152   7.569   5.443   4.497
 2732TIP3    H1 8153   7.591   5.471   4.586
 2732TIP3    H2 8154   7.517   5.515   4.461
 2733TIP3   OH2 8155   0.453   0.662   4.555
 2733TIP3    H1 8156   0.423   0.695   4.470
 2733TIP3    H2 8157   0.514   0.592   4.533
 2734TIP3   OH2 8158   1.447   5.941   5.936
 2734TIP3    H1 8159   1.451   6.032   5.966
 2734TIP3    H2 8160   1.356   5.928   5.910
 2735TIP3   OH2 8161   5.864   4.870   1.363
 2735TIP3    H1 8162   5.848   4.816   1.285
 2735TIP3    H2 8163   5.790   4.850   1.420
 2736TIP3   OH2 8164   2.982   4.489   3.578
 2736TIP3    H1 8165   2.900   4.477   3.531
 2736TIP3    H2 8166   3.036   4.414   3.551
 2737TIP3   OH2 8167   7.576   7.288   2.074
 2737TIP3    H1 8168   7.587   7.246   1.989
 2737TIP3    H2 8169   7.532   7.371   2.055
 2738TIP3   OH2 8170   3.284   0.241   1.110
 2738TIP3    H1 8171   3.330   0.221   1.029
 2738TIP3    H2 8172   3.352   0.246   1.176
 2739TIP3   OH2 8173   0.894   6.832   2.792
 2739TIP3    H1 8174   0.981   6.865   2.769
 2739TIP3    H2 8175   0.836   6.908   2.781
 2740TIP3   OH2 8176   7.992   4.770   5.733
 2740TIP3    H1 8177   8.053   4.804   5.798
 2740TIP3    H2 8178   8.047   4.731   5.665
 2741TIP3   OH2 8179   1.190   7.447   4.149
 2741TIP3    H1 8180   1.250   7.464   4.077
 2741TIP3    H2 8181   1.244   7.449   4.228
 2742TIP3   OH2 8182   2.733   5.613   3.514
 2742TIP3    H1 8183   2.653   5.653   3.549
 2742TIP3    H2 8184   2.773   5.569   3.589
 2743TIP3   OH2 8185   1.950   0.647   5.096
 2743TIP3    H1 8186   2.017   0.587   5.065
 2743TIP3    H2 8187   1.870   0.617   5.054
 2744TIP3   OH2 8188   4.035   0.690   5.202
 2744TIP3    H1 8189   4.032   0.649   5.116
 2744TIP3    H2 8190   4.113   0.746   5.199
 2745TIP3   OH2 8191   7.360   3.880   3.454
 2745TIP3    H1 8192   7.436   3.903   3.507
 2745TIP3    H2 8193   7.370   3.931   3.373
 2746TIP3   OH2 8194   2.443   1.421   0.540
 2746TIP3    H1 8195   2.438   1.485   0.610
 2746TIP3    H2 8196   2.358   1.375   0.543
 2747TIP3   OH2 8197   3.999   0.324   0.096
 2747TIP3    H1 8198   4.040   0.256   0.044
 2747TIP3    H2 8199   4.026   0.406   0.054
 2748TIP3   OH2 8200   0.986   1.224   5.620
 2748TIP3    H1 8201   1.041   1.164   5.568
 2748TIP3    H2 8202   1.042   1.301   5.633
 2749TIP3   OH2 8203   7.374   7.723   4.519
 2749TIP3    H1 8204   7.313   7.650   4.517
 2749TIP3    H2 8205   7.413   7.724   4.431
 2750TIP3   OH2 8206   4.176   7.817   4.088
 2750TIP3    H1 8207   4.188   7.843   4.180
 2750TIP3    H2 8208   4.093   7.770   4.087
 2751TIP3   OH2 8209   2.106   7.451   2.234
 2751TIP3    H1 8210   2.042   7.518   2.211
 2751TIP3    H2 8211   2.103   7.389   2.161
 2752TIP3   OH2 8212   6.108   2.077   2.069
 2752TIP3    H1 8213   6.046   2.038   2.130
 2752TIP3    H2 8214   6.110   2.170   2.093
 2753TIP3   OH2 8215   0.742   7.106   4.702
 2753TIP3    H1 8216   0.700   7.158   4.633
 2753TIP3    H2 8217   0.801   7.168   4.746
 2754TIP3   OH2 8218   1.575   5.805   1.284
 2754TIP3    H1 8219   1.617   5.834   1.365
 2754TIP3    H2 8220   1.516   5.735   1.312
 2755TIP3   OH2 8221   5.657   6.612   3.523
 2755TIP3    H1 8222   5.709   6.533   3.503
 2755TIP3    H2 8223   5.715   6.665   3.578
 2756TIP3   OH2 8224   7.448   4.702   2.410
 2756TIP3    H1 8225   7.512   4.773   2.405
 2756TIP3    H2 8226   7.372   4.742   2.453
 2757TIP3   OH2 8227   3.766   2.405   4.412
 2757TIP3    H1 8228   3.819   2.476   4.376
 2757TIP3    H2 8229   3.679   2.420   4.378
 2758TIP3   OH2 8230   0.428   6.325   2.496
 2758TIP3    H1 8231   0.427   6.327   2.400
 2758TIP3    H2 8232   0.511   6.364   2.521
 2759TIP3   OH2 8233   1.551   1.844   2.144
 2759TIP3    H1 8234   1.455   1.847   2.144
 2759TIP3    H2 8235   1.578   1.934   2.159
 2760TIP3   OH2 8236   0.679   0.508   5.180
 2760TIP3    H1 8237   0.706   0.563   5.106
 2760TIP3    H2 8238   0.712   0.555   5.257
 2761TIP3   OH2 8239   1.573   6.003   3.393
 2761TIP3    H1 8240   1.501   6.035   3.340
 2761TIP3    H2 8241   1.602   6.079   3.443
 2762TIP3   OH2 8242   6.443   2.930   0.719
 2762TIP3    H1 8243   6.375   2.969   0.664
 2762TIP3    H2 8244   6.475   3.003   0.773
 2763TIP3   OH2 8245   2.188   6.446   0.271
 2763TIP3    H1 8246   2.131   6.476   0.201
 2763TIP3    H2 8247   2.243   6.521   0.291
 2764TIP3   OH2 8248   1.990   6.101   6.370
 2764TIP3    H1 8249   1.925   6.040   6.404
 2764TIP3    H2 8250   1.981   6.178   6.426
 2765TIP3   OH2 8251   1.274   5.610   5.518
 2765TIP3    H1 8252   1.180   5.617   5.500
 2765TIP3    H2 8253   1.291   5.679   5.582
 2766TIP3   OH2 8254   1.477   2.742   2.525
 2766TIP3    H1 8255   1.499   2.663   2.476
 2766TIP3    H2 8256   1.444   2.803   2.459
 2767TIP3   OH2 8257   5.030   1.553   0.793
 2767TIP3    H1 8258   4.992   1.518   0.874
 2767TIP3    H2 8259   5.029   1.479   0.732
 2768TIP3   OH2 8260   5.361   4.650   1.773
 2768TIP3    H1 8261   5.314   4.650   1.689
 2768TIP3    H2 8262   5.364   4.742   1.799
 2769TIP3   OH2 8263   4.267   6.332   5.266
 2769TIP3    H1 8264   4.183   6.304   5.231
 2769TIP3    H2 8265   4.293   6.405   5.209
 2770TIP3   OH2 8266   7.548   5.476   2.408
 2770TIP3    H1 8267   7.614   5.544   2.401
 2770TIP3    H2 8268   7.563   5.419   2.333
 2771TIP3   OH2 8269   4.956   5.354   1.931
 2771TIP3    H1 8270   4.896   5.347   1.857
 2771TIP3    H2 8271   5.041   5.328   1.896
 2772TIP3   OH2 8272   2.052   6.100   1.998
 2772TIP3    H1 8273   1.973   6.093   1.945
 2772TIP3    H2 8274   2.103   6.170   1.956
 2773TIP3   OH2 8275   5.656   2.174   5.636
 2773TIP3    H1 8276   5.564   2.149   5.634
 2773TIP3    H2 8277   5.703   2.091   5.648
 2774TIP3   OH2 8278   4.845   0.895   6.421
 2774TIP3    H1 8279   4.804   0.808   6.418
 2774TIP3    H2 8280   4.815   0.933   6.504
 2775TIP3   OH2 8281   8.314   5.879   0.014
 2775TIP3    H1 8282   8.350   5.806  -0.036
 2775TIP3    H2 8283   8.259   5.838   0.081
 2776TIP3   OH2 8284   2.230   2.812   1.093
 2776TIP3    H1 8285   2.207   2.768   1.011
 2776TIP3    H2 8286   2.309   2.862   1.073
 2777TIP3   OH2 8287   5.293   6.901   2.099
 2777TIP3    H1 8288   5.251   6.968   2.152
 2777TIP3    H2 8289   5.386   6.923   2.102
 2778TIP3   OH2 8290   1.756   0.854   6.577
 2778TIP3    H1 8291   1.667   0.819   6.576
 2778TIP3    H2 8292   1.775   0.868   6.670
 2779TIP3   OH2 8293   2.307   4.286   6.497
 2779TIP3    H1 8294   2.237   4.263   6.558
 2779TIP3    H2 8295   2.387   4.262   6.543
 2780TIP3   OH2 8296   4.313   5.129   4.276
 2780TIP3    H1 8297   4.240   5.191   4.274
 2780TIP3    H2 8298   4.308   5.083   4.193
 2781TIP3   OH2 8299   7.084   6.902   2.763
 2781TIP3    H1 8300   7.054   6.960   2.833
 2781TIP3    H2 8301   7.070   6.814   2.797
 2782TIP3   OH2 8302   5.778   1.637   4.859
 2782TIP3    H1 8303   5.733   1.719   4.838
 2782TIP3    H2 8304   5.721   1.593   4.921
 2783TIP3   OH2 8305   5.676   6.746   4.711
 2783TIP3    H1 8306   5.665   6.841   4.710
 2783TIP3    H2 8307   5.769   6.732   4.727
 2784TIP3   OH2 8308   7.997   0.400   3.317
 2784TIP3    H1 8309   7.967   0.488   3.338
 2784TIP3    H2 8310   7.949   0.344   3.379
 2785TIP3   OH2 8311   2.965   5.621   6.754
 2785TIP3    H1 8312   2.983   5.674   6.677
 2785TIP3    H2 8313   3.047   5.623   6.804
 2786TIP3   OH2 8314   7.145   0.120   5.522
 2786TIP3    H1 8315   7.101   0.039   5.549
 2786TIP3    H2 8316   7.124   0.129   5.429
 2787TIP3   OH2 8317   2.908   0.474   4.172
 2787TIP3    H1 8318   2.986   0.428   4.141
 2787TIP3    H2 8319   2.853   0.483   4.095
 2788TIP3   OH2 8320   5.916   6.434   5.429
 2788TIP3    H1 8321   6.001   6.477   5.441
 2788TIP3    H2 8322   5.876   6.479   5.354
 2789TIP3   OH2 8323   3.170   5.010   0.376
 2789TIP3    H1 8324   3.104   4.970   0.319
 2789TIP3    H2 8325   3.252   4.968   0.349
 2790TIP3   OH2 8326   6.241   6.502   2.232
 2790TIP3    H1 8327   6.169   6.477   2.175
 2790TIP3    H2 8328   6.238   6.439   2.304
 2791TIP3   OH2 8329   2.083   5.262   1.844
 2791TIP3    H1 8330   2.057   5.178   1.881
 2791TIP3    H2 8331   2.176   5.252   1.823
 2792TIP3   OH2 8332   2.623   0.664   1.065
 2792TIP3    H1 8333   2.547   0.610   1.083
 2792TIP3    H2 8334   2.698   0.610   1.091
 2793TIP3   OH2 8335   5.379   5.908   2.461
 2793TIP3    H1 8336   5.320   5.980   2.482
 2793TIP3    H2 8337   5.362   5.889   2.369
 2794TIP3   OH2 8338   5.500   6.673   2.900
 2794TIP3    H1 8339   5.489   6.639   2.811
 2794TIP3    H2 8340   5.509   6.595   2.954
 2795TIP3   OH2 8341   0.440   2.319   5.242
 2795TIP3    H1 8342   0.432   2.373   5.321
 2795TIP3    H2 8343   0.495   2.245   5.268
 2796TIP3   OH2 8344   2.648   0.888   0.184
 2796TIP3    H1 8345   2.623   0.948   0.114
 2796TIP3    H2 8346   2.565   0.864   0.226
 2797TIP3   OH2 8347   1.377   3.564   5.069
 2797TIP3    H1 8348   1.459   3.603   5.098
 2797TIP3    H2 8349   1.397   3.471   5.060
 2798TIP3   OH2 8350   4.371   4.164   4.921
 2798TIP3    H1 8351   4.286   4.193   4.889
 2798TIP3    H2 8352   4.361   4.159   5.016
 2799TIP3   OH2 8353   4.491   7.612   0.688
 2799TIP3    H1 8354   4.511   7.662   0.608
 2799TIP3    H2 8355   4.499   7.520   0.661
 2800TIP3   OH2 8356   0.717   4.022   5.202
 2800TIP3    H1 8357   0.762   4.030   5.286
 2800TIP3    H2 8358   0.624   4.025   5.224
 2801TIP3   OH2 8359   2.248   1.395   0.859
 2801TIP3    H1 8360   2.253   1.368   0.950
 2801TIP3    H2 8361   2.309   1.468   0.852
 2802TIP3   OH2 8362   2.940   7.127   5.407
 2802TIP3    H1 8363   3.005   7.149   5.474
 2802TIP3    H2 8364   2.910   7.039   5.432
 2803TIP3   OH2 8365   2.141   3.412   3.738
 2803TIP3    H1 8366   2.076   3.446   3.801
 2803TIP3    H2 8367   2.201   3.361   3.792
 2804TIP3   OH2 8368   7.486   3.560   1.338
 2804TIP3    H1 8369   7.504   3.475   1.379
 2804TIP3    H2 8370   7.475   3.620   1.412
 2805TIP3   OH2 8371   0.968   2.503   1.079
 2805TIP3    H1 8372   0.992   2.486   1.171
 2805TIP3    H2 8373   0.873   2.496   1.077
 2806TIP3   OH2 8374   0.161   1.767   0.509
 2806TIP3    H1 8375   0.108   1.797   0.583
 2806TIP3    H2 8376   0.119   1.686   0.481
 2807TIP3   OH2 8377   3.469   4.709   2.573
 2807TIP3    H1 8378   3.430   4.664   2.649
 2807TIP3    H2 8379   3.502   4.792   2.610
 2808TIP3   OH2 8380   1.468   4.669   4.496
 2808TIP3    H1 8381   1.527   4.659   4.421
 2808TIP3    H2 8382   1.439   4.760   4.492
 2809TIP3   OH2 8383   7.313   0.271   1.340
 2809TIP3    H1 8384   7.225   0.240   1.362
 2809TIP3    H2 8385   7.308   0.295   1.248
 2810TIP3   OH2 8386   6.151   6.170   4.381
 2810TIP3    H1 8387   6.085   6.142   4.318
 2810TIP3    H2 8388   6.218   6.213   4.329
 2811TIP3   OH2 8389   1.929   0.410   5.410
 2811TIP3    H1 8390   1.918   0.377   5.499
 2811TIP3    H2 8391   2.024   0.405   5.395
 2812TIP3   OH2 8392   1.578   5.332   3.887
 2812TIP3    H1 8393   1.517   5.344   3.959
 2812TIP3    H2 8394   1.529   5.282   3.822
 2813TIP3   OH2 8395   6.556   5.416   3.500
 2813TIP3    H1 8396   6.652   5.409   3.501
 2813TIP3    H2 8397   6.526   5.330   3.529
 2814TIP3   OH2 8398   6.386   4.790   4.889
 2814TIP3    H1 8399   6.353   4.795   4.979
 2814TIP3    H2 8400   6.352   4.867   4.846
 2815TIP3   OH2 8401   4.830   0.306   3.171
 2815TIP3    H1 8402   4.827   0.243   3.243
 2815TIP3    H2 8403   4.871   0.259   3.099
 2816TIP3   OH2 8404   3.631   4.237   5.011
 2816TIP3    H1 8405   3.561   4.275   4.958
 2816TIP3    H2 8406   3.668   4.312   5.059
 2817TIP3   OH2 8407   5.515   6.157   2.418
 2817TIP3    H1 8408   5.525   6.088   2.483
 2817TIP3    H2 8409   5.512   6.238   2.469
 2818TIP3   OH2 8410   4.883   2.710   5.813
 2818TIP3    H1 8411   4.800   2.744   5.848
 2818TIP3    H2 8412   4.857   2.640   5.754
 2819TIP3   OH2 8413   8.278   3.299   2.426
 2819TIP3    H1 8414   8.230   3.351   2.490
 2819TIP3    H2 8415   8.247   3.330   2.341
 2820TIP3   OH2 8416   1.960   6.078   6.102
 2820TIP3    H1 8417   1.876   6.032   6.103
 2820TIP3    H2 8418   1.981   6.091   6.194
 2821TIP3   OH2 8419   0.413   3.253   2.850
 2821TIP3    H1 8420   0.323   3.223   2.837
 2821TIP3    H2 8421   0.463   3.213   2.779
 2822TIP3   OH2 8422   4.690   5.603   3.963
 2822TIP3    H1 8423   4.739   5.522   3.949
 2822TIP3    H2 8424   4.736   5.646   4.036
 2823TIP3   OH2 8425   5.850   5.499   4.167
 2823TIP3    H1 8426   5.936   5.482   4.129
 2823TIP3    H2 8427   5.869   5.555   4.243
 2824TIP3   OH2 8428   7.206   1.579   1.953
 2824TIP3    H1 8429   7.149   1.655   1.963
 2824TIP3    H2 8430   7.147   1.504   1.954
 2825TIP3   OH2 8431   2.251   1.829   0.933
 2825TIP3    H1 8432   2.321   1.838   0.998
 2825TIP3    H2 8433   2.171   1.833   0.984
 2826TIP3   OH2 8434   1.320   0.839   0.012
 2826TIP3    H1 8435   1.343   0.911   0.071
 2826TIP3    H2 8436   1.225   0.830   0.021
 2827TIP3   OH2 8437   6.120   2.373   4.904
 2827TIP3    H1 8438   6.175   2.307   4.861
 2827TIP3    H2 8439   6.160   2.385   4.990
 2828TIP3   OH2 8440   4.731   2.710   2.781
 2828TIP3    H1 8441   4.643   2.748   2.775
 2828TIP3    H2 8442   4.781   2.754   2.712
 2829TIP3   OH2 8443   1.481   6.505   1.504
 2829TIP3    H1 8444   1.413   6.547   1.451
 2829TIP3    H2 8445   1.546   6.574   1.519
 2830TIP3   OH2 8446   4.311   3.258   1.044
 2830TIP3    H1 8447   4.339   3.179   0.997
 2830TIP3    H2 8448   4.227   3.280   1.003
 2831TIP3   OH2 8449   1.277   5.395   3.760
 2831TIP3    H1 8450   1.351   5.419   3.704
 2831TIP3    H2 8451   1.317   5.375   3.845
 2832TIP3   OH2 8452   2.249   1.207   4.630
 2832TIP3    H1 8453   2.265   1.181   4.721
 2832TIP3    H2 8454   2.320   1.269   4.611
 2833TIP3   OH2 8455   2.203   4.715   0.338
 2833TIP3    H1 8456   2.122   4.753   0.304
 2833TIP3    H2 8457   2.248   4.787   0.382
 2834TIP3   OH2 8458   7.093   7.381   3.740
 2834TIP3    H1 8459   7.175   7.379   3.789
 2834TIP3    H2 8460   7.079   7.290   3.713
 2835TIP3   OH2 8461   5.877   3.279   1.679
 2835TIP3    H1 8462   5.958   3.229   1.671
 2835TIP3    H2 8463   5.830   3.237   1.750
 2836TIP3   OH2 8464   1.585   4.114   2.853
 2836TIP3    H1 8465   1.529   4.181   2.892
 2836TIP3    H2 8466   1.549   4.101   2.765
 2837TIP3   OH2 8467   4.478   1.160   5.477
 2837TIP3    H1 8468   4.497   1.137   5.386
 2837TIP3    H2 8469   4.446   1.078   5.516
 2838TIP3   OH2 8470   7.329   2.644   5.134
 2838TIP3    H1 8471   7.384   2.571   5.105
 2838TIP3    H2 8472   7.335   2.708   5.064
 2839TIP3   OH2 8473   3.942   4.248   5.762
 2839TIP3    H1 8474   3.906   4.296   5.688
 2839TIP3    H2 8475   3.983   4.316   5.817
 2840TIP3   OH2 8476   5.087   0.938   0.243
 2840TIP3    H1 8477   5.017   0.877   0.266
 2840TIP3    H2 8478   5.045   1.024   0.246
 2841TIP3   OH2 8479   2.038   6.994   1.718
 2841TIP3    H1 8480   2.010   7.004   1.809
 2841TIP3    H2 8481   2.003   6.909   1.691
 2842TIP3   OH2 8482   2.965   6.316   0.915
 2842TIP3    H1 8483   3.034   6.361   0.866
 2842TIP3    H2 8484   2.904   6.386   0.939
 2843TIP3   OH2 8485   0.422   6.997   4.930
 2843TIP3    H1 8486   0.499   7.051   4.950
 2843TIP3    H2 8487   0.351   7.038   4.979
 2844TIP3   OH2 8488   4.988   4.990   0.658
 2844TIP3    H1 8489   5.028   4.924   0.713
 2844TIP3    H2 8490   5.054   5.010   0.592
 2845TIP3   OH2 8491   0.320   5.153   1.352
 2845TIP3    H1 8492   0.377   5.078   1.333
 2845TIP3    H2 8493   0.243   5.139   1.295
 2846TIP3   OH2 8494   6.264   5.206   4.971
 2846TIP3    H1 8495   6.252   5.258   5.050
 2846TIP3    H2 8496   6.248   5.268   4.899
 2847TIP3   OH2 8497   5.307   5.244   5.783
 2847TIP3    H1 8498   5.306   5.249   5.687
 2847TIP3    H2 8499   5.353   5.162   5.802
 2848TIP3   OH2 8500   3.719   1.276   0.715
 2848TIP3    H1 8501   3.630   1.280   0.682
 2848TIP3    H2 8502   3.712   1.233   0.800
 2849TIP3   OH2 8503   4.096   4.738   4.869
 2849TIP3    H1 8504   4.078   4.817   4.920
 2849TIP3    H2 8505   4.186   4.749   4.839
 2850TIP3   OH2 8506   5.140   7.810   3.577
 2850TIP3    H1 8507   5.168   7.892   3.618
 2850TIP3    H2 8508   5.160   7.743   3.642
 2851TIP3   OH2 8509   4.502   1.880   4.800
 2851TIP3    H1 8510   4.431   1.920   4.850
 2851TIP3    H2 8511   4.462   1.855   4.717
 2852TIP3   OH2 8512   0.811   7.462   4.006
 2852TIP3    H1 8513   0.792   7.388   4.063
 2852TIP3    H2 8514   0.878   7.511   4.052
 2853TIP3   OH2 8515   0.297   3.148   4.193
 2853TIP3    H1 8516   0.241   3.179   4.122
 2853TIP3    H2 8517   0.262   3.062   4.215
 2854TIP3   OH2 8518   7.456   4.131   3.637
 2854TIP3    H1 8519   7.377   4.169   3.674
 2854TIP3    H2 8520   7.490   4.199   3.578
 2855TIP3   OH2 8521   5.023   0.874   0.997
 2855TIP3    H1 8522   5.073   0.955   1.000
 2855TIP3    H2 8523   5.078   0.810   1.043
 2856TIP3   OH2 8524   7.878   4.247   3.722
 2856TIP3    H1 8525   7.964   4.277   3.750
 2856TIP3    H2 8526   7.858   4.299   3.644
 2857TIP3   OH2 8527   0.754   0.393   6.633
 2857TIP3    H1 8528   0.769   0.484   6.660
 2857TIP3    H2 8529   0.802   0.385   6.550
 2858TIP3   OH2 8530   6.970   4.572   4.039
 2858TIP3    H1 8531   7.057   4.554   4.074
 2858TIP3    H2 8532   6.921   4.491   4.052
 2859TIP3   OH2 8533   2.869   3.278   6.555
 2859TIP3    H1 8534   2.846   3.356   6.607
 2859TIP3    H2 8535   2.849   3.303   6.465
 2860TIP3   OH2 8536   3.096   3.138   4.636
 2860TIP3    H1 8537   3.134   3.065   4.586
 2860TIP3    H2 8538   3.134   3.216   4.597
 2861TIP3   OH2 8539   3.115   6.968   2.448
 2861TIP3    H1 8540   3.162   6.886   2.432
 2861TIP3    H2 8541   3.181   7.036   2.435
 2862TIP3   OH2 8542   5.308   1.678   4.934
 2862TIP3    H1 8543   5.302   1.768   4.901
 2862TIP3    H2 8544   5.313   1.624   4.855
 2863TIP3   OH2 8545   5.418   4.636   5.046
 2863TIP3    H1 8546   5.482   4.579   5.088
 2863TIP3    H2 8547   5.334   4.609   5.082
 2864TIP3   OH2 8548   7.569   1.605   5.369
 2864TIP3    H1 8549   7.641   1.646   5.321
 2864TIP3    H2 8550   7.565   1.653   5.451
 2865TIP3   OH2 8551   1.032   4.860   2.896
 2865TIP3    H1 8552   0.947   4.862   2.940
 2865TIP3    H2 8553   1.094   4.839   2.965
 2866TIP3   OH2 8554   1.579   4.056   6.168
 2866TIP3    H1 8555   1.659   4.012   6.140
 2866TIP3    H2 8556   1.512   3.988   6.163
 2867TIP3   OH2 8557   0.146   1.295   2.098
 2867TIP3    H1 8558   0.109   1.220   2.144
 2867TIP3    H2 8559   0.127   1.277   2.005
 2868TIP3   OH2 8560   7.528   6.459   3.901
 2868TIP3    H1 8561   7.618   6.487   3.918
 2868TIP3    H2 8562   7.495   6.431   3.986
 2869TIP3   OH2 8563   6.380   7.194   6.267
 2869TIP3    H1 8564   6.298   7.163   6.304
 2869TIP3    H2 8565   6.384   7.286   6.291
 2870TIP3   OH2 8566   3.928   6.251   0.556
 2870TIP3    H1 8567   3.926   6.344   0.533
 2870TIP3    H2 8568   4.015   6.238   0.594
 2871TIP3   OH2 8569   2.378   4.156   5.676
 2871TIP3    H1 8570   2.417   4.241   5.698
 2871TIP3    H2 8571   2.443   4.092   5.706
 2872TIP3   OH2 8572   3.884   2.416   3.911
 2872TIP3    H1 8573   3.890   2.321   3.918
 2872TIP3    H2 8574   3.927   2.449   3.990
 2873TIP3   OH2 8575   6.446   7.721   4.486
 2873TIP3    H1 8576   6.405   7.737   4.571
 2873TIP3    H2 8577   6.423   7.799   4.434
 2874TIP3   OH2 8578   4.813   5.067   2.236
 2874TIP3    H1 8579   4.788   5.079   2.327
 2874TIP3    H2 8580   4.807   5.155   2.197
 2875TIP3   OH2 8581   8.091   6.979   0.102
 2875TIP3    H1 8582   8.105   7.070   0.078
 2875TIP3    H2 8583   8.011   6.980   0.153
 2876TIP3   OH2 8584   4.070   1.430   1.476
 2876TIP3    H1 8585   4.163   1.408   1.463
 2876TIP3    H2 8586   4.029   1.410   1.392
 2877TIP3   OH2 8587   5.320   3.612   0.641
 2877TIP3    H1 8588   5.399   3.667   0.643
 2877TIP3    H2 8589   5.302   3.600   0.548
 2878TIP3   OH2 8590   3.361   7.454   4.352
 2878TIP3    H1 8591   3.313   7.389   4.300
 2878TIP3    H2 8592   3.307   7.469   4.429
 2879TIP3   OH2 8593   0.098   0.209   1.216
 2879TIP3    H1 8594   0.153   0.212   1.294
 2879TIP3    H2 8595   0.017   0.254   1.242
 2880TIP3   OH2 8596   1.800   3.604   0.816
 2880TIP3    H1 8597   1.733   3.670   0.799
 2880TIP3    H2 8598   1.871   3.652   0.858
 2881TIP3   OH2 8599   4.095   3.430   0.654
 2881TIP3    H1 8600   4.002   3.417   0.672
 2881TIP3    H2 8601   4.099   3.509   0.601
 2882TIP3   OH2 8602   3.045   4.279   1.123
 2882TIP3    H1 8603   2.954   4.255   1.140
 2882TIP3    H2 8604   3.065   4.238   1.039
 2883TIP3   OH2 8605   3.673   3.456   4.701
 2883TIP3    H1 8606   3.658   3.480   4.793
 2883TIP3    H2 8607   3.702   3.537   4.659
 2884TIP3   OH2 8608   6.355   0.905   0.706
 2884TIP3    H1 8609   6.322   0.821   0.737
 2884TIP3    H2 8610   6.334   0.966   0.777
 2885TIP3   OH2 8611   6.435   5.970   4.291
 2885TIP3    H1 8612   6.458   6.008   4.375
 2885TIP3    H2 8613   6.467   5.880   4.296
 2886TIP3   OH2 8614   3.834   3.878   0.664
 2886TIP3    H1 8615   3.750   3.861   0.706
 2886TIP3    H2 8616   3.843   3.973   0.668
 2887TIP3   OH2 8617   3.109   5.157   4.725
 2887TIP3    H1 8618   3.058   5.097   4.671
 2887TIP3    H2 8619   3.061   5.162   4.808
 2888TIP3   OH2 8620   3.490   1.353   5.363
 2888TIP3    H1 8621   3.584   1.353   5.379
 2888TIP3    H2 8622   3.451   1.335   5.448
 2889TIP3   OH2 8623   3.360   1.812   5.751
 2889TIP3    H1 8624   3.390   1.728   5.717
 2889TIP3    H2 8625   3.421   1.833   5.822
 2890TIP3   OH2 8626   0.937   7.431   6.749
 2890TIP3    H1 8627   0.909   7.370   6.817
 2890TIP3    H2 8628   0.859   7.444   6.695
 2891TIP3   OH2 8629   0.323   0.332   3.567
 2891TIP3    H1 8630   0.398   0.320   3.509
 2891TIP3    H2 8631   0.292   0.243   3.584
 2892TIP3   OH2 8632   0.070   4.882   0.880
 2892TIP3    H1 8633   0.076   4.890   0.785
 2892TIP3    H2 8634  -0.019   4.852   0.896
 2893TIP3   OH2 8635   3.865   0.876   5.016
 2893TIP3    H1 8636   3.948   0.910   4.983
 2893TIP3    H2 8637   3.884   0.786   5.041
 2894TIP3   OH2 8638   6.093   7.714   6.706
 2894TIP3    H1 8639   6.047   7.798   6.709
 2894TIP3    H2 8640   6.169   7.730   6.650
 2895TIP3   OH2 8641   2.657   6.069   3.177
 2895TIP3    H1 8642   2.649   6.145   3.234
 2895TIP3    H2 8643   2.683   5.998   3.236
 2896TIP3   OH2 8644   6.238   1.773   2.913
 2896TIP3    H1 8645   6.332   1.761   2.929
 2896TIP3    H2 8646   6.227   1.754   2.820
 2897TIP3   OH2 8647   0.824   4.587   3.251
 2897TIP3    H1 8648   0.815   4.641   3.329
 2897TIP3    H2 8649   0.751   4.526   3.255
 2898TIP3   OH2 8650   1.865   1.602   2.951
 2898TIP3    H1 8651   1.883   1.559   2.868
 2898TIP3    H2 8652   1.949   1.639   2.978
 2899TIP3   OH2 8653   1.481   0.001   2.833
 2899TIP3    H1 8654   1.433  -0.029   2.756
 2899TIP3    H2 8655   1.520   0.084   2.807
 2900TIP3   OH2 8656   7.469   1.244   6.685
 2900TIP3    H1 8657   7.437   1.188   6.614
 2900TIP3    H2 8658   7.481   1.330   6.644
 2901TIP3   OH2 8659   2.570   4.699   4.906
 2901TIP3    H1 8660   2.478   4.720   4.894
 2901TIP3    H2 8661   2.580   4.686   5.000
 2902TIP3   OH2 8662   4.466   3.116   2.674
 2902TIP3    H1 8663   4.412   3.192   2.696
 2902TIP3    H2 8664   4.457   3.106   2.579
 2903TIP3   OH2 8665   6.513   5.962   5.732
 2903TIP3    H1 8666   6.534   5.941   5.823
 2903TIP3    H2 8667   6.464   6.044   5.736
 2904TIP3   OH2 8668   2.433   7.388   6.078
 2904TIP3    H1 8669   2.506   7.378   6.138
 2904TIP3    H2 8670   2.434   7.480   6.053
 2905TIP3   OH2 8671   3.344   5.272   6.650
 2905TIP3    H1 8672   3.423   5.246   6.603
 2905TIP3    H2 8673   3.300   5.189   6.670
 2906TIP3   OH2 8674   3.011   2.761   3.035
 2906TIP3    H1 8675   2.989   2.843   3.080
 2906TIP3    H2 8676   2.933   2.707   3.046
 2907TIP3   OH2 8677   2.309   3.688   5.202
 2907TIP3    H1 8678   2.291   3.621   5.268
 2907TIP3    H2 8679   2.236   3.750   5.209
 2908TIP3   OH2 8680   1.931   7.253   3.985
 2908TIP3    H1 8681   1.928   7.345   4.012
 2908TIP3    H2 8682   2.020   7.225   4.006
 2909TIP3   OH2 8683   8.167   3.438   3.605
 2909TIP3    H1 8684   8.109   3.515   3.606
 2909TIP3    H2 8685   8.130   3.380   3.671
 2910TIP3   OH2 8686   3.304   0.456   3.138
 2910TIP3    H1 8687   3.250   0.508   3.197
 2910TIP3    H2 8688   3.242   0.398   3.093
 2911TIP3   OH2 8689   3.097   7.685   2.923
 2911TIP3    H1 8690   3.139   7.612   2.876
 2911TIP3    H2 8691   3.153   7.698   3.000
 2912TIP3   OH2 8692   6.648   3.880   4.715
 2912TIP3    H1 8693   6.554   3.878   4.697
 2912TIP3    H2 8694   6.656   3.916   4.803
 2913TIP3   OH2 8695   2.550   2.109   6.144
 2913TIP3    H1 8696   2.524   2.017   6.134
 2913TIP3    H2 8697   2.477   2.159   6.107
 2914TIP3   OH2 8698   6.017   5.867   2.050
 2914TIP3    H1 8699   6.001   5.783   2.008
 2914TIP3    H2 8700   6.073   5.847   2.124
 2915TIP3   OH2 8701   7.809   6.691   6.009
 2915TIP3    H1 8702   7.878   6.673   5.945
 2915TIP3    H2 8703   7.845   6.660   6.092
 2916TIP3   OH2 8704   6.880   3.524   2.975
 2916TIP3    H1 8705   6.900   3.567   3.058
 2916TIP3    H2 8706   6.965   3.496   2.941
 2917TIP3   OH2 8707   7.419   6.191   4.084
 2917TIP3    H1 8708   7.365   6.171   4.160
 2917TIP3    H2 8709   7.361   6.178   4.009
 2918TIP3   OH2 8710   0.163   5.392   3.335
 2918TIP3    H1 8711   0.158   5.468   3.394
 2918TIP3    H2 8712   0.073   5.378   3.306
 2919TIP3   OH2 8713   4.883   4.942   3.573
 2919TIP3    H1 8714   4.913   5.005   3.509
 2919TIP3    H2 8715   4.809   4.898   3.531
 2920TIP3   OH2 8716   6.144   3.409   5.455
 2920TIP3    H1 8717   6.133   3.358   5.375
 2920TIP3    H2 8718   6.077   3.476   5.451
 2921TIP3   OH2 8719   2.549   1.164   4.808
 2921TIP3    H1 8720   2.466   1.202   4.836
 2921TIP3    H2 8721   2.524   1.093   4.749
 2922TIP3   OH2 8722   5.235   4.041   2.178
 2922TIP3    H1 8723   5.273   4.042   2.266
 2922TIP3    H2 8724   5.145   4.012   2.192
 2923TIP3   OH2 8725   5.120   2.103   4.171
 2923TIP3    H1 8726   5.199   2.048   4.176
 2923TIP3    H2 8727   5.111   2.122   4.077
 2924TIP3   OH2 8728   1.903   3.082   4.870
 2924TIP3    H1 8729   1.871   3.091   4.780
 2924TIP3    H2 8730   1.977   3.142   4.875
 2925TIP3   OH2 8731   5.077   0.392   2.323
 2925TIP3    H1 8732   5.164   0.367   2.292
 2925TIP3    H2 8733   5.081   0.379   2.418
 2926TIP3   OH2 8734   2.487   2.148   3.154
 2926TIP3    H1 8735   2.496   2.243   3.148
 2926TIP3    H2 8736   2.513   2.127   3.243
 2927TIP3   OH2 8737   1.766   0.340   2.219
 2927TIP3    H1 8738   1.836   0.361   2.158
 2927TIP3    H2 8739   1.687   0.377   2.180
 2928TIP3   OH2 8740   3.743   1.380   4.005
 2928TIP3    H1 8741   3.674   1.315   3.995
 2928TIP3    H2 8742   3.736   1.410   4.095
 2929TIP3   OH2 8743   1.329   6.514   4.265
 2929TIP3    H1 8744   1.293   6.545   4.182
 2929TIP3    H2 8745   1.308   6.421   4.267
 2930TIP3   OH2 8746   4.230   2.788  -0.028
 2930TIP3    H1 8747   4.165   2.772   0.040
 2930TIP3    H2 8748   4.250   2.881  -0.021
 2931TIP3   OH2 8749   3.983   2.651   1.698
 2931TIP3    H1 8750   3.981   2.557   1.715
 2931TIP3    H2 8751   3.919   2.664   1.629
 2932TIP3   OH2 8752   8.056   3.397   6.275
 2932TIP3    H1 8753   8.031   3.463   6.210
 2932TIP3    H2 8754   8.152   3.391   6.267
 2933TIP3   OH2 8755   8.133   1.139   2.390
 2933TIP3    H1 8756   8.107   1.060   2.438
 2933TIP3    H2 8757   8.051   1.178   2.362
 2934TIP3   OH2 8758   2.604   3.758   4.029
 2934TIP3    H1 8759   2.628   3.769   3.937
 2934TIP3    H2 8760   2.672   3.701   4.065
 2935TIP3   OH2 8761   0.518   7.115   4.414
 2935TIP3    H1 8762   0.556   7.190   4.458
 2935TIP3    H2 8763   0.435   7.101   4.459
 2936TIP3   OH2 8764   1.341   1.475   2.225
 2936TIP3    H1 8765   1.343   1.555   2.278
 2936TIP3    H2 8766   1.345   1.507   2.134
 2937TIP3   OH2 8767   0.811   3.350   6.699
 2937TIP3    H1 8768   0.820   3.400   6.618
 2937TIP3    H2 8769   0.900   3.322   6.720
 2938TIP3   OH2 8770   5.065   5.363   1.357
 2938TIP3    H1 8771   5.060   5.427   1.286
 2938TIP3    H2 8772   5.023   5.406   1.431
 2939TIP3   OH2 8773   6.399   6.755   0.500
 2939TIP3    H1 8774   6.317   6.768   0.452
 2939TIP3    H2 8775   6.447   6.837   0.487
 2940TIP3   OH2 8776   5.169   6.070   6.101
 2940TIP3    H1 8777   5.205   6.116   6.024
 2940TIP3    H2 8778   5.090   6.027   6.068
 2941TIP3   OH2 8779   6.287   1.136   5.194
 2941TIP3    H1 8780   6.234   1.114   5.270
 2941TIP3    H2 8781   6.283   1.058   5.139
 2942TIP3   OH2 8782   6.972   3.844   5.065
 2942TIP3    H1 8783   7.039   3.907   5.039
 2942TIP3    H2 8784   7.022   3.770   5.102
 2943TIP3   OH2 8785   3.732   0.907   6.167
 2943TIP3    H1 8786   3.638   0.889   6.160
 2943TIP3    H2 8787   3.764   0.845   6.232
 2944TIP3   OH2 8788   1.409   1.484   3.822
 2944TIP3    H1 8789   1.475   1.447   3.881
 2944TIP3    H2 8790   1.354   1.538   3.878
 2945TIP3   OH2 8791   1.240   2.193   0.678
 2945TIP3    H1 8792   1.250   2.248   0.601
 2945TIP3    H2 8793   1.146   2.194   0.696
 2946TIP3   OH2 8794   2.675   5.029   0.723
 2946TIP3    H1 8795   2.723   5.000   0.801
 2946TIP3    H2 8796   2.739   5.028   0.653
 2947TIP3   OH2 8797   6.920   1.267   2.995
 2947TIP3    H1 8798   6.907   1.354   2.956
 2947TIP3    H2 8799   7.014   1.249   2.983
 2948TIP3   OH2 8800   0.047   4.206   4.177
 2948TIP3    H1 8801   0.103   4.212   4.254
 2948TIP3    H2 8802   0.097   4.250   4.108
 2949TIP3   OH2 8803   0.988   0.422   1.463
 2949TIP3    H1 8804   0.934   0.498   1.441
 2949TIP3    H2 8805   0.959   0.354   1.403
 2950TIP3   OH2 8806   0.372   2.419   5.776
 2950TIP3    H1 8807   0.428   2.371   5.836
 2950TIP3    H2 8808   0.285   2.382   5.789
 2951TIP3   OH2 8809   7.054   7.558   2.451
 2951TIP3    H1 8810   7.143   7.538   2.422
 2951TIP3    H2 8811   6.998   7.514   2.387
 2952TIP3   OH2 8812   1.533   1.353   2.951
 2952TIP3    H1 8813   1.543   1.445   2.974
 2952TIP3    H2 8814   1.506   1.354   2.859
 2953TIP3   OH2 8815   5.969   5.053   2.021
 2953TIP3    H1 8816   5.879   5.022   2.018
 2953TIP3    H2 8817   6.005   5.018   2.102
 2954TIP3   OH2 8818   1.527   5.496   6.205
 2954TIP3    H1 8819   1.442   5.512   6.164
 2954TIP3    H2 8820   1.564   5.422   6.157
 2955TIP3   OH2 8821   4.690   1.129   6.555
 2955TIP3    H1 8822   4.724   1.217   6.574
 2955TIP3    H2 8823   4.648   1.101   6.637
 2956TIP3   OH2 8824   7.145   5.192   1.035
 2956TIP3    H1 8825   7.210   5.178   0.965
 2956TIP3    H2 8826   7.089   5.261   1.002
 2957TIP3   OH2 8827   3.969   5.535   1.482
 2957TIP3    H1 8828   4.013   5.614   1.512
 2957TIP3    H2 8829   3.984   5.471   1.551
 2958TIP3   OH2 8830   2.258   0.404   4.962
 2958TIP3    H1 8831   2.173   0.409   5.006
 2958TIP3    H2 8832   2.259   0.318   4.921
 2959TIP3   OH2 8833   6.552   0.879   6.132
 2959TIP3    H1 8834   6.582   0.810   6.073
 2959TIP3    H2 8835   6.579   0.850   6.219
 2960TIP3   OH2 8836   3.158   6.609   2.029
 2960TIP3    H1 8837   3.177   6.516   2.037
 2960TIP3    H2 8838   3.164   6.627   1.935
 2961TIP3   OH2 8839   7.982   2.348   1.957
 2961TIP3    H1 8840   7.909   2.296   1.925
 2961TIP3    H2 8841   8.026   2.292   2.021
 2962TIP3   OH2 8842   2.065   3.515   0.920
 2962TIP3    H1 8843   2.108   3.430   0.920
 2962TIP3    H2 8844   2.086   3.553   0.835
 2963TIP3   OH2 8845   1.995   7.192   4.942
 2963TIP3    H1 8846   2.003   7.147   5.026
 2963TIP3    H2 8847   1.907   7.230   4.944
 2964TIP3   OH2 8848   8.126   5.963   6.573
 2964TIP3    H1 8849   8.190   6.027   6.604
 2964TIP3    H2 8850   8.083   5.931   6.653
 2965TIP3   OH2 8851   4.145   2.145   6.594
 2965TIP3    H1 8852   4.161   2.205   6.668
 2965TIP3    H2 8853   4.050   2.135   6.593
 2966TIP3   OH2 8854   0.273   4.099   0.053
 2966TIP3    H1 8855   0.181   4.124   0.053
 2966TIP3    H2 8856   0.272   4.003   0.057
 2967TIP3   OH2 8857   4.568   7.189   3.412
 2967TIP3    H1 8858   4.630   7.158   3.347
 2967TIP3    H2 8859   4.622   7.207   3.490
 2968TIP3   OH2 8860   0.155   5.425   1.316
 2968TIP3    H1 8861   0.196   5.499   1.271
 2968TIP3    H2 8862   0.164   5.352   1.256
 2969TIP3   OH2 8863   1.262   3.202   2.536
 2969TIP3    H1 8864   1.336   3.262   2.541
 2969TIP3    H2 8865   1.292   3.124   2.584
 2970TIP3   OH2 8866   1.960   5.783   1.427
 2970TIP3    H1 8867   1.876   5.815   1.394
 2970TIP3    H2 8868   2.016   5.861   1.431
 2971TIP3   OH2 8869   3.488   3.407   6.460
 2971TIP3    H1 8870   3.396   3.408   6.436
 2971TIP3    H2 8871   3.489   3.413   6.556
 2972TIP3   OH2 8872   0.584   0.615   1.736
 2972TIP3    H1 8873   0.528   0.661   1.798
 2972TIP3    H2 8874   0.659   0.673   1.723
 2973TIP3   OH2 8875   4.325   0.877   3.054
 2973TIP3    H1 8876   4.332   0.966   3.019
 2973TIP3    H2 8877   4.412   0.858   3.090
 2974TIP3   OH2 8878   2.390   0.726   3.892
 2974TIP3    H1 8879   2.303   0.758   3.916
 2974TIP3    H2 8880   2.375   0.663   3.822
 2975TIP3   OH2 8881   2.575   6.310   4.486
 2975TIP3    H1 8882   2.647   6.250   4.466
 2975TIP3    H2 8883   2.508   6.289   4.422
 2976TIP3   OH2 8884   3.957   0.495   0.749
 2976TIP3    H1 8885   3.981   0.449   0.830
 2976TIP3    H2 8886   3.942   0.585   0.776
 2977TIP3   OH2 8887   6.328   1.892   1.400
 2977TIP3    H1 8888   6.281   1.846   1.470
 2977TIP3    H2 8889   6.338   1.827   1.331
 2978TIP3   OH2 8890   7.281   7.678   5.208
 2978TIP3    H1 8891   7.339   7.753   5.192
 2978TIP3    H2 8892   7.200   7.717   5.241
 2979TIP3   OH2 8893   7.536   0.429   4.357
 2979TIP3    H1 8894   7.497   0.485   4.290
 2979TIP3    H2 8895   7.582   0.490   4.415
 2980TIP3   OH2 8896   3.312   0.442   6.253
 2980TIP3    H1 8897   3.365   0.422   6.175
 2980TIP3    H2 8898   3.341   0.378   6.318
 2981TIP3   OH2 8899   1.928   6.819   0.996
 2981TIP3    H1 8900   1.833   6.827   1.002
 2981TIP3    H2 8901   1.963   6.897   1.038
 2982TIP3   OH2 8902   3.419   5.971   2.000
 2982TIP3    H1 8903   3.372   5.897   2.038
 2982TIP3    H2 8904   3.385   5.979   1.912
 2983TIP3   OH2 8905   6.109   5.411   0.426
 2983TIP3    H1 8906   6.179   5.400   0.491
 2983TIP3    H2 8907   6.135   5.490   0.377
 2984TIP3   OH2 8908   1.572   1.262   5.649
 2984TIP3    H1 8909   1.494   1.210   5.666
 2984TIP3    H2 8910   1.611   1.222   5.571
 2985TIP3   OH2 8911   2.784   4.288   3.063
 2985TIP3    H1 8912   2.735   4.218   3.107
 2985TIP3    H2 8913   2.839   4.326   3.132
 2986TIP3   OH2 8914   6.648   0.556   6.570
 2986TIP3    H1 8915   6.693   0.602   6.500
 2986TIP3    H2 8916   6.718   0.511   6.618
 2987TIP3   OH2 8917   0.960   2.302   2.622
 2987TIP3    H1 8918   0.879   2.313   2.572
 2987TIP3    H2 8919   0.932   2.271   2.708
 2988TIP3   OH2 8920   7.338   3.480   2.275
 2988TIP3    H1 8921   7.317   3.498   2.183
 2988TIP3    H2 8922   7.384   3.396   2.274
 2989TIP3   OH2 8923   0.525   4.675   2.363
 2989TIP3    H1 8924   0.616   4.699   2.349
 2989TIP3    H2 8925   0.526   4.579   2.367
 2990TIP3   OH2 8926   4.169   5.865   0.245
 2990TIP3    H1 8927   4.083   5.877   0.206
 2990TIP3    H2 8928   4.229   5.867   0.170
 2991TIP3   OH2 8929   0.760   5.084   1.596
 2991TIP3    H1 8930   0.784   5.175   1.615
 2991TIP3    H2 8931   0.808   5.032   1.660
 2992TIP3   OH2 8932   3.261   3.481   3.470
 2992TIP3    H1 8933   3.270   3.563   3.421
 2992TIP3    H2 8934   3.215   3.422   3.410
 2993TIP3   OH2 8935   1.413   7.729   1.804
 2993TIP3    H1 8936   1.405   7.754   1.712
 2993TIP3    H2 8937   1.436   7.810   1.849
 2994TIP3   OH2 8938   2.730   6.046   3.741
 2994TIP3    H1 8939   2.717   5.956   3.771
 2994TIP3    H2 8940   2.641   6.080   3.729
 2995TIP3   OH2 8941   1.109   4.180   5.448
 2995TIP3    H1 8942   1.170   4.118   5.489
 2995TIP3    H2 8943   1.026   4.165   5.494
 2996TIP3   OH2 8944   0.044   4.239   4.878
 2996TIP3    H1 8945  -0.036   4.271   4.834
 2996TIP3    H2 8946   0.102   4.215   4.806
 2997TIP3   OH2 8947   3.542   3.840   2.243
 2997TIP3    H1 8948   3.563   3.807   2.155
 2997TIP3    H2 8949   3.488   3.917   2.227
 2998TIP3   OH2 8950   7.343   2.106   1.671
 2998TIP3    H1 8951   7.319   2.016   1.649
 2998TIP3    H2 8952   7.277   2.160   1.627
 2999TIP3   OH2 8953   6.686   1.247   5.893
 2999TIP3    H1 8954   6.626   1.176   5.873
 2999TIP3    H2 8955   6.693   1.247   5.989
 3000TIP3   OH2 8956   6.223   2.783   5.294
 3000TIP3    H1 8957   6.282   2.710   5.273
 3000TIP3    H2 8958   6.137   2.742   5.303
 3001TIP3   OH2 8959   2.868   2.197   2.583
 3001TIP3    H1 8960   2.821   2.276   2.607
 3001TIP3    H2 8961   2.910   2.218   2.499
 3002TIP3   OH2 8962   2.215   1.953   1.911
 3002TIP3    H1 8963   2.137   1.906   1.941
 3002TIP3    H2 8964   2.191   2.045   1.915
 3003TIP3   OH2 8965   0.867   6.837   6.711
 3003TIP3    H1 8966   0.877   6.748   6.743
 3003TIP3    H2 8967   0.956   6.873   6.711
 3004TIP3   OH2 8968   1.327   6.780   2.470
 3004TIP3    H1 8969   1.404   6.837   2.474
 3004TIP3    H2 8970   1.334   6.736   2.385
 3005TIP3   OH2 8971   2.447   5.738   3.574
 3005TIP3    H1 8972   2.381   5.671   3.559
 3005TIP3    H2 8973   2.411   5.792   3.644
 3006TIP3   OH2 8974   5.911   2.909   6.724
 3006TIP3    H1 8975   5.860   2.930   6.802
 3006TIP3    H2 8976   5.873   2.828   6.691
 3007TIP3   OH2 8977   7.644   5.131   3.312
 3007TIP3    H1 8978   7.619   5.058   3.367
 3007TIP3    H2 8979   7.587   5.125   3.235
 3008TIP3   OH2 8980   4.548   6.677   3.747
 3008TIP3    H1 8981   4.488   6.627   3.801
 3008TIP3    H2 8982   4.573   6.618   3.676
 3009TIP3   OH2 8983   1.711   5.730   2.104
 3009TIP3    H1 8984   1.650   5.727   2.030
 3009TIP3    H2 8985   1.793   5.764   2.067
 3010TIP3   OH2 8986   0.913   7.191   3.544
 3010TIP3    H1 8987   0.986   7.234   3.499
 3010TIP3    H2 8988   0.921   7.220   3.635
 3011TIP3   OH2 8989   1.656   6.644   4.791
 3011TIP3    H1 8990   1.736   6.592   4.779
 3011TIP3    H2 8991   1.590   6.599   4.737
 3012TIP3   OH2 8992   5.346   1.698   5.661
 3012TIP3    H1 8993   5.424   1.673   5.711
 3012TIP3    H2 8994   5.362   1.662   5.573
 3013TIP3   OH2 8995   5.049   7.230   2.458
 3013TIP3    H1 8996   4.972   7.276   2.426
 3013TIP3    H2 8997   5.106   7.299   2.492
 3014TIP3   OH2 8998   0.420   1.246   6.039
 3014TIP3    H1 8999   0.502   1.229   6.086
 3014TIP3    H2 9000   0.401   1.338   6.059
 3015TIP3   OH2 9001   7.243   0.706   4.152
 3015TIP3    H1 9002   7.198   0.748   4.226
 3015TIP3    H2 9003   7.329   0.748   4.150
 3016TIP3   OH2 9004   3.772   5.315   1.879
 3016TIP3    H1 9005   3.826   5.237   1.890
 3016TIP3    H2 9006   3.682   5.283   1.880
 3017TIP3   OH2 9007   3.587   4.911   1.377
 3017TIP3    H1 9008   3.676   4.924   1.346
 3017TIP3    H2 9009   3.587   4.822   1.413
 3018TIP3   OH2 9010   2.621   2.197   0.292
 3018TIP3    H1 9011   2.665   2.113   0.306
 3018TIP3    H2 9012   2.538   2.174   0.252
 3019TIP3   OH2 9013   1.946   3.840   6.322
 3019TIP3    H1 9014   1.880   3.868   6.259
 3019TIP3    H2 9015   1.898   3.830   6.404
 3020TIP3   OH2 9016   3.273   2.682   3.329
 3020TIP3    H1 9017   3.323   2.753   3.289
 3020TIP3    H2 9018   3.188   2.721   3.349
 3021TIP3   OH2 9019   6.676   1.272   3.158
 3021TIP3    H1 9020   6.683   1.204   3.090
 3021TIP3    H2 9021   6.703   1.352   3.114
 3022TIP3   OH2 9022   4.806   3.230   1.820
 3022TIP3    H1 9023   4.838   3.320   1.831
 3022TIP3    H2 9024   4.827   3.208   1.729
 3023TIP3   OH2 9025   3.025   5.830   6.009
 3023TIP3    H1 9026   3.018   5.739   5.981
 3023TIP3    H2 9027   3.004   5.881   5.930
 3024TIP3   OH2 9028   3.144   5.485   0.687
 3024TIP3    H1 9029   3.174   5.408   0.638
 3024TIP3    H2 9030   3.136   5.455   0.777
 3025TIP3   OH2 9031   6.893   6.598   0.689
 3025TIP3    H1 9032   6.946   6.573   0.614
 3025TIP3    H2 9033   6.840   6.520   0.708
 3026TIP3   OH2 9034   1.618   2.253   4.294
 3026TIP3    H1 9035   1.678   2.239   4.221
 3026TIP3    H2 9036   1.673   2.251   4.372
 3027TIP3   OH2 9037   5.900   1.749   4.230
 3027TIP3    H1 9038   5.901   1.755   4.326
 3027TIP3    H2 9039   5.813   1.780   4.206
 3028TIP3   OH2 9040   2.371   2.991   4.933
 3028TIP3    H1 9041   2.391   3.060   4.996
 3028TIP3    H2 9042   2.403   3.025   4.850
 3029TIP3   OH2 9043   7.303   1.667   0.538
 3029TIP3    H1 9044   7.272   1.582   0.570
 3029TIP3    H2 9045   7.380   1.646   0.485
 3030TIP3   OH2 9046   2.947   3.546   2.356
 3030TIP3    H1 9047   3.040   3.563   2.344
 3030TIP3    H2 9048   2.907   3.576   2.274
 3031TIP3   OH2 9049   2.911   7.148   6.413
 3031TIP3    H1 9050   2.860   7.152   6.494
 3031TIP3    H2 9051   2.927   7.054   6.400
 3032TIP3   OH2 9052   7.840   4.651   3.614
 3032TIP3    H1 9053   7.751   4.682   3.629
 3032TIP3    H2 9054   7.880   4.719   3.559
 3033TIP3   OH2 9055   5.009   5.236   6.784
 3033TIP3    H1 9056   4.957   5.157   6.768
 3033TIP3    H2 9057   4.960   5.306   6.741
 3034TIP3   OH2 9058   0.585   5.070   2.630
 3034TIP3    H1 9059   0.562   4.979   2.609
 3034TIP3    H2 9060   0.517   5.098   2.692
 3035TIP3   OH2 9061   4.593   6.968   5.940
 3035TIP3    H1 9062   4.685   6.943   5.935
 3035TIP3    H2 9063   4.570   6.996   5.852
 3036TIP3   OH2 9064   6.728   4.630   5.658
 3036TIP3    H1 9065   6.815   4.661   5.632
 3036TIP3    H2 9066   6.737   4.535   5.660
 3037TIP3   OH2 9067   5.604   2.472   6.726
 3037TIP3    H1 9068   5.606   2.428   6.641
 3037TIP3    H2 9069   5.631   2.405   6.788
 3038TIP3   OH2 9070   0.501   5.323   0.418
 3038TIP3    H1 9071   0.590   5.354   0.438
 3038TIP3    H2 9072   0.444   5.378   0.472
 3039TIP3   OH2 9073   1.498   0.289   3.595
 3039TIP3    H1 9074   1.444   0.366   3.580
 3039TIP3    H2 9075   1.562   0.289   3.524
 3040TIP3   OH2 9076   5.620   1.392   6.757
 3040TIP3    H1 9077   5.704   1.352   6.734
 3040TIP3    H2 9078   5.590   1.342   6.833
 3041TIP3   OH2 9079   1.313   1.517   0.265
 3041TIP3    H1 9080   1.394   1.466   0.278
 3041TIP3    H2 9081   1.334   1.578   0.194
 3042TIP3   OH2 9082   7.643   5.313   5.027
 3042TIP3    H1 9083   7.600   5.317   5.112
 3042TIP3    H2 9084   7.600   5.240   4.981
 3043TIP3   OH2 9085   6.410   1.591   5.545
 3043TIP3    H1 9086   6.396   1.579   5.639
 3043TIP3    H2 9087   6.387   1.506   5.506
 3044TIP3   OH2 9088   6.692   0.219   3.587
 3044TIP3    H1 9089   6.639   0.168   3.647
 3044TIP3    H2 9090   6.779   0.180   3.593
 3045TIP3   OH2 9091   8.184   4.111   5.390
 3045TIP3    H1 9092   8.255   4.112   5.326
 3045TIP3    H2 9093   8.174   4.019   5.413
 3046TIP3   OH2 9094   5.227   3.372   1.220
 3046TIP3    H1 9095   5.262   3.407   1.302
 3046TIP3    H2 9096   5.221   3.277   1.235
 3047TIP3   OH2 9097   3.838   3.018   0.634
 3047TIP3    H1 9098   3.929   3.043   0.649
 3047TIP3    H2 9099   3.805   3.083   0.572
 3048TIP3   OH2 9100   3.837   0.478   5.074
 3048TIP3    H1 9101   3.877   0.421   5.008
 3048TIP3    H2 9102   3.863   0.439   5.158
 3049TIP3   OH2 9103   3.743   5.887   5.448
 3049TIP3    H1 9104   3.691   5.812   5.421
 3049TIP3    H2 9105   3.690   5.930   5.515
 3050TIP3   OH2 9106   1.850   0.318   4.781
 3050TIP3    H1 9107   1.930   0.344   4.734
 3050TIP3    H2 9108   1.805   0.260   4.721
 3051TIP3   OH2 9109   4.037   6.754   0.947
 3051TIP3    H1 9110   4.071   6.820   1.007
 3051TIP3    H2 9111   4.106   6.687   0.944
 3052TIP3   OH2 9112   7.425   5.035   5.871
 3052TIP3    H1 9113   7.497   4.972   5.877
 3052TIP3    H2 9114   7.382   5.030   5.956
 3053TIP3   OH2 9115   5.003   2.591   2.557
 3053TIP3    H1 9116   4.940   2.662   2.544
 3053TIP3    H2 9117   5.088   2.631   2.537
 3054TIP3   OH2 9118   4.417   6.213   2.682
 3054TIP3    H1 9119   4.431   6.308   2.682
 3054TIP3    H2 9120   4.369   6.196   2.764
 3055TIP3   OH2 9121   0.417   2.170   3.220
 3055TIP3    H1 9122   0.356   2.242   3.238
 3055TIP3    H2 9123   0.504   2.208   3.234
 3056TIP3   OH2 9124   6.933   1.924   3.883
 3056TIP3    H1 9125   6.954   1.949   3.793
 3056TIP3    H2 9126   6.890   1.839   3.875
 3057TIP3   OH2 9127   5.767   1.930   5.690
 3057TIP3    H1 9128   5.858   1.917   5.665
 3057TIP3    H2 9129   5.718   1.866   5.637
 3058TIP3   OH2 9130   2.119   1.729   4.849
 3058TIP3    H1 9131   2.182   1.667   4.812
 3058TIP3    H2 9132   2.045   1.675   4.877
 3059TIP3   OH2 9133   6.049   3.695   3.691
 3059TIP3    H1 9134   6.026   3.744   3.771
 3059TIP3    H2 9135   5.972   3.639   3.676
 3060TIP3   OH2 9136   1.987   6.809   2.994
 3060TIP3    H1 9137   2.033   6.882   3.037
 3060TIP3    H2 9138   1.912   6.850   2.951
 3061TIP3   OH2 9139   0.741   1.857   2.520
 3061TIP3    H1 9140   0.651   1.885   2.532
 3061TIP3    H2 9141   0.736   1.782   2.461
 3062TIP3   OH2 9142   1.380   2.907   2.265
 3062TIP3    H1 9143   1.417   2.928   2.179
 3062TIP3    H2 9144   1.326   2.982   2.287
 3063TIP3   OH2 9145   4.287   5.783   3.098
 3063TIP3    H1 9146   4.347   5.709   3.109
 3063TIP3    H2 9147   4.250   5.771   3.011
 3064TIP3   OH2 9148   3.223   2.860   2.393
 3064TIP3    H1 9149   3.141   2.812   2.402
 3064TIP3    H2 9150   3.204   2.929   2.329
 3065TIP3   OH2 9151   3.311   6.828   2.115
 3065TIP3    H1 9152   3.247   6.762   2.087
 3065TIP3    H2 9153   3.315   6.889   2.042
 3066TIP3   OH2 9154   3.495   0.989   3.735
 3066TIP3    H1 9155   3.537   0.927   3.796
 3066TIP3    H2 9156   3.403   0.963   3.734
 3067TIP3   OH2 9157   1.553   0.009   3.090
 3067TIP3    H1 9158   1.526  -0.003   2.998
 3067TIP3    H2 9159   1.595  -0.074   3.113
 3068TIP3   OH2 9160   7.991   5.648   2.437
 3068TIP3    H1 9161   7.921   5.698   2.395
 3068TIP3    H2 9162   8.000   5.687   2.524
 3069TIP3   OH2 9163   7.732   5.273   6.344
 3069TIP3    H1 9164   7.711   5.336   6.414
 3069TIP3    H2 9165   7.720   5.322   6.263
 3070TIP3   OH2 9166   7.103   5.996   0.466
 3070TIP3    H1 9167   7.036   6.007   0.398
 3070TIP3    H2 9168   7.112   5.901   0.476
 3071TIP3   OH2 9169   6.742   1.117   5.650
 3071TIP3    H1 9170   6.773   1.030   5.623
 3071TIP3    H2 9171   6.697   1.151   5.572
 3072TIP3   OH2 9172   8.178   3.182   5.738
 3072TIP3    H1 9173   8.146   3.096   5.765
 3072TIP3    H2 9174   8.230   3.213   5.812
 3073TIP3   OH2 9175  -0.005   5.499   4.630
 3073TIP3    H1 9176  -0.013   5.516   4.537
 3073TIP3    H2 9177   0.025   5.582   4.667
 3074TIP3   OH2 9178   7.356   3.320   4.501
 3074TIP3    H1 9179   7.272   3.298   4.459
 3074TIP3    H2 9180   7.352   3.415   4.513
 3075TIP3   OH2 9181   7.224   4.784   5.581
 3075TIP3    H1 9182   7.237   4.778   5.486
 3075TIP3    H2 9183   7.258   4.701   5.615
 3076TIP3   OH2 9184   3.554   0.275   0.246
 3076TIP3    H1 9185   3.529   0.314   0.162
 3076TIP3    H2 9186   3.612   0.203   0.222
 3077TIP3   OH2 9187   6.421   4.934   1.459
 3077TIP3    H1 9188   6.429   5.024   1.426
 3077TIP3    H2 9189   6.508   4.896   1.446
 3078TIP3   OH2 9190   4.189   5.240   2.360
 3078TIP3    H1 9191   4.243   5.161   2.370
 3078TIP3    H2 9192   4.229   5.288   2.288
 3079TIP3   OH2 9193   0.796   5.873   6.076
 3079TIP3    H1 9194   0.787   5.878   5.981
 3079TIP3    H2 9195   0.872   5.928   6.096
 3080TIP3   OH2 9196   1.374   4.946   3.307
 3080TIP3    H1 9197   1.404   5.037   3.295
 3080TIP3    H2 9198   1.308   4.952   3.376
 3081TIP3   OH2 9199   6.476   3.860   6.446
 3081TIP3    H1 9200   6.500   3.950   6.425
 3081TIP3    H2 9201   6.557   3.810   6.438
 3082TIP3   OH2 9202   2.380   2.296   6.463
 3082TIP3    H1 9203   2.439   2.334   6.529
 3082TIP3    H2 9204   2.380   2.360   6.392
 3083TIP3   OH2 9205   3.895   0.113   0.628
 3083TIP3    H1 9206   3.966   0.049   0.638
 3083TIP3    H2 9207   3.903   0.144   0.538
 3084TIP3   OH2 9208   7.982   1.747   2.095
 3084TIP3    H1 9209   7.983   1.711   2.007
 3084TIP3    H2 9210   7.996   1.672   2.153
 3085TIP3   OH2 9211   5.135   3.713   3.585
 3085TIP3    H1 9212   5.157   3.792   3.534
 3085TIP3    H2 9213   5.055   3.736   3.631
 3086TIP3   OH2 9214   6.348   3.239   6.104
 3086TIP3    H1 9215   6.267   3.272   6.142
 3086TIP3    H2 9216   6.374   3.167   6.162
 3087TIP3   OH2 9217   5.017   5.511   5.244
 3087TIP3    H1 9218   5.102   5.532   5.284
 3087TIP3    H2 9219   4.975   5.595   5.232
 3088TIP3   OH2 9220   2.248   5.152   4.815
 3088TIP3    H1 9221   2.206   5.210   4.752
 3088TIP3    H2 9222   2.196   5.160   4.895
 3089TIP3   OH2 9223   3.212   5.940   4.350
 3089TIP3    H1 9224   3.306   5.925   4.362
 3089TIP3    H2 9225   3.200   6.033   4.368
 3090TIP3   OH2 9226   4.419   7.536   1.770
 3090TIP3    H1 9227   4.436   7.629   1.760
 3090TIP3    H2 9228   4.334   7.522   1.729
 3091TIP3   OH2 9229   5.237   3.475   2.648
 3091TIP3    H1 9230   5.256   3.414   2.719
 3091TIP3    H2 9231   5.172   3.430   2.594
 3092TIP3   OH2 9232   6.058   2.121   6.415
 3092TIP3    H1 9233   6.004   2.200   6.408
 3092TIP3    H2 9234   6.116   2.138   6.489
 3093TIP3   OH2 9235   6.112   3.588   2.859
 3093TIP3    H1 9236   6.195   3.597   2.905
 3093TIP3    H2 9237   6.080   3.678   2.849
 3094TIP3   OH2 9238   7.347   2.536   3.291
 3094TIP3    H1 9239   7.315   2.549   3.381
 3094TIP3    H2 9240   7.426   2.589   3.286
 3095TIP3   OH2 9241   5.753   0.666   1.819
 3095TIP3    H1 9242   5.756   0.743   1.875
 3095TIP3    H2 9243   5.837   0.665   1.774
 3096TIP3   OH2 9244   8.014   5.337   3.460
 3096TIP3    H1 9245   7.997   5.345   3.554
 3096TIP3    H2 9246   7.979   5.418   3.423
 3097TIP3   OH2 9247   5.069   1.314   0.243
 3097TIP3    H1 9248   5.157   1.347   0.256
 3097TIP3    H2 9249   5.012   1.390   0.256
 3098TIP3   OH2 9250   2.444   1.249   1.840
 3098TIP3    H1 9251   2.424   1.171   1.891
 3098TIP3    H2 9252   2.473   1.215   1.755
 3099TIP3   OH2 9253   0.458   6.250   2.044
 3099TIP3    H1 9254   0.495   6.234   2.131
 3099TIP3    H2 9255   0.411   6.333   2.053
 3100TIP3   OH2 9256   1.132   6.537   6.485
 3100TIP3    H1 9257   1.143   6.632   6.482
 3100TIP3    H2 9258   1.042   6.523   6.454
 3101TIP3   OH2 9259   2.769   4.813   2.938
 3101TIP3    H1 9260   2.807   4.727   2.955
 3101TIP3    H2 9261   2.835   4.875   2.966
 3102TIP3   OH2 9262   6.525   1.721   2.656
 3102TIP3    H1 9263   6.557   1.659   2.589
 3102TIP3    H2 9264   6.596   1.785   2.664
 3103TIP3   OH2 9265   8.171   5.022   1.281
 3103TIP3    H1 9266   8.152   5.051   1.371
 3103TIP3    H2 9267   8.159   5.100   1.227
 3104TIP3   OH2 9268   5.944   1.854   0.704
 3104TIP3    H1 9269   6.019   1.913   0.717
 3104TIP3    H2 9270   5.975   1.790   0.640
 3105TIP3   OH2 9271   3.046   5.182   1.161
 3105TIP3    H1 9272   3.088   5.155   1.243
 3105TIP3    H2 9273   3.119   5.193   1.100
 3106TIP3   OH2 9274   0.823   3.033   6.276
 3106TIP3    H1 9275   0.833   2.982   6.195
 3106TIP3    H2 9276   0.768   3.107   6.251
 3107TIP3   OH2 9277   2.055   6.946   3.579
 3107TIP3    H1 9278   2.128   6.992   3.621
 3107TIP3    H2 9279   1.977   6.983   3.619
 3108TIP3   OH2 9280   3.713   0.267   6.666
 3108TIP3    H1 9281   3.692   0.351   6.626
 3108TIP3    H2 9282   3.629   0.235   6.700
 3109TIP3   OH2 9283   7.858   7.597   2.967
 3109TIP3    H1 9284   7.912   7.528   3.003
 3109TIP3    H2 9285   7.878   7.597   2.873
 3110TIP3   OH2 9286   4.906   0.174   4.603
 3110TIP3    H1 9287   4.918   0.101   4.664
 3110TIP3    H2 9288   4.963   0.154   4.529
 3111TIP3   OH2 9289   7.958   7.625   5.390
 3111TIP3    H1 9290   7.932   7.547   5.439
 3111TIP3    H2 9291   8.047   7.644   5.421
 3112TIP3   OH2 9292   4.664   6.587   2.973
 3112TIP3    H1 9293   4.708   6.672   2.970
 3112TIP3    H2 9294   4.577   6.606   3.008
 3113TIP3   OH2 9295   4.283   1.790   2.808
 3113TIP3    H1 9296   4.215   1.741   2.762
 3113TIP3    H2 9297   4.259   1.784   2.901
 3114TIP3   OH2 9298   4.860   5.250   5.663
 3114TIP3    H1 9299   4.861   5.288   5.574
 3114TIP3    H2 9300   4.872   5.156   5.649
 3115TIP3   OH2 9301   5.610   4.426   4.010
 3115TIP3    H1 9302   5.695   4.387   4.031
 3115TIP3    H2 9303   5.547   4.375   4.061
 3116TIP3   OH2 9304   6.560   6.957   0.101
 3116TIP3    H1 9305   6.488   6.909   0.144
 3116TIP3    H2 9306   6.517   7.033   0.062
 3117TIP3   OH2 9307   5.168   1.926   5.645
 3117TIP3    H1 9308   5.147   1.891   5.558
 3117TIP3    H2 9309   5.195   1.849   5.696
 3118TIP3   OH2 9310   8.121   0.239   1.565
 3118TIP3    H1 9311   8.090   0.176   1.500
 3118TIP3    H2 9312   8.115   0.193   1.649
 3119TIP3   OH2 9313   6.228   4.366   1.006
 3119TIP3    H1 9314   6.153   4.426   1.009
 3119TIP3    H2 9315   6.199   4.289   1.054
 3120TIP3   OH2 9316   4.427   5.767   0.719
 3120TIP3    H1 9317   4.505   5.807   0.681
 3120TIP3    H2 9318   4.374   5.841   0.749
 3121TIP3   OH2 9319   1.456   3.824   3.827
 3121TIP3    H1 9320   1.446   3.918   3.818
 3121TIP3    H2 9321   1.367   3.790   3.826
 3122TIP3   OH2 9322   5.979   5.849   0.086
 3122TIP3    H1 9323   5.920   5.905   0.036
 3122TIP3    H2 9324   6.041   5.816   0.021
 3123TIP3   OH2 9325   1.253   0.556   3.230
 3123TIP3    H1 9326   1.219   0.642   3.203
 3123TIP3    H2 9327   1.347   0.570   3.240
 3124TIP3   OH2 9328   2.287   4.146   3.877
 3124TIP3    H1 9329   2.248   4.180   3.957
 3124TIP3    H2 9330   2.306   4.054   3.897
 3125TIP3   OH2 9331   0.418   0.633   3.265
 3125TIP3    H1 9332   0.485   0.576   3.228
 3125TIP3    H2 9333   0.457   0.665   3.347
 3126TIP3   OH2 9334   0.806   6.475   0.250
 3126TIP3    H1 9335   0.822   6.501   0.340
 3126TIP3    H2 9336   0.869   6.404   0.234
 3127TIP3   OH2 9337   6.475   6.622   1.649
 3127TIP3    H1 9338   6.420   6.577   1.714
 3127TIP3    H2 9339   6.507   6.553   1.592
 3128TIP3   OH2 9340   3.822   4.697   4.865
 3128TIP3    H1 9341   3.833   4.603   4.852
 3128TIP3    H2 9342   3.911   4.730   4.876
 3129TIP3   OH2 9343   3.135   6.041   2.137
 3129TIP3    H1 9344   3.194   5.988   2.084
 3129TIP3    H2 9345   3.147   6.008   2.226
 3130TIP3   OH2 9346   6.939   1.093   1.560
 3130TIP3    H1 9347   6.894   1.127   1.482
 3130TIP3    H2 9348   6.892   1.133   1.633
 3131TIP3   OH2 9349   5.703   7.790   5.568
 3131TIP3    H1 9350   5.683   7.701   5.596
 3131TIP3    H2 9351   5.774   7.818   5.626
 3132TIP3   OH2 9352   4.062   2.316   0.530
 3132TIP3    H1 9353   4.066   2.275   0.443
 3132TIP3    H2 9354   4.134   2.275   0.579
 3133TIP3   OH2 9355   4.396   6.163   4.958
 3133TIP3    H1 9356   4.303   6.168   4.979
 3133TIP3    H2 9357   4.403   6.095   4.891
 3134TIP3   OH2 9358   7.328   7.437   3.501
 3134TIP3    H1 9359   7.406   7.486   3.475
 3134TIP3    H2 9360   7.314   7.460   3.593
 3135TIP3   OH2 9361   2.306   3.053   6.079
 3135TIP3    H1 9362   2.283   2.964   6.105
 3135TIP3    H2 9363   2.321   3.099   6.162
 3136TIP3   OH2 9364   4.131   3.564   3.291
 3136TIP3    H1 9365   4.213   3.602   3.260
 3136TIP3    H2 9366   4.077   3.640   3.313
 3137TIP3   OH2 9367   1.784   1.431   6.233
 3137TIP3    H1 9368   1.771   1.469   6.320
 3137TIP3    H2 9369   1.703   1.384   6.214
 3138TIP3   OH2 9370   2.515   3.091   0.152
 3138TIP3    H1 9371   2.477   3.152   0.215
 3138TIP3    H2 9372   2.583   3.141   0.107
 3139TIP3   OH2 9373   2.356   6.012   1.205
 3139TIP3    H1 9374   2.288   6.078   1.190
 3139TIP3    H2 9375   2.381   5.983   1.117
 3140TIP3   OH2 9376   7.770   0.557   6.331
 3140TIP3    H1 9377   7.844   0.511   6.291
 3140TIP3    H2 9378   7.797   0.568   6.423
 3141TIP3   OH2 9379   5.446   7.368   0.631
 3141TIP3    H1 9380   5.448   7.406   0.543
 3141TIP3    H2 9381   5.410   7.438   0.685
 3142TIP3   OH2 9382   7.634   6.417   0.244
 3142TIP3    H1 9383   7.573   6.430   0.318
 3142TIP3    H2 9384   7.577   6.415   0.167
 3143TIP3   OH2 9385   7.051   6.945   1.267
 3143TIP3    H1 9386   7.137   6.937   1.226
 3143TIP3    H2 9387   6.989   6.930   1.196
 3144TIP3   OH2 9388   6.308   4.034   2.523
 3144TIP3    H1 9389   6.271   4.044   2.436
 3144TIP3    H2 9390   6.241   3.986   2.572
 3145TIP3   OH2 9391   5.181   0.383   1.908
 3145TIP3    H1 9392   5.194   0.315   1.975
 3145TIP3    H2 9393   5.086   0.395   1.905
 3146TIP3   OH2 9394   5.267   1.661   2.401
 3146TIP3    H1 9395   5.310   1.733   2.448
 3146TIP3    H2 9396   5.324   1.586   2.413
 3147TIP3   OH2 9397   1.474   3.548   5.443
 3147TIP3    H1 9398   1.448   3.622   5.389
 3147TIP3    H2 9399   1.404   3.484   5.432
 3148TIP3   OH2 9400   2.343   7.485   6.482
 3148TIP3    H1 9401   2.361   7.520   6.570
 3148TIP3    H2 9402   2.426   7.447   6.454
 3149TIP3   OH2 9403   3.641   4.967   3.003
 3149TIP3    H1 9404   3.606   4.898   3.060
 3149TIP3    H2 9405   3.628   5.048   3.052
 3150TIP3   OH2 9406   3.288   6.507   1.181
 3150TIP3    H1 9407   3.321   6.435   1.127
 3150TIP3    H2 9408   3.291   6.583   1.122
 3151TIP3   OH2 9409   5.360   6.683   4.770
 3151TIP3    H1 9410   5.367   6.698   4.676
 3151TIP3    H2 9411   5.449   6.661   4.797
 3152TIP3   OH2 9412   5.669   0.352   0.592
 3152TIP3    H1 9413   5.757   0.384   0.574
 3152TIP3    H2 9414   5.635   0.327   0.506
 3153TIP3   OH2 9415   1.842   6.372   5.709
 3153TIP3    H1 9416   1.790   6.401   5.784
 3153TIP3    H2 9417   1.875   6.286   5.734
 3154TIP3   OH2 9418   7.104   5.503   6.740
 3154TIP3    H1 9419   7.176   5.508   6.678
 3154TIP3    H2 9420   7.126   5.567   6.808
 3155TIP3   OH2 9421   0.800   0.866   3.905
 3155TIP3    H1 9422   0.843   0.924   3.842
 3155TIP3    H2 9423   0.858   0.868   3.982
 3156TIP3   OH2 9424   1.542   3.987   2.595
 3156TIP3    H1 9425   1.606   4.020   2.531
 3156TIP3    H2 9426   1.563   3.894   2.603
 3157TIP3   OH2 9427   3.842   0.792   2.340
 3157TIP3    H1 9428   3.936   0.783   2.350
 3157TIP3    H2 9429   3.815   0.714   2.291
 3158TIP3   OH2 9430   7.284   5.555   3.512
 3158TIP3    H1 9431   7.236   5.574   3.592
 3158TIP3    H2 9432   7.361   5.506   3.541
 3159TIP3   OH2 9433   6.300   0.489   2.761
 3159TIP3    H1 9434   6.237   0.427   2.797
 3159TIP3    H2 9435   6.385   0.446   2.770
 3160TIP3   OH2 9436   1.689   2.395   2.183
 3160TIP3    H1 9437   1.619   2.412   2.119
 3160TIP3    H2 9438   1.769   2.392   2.130
 3161TIP3   OH2 9439   7.085   7.566   1.392
 3161TIP3    H1 9440   7.142   7.490   1.407
 3161TIP3    H2 9441   7.016   7.556   1.457
 3162TIP3   OH2 9442   5.399   5.092   0.166
 3162TIP3    H1 9443   5.385   5.037   0.089
 3162TIP3    H2 9444   5.494   5.099   0.174
 3163TIP3   OH2 9445   7.867   1.908   6.418
 3163TIP3    H1 9446   7.790   1.958   6.393
 3163TIP3    H2 9447   7.916   1.968   6.476
 3164TIP3   OH2 9448   0.035   7.031   4.727
 3164TIP3    H1 9449   0.036   7.109   4.782
 3164TIP3    H2 9450   0.017   6.959   4.787
 3165TIP3   OH2 9451   6.697   2.806   0.150
 3165TIP3    H1 9452   6.767   2.857   0.109
 3165TIP3    H2 9453   6.679   2.735   0.088
 3166TIP3   OH2 9454   5.493   4.074   0.685
 3166TIP3    H1 9455   5.570   4.114   0.725
 3166TIP3    H2 9456   5.440   4.148   0.655
 3167TIP3   OH2 9457   0.957   0.170   6.650
 3167TIP3    H1 9458   1.019   0.143   6.718
 3167TIP3    H2 9459   0.990   0.254   6.619
 3168TIP3   OH2 9460   2.290   0.990   1.022
 3168TIP3    H1 9461   2.243   1.065   0.984
 3168TIP3    H2 9462   2.228   0.952   1.084
 3169TIP3   OH2 9463   6.519   6.366   4.756
 3169TIP3    H1 9464   6.435   6.401   4.726
 3169TIP3    H2 9465   6.559   6.329   4.677
 3170TIP3   OH2 9466   8.174   4.328   0.466
 3170TIP3    H1 9467   8.079   4.334   0.458
 3170TIP3    H2 9468   8.190   4.328   0.560
 3171TIP3   OH2 9469   5.238   7.471   5.340
 3171TIP3    H1 9470   5.263   7.461   5.248
 3171TIP3    H2 9471   5.215   7.383   5.369
 3172TIP3   OH2 9472   6.964   1.317   5.970
 3172TIP3    H1 9473   6.869   1.325   5.959
 3172TIP3    H2 9474   6.994   1.277   5.889
 3173TIP3   OH2 9475   2.887   7.245   1.312
 3173TIP3    H1 9476   2.944   7.262   1.237
 3173TIP3    H2 9477   2.880   7.150   1.316
 3174TIP3   OH2 9478   6.180   6.217   1.735
 3174TIP3    H1 9479   6.191   6.182   1.646
 3174TIP3    H2 9480   6.262   6.262   1.753
 3175TIP3   OH2 9481   1.800   5.529   6.241
 3175TIP3    H1 9482   1.712   5.514   6.206
 3175TIP3    H2 9483   1.854   5.462   6.200
 3176TIP3   OH2 9484   0.251   7.174   5.355
 3176TIP3    H1 9485   0.282   7.233   5.286
 3176TIP3    H2 9486   0.239   7.231   5.431
 3177TIP3   OH2 9487   0.706   2.770   0.126
 3177TIP3    H1 9488   0.768   2.699   0.107
 3177TIP3    H2 9489   0.625   2.726   0.150
 3178TIP3   OH2 9490   7.649   2.666   5.119
 3178TIP3    H1 9491   7.610   2.646   5.034
 3178TIP3    H2 9492   7.634   2.588   5.171
 3179TIP3   OH2 9493   6.130   4.030   3.169
 3179TIP3    H1 9494   6.141   3.940   3.198
 3179TIP3    H2 9495   6.162   4.029   3.078
 3180TIP3   OH2 9496   0.411   1.686   0.859
 3180TIP3    H1 9497   0.487   1.634   0.885
 3180TIP3    H2 9498   0.369   1.711   0.942
 3181TIP3   OH2 9499   2.802   5.490   6.546
 3181TIP3    H1 9500   2.874   5.436   6.514
 3181TIP3    H2 9501   2.825   5.510   6.637
 3182TIP3   OH2 9502   2.396   4.426   5.764
 3182TIP3    H1 9503   2.347   4.370   5.824
 3182TIP3    H2 9504   2.407   4.508   5.811
 3183TIP3   OH2 9505   2.712   4.320   4.511
 3183TIP3    H1 9506   2.686   4.346   4.599
 3183TIP3    H2 9507   2.662   4.376   4.452
 3184TIP3   OH2 9508   0.903   1.890   1.141
 3184TIP3    H1 9509   0.831   1.948   1.116
 3184TIP3    H2 9510   0.982   1.938   1.117
 3185TIP3   OH2 9511   2.734   1.564   3.271
 3185TIP3    H1 9512   2.721   1.567   3.176
 3185TIP3    H2 9513   2.780   1.645   3.292
 3186TIP3   OH2 9514   1.580   2.547   3.475
 3186TIP3    H1 9515   1.520   2.616   3.503
 3186TIP3    H2 9516   1.590   2.491   3.552
 3187TIP3   OH2 9517   4.151   5.932   5.680
 3187TIP3    H1 9518   4.202   5.988   5.739
 3187TIP3    H2 9519   4.216   5.881   5.634
 3188TIP3   OH2 9520   7.612   5.007   3.055
 3188TIP3    H1 9521   7.595   4.998   2.961
 3188TIP3    H2 9522   7.675   4.938   3.074
 3189TIP3   OH2 9523   7.250   6.503   1.159
 3189TIP3    H1 9524   7.200   6.490   1.240
 3189TIP3    H2 9525   7.183   6.508   1.091
 3190TIP3   OH2 9526   0.800   7.393   6.081
 3190TIP3    H1 9527   0.837   7.434   6.003
 3190TIP3    H2 9528   0.865   7.408   6.150
 3191TIP3   OH2 9529   5.797   5.874   4.295
 3191TIP3    H1 9530   5.865   5.933   4.261
 3191TIP3    H2 9531   5.738   5.931   4.344
 3192TIP3   OH2 9532   2.900   7.661   4.544
 3192TIP3    H1 9533   2.965   7.677   4.476
 3192TIP3    H2 9534   2.842   7.737   4.540
 3193TIP3   OH2 9535   7.275   0.993   1.109
 3193TIP3    H1 9536   7.190   0.950   1.104
 3193TIP3    H2 9537   7.331   0.945   1.049
 3194TIP3   OH2 9538   4.502   6.885   0.891
 3194TIP3    H1 9539   4.534   6.845   0.972
 3194TIP3    H2 9540   4.546   6.837   0.821
 3195TIP3   OH2 9541   6.378   7.537   2.224
 3195TIP3    H1 9542   6.330   7.512   2.145
 3195TIP3    H2 9543   6.448   7.595   2.194
 3196TIP3   OH2 9544   1.152   3.075   1.913
 3196TIP3    H1 9545   1.067   3.049   1.949
 3196TIP3    H2 9546   1.216   3.041   1.976
 3197TIP3   OH2 9547   7.718   1.594   1.881
 3197TIP3    H1 9548   7.662   1.629   1.951
 3197TIP3    H2 9549   7.754   1.513   1.918
 3198TIP3   OH2 9550   1.617   1.835   5.864
 3198TIP3    H1 9551   1.553   1.764   5.859
 3198TIP3    H2 9552   1.697   1.793   5.897
 3199TIP3   OH2 9553   1.209   5.949   1.316
 3199TIP3    H1 9554   1.174   5.860   1.309
 3199TIP3    H2 9555   1.239   5.955   1.407
 3200TIP3   OH2 9556   6.936   1.253   0.861
 3200TIP3    H1 9557   6.914   1.237   0.953
 3200TIP3    H2 9558   6.996   1.328   0.864
 3201TIP3   OH2 9559   1.157   5.040   4.547
 3201TIP3    H1 9560   1.190   5.038   4.637
 3201TIP3    H2 9561   1.205   4.970   4.502
 3202TIP3   OH2 9562   3.531   6.134   6.307
 3202TIP3    H1 9563   3.603   6.193   6.287
 3202TIP3    H2 9564   3.491   6.114   6.223
 3203TIP3   OH2 9565   6.993   7.065   4.495
 3203TIP3    H1 9566   7.049   6.988   4.494
 3203TIP3    H2 9567   7.045   7.132   4.539
 3204TIP3   OH2 9568   0.442   5.119   4.913
 3204TIP3    H1 9569   0.469   5.195   4.861
 3204TIP3    H2 9570   0.510   5.109   4.978
 3205TIP3   OH2 9571   5.582   0.917   3.825
 3205TIP3    H1 9572   5.519   0.954   3.887
 3205TIP3    H2 9573   5.644   0.870   3.880
 3206TIP3   OH2 9574   0.480   3.307   2.540
 3206TIP3    H1 9575   0.394   3.316   2.499
 3206TIP3    H2 9576   0.512   3.221   2.512
 3207TIP3   OH2 9577   6.503   3.568   1.708
 3207TIP3    H1 9578   6.507   3.527   1.794
 3207TIP3    H2 9579   6.410   3.567   1.685
 3208TIP3   OH2 9580   2.772   3.471   1.656
 3208TIP3    H1 9581   2.795   3.378   1.657
 3208TIP3    H2 9582   2.755   3.492   1.747
 3209TIP3   OH2 9583   7.599   2.730   2.694
 3209TIP3    H1 9584   7.686   2.724   2.653
 3209TIP3    H2 9585   7.596   2.819   2.728
 3210TIP3   OH2 9586   6.898   6.097   2.156
 3210TIP3    H1 9587   6.973   6.070   2.102
 3210TIP3    H2 9588   6.914   6.190   2.173
 3211TIP3   OH2 9589   5.943   1.894   3.729
 3211TIP3    H1 9590   5.925   1.825   3.793
 3211TIP3    H2 9591   6.039   1.900   3.728
 3212TIP3   OH2 9592   2.387   3.822   0.693
 3212TIP3    H1 9593   2.309   3.840   0.747
 3212TIP3    H2 9594   2.379   3.883   0.619
 3213TIP3   OH2 9595   5.357   0.785   0.557
 3213TIP3    H1 9596   5.307   0.859   0.523
 3213TIP3    H2 9597   5.448   0.814   0.550
 3214TIP3   OH2 9598   7.863   1.180   1.303
 3214TIP3    H1 9599   7.853   1.157   1.396
 3214TIP3    H2 9600   7.798   1.127   1.258
 3215TIP3   OH2 9601   5.644   6.079   0.404
 3215TIP3    H1 9602   5.561   6.032   0.400
 3215TIP3    H2 9603   5.633   6.139   0.478
 3216TIP3   OH2 9604   5.418   2.020   0.608
 3216TIP3    H1 9605   5.418   2.099   0.663
 3216TIP3    H2 9606   5.508   2.014   0.575
 3217TIP3   OH2 9607   7.472   5.556   4.775
 3217TIP3    H1 9608   7.423   5.639   4.774
 3217TIP3    H2 9609   7.404   5.488   4.770
 3218TIP3   OH2 9610   5.996   6.694   2.512
 3218TIP3    H1 9611   5.949   6.729   2.587
 3218TIP3    H2 9612   5.948   6.615   2.488
 3219TIP3   OH2 9613   4.862   4.106   0.844
 3219TIP3    H1 9614   4.943   4.096   0.895
 3219TIP3    H2 9615   4.878   4.058   0.763
 3220TIP3   OH2 9616   5.407   0.136   0.855
 3220TIP3    H1 9617   5.499   0.162   0.852
 3220TIP3    H2 9618   5.360   0.211   0.818
 3221TIP3   OH2 9619   6.351   7.831   1.124
 3221TIP3    H1 9620   6.330   7.754   1.071
 3221TIP3    H2 9621   6.266   7.863   1.153
 3222TIP3   OH2 9622   3.832   5.597   3.013
 3222TIP3    H1 9623   3.741   5.591   3.041
 3222TIP3    H2 9624   3.876   5.647   3.082
 3223TIP3   OH2 9625   2.819   3.600   2.596
 3223TIP3    H1 9626   2.736   3.638   2.565
 3223TIP3    H2 9627   2.874   3.597   2.517
 3224TIP3   OH2 9628   0.809   4.783   6.564
 3224TIP3    H1 9629   0.824   4.833   6.644
 3224TIP3    H2 9630   0.813   4.848   6.494
 3225TIP3   OH2 9631   4.021   3.849   6.110
 3225TIP3    H1 9632   4.104   3.825   6.068
 3225TIP3    H2 9633   4.001   3.936   6.075
 3226TIP3   OH2 9634   3.079   6.438   3.389
 3226TIP3    H1 9635   3.112   6.383   3.460
 3226TIP3    H2 9636   3.007   6.487   3.428
 3227TIP3   OH2 9637   6.932   7.646   4.016
 3227TIP3    H1 9638   6.951   7.633   3.923
 3227TIP3    H2 9639   7.014   7.681   4.052
 3228TIP3   OH2 9640   5.149   3.690   6.260
 3228TIP3    H1 9641   5.065   3.723   6.226
 3228TIP3    H2 9642   5.153   3.723   6.350
 3229TIP3   OH2 9643   5.733   0.302   3.471
 3229TIP3    H1 9644   5.735   0.375   3.533
 3229TIP3    H2 9645   5.806   0.247   3.496
 3230TIP3   OH2 9646   2.784   1.189   3.037
 3230TIP3    H1 9647   2.822   1.224   3.117
 3230TIP3    H2 9648   2.705   1.143   3.065
 3231TIP3   OH2 9649   6.026   1.287   2.785
 3231TIP3    H1 9650   6.110   1.325   2.759
 3231TIP3    H2 9651   6.031   1.196   2.756
 3232TIP3   OH2 9652   4.485   2.759   2.041
 3232TIP3    H1 9653   4.428   2.720   1.974
 3232TIP3    H2 9654   4.425   2.790   2.109
 3233TIP3   OH2 9655   7.948   4.073   0.621
 3233TIP3    H1 9656   7.940   4.105   0.532
 3233TIP3    H2 9657   7.949   3.977   0.612
 3234TIP3   OH2 9658   6.747   6.260   3.827
 3234TIP3    H1 9659   6.753   6.294   3.738
 3234TIP3    H2 9660   6.836   6.232   3.849
 3235TIP3   OH2 9661   4.333   2.620   3.655
 3235TIP3    H1 9662   4.253   2.585   3.693
 3235TIP3    H2 9663   4.347   2.567   3.576
 3236TIP3   OH2 9664   0.359   7.180   6.112
 3236TIP3    H1 9665   0.351   7.086   6.128
 3236TIP3    H2 9666   0.386   7.187   6.020
 3237TIP3   OH2 9667   6.850   1.766   6.132
 3237TIP3    H1 9668   6.871   1.763   6.038
 3237TIP3    H2 9669   6.774   1.709   6.142
 3238TIP3   OH2 9670   5.757   5.490   6.524
 3238TIP3    H1 9671   5.803   5.432   6.464
 3238TIP3    H2 9672   5.674   5.446   6.542
 3239TIP3   OH2 9673   4.797   3.761   3.949
 3239TIP3    H1 9674   4.872   3.743   3.892
 3239TIP3    H2 9675   4.759   3.841   3.914
 3240TIP3   OH2 9676   7.585   4.341   1.504
 3240TIP3    H1 9677   7.679   4.334   1.489
 3240TIP3    H2 9678   7.577   4.392   1.585
 3241TIP3   OH2 9679   0.460   7.810   6.175
 3241TIP3    H1 9680   0.555   7.795   6.166
 3241TIP3    H2 9681   0.421   7.727   6.148
 3242TIP3   OH2 9682   2.060   1.380   5.763
 3242TIP3    H1 9683   2.007   1.343   5.834
 3242TIP3    H2 9684   2.031   1.335   5.684
 3243TIP3   OH2 9685   8.038   6.796   1.447
 3243TIP3    H1 9686   7.980   6.838   1.383
 3243TIP3    H2 9687   8.126   6.819   1.419
 3244TIP3   OH2 9688   3.665   7.498   4.490
 3244TIP3    H1 9689   3.570   7.491   4.496
 3244TIP3    H2 9690   3.690   7.551   4.566
 3245TIP3   OH2 9691   2.759   1.698   5.546
 3245TIP3    H1 9692   2.829   1.692   5.610
 3245TIP3    H2 9693   2.786   1.639   5.476
 3246TIP3   OH2 9694   2.459   0.096   1.238
 3246TIP3    H1 9695   2.418   0.111   1.323
 3246TIP3    H2 9696   2.515   0.173   1.225
 3247TIP3   OH2 9697   7.752   4.485   6.536
 3247TIP3    H1 9698   7.785   4.410   6.487
 3247TIP3    H2 9699   7.806   4.487   6.616
 3248TIP3   OH2 9700   5.240   4.760   2.446
 3248TIP3    H1 9701   5.181   4.815   2.394
 3248TIP3    H2 9702   5.248   4.679   2.396
 3249TIP3   OH2 9703   3.237   7.421   3.327
 3249TIP3    H1 9704   3.192   7.495   3.366
 3249TIP3    H2 9705   3.291   7.459   3.258
 3250TIP3   OH2 9706   0.306   3.969   5.919
 3250TIP3    H1 9707   0.320   3.906   5.847
 3250TIP3    H2 9708   0.312   4.055   5.877
 3251TIP3   OH2 9709   7.697   4.436   2.900
 3251TIP3    H1 9710   7.784   4.477   2.900
 3251TIP3    H2 9711   7.659   4.460   2.985
 3252TIP3   OH2 9712   7.047   0.243   1.393
 3252TIP3    H1 9713   6.975   0.273   1.337
 3252TIP3    H2 9714   7.084   0.323   1.431
 3253TIP3   OH2 9715   2.522   5.675   3.104
 3253TIP3    H1 9716   2.439   5.677   3.056
 3253TIP3    H2 9717   2.589   5.669   3.036
 3254TIP3   OH2 9718   0.703   4.645   0.702
 3254TIP3    H1 9719   0.747   4.701   0.765
 3254TIP3    H2 9720   0.650   4.586   0.755
 3255TIP3   OH2 9721   5.805   1.379   5.396
 3255TIP3    H1 9722   5.816   1.287   5.370
 3255TIP3    H2 9723   5.716   1.401   5.369
 3256TIP3   OH2 9724   7.907   0.556   2.992
 3256TIP3    H1 9725   7.950   0.496   3.054
 3256TIP3    H2 9726   7.979   0.603   2.951
 3257TIP3   OH2 9727   7.627   3.214   3.450
 3257TIP3    H1 9728   7.664   3.236   3.535
 3257TIP3    H2 9729   7.600   3.123   3.458
 3258TIP3   OH2 9730   7.459   0.483   3.197
 3258TIP3    H1 9731   7.404   0.556   3.226
 3258TIP3    H2 9732   7.503   0.516   3.118
 3259TIP3   OH2 9733   5.875   3.547   2.679
 3259TIP3    H1 9734   5.911   3.630   2.650
 3259TIP3    H2 9735   5.922   3.528   2.760
 3260TIP3   OH2 9736   4.658   4.186   1.112
 3260TIP3    H1 9737   4.731   4.123   1.116
 3260TIP3    H2 9738   4.621   4.173   1.025
 3261TIP3   OH2 9739   8.022   2.324   2.680
 3261TIP3    H1 9740   7.964   2.250   2.697
 3261TIP3    H2 9741   8.034   2.324   2.585
 3262TIP3   OH2 9742   6.691   4.066   6.518
 3262TIP3    H1 9743   6.735   4.042   6.436
 3262TIP3    H2 9744   6.720   4.156   6.535
 3263TIP3   OH2 9745   6.218   4.572   3.335
 3263TIP3    H1 9746   6.270   4.653   3.337
 3263TIP3    H2 9747   6.210   4.547   3.427
 3264TIP3   OH2 9748   4.267   6.029   4.239
 3264TIP3    H1 9749   4.197   6.065   4.185
 3264TIP3    H2 9750   4.322   5.979   4.179
 3265TIP3   OH2 9751   8.221   1.243   3.345
 3265TIP3    H1 9752   8.258   1.160   3.314
 3265TIP3    H2 9753   8.138   1.218   3.386
 3266TIP3   OH2 9754   5.128   6.786   3.343
 3266TIP3    H1 9755   5.197   6.721   3.354
 3266TIP3    H2 9756   5.050   6.745   3.381
 3267TIP3   OH2 9757   0.675   4.051   2.438
 3267TIP3    H1 9758   0.645   4.064   2.528
 3267TIP3    H2 9759   0.765   4.083   2.437
 3268TIP3   OH2 9760   1.410   0.940   4.588
 3268TIP3    H1 9761   1.496   0.980   4.570
 3268TIP3    H2 9762   1.367   0.935   4.503
 3269TIP3   OH2 9763   5.205   3.856   1.923
 3269TIP3    H1 9764   5.265   3.783   1.909
 3269TIP3    H2 9765   5.251   3.914   1.983
 3270TIP3   OH2 9766   3.231   2.087   2.405
 3270TIP3    H1 9767   3.187   2.002   2.403
 3270TIP3    H2 9768   3.267   2.093   2.494
 3271TIP3   OH2 9769   0.140   1.748   1.632
 3271TIP3    H1 9770   0.052   1.777   1.656
 3271TIP3    H2 9771   0.194   1.770   1.707
 3272TIP3   OH2 9772   0.539   6.104   6.009
 3272TIP3    H1 9773   0.585   6.079   6.089
 3272TIP3    H2 9774   0.608   6.113   5.944
 3273TIP3   OH2 9775   1.018   0.935   5.204
 3273TIP3    H1 9776   0.940   0.962   5.253
 3273TIP3    H2 9777   1.042   0.850   5.242
 3274TIP3   OH2 9778   4.604   1.404   5.937
 3274TIP3    H1 9779   4.640   1.454   6.011
 3274TIP3    H2 9780   4.608   1.313   5.966
 3275TIP3   OH2 9781   4.492   1.954   2.706
 3275TIP3    H1 9782   4.439   1.978   2.630
 3275TIP3    H2 9783   4.435   1.898   2.758
 3276TIP3   OH2 9784   0.037   4.572   6.154
 3276TIP3    H1 9785   0.116   4.621   6.180
 3276TIP3    H2 9786  -0.035   4.628   6.184
 3277TIP3   OH2 9787   0.451   1.074   3.473
 3277TIP3    H1 9788   0.404   1.112   3.398
 3277TIP3    H2 9789   0.384   1.065   3.541
 3278TIP3   OH2 9790   3.806   4.792   5.368
 3278TIP3    H1 9791   3.756   4.800   5.287
 3278TIP3    H2 9792   3.769   4.715   5.412
 3279TIP3   OH2 9793   5.407   0.538   5.384
 3279TIP3    H1 9794   5.324   0.500   5.410
 3279TIP3    H2 9795   5.470   0.466   5.389
 3280TIP3   OH2 9796   2.507   4.743   5.406
 3280TIP3    H1 9797   2.567   4.750   5.480
 3280TIP3    H2 9798   2.460   4.661   5.422
 3281TIP3   OH2 9799   1.636   5.303   6.530
 3281TIP3    H1 9800   1.606   5.392   6.550
 3281TIP3    H2 9801   1.591   5.280   6.449
 3282TIP3   OH2 9802   1.536   0.372   4.691
 3282TIP3    H1 9803   1.455   0.363   4.641
 3282TIP3    H2 9804   1.569   0.458   4.667
 3283TIP3   OH2 9805   4.725   6.943   3.545
 3283TIP3    H1 9806   4.682   7.011   3.598
 3283TIP3    H2 9807   4.776   6.892   3.607
 3284TIP3   OH2 9808   3.135   6.883   6.641
 3284TIP3    H1 9809   3.181   6.951   6.690
 3284TIP3    H2 9810   3.049   6.877   6.682
 3285TIP3   OH2 9811   1.003   5.817   0.843
 3285TIP3    H1 9812   1.031   5.857   0.761
 3285TIP3    H2 9813   1.079   5.826   0.901
 3286TIP3   OH2 9814   6.973   4.633   0.908
 3286TIP3    H1 9815   6.984   4.619   0.814
 3286TIP3    H2 9816   6.957   4.545   0.944
 3287TIP3   OH2 9817   5.801   0.341   2.275
 3287TIP3    H1 9818   5.736   0.354   2.205
 3287TIP3    H2 9819   5.767   0.266   2.325
 3288TIP3   OH2 9820   5.944   3.840   2.863
 3288TIP3    H1 9821   5.863   3.803   2.827
 3288TIP3    H2 9822   5.915   3.908   2.924
 3289TIP3   OH2 9823   4.483   4.866   4.980
 3289TIP3    H1 9824   4.481   4.961   4.991
 3289TIP3    H2 9825   4.551   4.836   5.040
 3290TIP3   OH2 9826   7.492   0.889   1.858
 3290TIP3    H1 9827   7.551   0.959   1.831
 3290TIP3    H2 9828   7.514   0.816   1.799
 3291TIP3   OH2 9829   1.326   3.292   0.788
 3291TIP3    H1 9830   1.308   3.285   0.882
 3291TIP3    H2 9831   1.417   3.264   0.779
 3292TIP3   OH2 9832  -0.003   7.136   3.318
 3292TIP3    H1 9833  -0.006   7.065   3.382
 3292TIP3    H2 9834   0.083   7.128   3.278
 3293TIP3   OH2 9835   3.022   1.520   2.880
 3293TIP3    H1 9836   2.945   1.465   2.897
 3293TIP3    H2 9837   3.004   1.560   2.796
 3294TIP3   OH2 9838   3.779   7.108   6.240
 3294TIP3    H1 9839   3.821   7.149   6.316
 3294TIP3    H2 9840   3.847   7.052   6.202
 3295TIP3   OH2 9841   6.496   1.041   5.830
 3295TIP3    H1 9842   6.428   1.056   5.765
 3295TIP3    H2 9843   6.537   0.958   5.804
 3296TIP3   OH2 9844   1.136   1.263   6.541
 3296TIP3    H1 9845   1.042   1.254   6.557
 3296TIP3    H2 9846   1.169   1.311   6.618
 3297TIP3   OH2 9847   5.125   7.486   0.841
 3297TIP3    H1 9848   5.105   7.429   0.915
 3297TIP3    H2 9849   5.219   7.501   0.847
 3298TIP3   OH2 9850   3.683   5.740   2.664
 3298TIP3    H1 9851   3.604   5.762   2.615
 3298TIP3    H2 9852   3.651   5.687   2.738
 3299TIP3   OH2 9853   2.548   6.140   5.724
 3299TIP3    H1 9854   2.493   6.207   5.765
 3299TIP3    H2 9855   2.634   6.152   5.764
 3300TIP3   OH2 9856   2.551   5.511   3.330
 3300TIP3    H1 9857   2.531   5.570   3.257
 3300TIP3    H2 9858   2.634   5.543   3.365
 3301TIP3   OH2 9859   4.552   6.572   5.564
 3301TIP3    H1 9860   4.463   6.593   5.535
 3301TIP3    H2 9861   4.601   6.558   5.483
 3302TIP3   OH2 9862   7.505   3.678   5.244
 3302TIP3    H1 9863   7.487   3.759   5.197
 3302TIP3    H2 9864   7.588   3.647   5.208
 3303TIP3   OH2 9865   4.616   6.737   1.941
 3303TIP3    H1 9866   4.608   6.677   2.015
 3303TIP3    H2 9867   4.565   6.813   1.967
 3304TIP3   OH2 9868   5.581   6.581   0.563
 3304TIP3    H1 9869   5.626   6.663   0.584
 3304TIP3    H2 9870   5.582   6.532   0.645
 3305TIP3   OH2 9871   7.234   5.414   4.747
 3305TIP3    H1 9872   7.280   5.376   4.673
 3305TIP3    H2 9873   7.149   5.370   4.749
 3306TIP3   OH2 9874   3.339   0.063   6.445
 3306TIP3    H1 9875   3.413   0.018   6.485
 3306TIP3    H2 9876   3.289  -0.007   6.401
 3307TIP3   OH2 9877   0.441   2.734   1.480
 3307TIP3    H1 9878   0.461   2.807   1.538
 3307TIP3    H2 9879   0.356   2.701   1.511
 3308TIP3   OH2 9880   6.349   3.973   0.880
 3308TIP3    H1 9881   6.330   4.063   0.908
 3308TIP3    H2 9882   6.440   3.959   0.906
 3309TIP3   OH2 9883   7.776   3.674   0.314
 3309TIP3    H1 9884   7.833   3.700   0.241
 3309TIP3    H2 9885   7.704   3.627   0.274
 3310TIP3   OH2 9886   7.343   0.039   3.406
 3310TIP3    H1 9887   7.410   0.102   3.379
 3310TIP3    H2 9888   7.317  -0.005   3.325
 3311TIP3   OH2 9889   1.985   2.774   6.026
 3311TIP3    H1 9890   1.928   2.765   6.103
 3311TIP3    H2 9891   1.983   2.688   5.984
 3312TIP3   OH2 9892   0.159   4.303   5.107
 3312TIP3    H1 9893   0.107   4.269   5.034
 3312TIP3    H2 9894   0.094   4.326   5.173
 3313TIP3   OH2 9895   5.099   0.434   3.663
 3313TIP3    H1 9896   5.183   0.387   3.657
 3313TIP3    H2 9897   5.123   0.523   3.689
 3314TIP3   OH2 9898   4.868   7.409   4.175
 3314TIP3    H1 9899   4.812   7.376   4.105
 3314TIP3    H2 9900   4.845   7.356   4.252
 3315TIP3   OH2 9901   6.732   6.424   1.199
 3315TIP3    H1 9902   6.693   6.424   1.112
 3315TIP3    H2 9903   6.785   6.344   1.202
 3316TIP3   OH2 9904   5.866   6.557   0.981
 3316TIP3    H1 9905   5.796   6.572   1.045
 3316TIP3    H2 9906   5.830   6.493   0.920
 3317TIP3   OH2 9907  -0.027   7.625   1.750
 3317TIP3    H1 9908   0.020   7.550   1.713
 3317TIP3    H2 9909   0.042   7.687   1.773
 3318TIP3   OH2 9910   3.653   3.794   6.001
 3318TIP3    H1 9911   3.634   3.703   6.024
 3318TIP3    H2 9912   3.596   3.846   6.056
 3319TIP3   OH2 9913   2.339   3.592   0.564
 3319TIP3    H1 9914   2.383   3.672   0.590
 3319TIP3    H2 9915   2.347   3.534   0.640
 3320TIP3   OH2 9916   0.875   2.206   0.342
 3320TIP3    H1 9917   0.861   2.301   0.348
 3320TIP3    H2 9918   0.790   2.171   0.313
 3321TIP3   OH2 9919   3.351   0.127   5.730
 3321TIP3    H1 9920   3.299   0.154   5.805
 3321TIP3    H2 9921   3.430   0.180   5.735
 3322TIP3   OH2 9922   3.626   4.501   0.023
 3322TIP3    H1 9923   3.613   4.548   0.106
 3322TIP3    H2 9924   3.696   4.439   0.042
 3323TIP3   OH2 9925   4.957   4.488   1.473
 3323TIP3    H1 9926   4.875   4.439   1.480
 3323TIP3    H2 9927   5.022   4.424   1.446
 3324TIP3   OH2 9928   2.541   4.126   1.035
 3324TIP3    H1 9929   2.468   4.088   1.084
 3324TIP3    H2 9930   2.500   4.172   0.962
 3325TIP3   OH2 9931   1.796   3.257   4.246
 3325TIP3    H1 9932   1.727   3.266   4.180
 3325TIP3    H2 9933   1.769   3.317   4.316
 3326TIP3   OH2 9934   0.821   6.057   0.590
 3326TIP3    H1 9935   0.785   5.973   0.560
 3326TIP3    H2 9936   0.906   6.034   0.627
 3327TIP3   OH2 9937   7.088   3.015   1.732
 3327TIP3    H1 9938   7.091   3.010   1.828
 3327TIP3    H2 9939   7.079   3.108   1.714
 3328TIP3   OH2 9940   7.887   6.262   4.326
 3328TIP3    H1 9941   7.878   6.266   4.231
 3328TIP3    H2 9942   7.817   6.319   4.358
 3329TIP3   OH2 9943   3.617   1.259   1.094
 3329TIP3    H1 9944   3.636   1.258   1.188
 3329TIP3    H2 9945   3.649   1.344   1.063
 3330TIP3   OH2 9946   3.514   2.057   5.557
 3330TIP3    H1 9947   3.467   1.997   5.614
 3330TIP3    H2 9948   3.527   2.007   5.476
 3331TIP3   OH2 9949   1.231   2.865   6.108
 3331TIP3    H1 9950   1.188   2.854   6.024
 3331TIP3    H2 9951   1.301   2.928   6.091
 3332TIP3   OH2 9952   0.362   1.380   5.343
 3332TIP3    H1 9953   0.381   1.394   5.250
 3332TIP3    H2 9954   0.445   1.396   5.388
 3333TIP3   OH2 9955   3.353   3.757   2.974
 3333TIP3    H1 9956   3.381   3.838   2.933
 3333TIP3    H2 9957   3.362   3.773   3.068
 3334TIP3   OH2 9958   3.141   2.730   1.751
 3334TIP3    H1 9959   3.085   2.784   1.806
 3334TIP3    H2 9960   3.215   2.706   1.807
 3335TIP3   OH2 9961   1.297   4.519   4.961
 3335TIP3    H1 9962   1.305   4.609   4.991
 3335TIP3    H2 9963   1.217   4.487   5.003
 3336TIP3   OH2 9964   0.881   3.999   3.466
 3336TIP3    H1 9965   0.932   4.076   3.441
 3336TIP3    H2 9966   0.817   4.032   3.529
 3337TIP3   OH2 9967   1.891   0.619   1.188
 3337TIP3    H1 9968   1.933   0.569   1.259
 3337TIP3    H2 9969   1.854   0.695   1.232
 3338TIP3   OH2 9970   5.397   7.296   1.220
 3338TIP3    H1 9971   5.356   7.247   1.148
 3338TIP3    H2 9972   5.477   7.331   1.182
 3339TIP3   OH2 9973  -0.026   7.055   1.711
 3339TIP3    H1 9974   0.049   7.015   1.755
 3339TIP3    H2 9975   0.014   7.111   1.644
 3340TIP3   OH2 9976   3.552   5.265   5.071
 3340TIP3    H1 9977   3.482   5.251   5.007
 3340TIP3    H2 9978   3.506   5.293   5.151
 3341TIP3   OH2 9979   0.956   3.985   0.168
 3341TIP3    H1 9980   0.870   3.973   0.208
 3341TIP3    H2 9981   0.938   3.992   0.074
 3342TIP3   OH2 9982   1.639   3.952   3.059
 3342TIP3    H1 9983   1.627   3.985   2.970
 3342TIP3    H2 9984   1.551   3.949   3.096
 3343TIP3   OH2 9985   6.824   4.579   1.354
 3343TIP3    H1 9986   6.788   4.573   1.266
 3343TIP3    H2 9987   6.767   4.522   1.407
 3344TIP3   OH2 9988   4.739   4.399   3.405
 3344TIP3    H1 9989   4.835   4.401   3.404
 3344TIP3    H2 9990   4.717   4.306   3.400
 3345TIP3   OH2 9991   6.156   1.197   0.773
 3345TIP3    H1 9992   6.237   1.203   0.721
 3345TIP3    H2 9993   6.186   1.205   0.864
 3346TIP3   OH2 9994   3.646   5.875   3.497
 3346TIP3    H1 9995   3.711   5.813   3.462
 3346TIP3    H2 9996   3.627   5.933   3.423
 3347TIP3   OH2 9997   1.098   4.612   2.768
 3347TIP3    H1 9998   1.070   4.691   2.814
 3347TIP3    H2 9999   1.136   4.643   2.686
 3348TIP3   OH210000   2.223   4.919   3.998
 3348TIP3    H110001   2.139   4.926   3.952
 3348TIP3    H210002   2.199   4.898   4.088
 3349TIP3   OH210003   4.850   6.323   0.830
 3349TIP3    H110004   4.781   6.257   0.821
 3349TIP3    H210005   4.928   6.282   0.794
 3350TIP3   OH210006   7.460   4.726   3.826
 3350TIP3    H110007   7.454   4.659   3.894
 3350TIP3    H210008   7.376   4.771   3.829
 3351TIP3   OH210009   4.132   0.975   4.917
 3351TIP3    H110010   4.164   0.900   4.867
 3351TIP3    H210011   4.158   1.051   4.865
 3352TIP3   OH210012   7.819   1.095   5.563
 3352TIP3    H110013   7.897   1.090   5.507
 3352TIP3    H210014   7.825   1.181   5.605
 3353TIP3   OH210015   8.293   7.552   4.535
 3353TIP3    H110016   8.204   7.558   4.500
 3353TIP3    H210017   8.303   7.632   4.587
 3354TIP3   OH210018   7.599   0.205   1.814
 3354TIP3    H110019   7.603   0.293   1.778
 3354TIP3    H210020   7.517   0.204   1.864
 3355TIP3   OH210021   0.632   7.841   2.460
 3355TIP3    H110022   0.617   7.760   2.411
 3355TIP3    H210023   0.718   7.829   2.500
 3356TIP3   OH210024   6.811   1.900   2.821
 3356TIP3    H110025   6.743   1.952   2.864
 3356TIP3    H210026   6.890   1.955   2.824
 3357TIP3   OH210027   4.743   7.700   3.811
 3357TIP3    H110028   4.774   7.674   3.725
 3357TIP3    H210029   4.665   7.647   3.825
 3358TIP3   OH210030   0.617   6.028   6.257
 3358TIP3    H110031   0.679   5.962   6.228
 3358TIP3    H210032   0.667   6.082   6.319
 3359TIP3   OH210033   7.249   4.687   4.672
 3359TIP3    H110034   7.275   4.728   4.589
 3359TIP3    H210035   7.249   4.593   4.652
 3360TIP3   OH210036   3.265   6.476   5.638
 3360TIP3    H110037   3.248   6.395   5.686
 3360TIP3    H210038   3.336   6.454   5.578
 3361TIP3   OH210039   3.385   0.983   2.876
 3361TIP3    H110040   3.291   0.997   2.875
 3361TIP3    H210041   3.421   1.057   2.827
 3362TIP3   OH210042   2.092   3.206   0.864
 3362TIP3    H110043   2.011   3.221   0.816
 3362TIP3    H210044   2.067   3.146   0.935
 3363TIP3   OH210045   3.304   5.547   6.636
 3363TIP3    H110046   3.318   5.453   6.622
 3363TIP3    H210047   3.294   5.583   6.548
 3364TIP3   OH210048   7.905   1.788   4.003
 3364TIP3    H110049   7.954   1.706   4.002
 3364TIP3    H210050   7.813   1.761   4.013
 3365TIP3   OH210051   2.220   2.782   6.150
 3365TIP3    H110052   2.187   2.739   6.229
 3365TIP3    H210053   2.140   2.808   6.103
 3366TIP3   OH210054   3.984   7.599   0.802
 3366TIP3    H110055   4.019   7.611   0.890
 3366TIP3    H210056   4.043   7.649   0.746
 3367TIP3   OH210057   2.149   3.816   0.386
 3367TIP3    H110058   2.237   3.801   0.423
 3367TIP3    H210059   2.166   3.859   0.302
 3368TIP3   OH210060   3.490   7.765   6.735
 3368TIP3    H110061   3.450   7.830   6.793
 3368TIP3    H210062   3.515   7.815   6.657
 3369TIP3   OH210063   0.999   1.819   6.202
 3369TIP3    H110064   1.028   1.788   6.288
 3369TIP3    H210065   0.911   1.781   6.192
 3370TIP3   OH210066   6.842   3.531   0.347
 3370TIP3    H110067   6.865   3.500   0.259
 3370TIP3    H210068   6.750   3.555   0.340
 3371TIP3   OH210069   5.743   1.008   6.592
 3371TIP3    H110070   5.781   0.920   6.589
 3371TIP3    H210071   5.682   1.006   6.665
 3372TIP3   OH210072   2.664   1.188   0.345
 3372TIP3    H110073   2.616   1.247   0.285
 3372TIP3    H210074   2.611   1.109   0.347
 3373TIP3   OH210075   6.553   5.213   5.659
 3373TIP3    H110076   6.517   5.301   5.648
 3373TIP3    H210077   6.478   5.160   5.685
 3374TIP3   OH210078   3.941   0.019   3.394
 3374TIP3    H110079   3.942  -0.007   3.301
 3374TIP3    H210080   3.876   0.089   3.398
 3375TIP3   OH210081   5.704   6.262   3.211
 3375TIP3    H110082   5.613   6.290   3.222
 3375TIP3    H210083   5.701   6.167   3.220
 3376TIP3   OH210084   6.559   0.232   3.070
 3376TIP3    H110085   6.557   0.137   3.082
 3376TIP3    H210086   6.606   0.264   3.147
 3377TIP3   OH210087   7.062   1.919   1.876
 3377TIP3    H110088   7.045   2.013   1.886
 3377TIP3    H210089   7.139   1.903   1.929
 3378TIP3   OH210090   6.621   1.931   3.736
 3378TIP3    H110091   6.675   1.857   3.765
 3378TIP3    H210092   6.581   1.965   3.816
 3379TIP3   OH210093   2.634   1.285   6.653
 3379TIP3    H110094   2.562   1.295   6.715
 3379TIP3    H210095   2.631   1.365   6.600
 3380TIP3   OH210096   2.149   4.935   5.999
 3380TIP3    H110097   2.062   4.949   5.960
 3380TIP3    H210098   2.210   4.954   5.928
 3381TIP3   OH210099   1.978   3.491   3.964
 3381TIP3    H110100   2.060   3.507   4.011
 3381TIP3    H210101   1.917   3.556   4.000
 3382TIP3   OH210102   3.998   4.941   0.195
 3382TIP3    H110103   4.047   5.022   0.185
 3382TIP3    H210104   3.914   4.968   0.231
 3383TIP3   OH210105   4.080   0.345   0.933
 3383TIP3    H110106   4.140   0.276   0.904
 3383TIP3    H210107   4.048   0.316   1.018
 3384TIP3   OH210108   5.005   5.920   3.223
 3384TIP3    H110109   4.944   5.994   3.226
 3384TIP3    H210110   4.966   5.859   3.160
 3385TIP3   OH210111   5.061   5.422   4.577
 3385TIP3    H110112   4.981   5.373   4.557
 3385TIP3    H210113   5.116   5.360   4.624
 3386TIP3   OH210114   4.383   3.841   6.644
 3386TIP3    H110115   4.328   3.918   6.628
 3386TIP3    H210116   4.432   3.830   6.563
 3387TIP3   OH210117   5.008   1.417   4.630
 3387TIP3    H110118   5.046   1.420   4.718
 3387TIP3    H210119   5.084   1.419   4.572
 3388TIP3   OH210120   3.072   0.962   2.871
 3388TIP3    H110121   3.006   0.912   2.823
 3388TIP3    H210122   3.054   1.053   2.847
 3389TIP3   OH210123   1.569   2.089   4.829
 3389TIP3    H110124   1.610   2.016   4.875
 3389TIP3    H210125   1.501   2.120   4.889
 3390TIP3   OH210126   2.666   3.335   2.136
 3390TIP3    H110127   2.707   3.307   2.218
 3390TIP3    H210128   2.586   3.283   2.130
 3391TIP3   OH210129   3.222   7.237   5.130
 3391TIP3    H110130   3.244   7.161   5.077
 3391TIP3    H210131   3.256   7.311   5.080
 3392TIP3   OH210132   5.184   0.108   2.428
 3392TIP3    H110133   5.194   0.199   2.457
 3392TIP3    H210134   5.263   0.091   2.376
 3393TIP3   OH210135   2.111   7.426   6.350
 3393TIP3    H110136   2.139   7.421   6.258
 3393TIP3    H210137   2.189   7.452   6.397
 3394TIP3   OH210138   7.578   2.691   3.732
 3394TIP3    H110139   7.637   2.620   3.706
 3394TIP3    H210140   7.526   2.709   3.654
 3395TIP3   OH210141   2.980   5.200   2.897
 3395TIP3    H110142   3.027   5.251   2.831
 3395TIP3    H210143   2.891   5.192   2.863
 3396TIP3   OH210144   7.845   5.120   1.239
 3396TIP3    H110145   7.835   5.154   1.328
 3396TIP3    H210146   7.900   5.185   1.194
 3397TIP3   OH210147   1.933   5.781   0.075
 3397TIP3    H110148   1.992   5.787   0.150
 3397TIP3    H210149   1.851   5.819   0.105
 3398TIP3   OH210150   3.329   3.400   5.352
 3398TIP3    H110151   3.321   3.425   5.260
 3398TIP3    H210152   3.261   3.334   5.365
 3399TIP3   OH210153   5.112   6.772   0.292
 3399TIP3    H110154   5.202   6.741   0.277
 3399TIP3    H210155   5.082   6.801   0.206
 3400TIP3   OH210156   2.564   3.218   1.186
 3400TIP3    H110157   2.608   3.230   1.270
 3400TIP3    H210158   2.514   3.299   1.174
 3401TIP3   OH210159   3.454   4.810   1.083
 3401TIP3    H110160   3.466   4.900   1.054
 3401TIP3    H210161   3.485   4.757   1.009
 3402TIP3   OH210162   7.398   3.624   4.936
 3402TIP3    H110163   7.363   3.553   4.882
 3402TIP3    H210164   7.360   3.704   4.899
 3403TIP3   OH210165   6.034   7.514   4.543
 3403TIP3    H110166   6.052   7.437   4.490
 3403TIP3    H210167   5.976   7.568   4.489
 3404TIP3   OH210168   0.935   1.646   4.928
 3404TIP3    H110169   0.870   1.616   4.991
 3404TIP3    H210170   1.007   1.584   4.936
 3405TIP3   OH210171   5.480   5.899   3.461
 3405TIP3    H110172   5.404   5.841   3.459
 3405TIP3    H210173   5.556   5.841   3.453
 3406TIP3   OH210174   0.129   7.523   5.720
 3406TIP3    H110175   0.148   7.598   5.663
 3406TIP3    H210176   0.033   7.522   5.727
 3407TIP3   OH210177   1.686   4.633   6.059
 3407TIP3    H110178   1.775   4.647   6.026
 3407TIP3    H210179   1.650   4.721   6.069
 3408TIP3   OH210180   2.948   4.187   5.008
 3408TIP3    H110181   2.974   4.185   4.916
 3408TIP3    H210182   2.973   4.275   5.038
 3409TIP3   OH210183   1.618   7.238   5.864
 3409TIP3    H110184   1.525   7.250   5.842
 3409TIP3    H210185   1.619   7.241   5.960
 3410TIP3   OH210186   5.093   7.549   1.901
 3410TIP3    H110187   5.187   7.565   1.888
 3410TIP3    H210188   5.057   7.544   1.813
 3411TIP3   OH210189   3.255   5.074   5.178
 3411TIP3    H110190   3.207   5.139   5.229
 3411TIP3    H210191   3.310   5.125   5.118
 3412TIP3   OH210192   7.666   1.057   1.734
 3412TIP3    H110193   7.737   1.064   1.671
 3412TIP3    H210194   7.633   1.147   1.743
 3413TIP3   OH210195   7.334   0.256   3.124
 3413TIP3    H110196   7.398   0.185   3.118
 3413TIP3    H210197   7.384   0.332   3.154
 3414TIP3   OH210198   5.054   7.149   6.452
 3414TIP3    H110199   4.987   7.126   6.517
 3414TIP3    H210200   5.137   7.124   6.493
 3415TIP3   OH210201   1.993   3.668   4.850
 3415TIP3    H110202   2.080   3.686   4.885
 3415TIP3    H210203   1.939   3.741   4.880
 3416TIP3   OH210204   0.824   4.828   3.068
 3416TIP3    H110205   0.737   4.826   3.030
 3416TIP3    H210206   0.826   4.754   3.129
 3417TIP3   OH210207   7.639   6.131   2.464
 3417TIP3    H110208   7.625   6.086   2.380
 3417TIP3    H210209   7.557   6.120   2.511
 3418TIP3   OH210210   2.425   3.106   4.689
 3418TIP3    H110211   2.351   3.134   4.636
 3418TIP3    H210212   2.480   3.055   4.629
 3419TIP3   OH210213   4.282  -0.002   5.741
 3419TIP3    H110214   4.234  -0.043   5.813
 3419TIP3    H210215   4.333   0.068   5.783
 3420TIP3   OH210216   4.010   3.304   2.887
 3420TIP3    H110217   3.948   3.263   2.948
 3420TIP3    H210218   3.978   3.394   2.877
 3421TIP3   OH210219   0.529   2.019   6.457
 3421TIP3    H110220   0.439   1.987   6.470
 3421TIP3    H210221   0.562   2.033   6.546
 3422TIP3   OH210222   3.726   0.977   0.759
 3422TIP3    H110223   3.786   0.942   0.692
 3422TIP3    H210224   3.780   0.985   0.838
 3423TIP3   OH210225   0.801   1.250   4.246
 3423TIP3    H110226   0.722   1.293   4.279
 3423TIP3    H210227   0.808   1.279   4.155
 3424TIP3   OH210228   4.586   3.780   5.730
 3424TIP3    H110229   4.514   3.716   5.729
 3424TIP3    H210230   4.655   3.739   5.677
 3425TIP3   OH210231   7.413   4.448   2.327
 3425TIP3    H110232   7.436   4.528   2.375
 3425TIP3    H210233   7.471   4.448   2.251
 3426TIP3   OH210234   4.338   3.565   2.995
 3426TIP3    H110235   4.320   3.636   3.057
 3426TIP3    H210236   4.365   3.492   3.050
 3427TIP3   OH210237   2.205   1.138   3.160
 3427TIP3    H110238   2.223   1.100   3.074
 3427TIP3    H210239   2.155   1.217   3.142
 3428TIP3   OH210240   3.503   4.601   3.849
 3428TIP3    H110241   3.442   4.534   3.879
 3428TIP3    H210242   3.579   4.591   3.908
 3429TIP3   OH210243   4.924   0.647   4.842
 3429TIP3    H110244   4.944   0.733   4.805
 3429TIP3    H210245   5.009   0.611   4.866
 3430TIP3   OH210246   2.286   0.650   0.989
 3430TIP3    H110247   2.238   0.731   1.007
 3430TIP3    H210248   2.273   0.596   1.067
 3431TIP3   OH210249   7.071   5.556   3.879
 3431TIP3    H110250   7.062   5.629   3.818
 3431TIP3    H210251   7.055   5.595   3.965
 3432TIP3   OH210252   7.609   5.684   1.145
 3432TIP3    H110253   7.545   5.724   1.087
 3432TIP3    H210254   7.691   5.686   1.096
 3433TIP3   OH210255   3.747   5.418   4.314
 3433TIP3    H110256   3.825   5.469   4.296
 3433TIP3    H210257   3.747   5.350   4.247
 3434TIP3   OH210258   3.704   5.699   0.263
 3434TIP3    H110259   3.643   5.638   0.222
 3434TIP3    H210260   3.787   5.651   0.268
 3435TIP3   OH210261   3.210   5.598   1.813
 3435TIP3    H110262   3.127   5.563   1.846
 3435TIP3    H210263   3.266   5.521   1.804
 3436TIP3   OH210264   1.140   7.600   1.648
 3436TIP3    H110265   1.141   7.545   1.570
 3436TIP3    H210266   1.167   7.687   1.616
 3437TIP3   OH210267   4.695   5.294   3.496
 3437TIP3    H110268   4.706   5.387   3.511
 3437TIP3    H210269   4.770   5.253   3.540
 3438TIP3   OH210270   1.730   1.343   1.518
 3438TIP3    H110271   1.746   1.250   1.535
 3438TIP3    H210272   1.816   1.379   1.499
 3439TIP3   OH210273   0.421   6.248   0.469
 3439TIP3    H110274   0.418   6.158   0.439
 3439TIP3    H210275   0.487   6.290   0.414
 3440TIP3   OH210276   3.286   6.802   0.717
 3440TIP3    H110277   3.351   6.791   0.787
 3440TIP3    H210278   3.338   6.801   0.637
 3441TIP3   OH210279   2.345   2.875   2.473
 3441TIP3    H110280   2.272   2.906   2.526
 3441TIP3    H210281   2.419   2.871   2.533
 3442TIP3   OH210282   0.192   2.273   0.500
 3442TIP3    H110283   0.223   2.356   0.465
 3442TIP3    H210284   0.101   2.267   0.470
 3443TIP3   OH210285   1.510   6.744   0.666
 3443TIP3    H110286   1.431   6.771   0.620
 3443TIP3    H210287   1.560   6.694   0.601
 3444TIP3   OH210288   0.665   3.208   4.269
 3444TIP3    H110289   0.599   3.262   4.227
 3444TIP3    H210290   0.622   3.174   4.347
 3445TIP3   OH210291   3.009   6.141   3.793
 3445TIP3    H110292   2.981   6.164   3.882
 3445TIP3    H210293   2.928   6.124   3.746
 3446TIP3   OH210294   1.679   6.526   5.867
 3446TIP3    H110295   1.654   6.618   5.874
 3446TIP3    H210296   1.615   6.488   5.807
 3447TIP3   OH210297   4.058   3.843   1.149
 3447TIP3    H110298   4.066   3.916   1.210
 3447TIP3    H210299   4.130   3.854   1.088
 3448TIP3   OH210300   7.678   3.120   5.972
 3448TIP3    H110301   7.616   3.128   5.899
 3448TIP3    H210302   7.670   3.029   6.000
 3449TIP3   OH210303   7.881   5.650   5.469
 3449TIP3    H110304   7.879   5.594   5.546
 3449TIP3    H210305   7.825   5.606   5.405
 3450TIP3   OH210306   3.782   0.679   1.694
 3450TIP3    H110307   3.766   0.770   1.667
 3450TIP3    H210308   3.832   0.686   1.775
 3451TIP3   OH210309   2.050   2.371   5.849
 3451TIP3    H110310   2.071   2.441   5.788
 3451TIP3    H210311   2.009   2.303   5.795
 3452TIP3   OH210312   5.477   6.872   0.305
 3452TIP3    H110313   5.442   6.804   0.248
 3452TIP3    H210314   5.568   6.883   0.276
 3453TIP3   OH210315   7.179   0.667   3.517
 3453TIP3    H110316   7.185   0.736   3.450
 3453TIP3    H210317   7.270   0.650   3.541
 3454TIP3   OH210318   1.711   3.837   4.586
 3454TIP3    H110319   1.803   3.809   4.579
 3454TIP3    H210320   1.676   3.784   4.657
 3455TIP3   OH210321   2.705   2.601   2.909
 3455TIP3    H110322   2.682   2.640   2.993
 3455TIP3    H210323   2.712   2.507   2.927
 3456TIP3   OH210324   1.398   6.133   2.431
 3456TIP3    H110325   1.446   6.123   2.513
 3456TIP3    H210326   1.422   6.057   2.379
 3457TIP3   OH210327   2.906   6.559   5.924
 3457TIP3    H110328   2.870   6.477   5.958
 3457TIP3    H210329   2.835   6.622   5.929
 3458TIP3   OH210330   0.396   2.945   0.277
 3458TIP3    H110331   0.381   2.860   0.237
 3458TIP3    H210332   0.312   2.970   0.316
 3459TIP3   OH210333   4.136   7.649   1.306
 3459TIP3    H110334   4.231   7.656   1.316
 3459TIP3    H210335   4.101   7.700   1.379
 3460TIP3   OH210336   7.252   5.628   5.723
 3460TIP3    H110337   7.174   5.674   5.754
 3460TIP3    H210338   7.311   5.626   5.799
 3461TIP3   OH210339   6.438   7.119   1.571
 3461TIP3    H110340   6.458   7.182   1.502
 3461TIP3    H210341   6.359   7.154   1.613
 3462TIP3   OH210342   0.406   7.870   3.885
 3462TIP3    H110343   0.337   7.816   3.846
 3462TIP3    H210344   0.451   7.810   3.945
 3463TIP3   OH210345   4.557   5.194   1.611
 3463TIP3    H110346   4.514   5.112   1.635
 3463TIP3    H210347   4.627   5.205   1.675
 3464TIP3   OH210348   2.186   1.553   1.826
 3464TIP3    H110349   2.122   1.614   1.862
 3464TIP3    H210350   2.247   1.538   1.899
 3465TIP3   OH210351   1.917   7.786   1.909
 3465TIP3    H110352   1.932   7.852   1.842
 3465TIP3    H210353   1.852   7.825   1.968
 3466TIP3   OH210354   1.761   4.195   5.564
 3466TIP3    H110355   1.784   4.267   5.622
 3466TIP3    H210356   1.837   4.138   5.564
 3467TIP3   OH210357   0.141   2.852   4.253
 3467TIP3    H110358   0.046   2.853   4.240
 3467TIP3    H210359   0.175   2.804   4.178
 3468TIP3   OH210360   6.119   5.884   4.413
 3468TIP3    H110361   6.090   5.890   4.322
 3468TIP3    H210362   6.169   5.965   4.428
 3469TIP3   OH210363   1.353   7.231   1.554
 3469TIP3    H110364   1.379   7.318   1.583
 3469TIP3    H210365   1.322   7.244   1.464
 3470TIP3   OH210366   3.121   3.369   5.660
 3470TIP3    H110367   3.045   3.336   5.709
 3470TIP3    H210368   3.103   3.344   5.569
 3471TIP3   OH210369   1.661   7.615   0.313
 3471TIP3    H110370   1.723   7.687   0.302
 3471TIP3    H210371   1.692   7.547   0.254
 3472TIP3   OH210372   2.000   1.794   4.438
 3472TIP3    H110373   1.935   1.800   4.508
 3472TIP3    H210374   2.055   1.719   4.462
 3473TIP3   OH210375   5.779   1.441   2.562
 3473TIP3    H110376   5.823   1.525   2.563
 3473TIP3    H210377   5.776   1.414   2.654
 3474TIP3   OH210378   5.659   3.907   5.401
 3474TIP3    H110379   5.612   3.960   5.466
 3474TIP3    H210380   5.706   3.842   5.453
 3475TIP3   OH210381   4.441   4.967   1.311
 3475TIP3    H110382   4.523   4.950   1.266
 3475TIP3    H210383   4.424   5.060   1.297
 3476TIP3   OH210384   6.165   1.579   0.392
 3476TIP3    H110385   6.234   1.637   0.422
 3476TIP3    H210386   6.203   1.491   0.398
 3477TIP3   OH210387   7.591   6.971   3.104
 3477TIP3    H110388   7.557   7.026   3.034
 3477TIP3    H210389   7.542   6.889   3.096
 3478TIP3   OH210390   6.992   2.482   5.564
 3478TIP3    H110391   7.027   2.469   5.475
 3478TIP3    H210392   7.032   2.411   5.615
 3479TIP3   OH210393   7.647   1.642   4.009
 3479TIP3    H110394   7.618   1.582   4.078
 3479TIP3    H210395   7.630   1.595   3.927
 3480TIP3   OH210396   1.766   1.982   5.562
 3480TIP3    H110397   1.726   1.936   5.488
 3480TIP3    H210398   1.799   1.912   5.619
 3481TIP3   OH210399   8.211   0.124   5.550
 3481TIP3    H110400   8.299   0.088   5.548
 3481TIP3    H210401   8.172   0.099   5.466
 3482TIP3   OH210402   3.775   7.786   3.133
 3482TIP3    H110403   3.841   7.736   3.085
 3482TIP3    H210404   3.795   7.770   3.225
 3483TIP3   OH210405   5.304   7.132   6.639
 3483TIP3    H110406   5.345   7.207   6.683
 3483TIP3    H210407   5.334   7.139   6.548
 3484TIP3   OH210408   3.054   4.207   3.878
 3484TIP3    H110409   2.988   4.259   3.922
 3484TIP3    H210410   3.019   4.117   3.880
 3485TIP3   OH210411   4.485   4.130   2.579
 3485TIP3    H110412   4.565   4.147   2.528
 3485TIP3    H210413   4.488   4.036   2.596
 3486TIP3   OH210414   3.650   3.264   1.665
 3486TIP3    H110415   3.726   3.243   1.611
 3486TIP3    H210416   3.618   3.180   1.696
 3487TIP3   OH210417   6.999   0.801   6.572
 3487TIP3    H110418   7.013   0.816   6.666
 3487TIP3    H210419   6.929   0.860   6.548
 3488TIP3   OH210420   4.454   7.600   3.803
 3488TIP3    H110421   4.406   7.523   3.830
 3488TIP3    H210422   4.460   7.654   3.882
 3489TIP3   OH210423   0.710   6.903   0.863
 3489TIP3    H110424   0.622   6.884   0.831
 3489TIP3    H210425   0.734   6.984   0.817
 3490TIP3   OH210426   3.398   1.054   2.524
 3490TIP3    H110427   3.457   1.025   2.455
 3490TIP3    H210428   3.370   0.974   2.567
 3491TIP3   OH210429   2.300   1.522   3.220
 3491TIP3    H110430   2.303   1.532   3.125
 3491TIP3    H210431   2.379   1.471   3.241
 3492TIP3   OH210432   4.052   2.548   1.268
 3492TIP3    H110433   4.046   2.640   1.297
 3492TIP3    H210434   4.109   2.551   1.191
 3493TIP3   OH210435   6.667   4.674   1.940
 3493TIP3    H110436   6.631   4.620   1.869
 3493TIP3    H210437   6.647   4.764   1.914
 3494TIP3   OH210438   8.199   7.740   4.713
 3494TIP3    H110439   8.244   7.824   4.721
 3494TIP3    H210440   8.120   7.749   4.766
 3495TIP3   OH210441   0.273   3.522   5.554
 3495TIP3    H110442   0.218   3.508   5.631
 3495TIP3    H210443   0.363   3.514   5.586
 3496TIP3   OH210444   8.134   2.616   4.885
 3496TIP3    H110445   8.047   2.588   4.912
 3496TIP3    H210446   8.143   2.703   4.923
 3497TIP3   OH210447   6.910   5.954   5.153
 3497TIP3    H110448   6.945   5.972   5.241
 3497TIP3    H210449   6.906   6.040   5.111
 3498TIP3   OH210450   3.727   0.331   6.028
 3498TIP3    H110451   3.817   0.301   6.042
 3498TIP3    H210452   3.674   0.251   6.032
 3499TIP3   OH210453   7.778   4.269   1.169
 3499TIP3    H110454   7.864   4.305   1.148
 3499TIP3    H210455   7.717   4.320   1.116
 3500TIP3   OH210456   2.240   5.064   3.237
 3500TIP3    H110457   2.298   4.988   3.245
 3500TIP3    H210458   2.291   5.136   3.274
 3501TIP3   OH210459   3.867   6.421   2.603
 3501TIP3    H110460   3.954   6.433   2.565
 3501TIP3    H210461   3.808   6.466   2.544
 3502TIP3   OH210462   7.674   5.779   2.046
 3502TIP3    H110463   7.618   5.715   2.002
 3502TIP3    H210464   7.763   5.759   2.016
 3503TIP3   OH210465   0.205   4.628   2.774
 3503TIP3    H110466   0.254   4.691   2.826
 3503TIP3    H210467   0.171   4.679   2.701
 3504TIP3   OH210468   1.928   6.673   5.343
 3504TIP3    H110469   1.909   6.605   5.408
 3504TIP3    H210470   1.934   6.625   5.260
 3505TIP3   OH210471   0.058   0.705   2.537
 3505TIP3    H110472   0.006   0.673   2.611
 3505TIP3    H210473   0.124   0.637   2.524
 3506TIP3   OH210474   2.174   4.924   0.501
 3506TIP3    H110475   2.225   5.000   0.473
 3506TIP3    H210476   2.097   4.924   0.443
 3507TIP3   OH210477   2.837   7.700   2.219
 3507TIP3    H110478   2.917   7.728   2.264
 3507TIP3    H210479   2.860   7.703   2.126
 3508TIP3   OH210480   4.978   2.110   5.312
 3508TIP3    H110481   4.894   2.071   5.290
 3508TIP3    H210482   4.972   2.128   5.406
 3509TIP3   OH210483   6.819   6.866   0.170
 3509TIP3    H110484   6.861   6.939   0.124
 3509TIP3    H210485   6.726   6.886   0.169
 3510TIP3   OH210486   4.794   6.266   4.434
 3510TIP3    H110487   4.808   6.181   4.477
 3510TIP3    H210488   4.713   6.254   4.383
 3511TIP3   OH210489   1.260   0.791   0.963
 3511TIP3    H110490   1.223   0.706   0.940
 3511TIP3    H210491   1.188   0.838   1.004
 3512TIP3   OH210492   7.397   4.851   6.443
 3512TIP3    H110493   7.445   4.885   6.368
 3512TIP3    H210494   7.441   4.888   6.519
 3513TIP3   OH210495   5.433   3.046   6.638
 3513TIP3    H110496   5.515   3.094   6.638
 3513TIP3    H210497   5.377   3.093   6.700
 3514TIP3   OH210498   4.461   1.723   3.639
 3514TIP3    H110499   4.542   1.672   3.628
 3514TIP3    H210500   4.491   1.814   3.644
 3515TIP3   OH210501   0.394   6.801   0.750
 3515TIP3    H110502   0.304   6.793   0.721
 3515TIP3    H210503   0.437   6.721   0.721
 3516TIP3   OH210504   1.238   4.921   5.286
 3516TIP3    H110505   1.269   4.966   5.207
 3516TIP3    H210506   1.243   4.828   5.264
 3517TIP3   OH210507   8.012   1.990   3.870
 3517TIP3    H110508   8.073   1.941   3.815
 3517TIP3    H210509   7.964   1.923   3.918
 3518TIP3   OH210510   0.664   7.263   0.414
 3518TIP3    H110511   0.671   7.304   0.328
 3518TIP3    H210512   0.640   7.335   0.473
 3519TIP3   OH210513   5.262   3.456   5.537
 3519TIP3    H110514   5.177   3.432   5.500
 3519TIP3    H210515   5.275   3.547   5.512
 3520TIP3   OH210516   7.539   6.222   5.230
 3520TIP3    H110517   7.553   6.287   5.300
 3520TIP3    H210518   7.543   6.138   5.275
 3521TIP3   OH210519   3.878   7.691   3.350
 3521TIP3    H110520   3.929   7.662   3.426
 3521TIP3    H210521   3.874   7.614   3.293
 3522TIP3   OH210522   7.994   3.619   1.843
 3522TIP3    H110523   8.034   3.699   1.876
 3522TIP3    H210524   8.065   3.572   1.799
 3523TIP3   OH210525   3.918   7.265   1.337
 3523TIP3    H110526   3.884   7.177   1.321
 3523TIP3    H210527   3.861   7.301   1.404
 3524TIP3   OH210528   2.417   0.761   6.493
 3524TIP3    H110529   2.479   0.701   6.452
 3524TIP3    H210530   2.435   0.846   6.451
 3525TIP3   OH210531   3.146   5.085   6.733
 3525TIP3    H110532   3.164   5.018   6.798
 3525TIP3    H210533   3.056   5.067   6.704
 3526TIP3   OH210534   7.736   4.917   5.092
 3526TIP3    H110535   7.702   4.977   5.026
 3526TIP3    H210536   7.702   4.831   5.066
 3527TIP3   OH210537   5.075   7.064   0.068
 3527TIP3    H110538   5.072   7.070   0.163
 3527TIP3    H210539   5.016   6.992   0.047
 3528TIP3   OH210540   0.976   5.093   1.349
 3528TIP3    H110541   1.022   5.075   1.430
 3528TIP3    H210542   0.903   5.031   1.348
 3529TIP3   OH210543   5.080   6.136   3.598
 3529TIP3    H110544   5.024   6.098   3.666
 3529TIP3    H210545   5.109   6.061   3.547
 3530TIP3   OH210546   1.488   2.791   1.300
 3530TIP3    H110547   1.446   2.705   1.311
 3530TIP3    H210548   1.504   2.821   1.389
 3531TIP3   OH210549   1.433   5.999   1.161
 3531TIP3    H110550   1.471   5.932   1.218
 3531TIP3    H210551   1.351   6.023   1.204
 3532TIP3   OH210552   5.902   7.392   2.459
 3532TIP3    H110553   5.901   7.330   2.387
 3532TIP3    H210554   5.980   7.369   2.510
 3533TIP3   OH210555   4.684   4.925   1.142
 3533TIP3    H110556   4.732   4.843   1.136
 3533TIP3    H210557   4.629   4.926   1.063
 3534TIP3   OH210558   1.971   2.471   6.623
 3534TIP3    H110559   1.937   2.439   6.707
 3534TIP3    H210560   2.066   2.460   6.631
 3535TIP3   OH210561   5.441   0.580   0.345
 3535TIP3    H110562   5.400   0.635   0.412
 3535TIP3    H210563   5.401   0.608   0.263
 3536TIP3   OH210564   4.267   4.271   4.300
 3536TIP3    H110565   4.289   4.221   4.378
 3536TIP3    H210566   4.326   4.238   4.232
 3537TIP3   OH210567   6.121   2.187   0.987
 3537TIP3    H110568   6.104   2.229   0.903
 3537TIP3    H210569   6.035   2.161   1.019
 3538TIP3   OH210570   3.425   7.391   3.997
 3538TIP3    H110571   3.497   7.328   3.989
 3538TIP3    H210572   3.465   7.468   4.038
 3539TIP3   OH210573   3.464   2.763   0.830
 3539TIP3    H110574   3.404   2.813   0.886
 3539TIP3    H210575   3.543   2.753   0.883
 3540TIP3   OH210576   5.888   1.473   3.832
 3540TIP3    H110577   5.858   1.560   3.858
 3540TIP3    H210578   5.977   1.467   3.867
 3541TIP3   OH210579   2.781   5.810   1.043
 3541TIP3    H110580   2.799   5.901   1.067
 3541TIP3    H210581   2.843   5.792   0.973
 3542TIP3   OH210582   7.780   5.492   1.786
 3542TIP3    H110583   7.810   5.574   1.826
 3542TIP3    H210584   7.686   5.504   1.777
 3543TIP3   OH210585   8.231   2.881   6.328
 3543TIP3    H110586   8.229   2.841   6.415
 3543TIP3    H210587   8.201   2.970   6.342
 3544TIP3   OH210588   1.580   6.153   2.642
 3544TIP3    H110589   1.662   6.195   2.616
 3544TIP3    H210590   1.530   6.222   2.686
 3545TIP3   OH210591   7.856   2.695   2.544
 3545TIP3    H110592   7.938   2.731   2.577
 3545TIP3    H210593   7.826   2.760   2.479
 3546TIP3   OH210594   5.560   1.582   2.429
 3546TIP3    H110595   5.617   1.542   2.494
 3546TIP3    H210596   5.540   1.669   2.466
 3547TIP3   OH210597   0.303   6.490   1.908
 3547TIP3    H110598   0.227   6.436   1.929
 3547TIP3    H210599   0.326   6.467   1.818
 3548TIP3   OH210600   4.145   4.373   3.642
 3548TIP3    H110601   4.164   4.280   3.634
 3548TIP3    H210602   4.132   4.402   3.551
 3549TIP3   OH210603   7.698   1.278   0.903
 3549TIP3    H110604   7.682   1.218   0.976
 3549TIP3    H210605   7.768   1.335   0.934
 3550TIP3   OH210606   4.695   5.937   3.539
 3550TIP3    H110607   4.787   5.937   3.510
 3550TIP3    H210608   4.686   5.855   3.588
 3551TIP3   OH210609   2.794   6.427   3.791
 3551TIP3    H110610   2.786   6.359   3.857
 3551TIP3    H210611   2.786   6.509   3.839
 3552TIP3   OH210612   5.813   7.627   0.885
 3552TIP3    H110613   5.790   7.587   0.801
 3552TIP3    H210614   5.882   7.571   0.920
 3553TIP3   OH210615   2.271   3.970   2.132
 3553TIP3    H110616   2.361   4.002   2.146
 3553TIP3    H210617   2.268   3.887   2.179
 3554TIP3   OH210618   4.757   3.523   5.278
 3554TIP3    H110619   4.692   3.554   5.342
 3554TIP3    H210620   4.835   3.576   5.296
 3555TIP3   OH210621   0.527   3.911   2.745
 3555TIP3    H110622   0.619   3.900   2.771
 3555TIP3    H210623   0.498   3.988   2.793
 3556TIP3   OH210624   5.421   6.328   3.253
 3556TIP3    H110625   5.444   6.307   3.344
 3556TIP3    H210626   5.341   6.279   3.237
 3557TIP3   OH210627   0.723   3.638   0.211
 3557TIP3    H110628   0.756   3.680   0.291
 3557TIP3    H210629   0.654   3.579   0.242
 3558TIP3   OH210630   6.128   7.155   6.380
 3558TIP3    H110631   6.059   7.123   6.321
 3558TIP3    H210632   6.104   7.246   6.397
 3559TIP3   OH210633   7.529   6.309   5.749
 3559TIP3    H110634   7.479   6.360   5.813
 3559TIP3    H210635   7.596   6.370   5.717
 3560TIP3   OH210636   3.169   2.253   0.083
 3560TIP3    H110637   3.139   2.208   0.162
 3560TIP3    H210638   3.208   2.184   0.029
 3561TIP3   OH210639   4.436   0.909   0.138
 3561TIP3    H110640   4.488   0.960   0.078
 3561TIP3    H210641   4.345   0.935   0.120
 3562TIP3   OH210642   6.936   3.986   3.446
 3562TIP3    H110643   6.983   4.019   3.522
 3562TIP3    H210644   6.931   3.891   3.460
 3563TIP3   OH210645   2.896   0.144   1.830
 3563TIP3    H110646   2.984   0.163   1.798
 3563TIP3    H210647   2.881   0.053   1.804
 3564TIP3   OH210648   3.922   4.126   6.690
 3564TIP3    H110649   3.890   4.215   6.676
 3564TIP3    H210650   3.939   4.121   6.784
 3565TIP3   OH210651   2.399   2.377   2.673
 3565TIP3    H110652   2.384   2.350   2.583
 3565TIP3    H210653   2.406   2.473   2.668
 3566TIP3   OH210654   1.087   4.159   0.424
 3566TIP3    H110655   1.007   4.193   0.464
 3566TIP3    H210656   1.145   4.140   0.498
 3567TIP3   OH210657   4.930   0.119   6.469
 3567TIP3    H110658   4.874   0.171   6.411
 3567TIP3    H210659   4.936   0.033   6.426
 3568TIP3   OH210660   3.463   0.834   6.421
 3568TIP3    H110661   3.499   0.923   6.424
 3568TIP3    H210662   3.528   0.781   6.467
 3569TIP3   OH210663   2.584   5.550   1.996
 3569TIP3    H110664   2.575   5.629   1.942
 3569TIP3    H210665   2.617   5.582   2.080
 3570TIP3   OH210666   4.279   2.738   3.079
 3570TIP3    H110667   4.298   2.651   3.042
 3570TIP3    H210668   4.232   2.784   3.010
 3571TIP3   OH210669   2.161   2.407   0.926
 3571TIP3    H110670   2.200   2.383   0.842
 3571TIP3    H210671   2.173   2.502   0.933
 3572TIP3   OH210672   0.763   1.293   1.524
 3572TIP3    H110673   0.690   1.319   1.468
 3572TIP3    H210674   0.820   1.242   1.467
 3573TIP3   OH210675   2.312   5.373   2.224
 3573TIP3    H110676   2.321   5.461   2.259
 3573TIP3    H210677   2.242   5.380   2.159
 3574TIP3   OH210678   0.290   1.025   0.448
 3574TIP3    H110679   0.200   1.032   0.480
 3574TIP3    H210680   0.320   0.939   0.479
 3575TIP3   OH210681   6.006   5.764   2.955
 3575TIP3    H110682   5.920   5.746   2.918
 3575TIP3    H210683   5.996   5.846   3.004
 3576TIP3   OH210684   3.617   2.217   3.935
 3576TIP3    H110685   3.640   2.261   3.853
 3576TIP3    H210686   3.663   2.133   3.931
 3577TIP3   OH210687   2.676   3.791   2.221
 3577TIP3    H110688   2.638   3.740   2.293
 3577TIP3    H210689   2.759   3.822   2.255
 3578TIP3   OH210690   1.944   3.636   2.679
 3578TIP3    H110691   2.009   3.570   2.701
 3578TIP3    H210692   1.860   3.593   2.692
 3579TIP3   OH210693   5.161   4.581   2.646
 3579TIP3    H110694   5.171   4.646   2.576
 3579TIP3    H210695   5.090   4.525   2.615
 3580TIP3   OH210696   3.400   0.644   1.247
 3580TIP3    H110697   3.396   0.734   1.279
 3580TIP3    H210698   3.374   0.650   1.155
 3581TIP3   OH210699   5.581   5.060   6.460
 3581TIP3    H110700   5.639   5.017   6.397
 3581TIP3    H210701   5.631   5.135   6.491
 3582TIP3   OH210702   5.949   1.988   6.185
 3582TIP3    H110703   5.955   1.893   6.169
 3582TIP3    H210704   5.981   1.998   6.275
 3583TIP3   OH210705   6.600   7.117   1.142
 3583TIP3    H110706   6.643   7.056   1.201
 3583TIP3    H210707   6.601   7.073   1.057
 3584TIP3   OH210708   0.746   7.847   4.435
 3584TIP3    H110709   0.668   7.799   4.466
 3584TIP3    H210710   0.820   7.794   4.465
 3585TIP3   OH210711   0.545   7.719   3.192
 3585TIP3    H110712   0.460   7.687   3.223
 3585TIP3    H210713   0.604   7.702   3.265
 3586TIP3   OH210714   0.659   3.565   6.292
 3586TIP3    H110715   0.633   3.482   6.332
 3586TIP3    H210716   0.736   3.544   6.240
 3587TIP3   OH210717   5.433   5.182   3.239
 3587TIP3    H110718   5.456   5.234   3.315
 3587TIP3    H210719   5.505   5.197   3.177
 3588TIP3   OH210720   7.469   1.732   3.318
 3588TIP3    H110721   7.497   1.818   3.352
 3588TIP3    H210722   7.550   1.687   3.297
 3589TIP3   OH210723   8.175   2.474   1.813
 3589TIP3    H110724   8.155   2.460   1.721
 3589TIP3    H210725   8.095   2.449   1.860
 3590TIP3   OH210726   7.036   1.527   3.181
 3590TIP3    H110727   6.945   1.525   3.152
 3590TIP3    H210728   7.040   1.601   3.242
 3591TIP3   OH210729   6.804   6.805   5.601
 3591TIP3    H110730   6.879   6.811   5.661
 3591TIP3    H210731   6.809   6.885   5.549
 3592TIP3   OH210732   1.580   0.396   6.161
 3592TIP3    H110733   1.529   0.427   6.087
 3592TIP3    H210734   1.592   0.473   6.216
 3593TIP3   OH210735   1.195   5.442   5.063
 3593TIP3    H110736   1.144   5.496   5.123
 3593TIP3    H210737   1.277   5.490   5.052
 3594TIP3   OH210738   4.390   6.283   1.459
 3594TIP3    H110739   4.467   6.272   1.403
 3594TIP3    H210740   4.415   6.242   1.542
 3595TIP3   OH210741   4.584   6.285   5.693
 3595TIP3    H110742   4.609   6.287   5.600
 3595TIP3    H210743   4.662   6.318   5.739
 3596TIP3   OH210744   6.867   4.460   4.692
 3596TIP3    H110745   6.792   4.502   4.734
 3596TIP3    H210746   6.918   4.424   4.764
 3597TIP3   OH210747   7.263   1.841   3.951
 3597TIP3    H110748   7.317   1.816   4.026
 3597TIP3    H210749   7.325   1.853   3.879
 3598TIP3   OH210750   5.190   1.132   2.281
 3598TIP3    H110751   5.108   1.099   2.244
 3598TIP3    H210752   5.233   1.054   2.317
 3599TIP3   OH210753   5.513   0.058   4.535
 3599TIP3    H110754   5.427   0.091   4.560
 3599TIP3    H210755   5.558   0.134   4.499
 3600TIP3   OH210756   5.285   3.516   1.442
 3600TIP3    H110757   5.242   3.533   1.526
 3600TIP3    H210758   5.373   3.552   1.451
 3601TIP3   OH210759   1.400   3.734   6.500
 3601TIP3    H110760   1.453   3.675   6.554
 3601TIP3    H210761   1.464   3.784   6.449
 3602TIP3   OH210762   2.668   1.498   4.674
 3602TIP3    H110763   2.672   1.578   4.622
 3602TIP3    H210764   2.685   1.527   4.764
 3603TIP3   OH210765   0.139   0.356   4.702
 3603TIP3    H110766   0.112   0.303   4.777
 3603TIP3    H210767   0.170   0.438   4.741
 3604TIP3   OH210768   2.764   6.375   6.060
 3604TIP3    H110769   2.768   6.302   6.122
 3604TIP3    H210770   2.674   6.405   6.063
 3605TIP3   OH210771   0.508   0.391   6.377
 3605TIP3    H110772   0.414   0.411   6.382
 3605TIP3    H210773   0.533   0.371   6.467
 3606TIP3   OH210774   0.221   2.079   1.619
 3606TIP3    H110775   0.148   2.061   1.678
 3606TIP3    H210776   0.212   2.172   1.597
 3607TIP3   OH210777   8.083   6.127   5.679
 3607TIP3    H110778   8.095   6.176   5.598
 3607TIP3    H210779   8.071   6.037   5.651
 3608TIP3   OH210780   0.347   6.128   4.070
 3608TIP3    H110781   0.433   6.158   4.040
 3608TIP3    H210782   0.358   6.116   4.164
 3609TIP3   OH210783   8.122   0.087   3.065
 3609TIP3    H110784   8.189   0.101   2.998
 3609TIP3    H210785   8.166   0.107   3.147
 3610TIP3   OH210786   1.622   4.774   0.722
 3610TIP3    H110787   1.658   4.707   0.780
 3610TIP3    H210788   1.528   4.754   0.718
 3611TIP3   OH210789   3.311   0.588   4.622
 3611TIP3    H110790   3.229   0.554   4.585
 3611TIP3    H210791   3.372   0.514   4.615
 3612TIP3   OH210792   6.385   1.591   1.198
 3612TIP3    H110793   6.435   1.531   1.142
 3612TIP3    H210794   6.297   1.553   1.201
 3613TIP3   OH210795   7.040   1.688   5.608
 3613TIP3    H110796   7.069   1.597   5.606
 3613TIP3    H210797   6.970   1.691   5.542
 3614TIP3   OH210798   7.799   0.426   4.284
 3614TIP3    H110799   7.747   0.475   4.221
 3614TIP3    H210800   7.765   0.337   4.280
 3615TIP3   OH210801   6.724   7.254   5.013
 3615TIP3    H110802   6.657   7.269   5.079
 3615TIP3    H210803   6.674   7.230   4.934
 3616TIP3   OH210804   1.409   4.305   2.512
 3616TIP3    H110805   1.347   4.352   2.456
 3616TIP3    H210806   1.462   4.374   2.552
 3617TIP3   OH210807   4.864   1.299   3.172
 3617TIP3    H110808   4.850   1.342   3.088
 3617TIP3    H210809   4.777   1.268   3.198
 3618TIP3   OH210810   1.860   4.530   4.583
 3618TIP3    H110811   1.782   4.476   4.572
 3618TIP3    H210812   1.869   4.576   4.500
 3619TIP3   OH210813   5.782   3.247   4.385
 3619TIP3    H110814   5.786   3.178   4.451
 3619TIP3    H210815   5.825   3.322   4.426
 3620TIP3   OH210816   1.288   2.866   2.961
 3620TIP3    H110817   1.291   2.936   3.026
 3620TIP3    H210818   1.314   2.787   3.008
 3621TIP3   OH210819   0.637   5.151   6.746
 3621TIP3    H110820   0.629   5.202   6.827
 3621TIP3    H210821   0.547   5.130   6.722
 3622TIP3   OH210822   2.456   6.739   6.305
 3622TIP3    H110823   2.500   6.654   6.299
 3622TIP3    H210824   2.450   6.757   6.399
 3623TIP3   OH210825   6.220   1.904   0.736
 3623TIP3    H110826   6.314   1.921   0.745
 3623TIP3    H210827   6.201   1.841   0.806
 3624TIP3   OH210828   3.678   6.357   2.185
 3624TIP3    H110829   3.733   6.358   2.107
 3624TIP3    H210830   3.602   6.304   2.160
 3625TIP3   OH210831   2.164   4.392   5.225
 3625TIP3    H110832   2.255   4.367   5.212
 3625TIP3    H210833   2.155   4.405   5.319
 3626TIP3   OH210834   0.297   1.489   3.018
 3626TIP3    H110835   0.273   1.557   2.955
 3626TIP3    H210836   0.376   1.521   3.060
 3627TIP3   OH210837   7.834   1.340   5.695
 3627TIP3    H110838   7.799   1.368   5.779
 3627TIP3    H210839   7.766   1.363   5.632
 3628TIP3   OH210840   1.732   2.391   4.887
 3628TIP3    H110841   1.747   2.316   4.945
 3628TIP3    H210842   1.787   2.373   4.811
 3629TIP3   OH210843   6.403   5.069   1.793
 3629TIP3    H110844   6.370   5.157   1.778
 3629TIP3    H210845   6.328   5.020   1.826
 3630TIP3   OH210846   4.761   0.335   2.422
 3630TIP3    H110847   4.856   0.347   2.432
 3630TIP3    H210848   4.747   0.332   2.327
 3631TIP3   OH210849   1.119   2.338   2.104
 3631TIP3    H110850   1.157   2.417   2.067
 3631TIP3    H210851   1.155   2.332   2.193
 3632TIP3   OH210852   1.994   1.115   6.484
 3632TIP3    H110853   2.012   1.043   6.545
 3632TIP3    H210854   1.944   1.074   6.413
 3633TIP3   OH210855   2.299   2.972   2.975
 3633TIP3    H110856   2.289   2.979   3.070
 3633TIP3    H210857   2.274   2.882   2.955
 3634TIP3   OH210858   1.535   0.848   6.300
 3634TIP3    H110859   1.457   0.893   6.333
 3634TIP3    H210860   1.568   0.906   6.231
 3635TIP3   OH210861   0.636   2.293   6.145
 3635TIP3    H110862   0.557   2.334   6.180
 3635TIP3    H210863   0.683   2.261   6.222
 3636TIP3   OH210864   7.845   7.053   3.127
 3636TIP3    H110865   7.758   7.015   3.135
 3636TIP3    H210866   7.869   7.038   3.035
 3637TIP3   OH210867   7.932   0.245   3.718
 3637TIP3    H110868   7.906   0.292   3.639
 3637TIP3    H210869   7.866   0.270   3.783
 3638TIP3   OH210870   2.091   4.509   3.631
 3638TIP3    H110871   2.146   4.435   3.657
 3638TIP3    H210872   2.011   4.468   3.597
 3639TIP3   OH210873   1.539   2.487   2.442
 3639TIP3    H110874   1.540   2.437   2.360
 3639TIP3    H210875   1.600   2.440   2.499
 3640TIP3   OH210876   5.519   7.517   2.986
 3640TIP3    H110877   5.468   7.535   3.065
 3640TIP3    H210878   5.522   7.422   2.981
 3641TIP3   OH210879   8.238   7.107   5.941
 3641TIP3    H110880   8.252   7.199   5.963
 3641TIP3    H210881   8.182   7.109   5.863
 3642TIP3   OH210882   7.354   1.709   6.180
 3642TIP3    H110883   7.381   1.617   6.178
 3642TIP3    H210884   7.330   1.725   6.272
 3643TIP3   OH210885   6.763   4.922   2.302
 3643TIP3    H110886   6.837   4.927   2.241
 3643TIP3    H210887   6.703   4.859   2.262
 3644TIP3   OH210888   2.626   0.322   1.272
 3644TIP3    H110889   2.696   0.260   1.250
 3644TIP3    H210890   2.669   0.408   1.271
 3645TIP3   OH210891   4.312   4.688   5.447
 3645TIP3    H110892   4.320   4.776   5.410
 3645TIP3    H210893   4.318   4.701   5.541
 3646TIP3   OH210894   2.296   5.630   6.521
 3646TIP3    H110895   2.319   5.608   6.431
 3646TIP3    H210896   2.330   5.557   6.573
 3647TIP3   OH210897   7.611   7.616   2.605
 3647TIP3    H110898   7.612   7.710   2.626
 3647TIP3    H210899   7.597   7.612   2.511
 3648TIP3   OH210900   4.940   6.246   2.857
 3648TIP3    H110901   4.984   6.322   2.819
 3648TIP3    H210902   4.872   6.283   2.913
 3649TIP3   OH210903   6.171   3.489   3.880
 3649TIP3    H110904   6.212   3.507   3.964
 3649TIP3    H210905   6.210   3.552   3.820
 3650TIP3   OH210906   0.967   3.725   5.582
 3650TIP3    H110907   1.040   3.713   5.643
 3650TIP3    H210908   1.003   3.705   5.496
 3651TIP3   OH210909   7.737   6.485   6.367
 3651TIP3    H110910   7.759   6.541   6.441
 3651TIP3    H210911   7.801   6.507   6.300
 3652TIP3   OH210912   1.106   3.205   4.206
 3652TIP3    H110913   1.097   3.270   4.136
 3652TIP3    H210914   1.123   3.123   4.160
 3653TIP3   OH210915   0.091   4.378   0.329
 3653TIP3    H110916   0.121   4.457   0.374
 3653TIP3    H210917   0.006   4.358   0.370
 3654TIP3   OH210918   2.898   1.656   0.047
 3654TIP3    H110919   2.806   1.658   0.072
 3654TIP3    H210920   2.927   1.747   0.056
 3655TIP3   OH210921   1.369   6.039   2.789
 3655TIP3    H110922   1.447   6.063   2.738
 3655TIP3    H210923   1.314   5.991   2.727
 3656TIP3   OH210924   4.521   5.758   6.676
 3656TIP3    H110925   4.482   5.845   6.687
 3656TIP3    H210926   4.615   5.774   6.670
 3657TIP3   OH210927   3.790   7.785   3.803
 3657TIP3    H110928   3.852   7.779   3.731
 3657TIP3    H210929   3.801   7.705   3.852
 3658TIP3   OH210930   6.132   2.702   1.342
 3658TIP3    H110931   6.188   2.662   1.409
 3658TIP3    H210932   6.178   2.687   1.260
 3659TIP3   OH210933   3.445   1.488   3.936
 3659TIP3    H110934   3.504   1.534   3.995
 3659TIP3    H210935   3.482   1.400   3.928
 3660TIP3   OH210936   2.973   4.909   0.215
 3660TIP3    H110937   2.981   4.914   0.120
 3660TIP3    H210938   2.881   4.889   0.230
 3661TIP3   OH210939   2.747   7.381   4.436
 3661TIP3    H110940   2.823   7.392   4.378
 3661TIP3    H210941   2.758   7.450   4.502
 3662TIP3   OH210942   1.979   6.723   1.578
 3662TIP3    H110943   1.949   6.663   1.510
 3662TIP3    H210944   2.050   6.676   1.622
 3663TIP3   OH210945   2.580   4.299   6.230
 3663TIP3    H110946   2.581   4.363   6.159
 3663TIP3    H210947   2.629   4.341   6.301
 3664TIP3   OH210948   3.854   6.026   6.497
 3664TIP3    H110949   3.854   6.037   6.402
 3664TIP3    H210950   3.945   6.035   6.522
 3665TIP3   OH210951   7.114   1.401   5.122
 3665TIP3    H110952   7.069   1.426   5.203
 3665TIP3    H210953   7.191   1.353   5.151
 3666TIP3   OH210954   1.476   5.532   1.341
 3666TIP3    H110955   1.391   5.497   1.368
 3666TIP3    H210956   1.520   5.459   1.298
 3667TIP3   OH210957   5.242   4.765   4.472
 3667TIP3    H110958   5.199   4.696   4.421
 3667TIP3    H210959   5.335   4.754   4.454
 3668TIP3   OH210960   6.992   0.537   4.199
 3668TIP3    H110961   7.082   0.526   4.169
 3668TIP3    H210962   6.943   0.470   4.152
 3669TIP3   OH210963   6.322   5.342   3.895
 3669TIP3    H110964   6.273   5.337   3.813
 3669TIP3    H210965   6.396   5.400   3.876
 3670TIP3   OH210966   6.722   0.798   0.393
 3670TIP3    H110967   6.750   0.834   0.477
 3670TIP3    H210968   6.783   0.726   0.376
 3671TIP3   OH210969   1.168   6.847   6.354
 3671TIP3    H110970   1.088   6.880   6.313
 3671TIP3    H210971   1.237   6.905   6.322
 3672TIP3   OH210972   3.619   2.120   4.424
 3672TIP3    H110973   3.572   2.085   4.348
 3672TIP3    H210974   3.695   2.164   4.387
 3673TIP3   OH210975   5.804   3.916   1.171
 3673TIP3    H110976   5.785   3.915   1.077
 3673TIP3    H210977   5.852   3.998   1.185
 3674TIP3   OH210978   0.124   1.917   6.663
 3674TIP3    H110979   0.039   1.938   6.624
 3674TIP3    H210980   0.125   1.967   6.745
 3675TIP3   OH210981   3.189   1.355   1.446
 3675TIP3    H110982   3.191   1.272   1.398
 3675TIP3    H210983   3.277   1.390   1.437
 3676TIP3   OH210984   6.352   1.820   0.132
 3676TIP3    H110985   6.275   1.773   0.163
 3676TIP3    H210986   6.408   1.753   0.093
 3677TIP3   OH210987   5.364   2.981   0.283
 3677TIP3    H110988   5.337   2.889   0.283
 3677TIP3    H210989   5.294   3.027   0.237
 3678TIP3   OH210990   3.359   7.238   1.334
 3678TIP3    H110991   3.325   7.295   1.403
 3678TIP3    H210992   3.318   7.154   1.349
 3679TIP3   OH210993   6.840   2.597   4.169
 3679TIP3    H110994   6.850   2.616   4.262
 3679TIP3    H210995   6.928   2.572   4.140
 3680TIP3   OH210996   6.809   2.772   2.632
 3680TIP3    H110997   6.848   2.772   2.545
 3680TIP3    H210998   6.805   2.679   2.657
 3681TIP3   OH210999   7.394   3.114   5.090
 3681TIP3    H111000   7.389   3.197   5.137
 3681TIP3    H211001   7.402   3.048   5.159
 3682TIP3   OH211002   4.688   6.592   2.450
 3682TIP3    H111003   4.642   6.537   2.387
 3682TIP3    H211004   4.674   6.549   2.534
 3683TIP3   OH211005   0.132   5.011   1.219
 3683TIP3    H111006   0.155   4.919   1.231
 3683TIP3    H211007   0.041   5.017   1.246
 3684TIP3   OH211008   2.664   6.525   2.496
 3684TIP3    H111009   2.734   6.513   2.561
 3684TIP3    H211010   2.710   6.524   2.412
 3685TIP3   OH211011   8.280   7.206   4.962
 3685TIP3    H111012   8.280   7.298   4.938
 3685TIP3    H211013   8.188   7.179   4.956
 3686TIP3   OH211014   2.538   4.847   3.710
 3686TIP3    H111015   2.559   4.903   3.785
 3686TIP3    H211016   2.478   4.900   3.657
 3687TIP3   OH211017   2.577   3.715   5.206
 3687TIP3    H111018   2.483   3.717   5.185
 3687TIP3    H211019   2.581   3.689   5.298
 3688TIP3   OH211020   1.442   0.640   5.578
 3688TIP3    H111021   1.475   0.582   5.510
 3688TIP3    H211022   1.403   0.714   5.531
 3689TIP3   OH211023   8.188   7.147   5.668
 3689TIP3    H111024   8.168   7.160   5.575
 3689TIP3    H211025   8.271   7.100   5.669
 3690TIP3   OH211026   5.082   5.012   1.716
 3690TIP3    H111027   5.119   5.004   1.628
 3690TIP3    H211028   5.003   4.958   1.713
 3691TIP3   OH211029   6.441   4.680   1.021
 3691TIP3    H111030   6.416   4.767   1.051
 3691TIP3    H211031   6.506   4.697   0.952
 3692TIP3   OH211032   4.225   1.191   0.223
 3692TIP3    H111033   4.179   1.244   0.157
 3692TIP3    H211034   4.317   1.214   0.211
 3693TIP3   OH211035   3.291   4.114   4.074
 3693TIP3    H111036   3.221   4.179   4.070
 3693TIP3    H211037   3.365   4.162   4.112
 3694TIP3   OH211038   0.609   1.830   2.933
 3694TIP3    H111039   0.560   1.835   3.015
 3694TIP3    H211040   0.630   1.921   2.912
 3695TIP3   OH211041   1.001   3.426   1.106
 3695TIP3    H111042   0.981   3.459   1.194
 3695TIP3    H211043   0.955   3.342   1.102
 3696TIP3   OH211044   7.273   6.727   0.864
 3696TIP3    H111045   7.219   6.657   0.900
 3696TIP3    H211046   7.283   6.705   0.771
 3697TIP3   OH211047   6.697   2.312   5.472
 3697TIP3    H111048   6.771   2.326   5.413
 3697TIP3    H211049   6.620   2.323   5.416
 3698TIP3   OH211050   5.453   4.402   0.064
 3698TIP3    H111051   5.512   4.391  -0.011
 3698TIP3    H211052   5.448   4.497   0.078
 3699TIP3   OH211053   7.800   4.090   3.954
 3699TIP3    H111054   7.862   4.125   4.018
 3699TIP3    H211055   7.795   4.157   3.886
 3700TIP3   OH211056   1.299   6.955   2.980
 3700TIP3    H111057   1.208   6.978   2.959
 3700TIP3    H211058   1.326   6.897   2.909
 3701TIP3   OH211059   0.620   2.187   4.301
 3701TIP3    H111060   0.639   2.095   4.282
 3701TIP3    H211061   0.611   2.229   4.216
 3702TIP3   OH211062   6.609   2.603   4.416
 3702TIP3    H111063   6.580   2.683   4.371
 3702TIP3    H211064   6.704   2.607   4.413
 3703TIP3   OH211065   6.138   0.497   2.010
 3703TIP3    H111066   6.093   0.440   1.947
 3703TIP3    H211067   6.119   0.458   2.095
 3704TIP3   OH211068   6.357   4.679   6.285
 3704TIP3    H111069   6.387   4.760   6.244
 3704TIP3    H211070   6.411   4.669   6.362
 3705TIP3   OH211071   1.439   1.937   4.644
 3705TIP3    H111072   1.398   1.874   4.703
 3705TIP3    H211073   1.490   1.994   4.701
 3706TIP3   OH211074   2.792   6.619   0.548
 3706TIP3    H111075   2.822   6.676   0.477
 3706TIP3    H211076   2.872   6.581   0.583
 3707TIP3   OH211077   0.568   6.606   4.718
 3707TIP3    H111078   0.567   6.608   4.622
 3707TIP3    H211079   0.551   6.697   4.744
 3708TIP3   OH211080   0.410   1.047   4.182
 3708TIP3    H111081   0.367   1.099   4.250
 3708TIP3    H211082   0.339   1.020   4.124
 3709TIP3   OH211083   7.353   0.787   6.057
 3709TIP3    H111084   7.257   0.782   6.048
 3709TIP3    H211085   7.386   0.729   5.989
 3710TIP3   OH211086   4.503   7.324   0.685
 3710TIP3    H111087   4.426   7.294   0.637
 3710TIP3    H211088   4.493   7.286   0.772
 3711TIP3   OH211089   6.178   4.689   5.811
 3711TIP3    H111090   6.151   4.663   5.723
 3711TIP3    H211091   6.130   4.630   5.869
 3712TIP3   OH211092   2.832   6.556   2.869
 3712TIP3    H111093   2.881   6.610   2.931
 3712TIP3    H211094   2.879   6.565   2.787
 3713TIP3   OH211095   0.545   7.163   1.273
 3713TIP3    H111096   0.451   7.148   1.262
 3713TIP3    H211097   0.574   7.092   1.331
 3714TIP3   OH211098   3.107   5.905   0.939
 3714TIP3    H111099   3.131   5.893   1.031
 3714TIP3    H211100   3.025   5.954   0.942
 3715TIP3   OH211101   4.481   2.471   6.739
 3715TIP3    H111102   4.417   2.523   6.690
 3715TIP3    H211103   4.429   2.419   6.800
 3716TIP3   OH211104   7.994   0.966   4.927
 3716TIP3    H111105   7.933   0.946   4.856
 3716TIP3    H211106   8.074   0.993   4.882
 3717TIP3   OH211107   2.562   7.678   0.118
 3717TIP3    H111108   2.648   7.654   0.084
 3717TIP3    H211109   2.577   7.762   0.163
 3718TIP3   OH211110   7.070   0.088   2.382
 3718TIP3    H111111   7.082   0.173   2.425
 3718TIP3    H211112   7.102   0.024   2.446
 3719TIP3   OH211113   2.524   6.382   0.084
 3719TIP3    H111114   2.571   6.325   0.145
 3719TIP3    H211115   2.463   6.432   0.139
 3720TIP3   OH211116   0.801   5.499   0.791
 3720TIP3    H111117   0.719   5.537   0.823
 3720TIP3    H211118   0.861   5.504   0.865
 3721TIP3   OH211119   0.347   3.895   4.230
 3721TIP3    H111120   0.325   3.984   4.255
 3721TIP3    H211121   0.418   3.870   4.289
 3722TIP3   OH211122   3.144   3.980   5.990
 3722TIP3    H111123   3.160   3.908   6.050
 3722TIP3    H211124   3.189   4.055   6.030
 3723TIP3   OH211125   0.898   6.126   2.863
 3723TIP3    H111126   0.832   6.141   2.930
 3723TIP3    H211127   0.964   6.071   2.906
 3724TIP3   OH211128   1.466   4.765   1.115
 3724TIP3    H111129   1.401   4.696   1.125
 3724TIP3    H211130   1.466   4.811   1.200
 3725TIP3   OH211131   0.544   3.137   1.127
 3725TIP3    H111132   0.534   3.075   1.199
 3725TIP3    H211133   0.517   3.088   1.049
 3726TIP3   OH211134   6.618   6.144   6.060
 3726TIP3    H111135   6.570   6.061   6.049
 3726TIP3    H211136   6.700   6.119   6.101
 3727TIP3   OH211137   6.829   0.503   6.285
 3727TIP3    H111138   6.920   0.505   6.314
 3727TIP3    H211139   6.824   0.429   6.225
 3728TIP3   OH211140   1.460   2.780   3.587
 3728TIP3    H111141   1.513   2.794   3.666
 3728TIP3    H211142   1.453   2.867   3.547
 3729TIP3   OH211143   0.508   0.138   3.141
 3729TIP3    H111144   0.551   0.135   3.055
 3729TIP3    H211145   0.580   0.140   3.204
 3730TIP3   OH211146   2.718   1.209   2.586
 3730TIP3    H111147   2.647   1.243   2.639
 3730TIP3    H211148   2.686   1.125   2.552
 3731TIP3   OH211149   8.148   1.904   2.498
 3731TIP3    H111150   8.183   1.864   2.418
 3731TIP3    H211151   8.225   1.927   2.549
 3732TIP3   OH211152   2.525   4.205   4.949
 3732TIP3    H111153   2.507   4.111   4.952
 3732TIP3    H211154   2.516   4.234   5.039
 3733TIP3   OH211155   4.461   6.757   4.107
 3733TIP3    H111156   4.441   6.831   4.049
 3733TIP3    H211157   4.465   6.681   4.049
 3734TIP3   OH211158   8.191   0.194   3.302
 3734TIP3    H111159   8.255   0.231   3.362
 3734TIP3    H211160   8.119   0.258   3.302
 3735TIP3   OH211161   7.334   6.035   3.479
 3735TIP3    H111162   7.269   6.000   3.540
 3735TIP3    H211163   7.394   6.085   3.533
 3736TIP3   OH211164   0.037   3.908   6.431
 3736TIP3    H111165  -0.006   3.833   6.390
 3736TIP3    H211166   0.095   3.868   6.497
 3737TIP3   OH211167   1.613   5.455   5.693
 3737TIP3    H111168   1.548   5.513   5.733
 3737TIP3    H211169   1.586   5.367   5.718
 3738TIP3   OH211170   7.400   7.055   6.288
 3738TIP3    H111171   7.462   6.995   6.330
 3738TIP3    H211172   7.401   7.133   6.343
 3739TIP3   OH211173   0.569   7.090   3.152
 3739TIP3    H111174   0.591   7.167   3.204
 3739TIP3    H211175   0.551   7.022   3.216
 3740TIP3   OH211176   6.817   1.526   3.017
 3740TIP3    H111177   6.758   1.589   3.058
 3740TIP3    H211178   6.874   1.579   2.961
 3741TIP3   OH211179   3.297   3.058   5.918
 3741TIP3    H111180   3.370   3.001   5.894
 3741TIP3    H211181   3.219   3.004   5.905
 3742TIP3   OH211182   3.825   5.023   6.121
 3742TIP3    H111183   3.764   5.080   6.074
 3742TIP3    H211184   3.784   5.008   6.206
 3743TIP3   OH211185   0.741   7.505   1.170
 3743TIP3    H111186   0.737   7.596   1.139
 3743TIP3    H211187   0.657   7.467   1.144
 3744TIP3   OH211188   1.137   1.979   2.662
 3744TIP3    H111189   1.159   1.890   2.689
 3744TIP3    H211190   1.219   2.028   2.673
 3745TIP3   OH211191   3.634   5.946   2.221
 3745TIP3    H111192   3.563   5.914   2.277
 3745TIP3    H211193   3.595   5.952   2.134
 3746TIP3   OH211194   3.928   6.889   4.653
 3746TIP3    H111195   4.003   6.866   4.598
 3746TIP3    H211196   3.900   6.806   4.691
 3747TIP3   OH211197   3.821   3.859   5.798
 3747TIP3    H111198   3.792   3.878   5.887
 3747TIP3    H211199   3.764   3.912   5.742
 3748TIP3   OH211200   1.364   6.933   2.174
 3748TIP3    H111201   1.290   6.927   2.236
 3748TIP3    H211202   1.327   6.976   2.097
 3749TIP3   OH211203   0.522   3.548   0.892
 3749TIP3    H111204   0.477   3.537   0.809
 3749TIP3    H211205   0.476   3.491   0.953
 3750TIP3   OH211206   6.940   5.101   0.877
 3750TIP3    H111207   6.915   5.187   0.909
 3750TIP3    H211208   6.977   5.056   0.953
 3751TIP3   OH211209   0.553   2.215   3.485
 3751TIP3    H111210   0.464   2.226   3.517
 3751TIP3    H211211   0.606   2.202   3.563
 3752TIP3   OH211212   6.705   6.521   3.370
 3752TIP3    H111213   6.688   6.537   3.277
 3752TIP3    H211214   6.698   6.608   3.411
 3753TIP3   OH211215   2.632   2.661   6.618
 3753TIP3    H111216   2.592   2.704   6.542
 3753TIP3    H211217   2.604   2.712   6.693
 3754TIP3   OH211218   1.543   3.050   3.102
 3754TIP3    H111219   1.557   2.958   3.121
 3754TIP3    H211220   1.449   3.059   3.089
 3755TIP3   OH211221   7.599   0.987   2.246
 3755TIP3    H111222   7.657   1.020   2.315
 3755TIP3    H211223   7.515   1.027   2.264
 3756TIP3   OH211224   5.213   4.121   2.990
 3756TIP3    H111225   5.127   4.150   2.958
 3756TIP3    H211226   5.244   4.194   3.044
 3757TIP3   OH211227   6.829   6.048   1.524
 3757TIP3    H111228   6.807   5.999   1.445
 3757TIP3    H211229   6.915   6.015   1.550
 3758TIP3   OH211230   1.195   5.637   3.390
 3758TIP3    H111231   1.135   5.565   3.411
 3758TIP3    H211232   1.241   5.609   3.312
 3759TIP3   OH211233   7.606   7.014   6.790
 3759TIP3    H111234   7.524   7.017   6.740
 3759TIP3    H211235   7.675   7.026   6.725
 3760TIP3   OH211236   7.233   4.304   2.495
 3760TIP3    H111237   7.304   4.326   2.434
 3760TIP3    H211238   7.171   4.254   2.443
 3761TIP3   OH211239   3.047   2.771   3.461
 3761TIP3    H111240   2.951   2.763   3.463
 3761TIP3    H211241   3.073   2.765   3.553
 3762TIP3   OH211242   1.589   4.162   0.213
 3762TIP3    H111243   1.582   4.252   0.244
 3762TIP3    H211244   1.683   4.150   0.195
 3763TIP3   OH211245   7.118   2.693   5.878
 3763TIP3    H111246   7.056   2.621   5.884
 3763TIP3    H211247   7.183   2.674   5.947
 3764TIP3   OH211248   4.865   2.738   0.826
 3764TIP3    H111249   4.828   2.734   0.914
 3764TIP3    H211250   4.951   2.697   0.834
 3765TIP3   OH211251   3.837   7.198   2.593
 3765TIP3    H111252   3.857   7.254   2.668
 3765TIP3    H211253   3.749   7.224   2.567
 3766TIP3   OH211254   7.187   4.209   1.689
 3766TIP3    H111255   7.099   4.213   1.726
 3766TIP3    H211256   7.210   4.300   1.671
 3767TIP3   OH211257   6.067   0.311   2.246
 3767TIP3    H111258   6.120   0.355   2.312
 3767TIP3    H211259   5.977   0.319   2.278
 3768TIP3   OH211260   6.178   1.812   1.874
 3768TIP3    H111261   6.087   1.828   1.849
 3768TIP3    H211262   6.206   1.892   1.919
 3769TIP3   OH211263   7.355   2.369   4.873
 3769TIP3    H111264   7.275   2.344   4.920
 3769TIP3    H211265   7.364   2.304   4.804
 3770TIP3   OH211266   2.071   2.084   4.514
 3770TIP3    H111267   2.032   1.997   4.515
 3770TIP3    H211268   2.153   2.075   4.564
 3771TIP3   OH211269   5.327   1.970   3.711
 3771TIP3    H111270   5.383   2.034   3.756
 3771TIP3    H211271   5.262   1.945   3.777
 3772TIP3   OH211272   2.365   0.468   2.913
 3772TIP3    H111273   2.350   0.558   2.943
 3772TIP3    H211274   2.447   0.472   2.864
 3773TIP3   OH211275   1.013   6.316   5.584
 3773TIP3    H111276   1.057   6.271   5.656
 3773TIP3    H211277   1.003   6.249   5.516
 3774TIP3   OH211278   2.105   1.636   5.646
 3774TIP3    H111279   2.172   1.681   5.697
 3774TIP3    H211280   2.084   1.558   5.697
 3775TIP3   OH211281   1.508   5.225   2.603
 3775TIP3    H111282   1.506   5.258   2.693
 3775TIP3    H211283   1.593   5.182   2.595
 3776TIP3   OH211284   5.171   0.561   6.520
 3776TIP3    H111285   5.143   0.476   6.553
 3776TIP3    H211286   5.108   0.623   6.555
 3777TIP3   OH211287   0.152   4.789   2.583
 3777TIP3    H111288   0.246   4.804   2.572
 3777TIP3    H211289   0.111   4.870   2.555
 3778TIP3   OH211290   5.526   7.521   0.433
 3778TIP3    H111291   5.520   7.616   0.418
 3778TIP3    H211292   5.549   7.485   0.348
 3779TIP3   OH211293   3.545   7.037   2.463
 3779TIP3    H111294   3.473   7.066   2.407
 3779TIP3    H211295   3.511   7.045   2.552
 3780TIP3   OH211296   0.578   2.370   4.108
 3780TIP3    H111297   0.533   2.454   4.119
 3780TIP3    H211298   0.657   2.392   4.059
 3781TIP3   OH211299   1.749   2.284   3.528
 3781TIP3    H111300   1.719   2.308   3.615
 3781TIP3    H211301   1.670   2.257   3.482
 3782TIP3   OH211302   3.607   0.639   4.960
 3782TIP3    H111303   3.686   0.591   4.984
 3782TIP3    H211304   3.574   0.673   5.043
 3783TIP3   OH211305   2.271   1.758   5.812
 3783TIP3    H111306   2.273   1.842   5.857
 3783TIP3    H211307   2.363   1.733   5.802
 3784TIP3   OH211308   1.387   0.677   6.178
 3784TIP3    H111309   1.469   0.697   6.224
 3784TIP3    H211310   1.395   0.722   6.094
 3785TIP3   OH211311   5.557   0.911   1.189
 3785TIP3    H111312   5.550   0.829   1.238
 3785TIP3    H211313   5.515   0.892   1.105
 3786TIP3   OH211314   0.890   1.168   6.685
 3786TIP3    H111315   0.913   1.080   6.713
 3786TIP3    H211316   0.826   1.156   6.615
 3787TIP3   OH211317   3.658   7.610   0.571
 3787TIP3    H111318   3.753   7.615   0.569
 3787TIP3    H211319   3.638   7.516   0.566
 3788TIP3   OH211320   1.515   6.556   0.200
 3788TIP3    H111321   1.439   6.611   0.182
 3788TIP3    H211322   1.590   6.611   0.174
 3789TIP3   OH211323   2.423   4.791   1.402
 3789TIP3    H111324   2.507   4.826   1.375
 3789TIP3    H211325   2.363   4.815   1.331
 3790TIP3   OH211326   6.599   3.917   6.731
 3790TIP3    H111327   6.614   3.979   6.659
 3790TIP3    H211328   6.677   3.862   6.732
 3791TIP3   OH211329   6.887   1.585   0.206
 3791TIP3    H111330   6.946   1.563   0.135
 3791TIP3    H211331   6.934   1.559   0.285
 3792TIP3   OH211332   4.426   0.031   0.087
 3792TIP3    H111333   4.520   0.013   0.097
 3792TIP3    H211334   4.408   0.100   0.151
 3793TIP3   OH211335   0.584   6.258   4.041
 3793TIP3    H111336   0.675   6.235   4.060
 3793TIP3    H211337   0.553   6.301   4.120
 3794TIP3   OH211338   1.935   5.080   2.440
 3794TIP3    H111339   1.890   5.047   2.362
 3794TIP3    H211340   1.972   5.002   2.481
 3795TIP3   OH211341   2.288   6.431   1.202
 3795TIP3    H111342   2.223   6.463   1.139
 3795TIP3    H211343   2.306   6.506   1.259
 3796TIP3   OH211344   1.121   6.875   0.347
 3796TIP3    H111345   1.033   6.849   0.375
 3796TIP3    H211346   1.178   6.848   0.419
 3797TIP3   OH211347   8.037   4.436   3.339
 3797TIP3    H111348   8.074   4.415   3.425
 3797TIP3    H211349   8.018   4.351   3.300
 3798TIP3   OH211350   8.103   5.065   0.307
 3798TIP3    H111351   8.020   5.051   0.354
 3798TIP3    H211352   8.165   5.007   0.350
 3799TIP3   OH211353   5.636   4.104   0.343
 3799TIP3    H111354   5.589   4.020   0.344
 3799TIP3    H211355   5.579   4.164   0.391
 3800TIP3   OH211356   6.165   3.603   3.422
 3800TIP3    H111357   6.260   3.604   3.436
 3800TIP3    H211358   6.129   3.646   3.500
 3801TIP3   OH211359   3.110   7.621   6.339
 3801TIP3    H111360   3.116   7.655   6.428
 3801TIP3    H211361   3.191   7.571   6.326
 3802TIP3   OH211362   2.696   4.852   5.584
 3802TIP3    H111363   2.748   4.785   5.627
 3802TIP3    H211364   2.747   4.877   5.507
 3803TIP3   OH211365   3.522   3.808   3.899
 3803TIP3    H111366   3.534   3.715   3.880
 3803TIP3    H211367   3.597   3.830   3.954
 3804TIP3   OH211368   5.575   3.555   1.144
 3804TIP3    H111369   5.667   3.574   1.126
 3804TIP3    H211370   5.572   3.459   1.152
 3805TIP3   OH211371   6.555   5.451   1.770
 3805TIP3    H111372   6.468   5.423   1.799
 3805TIP3    H211373   6.600   5.370   1.747
 3806TIP3   OH211374   3.734   1.502   6.557
 3806TIP3    H111375   3.684   1.448   6.495
 3806TIP3    H211376   3.710   1.467   6.643
 3807TIP3   OH211377   2.420   1.758   4.287
 3807TIP3    H111378   2.361   1.688   4.312
 3807TIP3    H211379   2.445   1.737   4.197
 3808TIP3   OH211380   7.278   4.515   6.136
 3808TIP3    H111381   7.351   4.488   6.080
 3808TIP3    H211382   7.320   4.546   6.216
 3809TIP3   OH211383   6.184   5.358   6.169
 3809TIP3    H111384   6.160   5.302   6.096
 3809TIP3    H211385   6.157   5.310   6.247
 3810TIP3   OH211386   2.402   0.742   2.003
 3810TIP3    H111387   2.407   0.657   1.958
 3810TIP3    H211388   2.480   0.789   1.973
 3811TIP3   OH211389   8.117   6.350   0.002
 3811TIP3    H111390   8.084   6.265  -0.030
 3811TIP3    H211391   8.209   6.351  -0.024
 3812TIP3   OH211392   7.546   3.598   2.408
 3812TIP3    H111393   7.617   3.612   2.345
 3812TIP3    H211394   7.479   3.551   2.358
 3813TIP3   OH211395   7.107   0.215   4.027
 3813TIP3    H111396   7.047   0.140   4.027
 3813TIP3    H211397   7.194   0.176   4.015
 3814TIP3   OH211398   8.164   5.430   1.852
 3814TIP3    H111399   8.238   5.422   1.912
 3814TIP3    H211400   8.203   5.458   1.769
 3815TIP3   OH211401   1.026   6.825   4.370
 3815TIP3    H111402   1.070   6.848   4.288
 3815TIP3    H211403   0.942   6.788   4.343
 3816TIP3   OH211404   7.864   3.580   1.023
 3816TIP3    H111405   7.957   3.597   1.006
 3816TIP3    H211406   7.848   3.616   1.110
 3817TIP3   OH211407   3.407   1.307   0.307
 3817TIP3    H111408   3.318   1.308   0.272
 3817TIP3    H211409   3.461   1.347   0.238
 3818TIP3   OH211410   8.179   7.371   1.290
 3818TIP3    H111411   8.188   7.438   1.358
 3818TIP3    H211412   8.199   7.289   1.336
 3819TIP3   OH211413   3.511   2.292   4.614
 3819TIP3    H111414   3.529   2.219   4.555
 3819TIP3    H211415   3.559   2.366   4.576
 3820TIP3   OH211416   4.317   0.494   2.572
 3820TIP3    H111417   4.342   0.558   2.639
 3820TIP3    H211418   4.269   0.426   2.619
 3821TIP3   OH211419   1.062   6.634   2.969
 3821TIP3    H111420   1.086   6.573   2.899
 3821TIP3    H211421   1.033   6.713   2.924
 3822TIP3   OH211422   5.036   7.035   3.233
 3822TIP3    H111423   5.102   7.104   3.224
 3822TIP3    H211424   5.086   6.953   3.233
 3823TIP3   OH211425   7.940   6.095   6.298
 3823TIP3    H111426   7.874   6.027   6.284
 3823TIP3    H211427   7.948   6.102   6.393
 3824TIP3   OH211428   6.002   1.352   4.249
 3824TIP3    H111429   6.061   1.423   4.227
 3824TIP3    H211430   6.058   1.276   4.262
 3825TIP3   OH211431   0.947   2.451   2.943
 3825TIP3    H111432   0.876   2.403   2.985
 3825TIP3    H211433   0.904   2.519   2.891
 3826TIP3   OH211434   1.695   2.918   4.267
 3826TIP3    H111435   1.763   2.919   4.199
 3826TIP3    H211436   1.633   2.986   4.240
 3827TIP3   OH211437   3.222   6.786   3.801
 3827TIP3    H111438   3.215   6.819   3.890
 3827TIP3    H211439   3.208   6.692   3.809
 3828TIP3   OH211440   2.269   1.654   0.507
 3828TIP3    H111441   2.328   1.652   0.431
 3828TIP3    H211442   2.288   1.737   0.550
 3829TIP3   OH211443   6.217   2.762   3.598
 3829TIP3    H111444   6.286   2.826   3.614
 3829TIP3    H211445   6.183   2.741   3.685
 3830TIP3   OH211446   1.756   6.574   3.991
 3830TIP3    H111447   1.806   6.654   4.003
 3830TIP3    H211448   1.690   6.577   4.060
 3831TIP3   OH211449   8.199   2.715   3.865
 3831TIP3    H111450   8.224   2.637   3.914
 3831TIP3    H211451   8.105   2.707   3.854
 3832TIP3   OH211452   3.162   7.042   1.369
 3832TIP3    H111453   3.123   6.955   1.355
 3832TIP3    H211454   3.105   7.083   1.434
 3833TIP3   OH211455   6.925   4.203   1.870
 3833TIP3    H111456   6.861   4.246   1.927
 3833TIP3    H211457   6.879   4.126   1.836
 3834TIP3   OH211458   4.540   2.557   6.217
 3834TIP3    H111459   4.501   2.479   6.176
 3834TIP3    H211460   4.464   2.610   6.242
 3835TIP3   OH211461   5.147   0.869   2.886
 3835TIP3    H111462   5.232   0.910   2.869
 3835TIP3    H211463   5.150   0.787   2.837
 3836TIP3   OH211464   7.764   6.657   3.483
 3836TIP3    H111465   7.781   6.623   3.396
 3836TIP3    H211466   7.841   6.710   3.504
 3837TIP3   OH211467   1.345   7.342   5.359
 3837TIP3    H111468   1.287   7.331   5.284
 3837TIP3    H211469   1.399   7.263   5.359
 3838TIP3   OH211470   8.024   6.747   4.016
 3838TIP3    H111471   8.040   6.673   3.956
 3838TIP3    H211472   7.945   6.788   3.982
 3839TIP3   OH211473   4.801   3.968   0.605
 3839TIP3    H111474   4.731   3.920   0.562
 3839TIP3    H211475   4.881   3.925   0.577
 3840TIP3   OH211476   0.641   6.762   2.227
 3840TIP3    H111477   0.600   6.846   2.208
 3840TIP3    H211478   0.722   6.785   2.273
 3841TIP3   OH211479   7.842   6.231   4.852
 3841TIP3    H111480   7.864   6.173   4.779
 3841TIP3    H211481   7.768   6.187   4.895
 3842TIP3   OH211482   2.250   6.370   4.886
 3842TIP3    H111483   2.293   6.289   4.855
 3842TIP3    H211484   2.293   6.389   4.969
 3843TIP3   OH211485   3.334   6.524   3.702
 3843TIP3    H111486   3.379   6.538   3.785
 3843TIP3    H211487   3.353   6.432   3.680
 3844TIP3   OH211488   3.713   0.410   1.977
 3844TIP3    H111489   3.802   0.420   2.011
 3844TIP3    H211490   3.671   0.494   1.996
 3845TIP3   OH211491   4.811   4.561   0.252
 3845TIP3    H111492   4.771   4.474   0.253
 3845TIP3    H211493   4.905   4.544   0.264
 3846TIP3   OH211494   0.462   7.054   0.379
 3846TIP3    H111495   0.481   7.001   0.301
 3846TIP3    H211496   0.527   7.125   0.376
 3847TIP3   OH211497   7.551   7.273   5.801
 3847TIP3    H111498   7.484   7.312   5.745
 3847TIP3    H211499   7.503   7.240   5.877
 3848TIP3   OH211500   1.077   2.987   3.335
 3848TIP3    H111501   1.105   2.968   3.425
 3848TIP3    H211502   1.045   3.077   3.339
 3849TIP3   OH211503   6.574   3.588   0.276
 3849TIP3    H111504   6.504   3.648   0.302
 3849TIP3    H211505   6.553   3.506   0.319
 3850TIP3   OH211506   4.223   7.521   4.850
 3850TIP3    H111507   4.187   7.491   4.933
 3850TIP3    H211508   4.153   7.505   4.786
 3851TIP3   OH211509   6.437   4.484   5.824
 3851TIP3    H111510   6.466   4.573   5.844
 3851TIP3    H211511   6.348   4.493   5.792
 3852TIP3   OH211512   5.762   7.645   2.935
 3852TIP3    H111513   5.674   7.613   2.954
 3852TIP3    H211514   5.802   7.576   2.883
 3853TIP3   OH211515   0.295   5.259   5.805
 3853TIP3    H111516   0.331   5.200   5.739
 3853TIP3    H211517   0.325   5.224   5.889
 3854TIP3   OH211518   7.498   0.483   0.851
 3854TIP3    H111519   7.421   0.519   0.894
 3854TIP3    H211520   7.475   0.481   0.758
 3855TIP3   OH211521   2.247   3.489   5.868
 3855TIP3    H111522   2.306   3.418   5.893
 3855TIP3    H211523   2.160   3.449   5.866
 3856TIP3   OH211524   6.332   3.841   1.892
 3856TIP3    H111525   6.371   3.893   1.961
 3856TIP3    H211526   6.238   3.841   1.910
 3857TIP3   OH211527   5.394   5.931   3.153
 3857TIP3    H111528   5.339   5.984   3.095
 3857TIP3    H211529   5.332   5.876   3.201
 3858TIP3   OH211530   2.851   4.759   2.009
 3858TIP3    H111531   2.777   4.810   1.976
 3858TIP3    H211532   2.842   4.764   2.105
 3859TIP3   OH211533   4.258   5.259   1.704
 3859TIP3    H111534   4.213   5.175   1.715
 3859TIP3    H211535   4.330   5.239   1.643
 3860TIP3   OH211536   7.696   3.480   6.032
 3860TIP3    H111537   7.660   3.562   6.067
 3860TIP3    H211538   7.756   3.508   5.963
 3861TIP3   OH211539   1.779   7.291   0.558
 3861TIP3    H111540   1.788   7.279   0.463
 3861TIP3    H211541   1.862   7.331   0.585
 3862TIP3   OH211542   6.548   6.472   1.407
 3862TIP3    H111543   6.476   6.420   1.370
 3862TIP3    H211544   6.623   6.451   1.351
 3863TIP3   OH211545   8.103   2.330   2.413
 3863TIP3    H111546   8.074   2.399   2.352
 3863TIP3    H211547   8.194   2.352   2.433
 3864TIP3   OH211548   3.456   4.878   3.947
 3864TIP3    H111549   3.496   4.797   3.915
 3864TIP3    H211550   3.366   4.875   3.914
 3865TIP3   OH211551   4.296   4.461   0.247
 3865TIP3    H111552   4.236   4.391   0.223
 3865TIP3    H211553   4.363   4.461   0.178
 3866TIP3   OH211554   1.680   1.958   5.282
 3866TIP3    H111555   1.678   2.047   5.245
 3866TIP3    H211556   1.591   1.926   5.274
 3867TIP3   OH211557   3.166   7.557   2.292
 3867TIP3    H111558   3.250   7.591   2.261
 3867TIP3    H211559   3.123   7.524   2.213
 3868TIP3   OH211560   7.770   4.785   2.165
 3868TIP3    H111561   7.704   4.809   2.231
 3868TIP3    H211562   7.755   4.847   2.093
 3869TIP3   OH211563   7.378   4.945   0.064
 3869TIP3    H111564   7.433   4.876   0.103
 3869TIP3    H211565   7.357   5.003   0.137
 3870TIP3   OH211566   7.645   3.549   0.687
 3870TIP3    H111567   7.622   3.640   0.666
 3870TIP3    H211568   7.724   3.532   0.635
 3871TIP3   OH211569   1.753   3.438   3.404
 3871TIP3    H111570   1.798   3.436   3.489
 3871TIP3    H211571   1.722   3.528   3.396
 3872TIP3   OH211572   3.933   1.313   3.728
 3872TIP3    H111573   3.901   1.229   3.696
 3872TIP3    H211574   3.870   1.338   3.795
 3873TIP3   OH211575   0.319   1.610   6.039
 3873TIP3    H111576   0.273   1.680   6.086
 3873TIP3    H211577   0.381   1.657   5.983
 3874TIP3   OH211578   3.708   3.760   0.918
 3874TIP3    H111579   3.622   3.719   0.918
 3874TIP3    H211580   3.704   3.825   0.988
 3875TIP3   OH211581   7.604   5.874   5.651
 3875TIP3    H111582   7.584   5.801   5.593
 3875TIP3    H211583   7.677   5.843   5.704
 3876TIP3   OH211584   7.691   2.915   1.402
 3876TIP3    H111585   7.636   2.911   1.324
 3876TIP3    H211586   7.724   3.005   1.402
 3877TIP3   OH211587   3.774   2.868   2.564
 3877TIP3    H111588   3.708   2.928   2.598
 3877TIP3    H211589   3.826   2.843   2.641
 3878TIP3   OH211590   2.698   0.636   2.454
 3878TIP3    H111591   2.668   0.546   2.460
 3878TIP3    H211592   2.790   0.629   2.428
 3879TIP3   OH211593   8.205   3.988   0.857
 3879TIP3    H111594   8.182   3.923   0.924
 3879TIP3    H211595   8.208   3.938   0.776
 3880TIP3   OH211596   1.018   3.419   5.276
 3880TIP3    H111597   1.043   3.511   5.264
 3880TIP3    H211598   1.086   3.383   5.333
 3881TIP3   OH211599   7.832   2.511   1.107
 3881TIP3    H111600   7.861   2.439   1.163
 3881TIP3    H211601   7.855   2.590   1.156
 3882TIP3   OH211602   0.306   6.445   2.792
 3882TIP3    H111603   0.318   6.483   2.705
 3882TIP3    H211604   0.213   6.422   2.794
 3883TIP3   OH211605   7.875   4.082   2.201
 3883TIP3    H111606   7.781   4.084   2.185
 3883TIP3    H211607   7.884   4.064   2.295
 3884TIP3   OH211608   7.563   2.201   4.111
 3884TIP3    H111609   7.624   2.128   4.124
 3884TIP3    H211610   7.620   2.277   4.099
 3885TIP3   OH211611   1.308   3.120   1.447
 3885TIP3    H111612   1.348   3.099   1.363
 3885TIP3    H211613   1.246   3.049   1.463
 3886TIP3   OH211614   0.827   1.672   5.263
 3886TIP3    H111615   0.851   1.619   5.339
 3886TIP3    H211616   0.903   1.728   5.247
 3887TIP3   OH211617   5.294   5.421   0.607
 3887TIP3    H111618   5.267   5.379   0.689
 3887TIP3    H211619   5.304   5.513   0.630
 3888TIP3   OH211620   6.579   1.110   6.502
 3888TIP3    H111621   6.502   1.155   6.466
 3888TIP3    H211622   6.573   1.125   6.596
 3889TIP3   OH211623   1.475   0.799   1.709
 3889TIP3    H111624   1.444   0.743   1.638
 3889TIP3    H211625   1.406   0.866   1.718
 3890TIP3   OH211626   8.258   5.723   1.672
 3890TIP3    H111627   8.229   5.813   1.654
 3890TIP3    H211628   8.239   5.676   1.591
 3891TIP3   OH211629   1.823   7.071   3.683
 3891TIP3    H111630   1.742   7.118   3.663
 3891TIP3    H211631   1.818   7.055   3.777
 3892TIP3   OH211632   3.667   3.104   3.424
 3892TIP3    H111633   3.679   3.102   3.519
 3892TIP3    H211634   3.717   3.030   3.391
 3893TIP3   OH211635   0.931   0.303   1.739
 3893TIP3    H111636   1.012   0.255   1.756
 3893TIP3    H211637   0.956   0.395   1.742
 3894TIP3   OH211638   1.726   6.594   2.759
 3894TIP3    H111639   1.786   6.649   2.708
 3894TIP3    H211640   1.670   6.553   2.693
 3895TIP3   OH211641   0.337   6.071   4.341
 3895TIP3    H111642   0.389   6.062   4.421
 3895TIP3    H211643   0.260   6.017   4.356
 3896TIP3   OH211644   5.326   4.727   0.999
 3896TIP3    H111645   5.323   4.788   1.072
 3896TIP3    H211646   5.417   4.729   0.970
 3897TIP3   OH211647   2.982   2.916   6.479
 3897TIP3    H111648   3.052   2.921   6.414
 3897TIP3    H211649   3.029   2.912   6.563
 3898TIP3   OH211650   3.581   5.626   5.573
 3898TIP3    H111651   3.546   5.537   5.572
 3898TIP3    H211652   3.511   5.680   5.537
 3899TIP3   OH211653   1.799   4.245   4.099
 3899TIP3    H111654   1.819   4.293   4.179
 3899TIP3    H211655   1.713   4.278   4.073
 3900TIP3   OH211656   2.254   1.098   4.908
 3900TIP3    H111657   2.240   1.021   4.853
 3900TIP3    H211658   2.215   1.075   4.993
 3901TIP3   OH211659   3.768   5.582   1.302
 3901TIP3    H111660   3.834   5.557   1.367
 3901TIP3    H211661   3.801   5.664   1.264
 3902TIP3   OH211662   0.372   5.140   6.282
 3902TIP3    H111663   0.340   5.228   6.263
 3902TIP3    H211664   0.304   5.100   6.336
 3903TIP3   OH211665   0.271   3.050   5.959
 3903TIP3    H111666   0.366   3.045   5.971
 3903TIP3    H211667   0.236   2.979   6.012
 3904TIP3   OH211668   0.691   3.639   2.077
 3904TIP3    H111669   0.780   3.644   2.043
 3904TIP3    H211670   0.635   3.660   2.002
 3905TIP3   OH211671   3.933   5.181   5.397
 3905TIP3    H111672   3.903   5.263   5.437
 3905TIP3    H211673   3.917   5.115   5.464
 3906TIP3   OH211674   5.678   6.415   2.440
 3906TIP3    H111675   5.642   6.404   2.352
 3906TIP3    H211676   5.773   6.413   2.427
 3907TIP3   OH211677   0.874   0.882   6.768
 3907TIP3    H111678   0.869   0.788   6.753
 3907TIP3    H211679   0.790   0.917   6.738
 3908TIP3   OH211680   0.042   1.934   5.437
 3908TIP3    H111681   0.119   1.991   5.430
 3908TIP3    H211682   0.067   1.868   5.501
 3909TIP3   OH211683   5.243   4.717   5.410
 3909TIP3    H111684   5.319   4.738   5.464
 3909TIP3    H211685   5.223   4.798   5.363
 3910TIP3   OH211686   1.097   1.246   5.257
 3910TIP3    H111687   1.027   1.200   5.303
 3910TIP3    H211688   1.178   1.205   5.288
 3911TIP3   OH211689   4.486   2.271   3.588
 3911TIP3    H111690   4.490   2.274   3.683
 3911TIP3    H211691   4.459   2.181   3.568
 3912TIP3   OH211692   0.838   3.880   6.367
 3912TIP3    H111693   0.751   3.842   6.364
 3912TIP3    H211694   0.890   3.828   6.306
 3913TIP3   OH211695   6.005   3.092   1.136
 3913TIP3    H111696   5.992   3.166   1.195
 3913TIP3    H211697   5.930   3.035   1.151
 3914TIP3   OH211698   4.934   0.567   1.457
 3914TIP3    H111699   4.899   0.538   1.373
 3914TIP3    H211700   4.971   0.653   1.439
 3915TIP3   OH211701   1.088   0.938   1.968
 3915TIP3    H111702   1.024   0.900   1.908
 3915TIP3    H211703   1.163   0.959   1.913
 3916TIP3   OH211704   3.276   3.851   1.186
 3916TIP3    H111705   3.277   3.925   1.126
 3916TIP3    H211706   3.206   3.870   1.248
 3917TIP3   OH211707   7.119   5.339   5.145
 3917TIP3    H111708   7.106   5.244   5.141
 3917TIP3    H211709   7.175   5.352   5.222
 3918TIP3   OH211710   7.980   0.490   2.416
 3918TIP3    H111711   7.898   0.470   2.462
 3918TIP3    H211712   7.965   0.457   2.327
 3919TIP3   OH211713   3.605   2.720   3.370
 3919TIP3    H111714   3.539   2.784   3.341
 3919TIP3    H211715   3.641   2.684   3.288
 3920TIP3   OH211716   5.602   0.674   6.368
 3920TIP3    H111717   5.538   0.683   6.439
 3920TIP3    H211718   5.556   0.622   6.301
 3921TIP3   OH211719   3.910   5.919   5.799
 3921TIP3    H111720   3.949   5.954   5.878
 3921TIP3    H211721   3.978   5.928   5.732
 3922TIP3   OH211722   7.434   1.393   3.272
 3922TIP3    H111723   7.524   1.425   3.280
 3922TIP3    H211724   7.418   1.389   3.177
 3923TIP3   OH211725   4.774   3.593   1.187
 3923TIP3    H111726   4.771   3.560   1.097
 3923TIP3    H211727   4.840   3.662   1.184
 3924TIP3   OH211728   7.656   0.619   3.611
 3924TIP3    H111729   7.616   0.638   3.526
 3924TIP3    H211730   7.583   0.617   3.672
 3925TIP3   OH211731   4.927   3.218   0.261
 3925TIP3    H111732   4.923   3.158   0.187
 3925TIP3    H211733   4.912   3.304   0.222
 3926TIP3   OH211734   7.736   2.643   0.439
 3926TIP3    H111735   7.817   2.608   0.404
 3926TIP3    H211736   7.669   2.619   0.374
 3927TIP3   OH211737   4.080   4.378   1.821
 3927TIP3    H111738   4.092   4.288   1.790
 3927TIP3    H211739   4.169   4.409   1.840
 3928TIP3   OH211740   0.539   6.638   0.502
 3928TIP3    H111741   0.459   6.671   0.461
 3928TIP3    H211742   0.539   6.544   0.482
 3929TIP3   OH211743   7.601   6.828   2.779
 3929TIP3    H111744   7.526   6.826   2.838
 3929TIP3    H211745   7.631   6.919   2.781
 3930TIP3   OH211746   2.027   3.908   3.319
 3930TIP3    H111747   2.105   3.896   3.373
 3930TIP3    H211748   2.054   3.969   3.251
 3931TIP3   OH211749   5.157   4.898   3.040
 3931TIP3    H111750   5.103   4.820   3.052
 3931TIP3    H211751   5.099   4.962   2.999
 3932TIP3   OH211752   6.245   4.349   5.495
 3932TIP3    H111753   6.237   4.361   5.589
 3932TIP3    H211754   6.157   4.366   5.461
 3933TIP3   OH211755   7.246   4.447   5.837
 3933TIP3    H111756   7.156   4.478   5.850
 3933TIP3    H211757   7.299   4.526   5.835
 3934TIP3   OH211758   5.781   6.967   5.460
 3934TIP3    H111759   5.725   7.003   5.529
 3934TIP3    H211760   5.864   6.949   5.504
 3935TIP3   OH211761   6.751   1.227   3.713
 3935TIP3    H111762   6.817   1.274   3.765
 3935TIP3    H211763   6.713   1.294   3.656
 3936TIP3   OH211764   4.537   0.895   5.538
 3936TIP3    H111765   4.542   0.857   5.450
 3936TIP3    H211766   4.628   0.900   5.567
 3937TIP3   OH211767   8.044   0.211   5.281
 3937TIP3    H111768   8.048   0.184   5.189
 3937TIP3    H211769   7.995   0.141   5.325
 3938TIP3   OH211770   1.136   1.638   3.217
 3938TIP3    H111771   1.170   1.717   3.175
 3938TIP3    H211772   1.184   1.632   3.300
 3939TIP3   OH211773   5.716   6.734   3.254
 3939TIP3    H111774   5.671   6.717   3.337
 3939TIP3    H211775   5.806   6.706   3.269
 3940TIP3   OH211776   4.262   3.036   3.437
 3940TIP3    H111777   4.236   3.100   3.371
 3940TIP3    H211778   4.313   2.971   3.389
 3941TIP3   OH211779   6.039   6.365   2.103
 3941TIP3    H111780   6.062   6.272   2.114
 3941TIP3    H211781   5.948   6.363   2.074
 3942TIP3   OH211782   5.370   1.954   4.536
 3942TIP3    H111783   5.360   1.976   4.629
 3942TIP3    H211784   5.288   1.981   4.496
 3943TIP3   OH211785   6.824   2.730   3.282
 3943TIP3    H111786   6.905   2.684   3.259
 3943TIP3    H211787   6.851   2.794   3.348
 3944TIP3   OH211788   4.483   5.767   6.384
 3944TIP3    H111789   4.464   5.750   6.476
 3944TIP3    H211790   4.449   5.690   6.337
 3945TIP3   OH211791   0.532   0.565   5.887
 3945TIP3    H111792   0.503   0.474   5.891
 3945TIP3    H211793   0.628   0.559   5.885
 3946TIP3   OH211794   3.006   3.085   3.743
 3946TIP3    H111795   2.978   3.042   3.662
 3946TIP3    H211796   3.051   3.164   3.713
 3947TIP3   OH211797   0.519   2.895   6.465
 3947TIP3    H111798   0.523   2.988   6.488
 3947TIP3    H211799   0.426   2.877   6.451
 3948TIP3   OH211800   5.176   2.913   1.131
 3948TIP3    H111801   5.156   2.836   1.078
 3948TIP3    H211802   5.212   2.977   1.070
 3949TIP3   OH211803   3.920   3.489   1.219
 3949TIP3    H111804   3.903   3.581   1.237
 3949TIP3    H211805   3.921   3.447   1.305
 3950TIP3   OH211806   4.858   5.941   5.777
 3950TIP3    H111807   4.772   5.926   5.738
 3950TIP3    H211808   4.917   5.882   5.730
 3951TIP3   OH211809   4.702   7.741   2.619
 3951TIP3    H111810   4.727   7.713   2.531
 3951TIP3    H211811   4.692   7.659   2.668
 3952TIP3   OH211812   0.858   7.500  -0.006
 3952TIP3    H111813   0.785   7.461   0.042
 3952TIP3    H211814   0.824   7.586  -0.034
 3953TIP3   OH211815   5.697   7.374   6.645
 3953TIP3    H111816   5.609   7.411   6.640
 3953TIP3    H211817   5.744   7.434   6.703
 3954TIP3   OH211818   5.861   3.928   5.215
 3954TIP3    H111819   5.784   3.913   5.270
 3954TIP3    H211820   5.917   3.984   5.269
 3955TIP3   OH211821   4.403   0.394   0.846
 3955TIP3    H111822   4.438   0.346   0.921
 3955TIP3    H211823   4.323   0.347   0.823
 3956TIP3   OH211824   2.605   0.492   6.156
 3956TIP3    H111825   2.676   0.555   6.143
 3956TIP3    H211826   2.639   0.410   6.120
 3957TIP3   OH211827   3.070   5.785   6.585
 3957TIP3    H111828   3.153   5.751   6.550
 3957TIP3    H211829   3.063   5.873   6.548
 3958TIP3   OH211830   1.139   1.805   0.660
 3958TIP3    H111831   1.195   1.754   0.601
 3958TIP3    H211832   1.128   1.889   0.616
 3959TIP3   OH211833   6.590   0.591   0.591
 3959TIP3    H111834   6.600   0.677   0.632
 3959TIP3    H211835   6.498   0.586   0.567
 3960TIP3   OH211836   5.582   0.431   0.036
 3960TIP3    H111837   5.508   0.475  -0.007
 3960TIP3    H211838   5.647   0.500   0.047
 3961TIP3   OH211839   7.872   5.105   5.238
 3961TIP3    H111840   7.848   5.043   5.168
 3961TIP3    H211841   7.964   5.124   5.223
 3962TIP3   OH211842   8.230   1.654   0.043
 3962TIP3    H111843   8.173   1.714  -0.005
 3962TIP3    H211844   8.318   1.685   0.026
 3963TIP3   OH211845   3.211   0.915   0.986
 3963TIP3    H111846   3.203   0.940   0.894
 3963TIP3    H211847   3.244   0.825   0.983
 3964TIP3   OH211848   1.559   4.780   5.741
 3964TIP3    H111849   1.652   4.766   5.756
 3964TIP3    H211850   1.538   4.858   5.792
 3965TIP3   OH211851   1.736   0.807   5.674
 3965TIP3    H111852   1.719   0.750   5.600
 3965TIP3    H211853   1.787   0.754   5.735
 3966TIP3   OH211854   6.344   5.850   3.647
 3966TIP3    H111855   6.407   5.807   3.590
 3966TIP3    H211856   6.258   5.820   3.616
 3967TIP3   OH211857   5.673   2.764   4.305
 3967TIP3    H111858   5.684   2.801   4.217
 3967TIP3    H211859   5.583   2.785   4.328
 3968TIP3   OH211860   1.173   0.479   0.152
 3968TIP3    H111861   1.266   0.457   0.158
 3968TIP3    H211862   1.128   0.395   0.156
 3969TIP3   OH211863   7.375   4.645   4.909
 3969TIP3    H111864   7.306   4.586   4.939
 3969TIP3    H211865   7.342   4.681   4.827
 3970TIP3   OH211866   3.857   4.618   5.967
 3970TIP3    H111867   3.767   4.624   6.001
 3970TIP3    H211868   3.847   4.602   5.874
 3971TIP3   OH211869   4.643   3.191   2.311
 3971TIP3    H111870   4.632   3.175   2.217
 3971TIP3    H211871   4.672   3.282   2.317
 3972TIP3   OH211872   8.152   5.125   5.432
 3972TIP3    H111873   8.090   5.198   5.429
 3972TIP3    H211874   8.227   5.159   5.481
 3973TIP3   OH211875   0.827   3.186   3.826
 3973TIP3    H111876   0.744   3.210   3.866
 3973TIP3    H211877   0.877   3.267   3.823
 3974TIP3   OH211878   1.557   0.227   6.545
 3974TIP3    H111879   1.574   0.187   6.459
 3974TIP3    H211880   1.462   0.241   6.546
 3975TIP3   OH211881   1.072   0.343   2.493
 3975TIP3    H111882   0.995   0.377   2.446
 3975TIP3    H211883   1.109   0.277   2.434
 3976TIP3   OH211884   2.621   4.457   2.903
 3976TIP3    H111885   2.532   4.451   2.938
 3976TIP3    H211886   2.673   4.401   2.961
 3977TIP3   OH211887   1.096   7.083   5.357
 3977TIP3    H111888   1.012   7.043   5.378
 3977TIP3    H211889   1.159   7.012   5.365
 3978TIP3   OH211890   6.081   2.353   2.015
 3978TIP3    H111891   5.991   2.360   2.047
 3978TIP3    H211892   6.091   2.427   1.955
 3979TIP3   OH211893   6.807   1.463   3.964
 3979TIP3    H111894   6.893   1.429   3.941
 3979TIP3    H211895   6.774   1.403   4.030
 3980TIP3   OH211896   4.486   2.991   2.396
 3980TIP3    H111897   4.554   3.059   2.390
 3980TIP3    H211898   4.420   3.018   2.333
 3981TIP3   OH211899   2.198   3.694   1.101
 3981TIP3    H111900   2.280   3.646   1.097
 3981TIP3    H211901   2.133   3.633   1.065
 3982TIP3   OH211902   2.231   3.238   2.436
 3982TIP3    H111903   2.154   3.260   2.489
 3982TIP3    H211904   2.293   3.202   2.499
 3983TIP3   OH211905   8.000   6.435   6.690
 3983TIP3    H111906   8.081   6.486   6.692
 3983TIP3    H211907   7.956   6.464   6.609
 3984TIP3   OH211908   4.592   3.013   4.580
 3984TIP3    H111909   4.515   3.060   4.550
 3984TIP3    H211910   4.559   2.927   4.605
 3985TIP3   OH211911   0.074   2.082   1.271
 3985TIP3    H111912   0.157   2.105   1.230
 3985TIP3    H211913   0.080   2.117   1.360
 3986TIP3   OH211914   1.907   7.648   1.487
 3986TIP3    H111915   1.972   7.581   1.504
 3986TIP3    H211916   1.947   7.705   1.422
 3987TIP3   OH211917   7.824   3.964   5.947
 3987TIP3    H111918   7.757   4.020   5.987
 3987TIP3    H211919   7.777   3.916   5.879
 3988TIP3   OH211920   4.412   4.481   3.832
 3988TIP3    H111921   4.480   4.497   3.767
 3988TIP3    H211922   4.345   4.547   3.813
 3989TIP3   OH211923   6.588   4.572   3.886
 3989TIP3    H111924   6.532   4.549   3.812
 3989TIP3    H211925   6.677   4.569   3.851
 3990TIP3   OH211926   3.674   5.402   1.123
 3990TIP3    H111927   3.714   5.462   1.186
 3990TIP3    H211928   3.589   5.440   1.104
 3991TIP3   OH211929   6.706   6.019   4.174
 3991TIP3    H111930   6.644   5.990   4.107
 3991TIP3    H211931   6.659   6.005   4.257
 3992TIP3   OH211932   3.642   2.999   4.742
 3992TIP3    H111933   3.705   3.062   4.777
 3992TIP3    H211934   3.582   3.052   4.689
 3993TIP3   OH211935   3.284   0.160   1.463
 3993TIP3    H111936   3.259   0.090   1.403
 3993TIP3    H211937   3.365   0.130   1.504
 3994TIP3   OH211938   4.200   2.003   1.925
 3994TIP3    H111939   4.245   1.947   1.988
 3994TIP3    H211940   4.108   2.001   1.952
 3995TIP3   OH211941   4.038   7.414   1.143
 3995TIP3    H111942   3.977   7.358   1.192
 3995TIP3    H211943   4.041   7.495   1.193
 3996TIP3   OH211944   2.665   2.849   2.500
 3996TIP3    H111945   2.660   2.944   2.507
 3996TIP3    H211946   2.683   2.818   2.589
 3997TIP3   OH211947   7.897   2.062   5.178
 3997TIP3    H111948   7.822   2.017   5.219
 3997TIP3    H211949   7.958   2.076   5.250
 3998TIP3   OH211950   2.190   1.364   6.622
 3998TIP3    H111951   2.179   1.305   6.697
 3998TIP3    H211952   2.101   1.384   6.593
 3999TIP3   OH211953   1.284   5.226   6.050
 3999TIP3    H111954   1.347   5.172   6.001
 3999TIP3    H211955   1.270   5.302   5.994
 4000TIP3   OH211956   5.993   3.912   5.704
 4000TIP3    H111957   6.073   3.931   5.753
 4000TIP3    H211958   5.981   3.988   5.647
 4001TIP3   OH211959   4.148   4.230   0.132
 4001TIP3    H111960   4.161   4.289   0.058
 4001TIP3    H211961   4.207   4.156   0.114
 4002TIP3   OH211962   4.221   3.433   6.251
 4002TIP3    H111963   4.180   3.353   6.217
 4002TIP3    H211964   4.151   3.476   6.300
 4003TIP3   OH211965   6.804   2.871   5.680
 4003TIP3    H111966   6.851   2.933   5.736
 4003TIP3    H211967   6.778   2.801   5.739
 4004TIP3   OH211968   6.767   2.613   5.551
 4004TIP3    H111969   6.850   2.567   5.552
 4004TIP3    H211970   6.724   2.587   5.633
 4005TIP3   OH211971   3.676   1.551   1.031
 4005TIP3    H111972   3.604   1.611   1.010
 4005TIP3    H211973   3.749   1.582   0.977
 4006TIP3   OH211974   2.289   4.047   2.658
 4006TIP3    H111975   2.331   4.023   2.575
 4006TIP3    H211976   2.360   4.080   2.713
 4007TIP3   OH211977   3.551   6.906   1.134
 4007TIP3    H111978   3.566   6.878   1.224
 4007TIP3    H211979   3.458   6.929   1.132
 4008TIP3   OH211980   7.806   7.246   5.710
 4008TIP3    H111981   7.718   7.267   5.740
 4008TIP3    H211982   7.840   7.328   5.675
 4009TIP3   OH211983   7.459   1.423   5.091
 4009TIP3    H111984   7.436   1.347   5.144
 4009TIP3    H211985   7.470   1.388   5.002
 4010TIP3   OH211986   2.612   3.519   1.123
 4010TIP3    H111987   2.699   3.480   1.124
 4010TIP3    H211988   2.624   3.605   1.165
 4011TIP3   OH211989   1.843   4.094   0.347
 4011TIP3    H111990   1.896   4.116   0.271
 4011TIP3    H211991   1.791   4.018   0.321
 4012TIP3   OH211992   5.376   1.690   3.885
 4012TIP3    H111993   5.449   1.652   3.835
 4012TIP3    H211994   5.387   1.785   3.875
 4013TIP3   OH211995   1.778   5.382   4.114
 4013TIP3    H111996   1.866   5.407   4.084
 4013TIP3    H211997   1.768   5.291   4.086
 4014TIP3   OH211998   4.504   4.055   4.232
 4014TIP3    H111999   4.509   3.982   4.170
 4014TIP3    H212000   4.481   4.014   4.315
 4015TIP3   OH212001   6.994   7.567   2.740
 4015TIP3    H112002   7.000   7.556   2.645
 4015TIP3    H212003   6.909   7.609   2.754
 4016TIP3   OH212004   3.308   7.048   5.360
 4016TIP3    H112005   3.348   7.090   5.436
 4016TIP3    H212006   3.272   7.120   5.309
 4017TIP3   OH212007   5.357   1.438   1.361
 4017TIP3    H112008   5.366   1.421   1.267
 4017TIP3    H212009   5.428   1.499   1.382
 4018TIP3   OH212010   5.438   4.736   6.663
 4018TIP3    H112011   5.441   4.656   6.610
 4018TIP3    H212012   5.495   4.717   6.738
 4019TIP3   OH212013   5.406   2.847   1.527
 4019TIP3    H112014   5.446   2.812   1.447
 4019TIP3    H212015   5.475   2.842   1.592
 4020TIP3   OH212016   4.476   1.346   3.620
 4020TIP3    H112017   4.513   1.363   3.706
 4020TIP3    H212018   4.385   1.321   3.637
 4021TIP3   OH212019   5.131   2.748   0.347
 4021TIP3    H112020   5.131   2.739   0.252
 4021TIP3    H212021   5.050   2.705   0.375
 4022TIP3   OH212022   5.064   0.723   5.338
 4022TIP3    H112023   5.136   0.704   5.398
 4022TIP3    H212024   4.989   0.678   5.376
 4023TIP3   OH212025   4.015   2.409   2.551
 4023TIP3    H112026   4.076   2.373   2.615
 4023TIP3    H212027   3.985   2.332   2.502
 4024TIP3   OH212028   5.970   4.422   2.083
 4024TIP3    H112029   6.013   4.340   2.059
 4024TIP3    H212030   5.881   4.396   2.109
 4025TIP3   OH212031   1.136   6.150   1.551
 4025TIP3    H112032   1.061   6.135   1.494
 4025TIP3    H212033   1.206   6.178   1.492
 4026TIP3   OH212034   7.687   2.414   5.638
 4026TIP3    H112035   7.769   2.465   5.636
 4026TIP3    H212036   7.711   2.329   5.602
 4027TIP3   OH212037   1.913   0.641   4.116
 4027TIP3    H112038   1.856   0.567   4.136
 4027TIP3    H212039   1.903   0.655   4.022
 4028TIP3   OH212040   7.076   2.470   2.025
 4028TIP3    H112041   7.018   2.510   1.960
 4028TIP3    H212042   7.099   2.385   1.988
 4029TIP3   OH212043   0.699   0.923   6.376
 4029TIP3    H112044   0.715   0.829   6.389
 4029TIP3    H212045   0.686   0.958   6.464
 4030TIP3   OH212046   1.060   1.335   3.541
 4030TIP3    H112047   0.986   1.275   3.528
 4030TIP3    H212048   1.021   1.410   3.586
 4031TIP3   OH212049   8.200   6.346   4.794
 4031TIP3    H112050   8.218   6.435   4.761
 4031TIP3    H212051   8.167   6.299   4.717
 4032TIP3   OH212052   2.032   3.751   1.470
 4032TIP3    H112053   1.990   3.753   1.556
 4032TIP3    H212054   2.011   3.836   1.430
 4033TIP3   OH212055   5.085   1.182   0.897
 4033TIP3    H112056   5.031   1.256   0.926
 4033TIP3    H212057   5.054   1.162   0.809
 4034TIP3   OH212058   0.120   4.230   3.889
 4034TIP3    H112059   0.147   4.155   3.942
 4034TIP3    H212060   0.197   4.253   3.838
 4035TIP3   OH212061   6.341   3.734   1.023
 4035TIP3    H112062   6.345   3.721   0.929
 4035TIP3    H212063   6.252   3.764   1.040
 4036TIP3   OH212064   6.319   6.846   2.145
 4036TIP3    H112065   6.236   6.851   2.192
 4036TIP3    H212066   6.309   6.906   2.071
 4037TIP3   OH212067   1.153   6.268   4.787
 4037TIP3    H112068   1.231   6.218   4.811
 4037TIP3    H212069   1.187   6.350   4.750
 4038TIP3   OH212070   6.018   1.287   3.101
 4038TIP3    H112071   6.025   1.263   3.008
 4038TIP3    H212072   6.030   1.382   3.102
 4039TIP3   OH212073   0.441   6.564   2.285
 4039TIP3    H112074   0.524   6.613   2.281
 4039TIP3    H212075   0.385   6.605   2.219
 4040TIP3   OH212076   2.371   2.402   5.383
 4040TIP3    H112077   2.348   2.437   5.296
 4040TIP3    H212078   2.293   2.415   5.436
 4041TIP3   OH212079   1.747   2.107   6.164
 4041TIP3    H112080   1.834   2.075   6.188
 4041TIP3    H212081   1.738   2.086   6.071
 4042TIP3   OH212082   7.524   2.024   3.883
 4042TIP3    H112083   7.563   1.964   3.948
 4042TIP3    H212084   7.502   2.102   3.933
 4043TIP3   OH212085   3.900   2.038   1.040
 4043TIP3    H112086   3.831   2.077   0.987
 4043TIP3    H212087   3.930   1.963   0.988
 4044TIP3   OH212088   0.867   2.878   0.849
 4044TIP3    H112089   0.798   2.942   0.832
 4044TIP3    H212090   0.842   2.835   0.930
 4045TIP3   OH212091   1.758   4.130   1.272
 4045TIP3    H112092   1.714   4.209   1.238
 4045TIP3    H212093   1.704   4.058   1.239
 4046TIP3   OH212094   4.127   1.361   4.789
 4046TIP3    H112095   4.065   1.352   4.862
 4046TIP3    H212096   4.137   1.273   4.754
 4047TIP3   OH212097   4.792   6.570   5.078
 4047TIP3    H112098   4.722   6.531   5.026
 4047TIP3    H212099   4.822   6.500   5.136
 4048TIP3   OH212100   8.031   1.367   4.171
 4048TIP3    H112101   7.966   1.308   4.209
 4048TIP3    H212102   8.115   1.323   4.186
 4049TIP3   OH212103   2.825   0.715   5.907
 4049TIP3    H112104   2.755   0.743   5.965
 4049TIP3    H212105   2.801   0.750   5.821
 4050TIP3   OH212106   6.032   0.916   1.767
 4050TIP3    H112107   5.970   0.981   1.802
 4050TIP3    H212108   6.100   0.969   1.725
 4051TIP3   OH212109   7.727   0.716   2.238
 4051TIP3    H112110   7.695   0.698   2.150
 4051TIP3    H212111   7.680   0.796   2.264
 4052TIP3   OH212112   5.110   2.766   4.960
 4052TIP3    H112113   5.139   2.676   4.949
 4052TIP3    H212114   5.075   2.769   5.050
 4053TIP3   OH212115   5.413   5.673   1.491
 4053TIP3    H112116   5.417   5.580   1.468
 4053TIP3    H212117   5.362   5.675   1.573
 4054TIP3   OH212118   6.986   3.925   0.691
 4054TIP3    H112119   7.004   3.907   0.599
 4054TIP3    H212120   6.896   3.898   0.704
 4055TIP3   OH212121   6.641   1.330   4.617
 4055TIP3    H112122   6.703   1.357   4.550
 4055TIP3    H212123   6.579   1.404   4.623
 4056TIP3   OH212124   2.810   4.929   4.072
 4056TIP3    H112125   2.785   4.929   4.164
 4056TIP3    H212126   2.760   5.002   4.034
 4057TIP3   OH212127   0.336   3.347   3.871
 4057TIP3    H112128   0.311   3.372   3.960
 4057TIP3    H212129   0.253   3.338   3.824
 4058TIP3   OH212130   1.230   2.187   4.668
 4058TIP3    H112131   1.235   2.245   4.744
 4058TIP3    H212132   1.321   2.176   4.639
 4059TIP3   OH212133   2.584   3.958   5.764
 4059TIP3    H112134   2.549   3.924   5.847
 4059TIP3    H212135   2.679   3.948   5.773
 4060TIP3   OH212136   4.468   1.345   5.059
 4060TIP3    H112137   4.461   1.398   5.138
 4060TIP3    H212138   4.419   1.394   4.993
 4061TIP3   OH212139   5.550   3.840   6.613
 4061TIP3    H112140   5.604   3.822   6.690
 4061TIP3    H212141   5.556   3.935   6.601
 4062TIP3   OH212142   5.729   4.013   6.224
 4062TIP3    H112143   5.808   4.065   6.237
 4062TIP3    H212144   5.726   3.997   6.130
 4063TIP3   OH212145   7.638   1.547   4.732
 4063TIP3    H112146   7.543   1.539   4.735
 4063TIP3    H212147   7.654   1.638   4.708
 4064TIP3   OH212148   3.541   6.247   2.905
 4064TIP3    H112149   3.622   6.281   2.869
 4064TIP3    H212150   3.472   6.293   2.857
 4065TIP3   OH212151   7.952   2.837   5.369
 4065TIP3    H112152   8.002   2.918   5.360
 4065TIP3    H212153   7.948   2.802   5.280
 4066TIP3   OH212154   4.577   2.927   1.143
 4066TIP3    H112155   4.595   2.853   1.201
 4066TIP3    H212156   4.484   2.917   1.121
 4067TIP3   OH212157   4.539   4.755   4.133
 4067TIP3    H112158   4.620   4.762   4.082
 4067TIP3    H212159   4.550   4.817   4.205
 4068TIP3   OH212160   2.461   1.411   6.235
 4068TIP3    H112161   2.539   1.419   6.290
 4068TIP3    H212162   2.388   1.425   6.294
 4069TIP3   OH212163   6.246   6.507   5.059
 4069TIP3    H112164   6.221   6.583   5.111
 4069TIP3    H212165   6.317   6.466   5.108
 4070TIP3   OH212166   7.032   7.151   4.028
 4070TIP3    H112167   7.075   7.149   3.943
 4070TIP3    H212168   6.940   7.169   4.008
 4071TIP3   OH212169   0.550   0.253   3.766
 4071TIP3    H112170   0.624   0.241   3.707
 4071TIP3    H212171   0.533   0.166   3.802
 4072TIP3   OH212172   7.426   1.326   2.017
 4072TIP3    H112173   7.502   1.353   1.964
 4072TIP3    H212174   7.388   1.253   1.968
 4073TIP3   OH212175   6.089   4.113   4.891
 4073TIP3    H112176   6.132   4.042   4.844
 4073TIP3    H212177   6.156   4.147   4.950
 4074TIP3   OH212178   5.989   1.795   2.798
 4074TIP3    H112179   6.073   1.837   2.783
 4074TIP3    H212180   5.932   1.866   2.828
 4075TIP3   OH212181   7.486   3.662   5.535
 4075TIP3    H112182   7.395   3.656   5.566
 4075TIP3    H212183   7.480   3.644   5.441
 4076TIP3   OH212184   0.424   6.644   4.122
 4076TIP3    H112185   0.406   6.737   4.135
 4076TIP3    H212186   0.519   6.636   4.137
 4077TIP3   OH212187   5.091   2.855   5.911
 4077TIP3    H112188   5.007   2.826   5.875
 4077TIP3    H212189   5.154   2.789   5.883
 4078TIP3   OH212190   6.859   5.405   6.039
 4078TIP3    H112191   6.848   5.418   5.945
 4078TIP3    H212192   6.954   5.396   6.052
 4079TIP3   OH212193   4.952   6.450   2.061
 4079TIP3    H112194   5.005   6.496   1.997
 4079TIP3    H212195   4.942   6.512   2.134
 4080TIP3   OH212196   4.445   7.116   5.477
 4080TIP3    H112197   4.365   7.168   5.481
 4080TIP3    H212198   4.421   7.038   5.428
 4081TIP3   OH212199   7.962   0.509   4.519
 4081TIP3    H112200   7.906   0.472   4.450
 4081TIP3    H212201   7.952   0.448   4.592
 4082TIP3   OH212202   3.219   6.135   1.792
 4082TIP3    H112203   3.148   6.132   1.729
 4082TIP3    H212204   3.298   6.118   1.740
 4083TIP3   OH212205   0.316   0.143   1.066
 4083TIP3    H112206   0.381   0.178   1.127
 4083TIP3    H212207   0.232   0.161   1.107
 4084TIP3   OH212208   2.041   6.182   5.822
 4084TIP3    H112209   2.108   6.116   5.804
 4084TIP3    H212210   1.996   6.151   5.900
 4085TIP3   OH212211   7.720   0.152   4.557
 4085TIP3    H112212   7.707   0.247   4.553
 4085TIP3    H212213   7.728   0.134   4.651
 4086TIP3   OH212214   2.585   6.576   4.521
 4086TIP3    H112215   2.583   6.481   4.508
 4086TIP3    H212216   2.642   6.608   4.451
 4087TIP3   OH212217   3.043   6.710   4.320
 4087TIP3    H112218   3.046   6.790   4.266
 4087TIP3    H212219   3.031   6.743   4.409
 4088TIP3   OH212220   2.155   1.886   2.582
 4088TIP3    H112221   2.248   1.881   2.603
 4088TIP3    H212222   2.149   1.862   2.489
 4089TIP3   OH212223   3.540   5.662   1.681
 4089TIP3    H112224   3.556   5.672   1.587
 4089TIP3    H212225   3.485   5.737   1.704
 4090TIP3   OH212226   1.124   2.940   0.915
 4090TIP3    H112227   1.031   2.949   0.897
 4090TIP3    H212228   1.128   2.877   0.987
 4091TIP3   OH212229   3.065   6.617   0.736
 4091TIP3    H112230   3.136   6.681   0.748
 4091TIP3    H212231   3.110   6.534   0.722
 4092TIP3   OH212232   7.744   6.068   0.872
 4092TIP3    H112233   7.815   6.093   0.932
 4092TIP3    H212234   7.772   5.985   0.834
 4093TIP3   OH212235   2.499   1.742   6.167
 4093TIP3    H112236   2.528   1.786   6.247
 4093TIP3    H212237   2.426   1.794   6.136
 4094TIP3   OH212238   2.599   4.205   2.316
 4094TIP3    H112239   2.540   4.223   2.390
 4094TIP3    H212240   2.684   4.239   2.344
 4095TIP3   OH212241   2.086   1.934   0.440
 4095TIP3    H112242   2.073   2.014   0.390
 4095TIP3    H212243   2.128   1.963   0.522
 4096TIP3   OH212244   3.603   3.246   5.211
 4096TIP3    H112245   3.603   3.264   5.305
 4096TIP3    H212246   3.632   3.155   5.204
 4097TIP3   OH212247   7.086   3.836   1.403
 4097TIP3    H112248   7.098   3.853   1.310
 4097TIP3    H212249   7.173   3.845   1.441
 4098TIP3   OH212250   3.620   2.998   2.784
 4098TIP3    H112251   3.585   3.066   2.841
 4098TIP3    H212252   3.586   2.916   2.820
 4099TIP3   OH212253   4.259   5.081   5.615
 4099TIP3    H112254   4.265   5.046   5.526
 4099TIP3    H212255   4.262   5.004   5.672
 4100TIP3   OH212256   0.666   1.826   5.572
 4100TIP3    H112257   0.637   1.735   5.564
 4100TIP3    H212258   0.726   1.839   5.498
 4101TIP3   OH212259   2.735   0.653   2.079
 4101TIP3    H112260   2.810   0.660   2.139
 4101TIP3    H212261   2.724   0.559   2.067
 4102TIP3   OH212262   5.615   5.114   3.902
 4102TIP3    H112263   5.530   5.071   3.906
 4102TIP3    H212264   5.678   5.044   3.919
 4103TIP3   OH212265   8.261   3.363   0.930
 4103TIP3    H112266   8.332   3.324   0.879
 4103TIP3    H212267   8.193   3.297   0.931
 4104TIP3   OH212268   6.103   6.050   0.932
 4104TIP3    H112269   6.145   5.999   0.863
 4104TIP3    H212270   6.017   6.010   0.942
 4105TIP3   OH212271   3.903   2.971   6.621
 4105TIP3    H112272   3.892   3.011   6.707
 4105TIP3    H212273   3.873   2.881   6.632
 4106TIP3   OH212274   3.827   6.944   5.781
 4106TIP3    H112275   3.919   6.957   5.804
 4106TIP3    H212276   3.829   6.877   5.713
 4107TIP3   OH212277   5.479   3.771   5.240
 4107TIP3    H112278   5.467   3.793   5.148
 4107TIP3    H212279   5.534   3.842   5.274
 4108TIP3   OH212280   3.037   4.950   2.845
 4108TIP3    H112281   3.129   4.937   2.866
 4108TIP3    H212282   3.020   5.042   2.867
 4109TIP3   OH212283   6.379   5.894   0.549
 4109TIP3    H112284   6.436   5.895   0.626
 4109TIP3    H212285   6.436   5.862   0.479
 4110TIP3   OH212286   4.165   0.965   6.259
 4110TIP3    H112287   4.231   1.005   6.202
 4110TIP3    H212288   4.216   0.915   6.323
 4111TIP3   OH212289   6.316   7.289   2.778
 4111TIP3    H112290   6.298   7.318   2.868
 4111TIP3    H212291   6.376   7.215   2.788
 4112TIP3   OH212292   0.183   5.064   6.461
 4112TIP3    H112293   0.138   5.135   6.508
 4112TIP3    H212294   0.126   4.988   6.473
 4113TIP3   OH212295   5.418   5.292   0.902
 4113TIP3    H112296   5.432   5.302   0.996
 4113TIP3    H212297   5.339   5.343   0.884
 4114TIP3   OH212298   3.778   1.381   0.399
 4114TIP3    H112299   3.795   1.287   0.400
 4114TIP3    H212300   3.828   1.416   0.473
 4115TIP3   OH212301   6.879   5.432   3.493
 4115TIP3    H112302   6.912   5.522   3.496
 4115TIP3    H212303   6.882   5.408   3.400
 4116TIP3   OH212304   2.451   3.952   1.699
 4116TIP3    H112305   2.371   3.967   1.750
 4116TIP3    H212306   2.420   3.918   1.615
 4117TIP3   OH212307   0.831   0.785   0.712
 4117TIP3    H112308   0.826   0.690   0.698
 4117TIP3    H212309   0.757   0.804   0.770
 4118TIP3   OH212310   0.984   3.887   0.473
 4118TIP3    H112311   1.006   3.942   0.398
 4118TIP3    H212312   1.065   3.883   0.524
 4119TIP3   OH212313   7.753   4.620   1.096
 4119TIP3    H112314   7.800   4.618   1.179
 4119TIP3    H212315   7.663   4.597   1.120
 4120TIP3   OH212316   5.792   4.558   2.884
 4120TIP3    H112317   5.781   4.610   2.805
 4120TIP3    H212318   5.707   4.561   2.927
 4121TIP3   OH212319   0.349   1.117   5.426
 4121TIP3    H112320   0.377   1.201   5.389
 4121TIP3    H212321   0.265   1.136   5.467
 4122TIP3   OH212322   5.564   3.362   1.757
 4122TIP3    H112323   5.485   3.325   1.717
 4122TIP3    H212324   5.615   3.286   1.786
 4123TIP3   OH212325   0.970   2.162   4.221
 4123TIP3    H112326   0.985   2.236   4.280
 4123TIP3    H212327   0.876   2.148   4.223
 4124TIP3   OH212328   3.733   4.251   5.475
 4124TIP3    H112329   3.644   4.218   5.465
 4124TIP3    H212330   3.790   4.180   5.445
 4125TIP3   OH212331   4.548   3.183   5.609
 4125TIP3    H112332   4.545   3.141   5.695
 4125TIP3    H212333   4.489   3.132   5.555
 4126TIP3   OH212334   2.812   3.809   1.676
 4126TIP3    H112335   2.781   3.719   1.667
 4126TIP3    H212336   2.805   3.827   1.769
 4127TIP3   OH212337   7.786   0.037   5.753
 4127TIP3    H112338   7.734   0.099   5.803
 4127TIP3    H212339   7.783   0.070   5.663
 4128TIP3   OH212340   2.914   5.261   0.416
 4128TIP3    H112341   3.002   5.294   0.397
 4128TIP3    H212342   2.883   5.317   0.487
 4129TIP3   OH212343   7.796   4.404   3.489
 4129TIP3    H112344   7.801   4.490   3.532
 4129TIP3    H212345   7.878   4.397   3.440
 4130TIP3   OH212346   3.682   0.572   3.843
 4130TIP3    H112347   3.767   0.616   3.844
 4130TIP3    H212348   3.698   0.488   3.885
 4131TIP3   OH212349   1.080   6.568   5.667
 4131TIP3    H112350   1.045   6.629   5.601
 4131TIP3    H212351   1.078   6.483   5.625
 4132TIP3   OH212352   5.907   0.383   4.487
 4132TIP3    H112353   5.851   0.328   4.433
 4132TIP3    H212354   5.888   0.472   4.458
 4133TIP3   OH212355   7.359   4.865   6.076
 4133TIP3    H112356   7.361   4.935   6.142
 4133TIP3    H212357   7.289   4.807   6.105
 4134TIP3   OH212358   0.740   7.830   1.549
 4134TIP3    H112359   0.825   7.822   1.593
 4134TIP3    H212360   0.700   7.743   1.559
 4135TIP3   OH212361   5.991   0.061   0.904
 4135TIP3    H112362   6.074   0.102   0.880
 4135TIP3    H212363   5.933   0.134   0.922
 4136TIP3   OH212364   2.431   0.747   0.272
 4136TIP3    H112365   2.345   0.749   0.231
 4136TIP3    H212366   2.468   0.662   0.247
 4137TIP3   OH212367   6.536   0.780   5.717
 4137TIP3    H112368   6.471   0.779   5.647
 4137TIP3    H212369   6.620   0.787   5.672
 4138TIP3   OH212370   0.524   2.032   2.184
 4138TIP3    H112371   0.522   1.983   2.102
 4138TIP3    H212372   0.616   2.053   2.198
 4139TIP3   OH212373   2.637   5.087   3.143
 4139TIP3    H112374   2.595   5.141   3.209
 4139TIP3    H212375   2.618   4.997   3.169
 4140TIP3   OH212376   6.296   7.014   1.303
 4140TIP3    H112377   6.348   7.004   1.382
 4140TIP3    H212378   6.268   6.925   1.280
 4141TIP3   OH212379   1.589   1.692   4.779
 4141TIP3    H112380   1.601   1.620   4.841
 4141TIP3    H212381   1.598   1.771   4.833
 4142TIP3   OH212382   8.271   7.685   6.047
 4142TIP3    H112383   8.190   7.636   6.033
 4142TIP3    H212384   8.283   7.734   5.966
 4143TIP3   OH212385   5.899   1.206   6.010
 4143TIP3    H112386   5.920   1.133   6.069
 4143TIP3    H212387   5.893   1.166   5.923
 4144TIP3   OH212388   0.354   4.157   2.205
 4144TIP3    H112389   0.264   4.189   2.210
 4144TIP3    H212390   0.400   4.202   2.275
 4145TIP3   OH212391   4.239   6.625   0.488
 4145TIP3    H112392   4.149   6.650   0.509
 4145TIP3    H212393   4.230   6.549   0.431
 4146TIP3   OH212394   1.382   4.952   5.974
 4146TIP3    H112395   1.431   4.919   6.049
 4146TIP3    H212396   1.328   4.879   5.946
 4147TIP3   OH212397   4.436   7.637   2.843
 4147TIP3    H112398   4.513   7.588   2.870
 4147TIP3    H212399   4.437   7.716   2.897
 4148TIP3   OH212400   3.646   6.767   4.948
 4148TIP3    H112401   3.575   6.819   4.910
 4148TIP3    H212402   3.676   6.712   4.875
 4149TIP3   OH212403   2.067   3.538   1.768
 4149TIP3    H112404   2.136   3.483   1.732
 4149TIP3    H212405   2.088   3.626   1.736
 4150TIP3   OH212406   1.160   7.405   6.531
 4150TIP3    H112407   1.134   7.481   6.583
 4150TIP3    H212408   1.112   7.332   6.570
 4151TIP3   OH212409   7.750   3.729   2.248
 4151TIP3    H112410   7.757   3.811   2.296
 4151TIP3    H212411   7.670   3.738   2.196
 4152TIP3   OH212412   7.434   7.124   5.278
 4152TIP3    H112413   7.422   7.177   5.357
 4152TIP3    H212414   7.367   7.056   5.284
 4153TIP3   OH212415   2.307   3.289   5.402
 4153TIP3    H112416   2.219   3.256   5.420
 4153TIP3    H212417   2.364   3.242   5.464
 4154TIP3   OH212418   4.128   4.768   4.504
 4154TIP3    H112419   4.177   4.733   4.578
 4154TIP3    H212420   4.038   4.777   4.536
 4155TIP3   OH212421   6.151   7.226   5.668
 4155TIP3    H112422   6.159   7.318   5.640
 4155TIP3    H212423   6.103   7.231   5.751
 4156TIP3   OH212424   2.953   0.631   3.146
 4156TIP3    H112425   2.999   0.597   3.222
 4156TIP3    H212426   2.864   0.596   3.155
 4157TIP3   OH212427   8.082   0.664   5.900
 4157TIP3    H112428   8.113   0.631   5.984
 4157TIP3    H212429   8.042   0.589   5.857
 4158TIP3   OH212430   0.594   1.461   1.887
 4158TIP3    H112431   0.535   1.476   1.813
 4158TIP3    H212432   0.537   1.458   1.963
 4159TIP3   OH212433   6.097   0.294   4.292
 4159TIP3    H112434   6.100   0.352   4.216
 4159TIP3    H212435   6.019   0.323   4.341
 4160TIP3   OH212436   1.388   3.548   1.956
 4160TIP3    H112437   1.450   3.484   1.993
 4160TIP3    H212438   1.315   3.495   1.924
 4161TIP3   OH212439   1.506   6.011   3.717
 4161TIP3    H112440   1.490   5.954   3.792
 4161TIP3    H212441   1.493   5.954   3.641
 4162TIP3   OH212442   2.664   4.491   5.962
 4162TIP3    H112443   2.719   4.437   5.905
 4162TIP3    H212444   2.724   4.558   5.996
 4163TIP3   OH212445   4.573   6.166   3.599
 4163TIP3    H112446   4.608   6.197   3.682
 4163TIP3    H212447   4.621   6.085   3.581
 4164TIP3   OH212448   0.560   4.488   5.378
 4164TIP3    H112449   0.512   4.570   5.386
 4164TIP3    H212450   0.520   4.444   5.303
 4165TIP3   OH212451   3.586   3.269   1.244
 4165TIP3    H112452   3.490   3.271   1.246
 4165TIP3    H212453   3.612   3.340   1.303
 4166TIP3   OH212454   2.489   7.358   2.106
 4166TIP3    H112455   2.466   7.433   2.160
 4166TIP3    H212456   2.585   7.357   2.106
 4167TIP3   OH212457   6.555   5.392   2.644
 4167TIP3    H112458   6.636   5.416   2.689
 4167TIP3    H212459   6.583   5.329   2.577
 4168TIP3   OH212460   7.678   7.032   6.153
 4168TIP3    H112461   7.714   7.048   6.067
 4168TIP3    H212462   7.643   6.943   6.148
 4169TIP3   OH212463   2.716   1.618   2.451
 4169TIP3    H112464   2.625   1.638   2.428
 4169TIP3    H212465   2.735   1.536   2.405
 4170TIP3   OH212466   5.420   7.373   6.377
 4170TIP3    H112467   5.337   7.389   6.421
 4170TIP3    H212468   5.471   7.453   6.390
 4171TIP3   OH212469   6.670   2.360   4.245
 4171TIP3    H112470   6.621   2.436   4.277
 4171TIP3    H212471   6.758   2.393   4.230
 4172TIP3   OH212472   4.748   5.094   4.013
 4172TIP3    H112473   4.814   5.106   4.082
 4172TIP3    H212474   4.750   5.000   3.995
 4173TIP3   OH212475   4.856   5.120   4.285
 4173TIP3    H112476   4.811   5.129   4.369
 4173TIP3    H212477   4.916   5.046   4.298
 4174TIP3   OH212478   3.230   0.768   5.826
 4174TIP3    H112479   3.178   0.687   5.833
 4174TIP3    H212480   3.248   0.793   5.917
 4175TIP3   OH212481   7.414   1.862   3.677
 4175TIP3    H112482   7.445   1.922   3.745
 4175TIP3    H212483   7.398   1.918   3.601
 4176TIP3   OH212484   4.398   3.378   6.517
 4176TIP3    H112485   4.375   3.369   6.424
 4176TIP3    H212486   4.388   3.290   6.553
 4177TIP3   OH212487   3.204   3.381   2.416
 4177TIP3    H112488   3.214   3.354   2.325
 4177TIP3    H212489   3.294   3.386   2.450
 4178TIP3   OH212490   7.651   1.119   5.982
 4178TIP3    H112491   7.625   1.188   5.921
 4178TIP3    H212492   7.718   1.069   5.935
 4179TIP3   OH212493   1.446   4.364   5.608
 4179TIP3    H112494   1.531   4.355   5.651
 4179TIP3    H212495   1.403   4.436   5.654
 4180TIP3   OH212496   5.620   6.262   6.620
 4180TIP3    H112497   5.635   6.169   6.638
 4180TIP3    H212498   5.581   6.263   6.532
 4181TIP3   OH212499   2.046   0.677   6.080
 4181TIP3    H112500   2.017   0.614   6.146
 4181TIP3    H212501   2.098   0.741   6.129
 4182TIP3   OH212502   8.166   6.583   0.574
 4182TIP3    H112503   8.254   6.612   0.599
 4182TIP3    H212504   8.181   6.504   0.522
 4183TIP3   OH212505   6.073   7.373   3.253
 4183TIP3    H112506   5.988   7.398   3.289
 4183TIP3    H212507   6.053   7.339   3.166
 4184TIP3   OH212508   6.825   5.571   0.762
 4184TIP3    H112509   6.867   5.506   0.817
 4184TIP3    H212510   6.775   5.626   0.823
 4185TIP3   OH212511   3.931   4.615   2.638
 4185TIP3    H112512   3.992   4.611   2.712
 4185TIP3    H212513   3.894   4.527   2.633
 4186TIP3   OH212514   5.726   5.272   2.169
 4186TIP3    H112515   5.676   5.352   2.189
 4186TIP3    H212516   5.710   5.215   2.244
 4187TIP3   OH212517   7.764   7.699   6.540
 4187TIP3    H112518   7.797   7.733   6.457
 4187TIP3    H212519   7.771   7.604   6.532
 4188TIP3   OH212520   3.557   2.433   0.941
 4188TIP3    H112521   3.604   2.490   1.002
 4188TIP3    H212522   3.470   2.425   0.979
 4189TIP3   OH212523   8.001   7.394   6.274
 4189TIP3    H112524   7.919   7.345   6.275
 4189TIP3    H212525   7.976   7.483   6.248
 4190TIP3   OH212526   7.562   3.938   1.099
 4190TIP3    H112527   7.602   3.953   1.013
 4190TIP3    H212528   7.494   3.872   1.083
 4191TIP3   OH212529   3.129   5.066   6.177
 4191TIP3    H112530   3.092   5.099   6.259
 4191TIP3    H212531   3.167   5.143   6.135
 4192TIP3   OH212532   2.569   5.047   2.263
 4192TIP3    H112533   2.502   5.072   2.327
 4192TIP3    H212534   2.568   5.117   2.198
 4193TIP3   OH212535   0.530   5.712   0.329
 4193TIP3    H112536   0.441   5.682   0.347
 4193TIP3    H212537   0.571   5.640   0.280
 4194TIP3   OH212538   4.223   4.742   1.806
 4194TIP3    H112539   4.313   4.715   1.823
 4194TIP3    H212540   4.196   4.690   1.730
 4195TIP3   OH212541   0.998   3.199   2.510
 4195TIP3    H112542   0.972   3.108   2.493
 4195TIP3    H212543   1.093   3.195   2.522
 4196TIP3   OH212544   5.435   3.462   3.929
 4196TIP3    H112545   5.387   3.510   3.861
 4196TIP3    H212546   5.366   3.425   3.985
 4197TIP3   OH212547   3.294   0.645   3.586
 4197TIP3    H112548   3.317   0.561   3.624
 4197TIP3    H212549   3.375   0.675   3.544
 4198TIP3   OH212550   2.810   6.623   6.298
 4198TIP3    H112551   2.767   6.594   6.218
 4198TIP3    H212552   2.809   6.546   6.356
 4199TIP3   OH212553   7.013   2.954   5.251
 4199TIP3    H112554   7.086   3.016   5.245
 4199TIP3    H212555   7.020   2.917   5.339
 4200TIP3   OH212556   4.600   1.237   0.473
 4200TIP3    H112557   4.648   1.270   0.397
 4200TIP3    H212558   4.577   1.147   0.449
 4201TIP3   OH212559   3.444   3.316   0.846
 4201TIP3    H112560   3.523   3.276   0.882
 4201TIP3    H212561   3.441   3.403   0.887
 4202TIP3   OH212562   4.852   7.210   5.841
 4202TIP3    H112563   4.777   7.175   5.793
 4202TIP3    H212564   4.832   7.304   5.851
 4203TIP3   OH212565   4.955   7.806   3.976
 4203TIP3    H112566   4.892   7.759   3.921
 4203TIP3    H212567   5.030   7.822   3.919
 4204TIP3   OH212568   7.837   5.425   0.479
 4204TIP3    H112569   7.835   5.347   0.534
 4204TIP3    H212570   7.878   5.396   0.397
 4205TIP3   OH212571   3.665   2.213   1.934
 4205TIP3    H112572   3.647   2.222   2.028
 4205TIP3    H212573   3.622   2.132   1.908
 4206TIP3   OH212574   5.943   1.369   0.273
 4206TIP3    H112575   5.873   1.358   0.337
 4206TIP3    H212576   6.022   1.384   0.325
 4207TIP3   OH212577   4.456   1.419   5.517
 4207TIP3    H112578   4.450   1.325   5.498
 4207TIP3    H212579   4.421   1.461   5.438
 4208TIP3   OH212580   3.209   0.190   5.937
 4208TIP3    H112581   3.169   0.273   5.962
 4208TIP3    H212582   3.187   0.130   6.008
 4209TIP3   OH212583   1.146   0.507   2.207
 4209TIP3    H112584   1.120   0.446   2.138
 4209TIP3    H212585   1.236   0.481   2.229
 4210TIP3   OH212586   0.866   1.720   0.562
 4210TIP3    H112587   0.829   1.780   0.627
 4210TIP3    H212588   0.944   1.685   0.605
 4211TIP3   OH212589   6.678   4.536   5.356
 4211TIP3    H112590   6.595   4.488   5.351
 4211TIP3    H212591   6.744   4.468   5.367
 4212TIP3   OH212592   2.413   5.611   1.023
 4212TIP3    H112593   2.494   5.576   1.061
 4212TIP3    H212594   2.385   5.544   0.960
 4213TIP3   OH212595   4.240   4.804   2.224
 4213TIP3    H112596   4.194   4.807   2.307
 4213TIP3    H212597   4.184   4.854   2.164
 4214TIP3   OH212598   7.271   3.970   6.173
 4214TIP3    H112599   7.202   3.972   6.239
 4214TIP3    H212600   7.321   3.891   6.193
 4215TIP3   OH212601   3.779   5.033   1.173
 4215TIP3    H112602   3.864   5.006   1.209
 4215TIP3    H212603   3.798   5.112   1.123
 4216TIP3   OH212604   2.697   4.306   2.667
 4216TIP3    H112605   2.714   4.215   2.692
 4216TIP3    H212606   2.662   4.346   2.746
 4217TIP3   OH212607   7.321   2.982   3.931
 4217TIP3    H112608   7.404   3.017   3.901
 4217TIP3    H212609   7.255   3.041   3.894
 4218TIP3   OH212610   7.337   2.344   3.864
 4218TIP3    H112611   7.305   2.253   3.868
 4218TIP3    H212612   7.305   2.376   3.780
 4219TIP3   OH212613   8.147   5.446   2.539
 4219TIP3    H112614   8.080   5.395   2.584
 4219TIP3    H212615   8.103   5.527   2.515
 4220TIP3   OH212616   2.977   7.634   2.494
 4220TIP3    H112617   3.042   7.655   2.427
 4220TIP3    H212618   2.962   7.540   2.485
 4221TIP3   OH212619   3.490   5.326   5.570
 4221TIP3    H112620   3.436   5.355   5.644
 4221TIP3    H212621   3.532   5.246   5.600
 4222TIP3   OH212622   6.141   4.980   3.249
 4222TIP3    H112623   6.227   4.941   3.269
 4222TIP3    H212624   6.155   5.074   3.261
 4223TIP3   OH212625   0.019   6.556   1.088
 4223TIP3    H112626   0.102   6.600   1.073
 4223TIP3    H212627   0.014   6.545   1.183
 4224TIP3   OH212628   0.149   7.613   6.274
 4224TIP3    H112629   0.089   7.604   6.200
 4224TIP3    H212630   0.236   7.605   6.236
 4225TIP3   OH212631   1.062   6.757   1.037
 4225TIP3    H112632   1.145   6.805   1.036
 4225TIP3    H212633   0.995   6.825   1.037
 4226TIP3   OH212634   2.959   5.226   4.972
 4226TIP3    H112635   2.996   5.259   5.054
 4226TIP3    H212636   2.889   5.167   5.000
 4227TIP3   OH212637   5.537   2.045   1.884
 4227TIP3    H112638   5.489   2.032   1.966
 4227TIP3    H212639   5.499   2.123   1.845
 4228TIP3   OH212640   7.594   4.962   5.588
 4228TIP3    H112641   7.636   5.031   5.537
 4228TIP3    H212642   7.502   4.965   5.563
 4229TIP3   OH212643   5.285   4.668   3.613
 4229TIP3    H112644   5.223   4.732   3.648
 4229TIP3    H212645   5.231   4.594   3.587
 4230TIP3   OH212646   6.688   1.282   4.140
 4230TIP3    H112647   6.685   1.188   4.155
 4230TIP3    H212648   6.597   1.307   4.124
 4231TIP3   OH212649   0.050   6.774   4.352
 4231TIP3    H112650   0.016   6.859   4.380
 4231TIP3    H212651   0.027   6.769   4.259
 4232TIP3   OH212652   6.346   5.345   1.477
 4232TIP3    H112653   6.308   5.301   1.553
 4232TIP3    H212654   6.386   5.425   1.512
 4233TIP3   OH212655   3.111   3.061   0.567
 4233TIP3    H112656   3.169   3.136   0.554
 4233TIP3    H212657   3.097   3.059   0.662
 4234TIP3   OH212658   7.191   7.203   0.457
 4234TIP3    H112659   7.119   7.257   0.491
 4234TIP3    H212660   7.166   7.113   0.480
 4235TIP3   OH212661   2.774   6.897   2.164
 4235TIP3    H112662   2.786   6.861   2.252
 4235TIP3    H212663   2.863   6.908   2.131
 4236TIP3   OH212664   3.610   6.198   2.418
 4236TIP3    H112665   3.682   6.144   2.451
 4236TIP3    H212666   3.637   6.223   2.330
 4237TIP3   OH212667   5.857   5.506   0.190
 4237TIP3    H112668   5.809   5.451   0.251
 4237TIP3    H212669   5.938   5.528   0.236
 4238TIP3   OH212670   3.288   6.740   2.472
 4238TIP3    H112671   3.320   6.701   2.553
 4238TIP3    H212672   3.361   6.733   2.411
 4239TIP3   OH212673   6.181   1.798   4.702
 4239TIP3    H112674   6.127   1.877   4.700
 4239TIP3    H212675   6.117   1.726   4.702
 4240TIP3   OH212676   7.538   6.896   3.870
 4240TIP3    H112677   7.465   6.958   3.862
 4240TIP3    H212678   7.512   6.822   3.815
 4241TIP3   OH212679   4.855   6.263   0.231
 4241TIP3    H112680   4.901   6.256   0.148
 4241TIP3    H212681   4.835   6.357   0.239
 4242TIP3   OH212682   4.349   2.819   1.040
 4242TIP3    H112683   4.336   2.749   0.976
 4242TIP3    H212684   4.345   2.899   0.988
 4243TIP3   OH212685   3.868   0.858   6.601
 4243TIP3    H112686   3.930   0.795   6.637
 4243TIP3    H212687   3.913   0.896   6.526
 4244TIP3   OH212688   4.999   4.726   5.145
 4244TIP3    H112689   4.923   4.679   5.112
 4244TIP3    H212690   5.016   4.794   5.079
 4245TIP3   OH212691   0.544   7.389   4.977
 4245TIP3    H112692   0.587   7.383   5.062
 4245TIP3    H212693   0.579   7.314   4.928
 4246TIP3   OH212694   5.968   2.939   2.080
 4246TIP3    H112695   6.018   3.009   2.122
 4246TIP3    H212696   5.919   2.898   2.151
 4247TIP3   OH212697   4.523   2.924   4.218
 4247TIP3    H112698   4.572   2.897   4.295
 4247TIP3    H212699   4.590   2.945   4.153
 4248TIP3   OH212700   8.149   2.655   2.098
 4248TIP3    H112701   8.114   2.634   2.184
 4248TIP3    H212702   8.099   2.731   2.069
 4249TIP3   OH212703   5.631   3.029   2.498
 4249TIP3    H112704   5.670   3.107   2.539
 4249TIP3    H212705   5.537   3.043   2.506
 4250TIP3   OH212706   6.173   4.057   6.596
 4250TIP3    H112707   6.250   4.113   6.588
 4250TIP3    H212708   6.101   4.110   6.561
 4251TIP3   OH212709   3.393   0.759   3.123
 4251TIP3    H112710   3.413   0.669   3.096
 4251TIP3    H212711   3.364   0.802   3.043
 4252TIP3   OH212712   7.662   4.207   5.863
 4252TIP3    H112713   7.641   4.215   5.770
 4252TIP3    H212714   7.613   4.130   5.892
 4253TIP3   OH212715   4.973   6.211   2.205
 4253TIP3    H112716   4.986   6.296   2.164
 4253TIP3    H212717   5.055   6.194   2.251
 4254TIP3   OH212718   7.705   6.685   1.220
 4254TIP3    H112719   7.774   6.712   1.159
 4254TIP3    H212720   7.634   6.748   1.205
 4255TIP3   OH212721   6.435   4.704   5.536
 4255TIP3    H112722   6.528   4.693   5.559
 4255TIP3    H212723   6.417   4.633   5.475
 4256TIP3   OH212724   2.953   0.760   4.632
 4256TIP3    H112725   2.986   0.832   4.687
 4256TIP3    H212726   3.005   0.766   4.552
 4257TIP3   OH212727   5.468   5.712   1.195
 4257TIP3    H112728   5.470   5.705   1.290
 4257TIP3    H212729   5.376   5.708   1.171
 4258TIP3   OH212730   3.953   3.572   4.176
 4258TIP3    H112731   3.920   3.483   4.187
 4258TIP3    H212732   4.022   3.581   4.242
 4259TIP3   OH212733   4.588   1.268   1.327
 4259TIP3    H112734   4.565   1.221   1.246
 4259TIP3    H212735   4.658   1.328   1.300
 4260TIP3   OH212736   7.615   4.147   0.115
 4260TIP3    H112737   7.699   4.149   0.160
 4260TIP3    H212738   7.620   4.218   0.051
 4261TIP3   OH212739   0.115   4.252   5.900
 4261TIP3    H112740   0.159   4.299   5.830
 4261TIP3    H212741   0.088   4.169   5.861
 4262TIP3   OH212742   1.890   5.104   3.108
 4262TIP3    H112743   1.965   5.152   3.143
 4262TIP3    H212744   1.852   5.060   3.184
 4263TIP3   OH212745   6.002   2.527   5.933
 4263TIP3    H112746   6.040   2.474   5.863
 4263TIP3    H212747   5.925   2.567   5.893
 4264TIP3   OH212748   4.102   0.182   5.568
 4264TIP3    H112749   4.131   0.273   5.579
 4264TIP3    H212750   4.163   0.132   5.622
 4265TIP3   OH212751   5.017   5.939   0.257
 4265TIP3    H112752   5.095   5.984   0.224
 4265TIP3    H212753   5.049   5.853   0.285
 4266TIP3   OH212754   7.265   4.794   1.034
 4266TIP3    H112755   7.305   4.842   1.106
 4266TIP3    H212756   7.171   4.808   1.044
 4267TIP3   OH212757   7.925   6.728   3.091
 4267TIP3    H112758   7.865   6.666   3.133
 4267TIP3    H212759   7.880   6.812   3.096
 4268TIP3   OH212760   7.008   1.037   3.875
 4268TIP3    H112761   7.084   0.989   3.841
 4268TIP3    H212762   6.940   0.971   3.885
 4269TIP3   OH212763   7.086   3.699   2.278
 4269TIP3    H112764   7.130   3.657   2.204
 4269TIP3    H212765   7.157   3.744   2.325
 4270TIP3   OH212766   2.237   1.590   3.619
 4270TIP3    H112767   2.233   1.635   3.535
 4270TIP3    H212768   2.235   1.497   3.597
 4271TIP3   OH212769   4.161   4.993   1.685
 4271TIP3    H112770   4.164   4.910   1.733
 4271TIP3    H212771   4.070   4.999   1.655
 4272TIP3   OH212772   0.826   2.680   6.751
 4272TIP3    H112773   0.860   2.698   6.663
 4272TIP3    H212774   0.732   2.698   6.744
 4273TIP3   OH212775   3.304   3.297   5.074
 4273TIP3    H112776   3.298   3.257   4.988
 4273TIP3    H212777   3.391   3.275   5.105
 4274TIP3   OH212778   2.961   1.187   5.396
 4274TIP3    H112779   2.974   1.101   5.358
 4274TIP3    H212780   3.038   1.202   5.451
 4275TIP3   OH212781   4.826   1.388   3.872
 4275TIP3    H112782   4.885   1.361   3.943
 4275TIP3    H212783   4.772   1.311   3.855
 4276TIP3   OH212784   0.364   2.277   6.229
 4276TIP3    H112785   0.321   2.224   6.296
 4276TIP3    H212786   0.344   2.232   6.147
 4277TIP3   OH212787   2.865   7.409   3.066
 4277TIP3    H112788   2.901   7.439   3.149
 4277TIP3    H212789   2.775   7.443   3.065
 4278TIP3   OH212790   2.171   2.217   0.545
 4278TIP3    H112791   2.165   2.272   0.467
 4278TIP3    H212792   2.080   2.198   0.568
 4279TIP3   OH212793   5.299   2.933   3.117
 4279TIP3    H112794   5.259   2.908   3.033
 4279TIP3    H212795   5.297   2.853   3.169
 4280TIP3   OH212796   3.911   1.288   4.933
 4280TIP3    H112797   3.895   1.246   5.017
 4280TIP3    H212798   3.825   1.297   4.892
 4281TIP3   OH212799   7.357   5.158   3.216
 4281TIP3    H112800   7.342   5.253   3.225
 4281TIP3    H212801   7.321   5.136   3.130
 4282TIP3   OH212802   1.684   7.497   6.049
 4282TIP3    H112803   1.702   7.553   6.125
 4282TIP3    H212804   1.592   7.513   6.029
 4283TIP3   OH212805   7.499   0.844   1.056
 4283TIP3    H112806   7.489   0.817   0.965
 4283TIP3    H212807   7.451   0.778   1.106
 4284TIP3   OH212808   3.722   7.721   0.825
 4284TIP3    H112809   3.814   7.707   0.806
 4284TIP3    H212810   3.675   7.662   0.766
 4285TIP3   OH212811   0.851   1.973   6.543
 4285TIP3    H112812   0.941   1.943   6.531
 4285TIP3    H212813   0.797   1.901   6.512
 4286TIP3   OH212814   2.702   5.499   1.584
 4286TIP3    H112815   2.742   5.507   1.670
 4286TIP3    H212816   2.689   5.405   1.572
 4287TIP3   OH212817   7.770   1.963   1.687
 4287TIP3    H112818   7.711   1.999   1.753
 4287TIP3    H212819   7.799   1.880   1.724
 4288TIP3   OH212820   8.031   1.368   0.527
 4288TIP3    H112821   8.038   1.463   0.514
 4288TIP3    H212822   8.104   1.331   0.478
 4289TIP3   OH212823   1.935   2.224   3.003
 4289TIP3    H112824   2.000   2.262   3.062
 4289TIP3    H212825   1.859   2.205   3.058
 4290TIP3   OH212826   4.267   6.914   0.754
 4290TIP3    H112827   4.352   6.907   0.796
 4290TIP3    H212828   4.246   6.825   0.725
 4291TIP3   OH212829   4.865   3.584   1.517
 4291TIP3    H112830   4.801   3.522   1.483
 4291TIP3    H212831   4.814   3.648   1.565
 4292TIP3   OH212832   8.127   4.070   6.496
 4292TIP3    H112833   8.198   4.006   6.488
 4292TIP3    H212834   8.137   4.126   6.419
 4293TIP3   OH212835   7.210   7.257   6.142
 4293TIP3    H112836   7.147   7.250   6.070
 4293TIP3    H212837   7.295   7.241   6.100
 4294TIP3   OH212838   6.045   1.016   3.638
 4294TIP3    H112839   6.038   1.003   3.543
 4294TIP3    H212840   6.018   1.107   3.652
 4295TIP3   OH212841   3.910   4.244   0.896
 4295TIP3    H112842   3.860   4.232   0.815
 4295TIP3    H212843   3.909   4.339   0.911
 4296TIP3   OH212844  -0.019   0.095   2.142
 4296TIP3    H112845  -0.024   0.153   2.066
 4296TIP3    H212846   0.063   0.118   2.185
 4297TIP3   OH212847   7.085   0.485   5.308
 4297TIP3    H112848   7.051   0.514   5.223
 4297TIP3    H212849   7.175   0.516   5.309
 4298TIP3   OH212850   0.274   6.505   6.439
 4298TIP3    H112851   0.286   6.598   6.420
 4298TIP3    H212852   0.363   6.470   6.447
 4299TIP3   OH212853   2.549   0.959   3.817
 4299TIP3    H112854   2.475   0.903   3.842
 4299TIP3    H212855   2.621   0.898   3.803
 4300TIP3   OH212856   7.532   4.024   4.365
 4300TIP3    H112857   7.469   3.967   4.409
 4300TIP3    H212858   7.595   3.964   4.325
 4301TIP3   OH212859   2.247   3.328   2.163
 4301TIP3    H112860   2.234   3.410   2.114
 4301TIP3    H212861   2.189   3.336   2.239
 4302TIP3   OH212862   0.764   2.043   4.952
 4302TIP3    H112863   0.818   2.058   4.875
 4302TIP3    H212864   0.735   2.130   4.979
 4303TIP3   OH212865   7.409   7.773   1.716
 4303TIP3    H112866   7.463   7.824   1.776
 4303TIP3    H212867   7.383   7.835   1.648
 4304TIP3   OH212868   6.127   1.738   3.440
 4304TIP3    H112869   6.190   1.668   3.421
 4304TIP3    H212870   6.059   1.695   3.493
 4305TIP3   OH212871   7.694   2.350   5.018
 4305TIP3    H112872   7.600   2.334   5.030
 4305TIP3    H212873   7.709   2.335   4.925
 4306TIP3   OH212874   7.106   0.330   2.511
 4306TIP3    H112875   7.069   0.412   2.479
 4306TIP3    H212876   7.200   0.348   2.518
 4307TIP3   OH212877   6.201   5.831   6.121
 4307TIP3    H112878   6.277   5.780   6.147
 4307TIP3    H212879   6.237   5.910   6.080
 4308TIP3   OH212880   6.868   6.489   2.859
 4308TIP3    H112881   6.949   6.540   2.864
 4308TIP3    H212882   6.827   6.518   2.778
 4309TIP3   OH212883   7.280   2.699   1.291
 4309TIP3    H112884   7.211   2.759   1.262
 4309TIP3    H212885   7.292   2.719   1.384
 4310TIP3   OH212886   4.217   6.012   4.526
 4310TIP3    H112887   4.174   5.930   4.550
 4310TIP3    H212888   4.231   6.004   4.432
 4311TIP3   OH212889   4.341   0.574   3.986
 4311TIP3    H112890   4.266   0.560   3.928
 4311TIP3    H212891   4.397   0.636   3.939
 4312TIP3   OH212892   7.045   5.970   5.408
 4312TIP3    H112893   6.971   5.927   5.451
 4312TIP3    H212894   7.090   6.016   5.478
 4313TIP3   OH212895   4.968   5.444   2.402
 4313TIP3    H112896   5.001   5.444   2.312
 4313TIP3    H212897   4.926   5.530   2.412
 4314TIP3   OH212898   2.006   7.656   2.778
 4314TIP3    H112899   2.047   7.708   2.709
 4314TIP3    H212900   1.951   7.594   2.731
 4315TIP3   OH212901   2.465   7.650   6.029
 4315TIP3    H112902   2.460   7.657   5.933
 4315TIP3    H212903   2.435   7.734   6.061
 4316TIP3   OH212904   6.606   1.754   3.500
 4316TIP3    H112905   6.618   1.833   3.551
 4316TIP3    H212906   6.532   1.773   3.443
 4317TIP3   OH212907   6.832   2.128   5.139
 4317TIP3    H112908   6.820   2.141   5.045
 4317TIP3    H212909   6.849   2.035   5.148
 4318TIP3   OH212910   0.116   6.941   3.087
 4318TIP3    H112911   0.181   6.926   3.018
 4318TIP3    H212912   0.093   7.033   3.079
 4319TIP3   OH212913   0.499   2.621   4.146
 4319TIP3    H112914   0.543   2.702   4.121
 4319TIP3    H212915   0.407   2.636   4.124
 4320TIP3   OH212916   2.308   6.686   5.378
 4320TIP3    H112917   2.294   6.592   5.368
 4320TIP3    H212918   2.255   6.726   5.308
 4321TIP3   OH212919   2.814   0.795   4.960
 4321TIP3    H112920   2.783   0.718   5.009
 4321TIP3    H212921   2.772   0.787   4.874
 4322TIP3   OH212922   7.507   2.825   0.280
 4322TIP3    H112923   7.536   2.866   0.361
 4322TIP3    H212924   7.586   2.782   0.246
 4323TIP3   OH212925   1.142   3.542   6.054
 4323TIP3    H112926   1.157   3.579   6.141
 4323TIP3    H212927   1.227   3.507   6.028
 4324TIP3   OH212928   1.675   1.673   1.147
 4324TIP3    H112929   1.645   1.599   1.200
 4324TIP3    H212930   1.766   1.651   1.125
 4325TIP3   OH212931   2.752   4.120   0.346
 4325TIP3    H112932   2.697   4.111   0.424
 4325TIP3    H212933   2.698   4.169   0.284
 4326TIP3   OH212934   5.258   6.143   2.548
 4326TIP3    H112935   5.190   6.094   2.593
 4326TIP3    H212936   5.320   6.166   2.618
 4327TIP3   OH212937   8.011   3.571   2.807
 4327TIP3    H112938   8.079   3.552   2.872
 4327TIP3    H212939   7.930   3.571   2.858
 4328TIP3   OH212940   5.634   3.461   3.412
 4328TIP3    H112941   5.545   3.492   3.392
 4328TIP3    H212942   5.626   3.423   3.499
 4329TIP3   OH212943   3.642   3.891   0.118
 4329TIP3    H112944   3.714   3.896   0.054
 4329TIP3    H212945   3.602   3.978   0.116
 4330TIP3   OH212946   5.698   1.666   1.020
 4330TIP3    H112947   5.670   1.716   1.097
 4330TIP3    H212948   5.737   1.731   0.962
 4331TIP3   OH212949   2.510   4.021   4.335
 4331TIP3    H112950   2.452   4.080   4.287
 4331TIP3    H212951   2.453   3.975   4.396
 4332TIP3   OH212952   4.002   6.288   5.635
 4332TIP3    H112953   3.982   6.285   5.542
 4332TIP3    H212954   3.926   6.248   5.678
 4333TIP3   OH212955   3.825   6.412   4.976
 4333TIP3    H112956   3.757   6.475   4.955
 4333TIP3    H212957   3.779   6.342   5.023
 4334TIP3   OH212958   4.320   0.324   2.970
 4334TIP3    H112959   4.406   0.281   2.966
 4334TIP3    H212960   4.338   0.416   2.952
 4335TIP3   OH212961   5.801   3.843   3.297
 4335TIP3    H112962   5.882   3.792   3.288
 4335TIP3    H212963   5.809   3.912   3.232
 4336TIP3   OH212964   5.415   4.359   3.064
 4336TIP3    H112965   5.343   4.396   3.013
 4336TIP3    H212966   5.487   4.350   3.002
 4337TIP3   OH212967   3.181   2.029   6.107
 4337TIP3    H112968   3.103   1.973   6.106
 4337TIP3    H212969   3.195   2.049   6.200
 4338TIP3   OH212970   2.824   4.123   6.294
 4338TIP3    H112971   2.737   4.162   6.287
 4338TIP3    H212972   2.846   4.096   6.205
 4339TIP3   OH212973   1.739   3.879   5.532
 4339TIP3    H112974   1.768   3.819   5.463
 4339TIP3    H212975   1.740   3.965   5.492
 4340TIP3   OH212976   0.554   2.747   3.518
 4340TIP3    H112977   0.633   2.716   3.563
 4340TIP3    H212978   0.582   2.827   3.474
 4341TIP3   OH212979   3.853   0.541   0.211
 4341TIP3    H112980   3.827   0.509   0.297
 4341TIP3    H212981   3.919   0.478   0.181
 4342TIP3   OH212982   0.750   4.520   0.257
 4342TIP3    H112983   0.786   4.468   0.185
 4342TIP3    H212984   0.757   4.463   0.334
 4343TIP3   OH212985   2.065   2.576   4.738
 4343TIP3    H112986   1.991   2.631   4.710
 4343TIP3    H212987   2.029   2.487   4.738
 4344TIP3   OH212988   7.259   2.538   6.104
 4344TIP3    H112989   7.164   2.536   6.099
 4344TIP3    H212990   7.278   2.548   6.197
 4345TIP3   OH212991   6.034   4.995   5.421
 4345TIP3    H112992   5.981   4.916   5.427
 4345TIP3    H212993   6.121   4.969   5.452
 4346TIP3   OH212994   3.302   1.526   2.939
 4346TIP3    H112995   3.213   1.512   2.907
 4346TIP3    H212996   3.323   1.446   2.988
 4347TIP3   OH212997   5.955   5.267   2.368
 4347TIP3    H112998   5.901   5.278   2.290
 4347TIP3    H212999   5.979   5.356   2.393
 4348TIP3   OH213000   7.272   7.184   2.194
 4348TIP3    H113001   7.323   7.117   2.148
 4348TIP3    H213002   7.333   7.221   2.258
 4349TIP3   OH213003   5.702   0.776   5.336
 4349TIP3    H113004   5.768   0.741   5.397
 4349TIP3    H213005   5.634   0.812   5.393
 4350TIP3   OH213006   7.659   3.579   2.692
 4350TIP3    H113007   7.712   3.528   2.630
 4350TIP3    H213008   7.572   3.541   2.685
 4351TIP3   OH213009   6.750   0.099   4.274
 4351TIP3    H113010   6.703   0.018   4.253
 4351TIP3    H213011   6.738   0.110   4.368
 4352TIP3   OH213012   6.570   6.510   0.458
 4352TIP3    H113013   6.539   6.593   0.495
 4352TIP3    H213014   6.561   6.522   0.363
 4353TIP3   OH213015   1.366   7.519   4.350
 4353TIP3    H113016   1.421   7.477   4.415
 4353TIP3    H213017   1.297   7.563   4.401
 4354TIP3   OH213018   3.841   2.185   6.570
 4354TIP3    H113019   3.747   2.181   6.591
 4354TIP3    H213020   3.844   2.182   6.475
 4355TIP3   OH213021   3.738   6.086   0.728
 4355TIP3    H113022   3.783   6.155   0.679
 4355TIP3    H213023   3.672   6.132   0.780
 4356TIP3   OH213024   1.723   4.504   3.127
 4356TIP3    H113025   1.810   4.541   3.119
 4356TIP3    H213026   1.709   4.495   3.222
 4357TIP3   OH213027   5.578   1.026   5.957
 4357TIP3    H113028   5.606   1.117   5.963
 4357TIP3    H213029   5.532   1.020   5.873
 4358TIP3   OH213030   6.970   6.637   3.173
 4358TIP3    H113031   6.913   6.568   3.208
 4358TIP3    H213032   7.055   6.620   3.214
 4359TIP3   OH213033   7.180   2.204   1.965
 4359TIP3    H113034   7.208   2.164   2.047
 4359TIP3    H213035   7.261   2.232   1.922
 4360TIP3   OH213036   2.804   3.973   4.922
 4360TIP3    H113037   2.801   4.018   4.837
 4360TIP3    H213038   2.845   4.037   4.980
 4361TIP3   OH213039   2.722   2.384   3.318
 4361TIP3    H113040   2.749   2.322   3.250
 4361TIP3    H213041   2.757   2.348   3.399
 4362TIP3   OH213042   0.540   4.932   0.705
 4362TIP3    H113043   0.468   4.994   0.692
 4362TIP3    H213044   0.508   4.874   0.774
 4363TIP3   OH213045   3.047   5.355   3.356
 4363TIP3    H113046   3.027   5.264   3.378
 4363TIP3    H213047   3.052   5.399   3.441
 4364TIP3   OH213048   2.708   1.478   4.174
 4364TIP3    H113049   2.618   1.453   4.194
 4364TIP3    H213050   2.742   1.404   4.123
 4365TIP3   OH213051   3.947   6.208   1.102
 4365TIP3    H113052   3.933   6.301   1.120
 4365TIP3    H213053   4.007   6.179   1.170
 4366TIP3   OH213054   7.794   5.836   6.163
 4366TIP3    H113055   7.730   5.907   6.168
 4366TIP3    H213056   7.804   5.820   6.070
 4367TIP3   OH213057   1.229   4.800   3.086
 4367TIP3    H113058   1.294   4.869   3.075
 4367TIP3    H213059   1.185   4.820   3.169
 4368TIP3   OH213060   2.025   4.925   5.337
 4368TIP3    H113061   1.983   4.905   5.421
 4368TIP3    H213062   2.114   4.951   5.360
 4369TIP3   OH213063   6.303   7.701   1.594
 4369TIP3    H113064   6.230   7.642   1.577
 4369TIP3    H213065   6.379   7.657   1.557
 4370TIP3   OH213066   2.380   5.952   4.058
 4370TIP3    H113067   2.438   6.028   4.057
 4370TIP3    H213068   2.431   5.884   4.102
 4371TIP3   OH213069   0.749   2.223   1.865
 4371TIP3    H113070   0.721   2.164   1.795
 4371TIP3    H213071   0.793   2.165   1.928
 4372TIP3   OH213072   0.546   7.715   4.063
 4372TIP3    H113073   0.541   7.779   4.134
 4372TIP3    H213074   0.639   7.689   4.062
 4373TIP3   OH213075   4.276   3.763   5.956
 4373TIP3    H113076   4.315   3.850   5.947
 4373TIP3    H213077   4.321   3.710   5.891
 4374TIP3   OH213078   8.149   2.636   5.411
 4374TIP3    H113079   8.054   2.620   5.413
 4374TIP3    H213080   8.162   2.705   5.476
 4375TIP3   OH213081   4.817   2.415   5.792
 4375TIP3    H113082   4.862   2.365   5.860
 4375TIP3    H213083   4.733   2.440   5.831
 4376TIP3   OH213084   7.909   5.951   4.347
 4376TIP3    H113085   7.955   5.966   4.265
 4376TIP3    H213086   7.861   6.033   4.362
 4377TIP3   OH213087   4.300   4.955   5.345
 4377TIP3    H113088   4.206   4.958   5.328
 4377TIP3    H213089   4.337   5.023   5.288
 4378TIP3   OH213090   2.645   1.891   1.382
 4378TIP3    H113091   2.628   1.906   1.475
 4378TIP3    H213092   2.563   1.856   1.348
 4379TIP3   OH213093   5.361   1.442   2.038
 4379TIP3    H113094   5.441   1.462   1.990
 4379TIP3    H213095   5.389   1.383   2.108
 4380TIP3   OH213096   7.066   5.971   1.733
 4380TIP3    H113097   7.138   5.913   1.708
 4380TIP3    H213098   7.085   6.054   1.689
 4381TIP3   OH213099   6.635   1.310   5.467
 4381TIP3    H113100   6.724   1.343   5.480
 4381TIP3    H213101   6.588   1.383   5.426
 4382TIP3   OH213102   6.244   4.032   2.885
 4382TIP3    H113103   6.206   3.960   2.835
 4382TIP3    H213104   6.193   4.109   2.860
 4383TIP3   OH213105   1.405   0.352   4.121
 4383TIP3    H113106   1.390   0.446   4.122
 4383TIP3    H213107   1.461   0.338   4.045
 4384TIP3   OH213108   3.674   2.537   2.303
 4384TIP3    H113109   3.656   2.540   2.397
 4384TIP3    H213110   3.708   2.624   2.282
 4385TIP3   OH213111   5.482   3.032   4.898
 4385TIP3    H113112   5.432   3.113   4.889
 4385TIP3    H213113   5.440   2.972   4.837
 4386TIP3   OH213114   0.034   2.124   3.463
 4386TIP3    H113115  -0.052   2.144   3.500
 4386TIP3    H213116   0.016   2.103   3.371
 4387TIP3   OH213117   3.736   3.378   5.874
 4387TIP3    H113118   3.769   3.421   5.953
 4387TIP3    H213119   3.690   3.301   5.905
 4388TIP3   OH213120   6.457   0.367   4.339
 4388TIP3    H113121   6.453   0.307   4.414
 4388TIP3    H213122   6.453   0.310   4.263
 4389TIP3   OH213123   2.948   1.314   3.234
 4389TIP3    H113124   3.040   1.320   3.210
 4389TIP3    H213125   2.945   1.341   3.325
 4390TIP3   OH213126   3.658   4.551   5.414
 4390TIP3    H113127   3.589   4.587   5.470
 4390TIP3    H213128   3.629   4.462   5.395
 4391TIP3   OH213129   5.170   3.101   0.144
 4391TIP3    H113130   5.204   3.191   0.141
 4391TIP3    H213131   5.175   3.071   0.053
 4392TIP3   OH213132   1.399   4.607   5.347
 4392TIP3    H113133   1.439   4.521   5.333
 4392TIP3    H213134   1.305   4.590   5.344
 4393TIP3   OH213135   1.331   5.024   2.278
 4393TIP3    H113136   1.394   4.999   2.210
 4393TIP3    H213137   1.249   5.035   2.231
 4394TIP3   OH213138   3.578   3.669   1.973
 4394TIP3    H113139   3.653   3.638   2.023
 4394TIP3    H213140   3.611   3.678   1.884
 4395TIP3   OH213141   4.574   6.422   4.994
 4395TIP3    H113142   4.547   6.340   5.036
 4395TIP3    H213143   4.500   6.445   4.937
 4396TIP3   OH213144   0.932   7.534   5.873
 4396TIP3    H113145   0.926   7.498   5.785
 4396TIP3    H213146   0.959   7.625   5.860
 4397TIP3   OH213147   2.679   4.769   4.618
 4397TIP3    H113148   2.765   4.745   4.652
 4397TIP3    H213149   2.621   4.764   4.694
 4398TIP3   OH213150   3.069   2.202   0.937
 4398TIP3    H113151   3.154   2.196   0.895
 4398TIP3    H213152   3.019   2.128   0.900
 4399TIP3   OH213153   5.129   1.004   4.192
 4399TIP3    H113154   5.202   1.000   4.254
 4399TIP3    H213155   5.121   1.097   4.170
 4400TIP3   OH213156   2.631   5.557   4.485
 4400TIP3    H113157   2.622   5.483   4.546
 4400TIP3    H213158   2.541   5.590   4.475
 4401TIP3   OH213159   6.234   3.562   1.885
 4401TIP3    H113160   6.148   3.593   1.857
 4401TIP3    H213161   6.288   3.641   1.888
 4402TIP3   OH213162   0.124   2.496   0.677
 4402TIP3    H113163   0.196   2.527   0.732
 4402TIP3    H213164   0.163   2.484   0.590
 4403TIP3   OH213165   7.234   1.242   2.957
 4403TIP3    H113166   7.329   1.245   2.970
 4403TIP3    H213167   7.224   1.201   2.870
 4404TIP3   OH213168   7.063   2.548   3.224
 4404TIP3    H113169   7.060   2.452   3.218
 4404TIP3    H213170   7.152   2.567   3.254
 4405TIP3   OH213171   2.468   3.935   4.929
 4405TIP3    H113172   2.502   3.845   4.929
 4405TIP3    H213173   2.407   3.938   4.856
 4406TIP3   OH213174   1.028   2.396   5.690
 4406TIP3    H113175   0.988   2.400   5.777
 4406TIP3    H213176   1.102   2.455   5.695
 4407TIP3   OH213177   1.731   4.958   5.878
 4407TIP3    H113178   1.820   4.925   5.865
 4407TIP3    H213179   1.717   4.952   5.973
 4408TIP3   OH213180   3.329   1.289   6.552
 4408TIP3    H113181   3.288   1.314   6.635
 4408TIP3    H213182   3.362   1.371   6.516
 4409TIP3   OH213183   7.546   4.680   3.560
 4409TIP3    H113184   7.517   4.661   3.649
 4409TIP3    H213185   7.489   4.627   3.504
 4410TIP3   OH213186   6.020   4.525   1.738
 4410TIP3    H113187   6.077   4.565   1.805
 4410TIP3    H213188   5.931   4.544   1.769
 4411TIP3   OH213189  -0.022   6.199   4.316
 4411TIP3    H113190  -0.018   6.212   4.222
 4411TIP3    H213191   0.064   6.162   4.339
 4412TIP3   OH213192   1.785   3.974   4.901
 4412TIP3    H113193   1.766   4.031   4.827
 4412TIP3    H213194   1.741   4.016   4.975
 4413TIP3   OH213195   2.121   2.131   0.073
 4413TIP3    H113196   2.104   2.059   0.012
 4413TIP3    H213197   2.102   2.210   0.023
 4414TIP3   OH213198   7.418   1.961   2.552
 4414TIP3    H113199   7.456   1.893   2.607
 4414TIP3    H213200   7.440   2.043   2.595
 4415TIP3   OH213201   6.278   5.306   4.450
 4415TIP3    H113202   6.225   5.275   4.376
 4415TIP3    H213203   6.336   5.232   4.470
 4416TIP3   OH213204   7.631   0.055   0.809
 4416TIP3    H113205   7.635   0.125   0.744
 4416TIP3    H213206   7.621  -0.025   0.757
 4417TIP3   OH213207   1.961   2.027   3.954
 4417TIP3    H113208   2.032   2.088   3.975
 4417TIP3    H213209   1.933   1.993   4.039
 4418TIP3   OH213210   3.905   4.800   3.890
 4418TIP3    H113211   3.963   4.724   3.881
 4418TIP3    H213212   3.900   4.838   3.803
 4419TIP3   OH213213   4.170   4.041   6.621
 4419TIP3    H113214   4.152   3.987   6.544
 4419TIP3    H213215   4.088   4.088   6.637
 4420TIP3   OH213216   5.385   1.382   0.117
 4420TIP3    H113217   5.461   1.438   0.134
 4420TIP3    H213218   5.415   1.294   0.141
 4421TIP3   OH213219   3.230   0.045   0.808
 4421TIP3    H113220   3.262  -0.035   0.848
 4421TIP3    H213221   3.178   0.016   0.733
 4422TIP3   OH213222   4.195   6.682   4.716
 4422TIP3    H113223   4.259   6.634   4.664
 4422TIP3    H213224   4.240   6.763   4.742
 4423TIP3   OH213225   5.144   1.729   3.426
 4423TIP3    H113226   5.089   1.651   3.419
 4423TIP3    H213227   5.170   1.748   3.336
 4424TIP3   OH213228   1.089   4.849   6.205
 4424TIP3    H113229   1.122   4.816   6.288
 4424TIP3    H213230   1.096   4.944   6.213
 4425TIP3   OH213231   5.307   7.528   3.234
 4425TIP3    H113232   5.216   7.502   3.218
 4425TIP3    H213233   5.299   7.614   3.275
 4426TIP3   OH213234   3.260   2.202   5.172
 4426TIP3    H113235   3.202   2.277   5.169
 4426TIP3    H213236   3.316   2.212   5.095
 4427TIP3   OH213237   7.251   3.661   1.759
 4427TIP3    H113238   7.291   3.575   1.773
 4427TIP3    H213239   7.310   3.705   1.698
 4428TIP3   OH213240   6.279   2.145   0.561
 4428TIP3    H113241   6.258   2.101   0.479
 4428TIP3    H213242   6.290   2.074   0.624
 4429TIP3   OH213243   6.579   0.762   1.015
 4429TIP3    H113244   6.607   0.718   1.095
 4429TIP3    H213245   6.630   0.843   1.013
 4430TIP3   OH213246   6.437   3.030   5.578
 4430TIP3    H113247   6.486   3.109   5.601
 4430TIP3    H213248   6.405   3.047   5.490
 4431TIP3   OH213249   8.243   0.816   2.210
 4431TIP3    H113250   8.149   0.828   2.198
 4431TIP3    H213251   8.284   0.877   2.148
 4432TIP3   OH213252   5.009   2.579   6.042
 4432TIP3    H113253   5.040   2.496   6.006
 4432TIP3    H213254   4.960   2.619   5.970
 4433TIP3   OH213255   3.413   0.606   2.161
 4433TIP3    H113256   3.397   0.571   2.073
 4433TIP3    H213257   3.337   0.663   2.178
 4434TIP3   OH213258   2.235   3.408   6.724
 4434TIP3    H113259   2.216   3.384   6.633
 4434TIP3    H213260   2.200   3.336   6.776
 4435TIP3   OH213261   1.505   1.237   2.339
 4435TIP3    H113262   1.521   1.245   2.433
 4435TIP3    H213263   1.588   1.204   2.303
 4436TIP3   OH213264   1.283   1.150   4.008
 4436TIP3    H113265   1.239   1.117   3.929
 4436TIP3    H213266   1.254   1.091   4.078
 4437TIP3   OH213267   2.619   0.977   6.767
 4437TIP3    H113268   2.523   0.981   6.768
 4437TIP3    H213269   2.640   0.910   6.702
 4438TIP3   OH213270   2.241   1.279   0.329
 4438TIP3    H113271   2.218   1.335   0.403
 4438TIP3    H213272   2.198   1.320   0.253
 4439TIP3   OH213273   0.271   3.559   4.292
 4439TIP3    H113274   0.220   3.634   4.261
 4439TIP3    H213275   0.247   3.550   4.384
 4440TIP3   OH213276   2.328   5.662   2.625
 4440TIP3    H113277   2.328   5.616   2.541
 4440TIP3    H213278   2.277   5.741   2.609
 4441TIP3   OH213279   5.716   5.999   6.569
 4441TIP3    H113280   5.745   5.927   6.514
 4441TIP3    H213281   5.798   6.043   6.595
 4442TIP3   OH213282   5.192   2.244   6.238
 4442TIP3    H113283   5.262   2.181   6.223
 4442TIP3    H213284   5.228   2.327   6.205
 4443TIP3   OH213285   2.237   0.195   0.853
 4443TIP3    H113286   2.225   0.105   0.881
 4443TIP3    H213287   2.162   0.242   0.889
 4444TIP3   OH213288   8.165   5.157   5.082
 4444TIP3    H113289   8.244   5.196   5.119
 4444TIP3    H213290   8.163   5.186   4.991
 4445TIP3   OH213291   6.184   0.806   4.840
 4445TIP3    H113292   6.197   0.739   4.772
 4445TIP3    H213293   6.228   0.884   4.805
 4446TIP3   OH213294   8.074   3.411   6.649
 4446TIP3    H113295   8.124   3.486   6.680
 4446TIP3    H213296   7.995   3.449   6.610
 4447TIP3   OH213297   5.480   5.927   4.407
 4447TIP3    H113298   5.544   5.977   4.458
 4447TIP3    H213299   5.470   5.977   4.326
 4448TIP3   OH213300   3.832   3.157   2.685
 4448TIP3    H113301   3.887   3.209   2.743
 4448TIP3    H213302   3.771   3.112   2.743
 4449TIP3   OH213303   2.539   5.332   3.820
 4449TIP3    H113304   2.576   5.315   3.907
 4449TIP3    H213305   2.600   5.393   3.780
 4450TIP3   OH213306   2.041   1.349   3.051
 4450TIP3    H113307   1.950   1.319   3.057
 4450TIP3    H213308   2.047   1.388   2.963
 4451TIP3   OH213309   7.891   2.758   1.226
 4451TIP3    H113310   7.856   2.815   1.295
 4451TIP3    H213311   7.902   2.816   1.151
 4452TIP3   OH213312   0.123   3.624   5.156
 4452TIP3    H113313   0.213   3.594   5.147
 4452TIP3    H213314   0.124   3.714   5.124
 4453TIP3   OH213315   3.591   0.284   5.754
 4453TIP3    H113316   3.636   0.308   5.835
 4453TIP3    H213317   3.660   0.276   5.688
 4454TIP3   OH213318   0.326   4.433   4.897
 4454TIP3    H113319   0.410   4.412   4.939
 4454TIP3    H213320   0.265   4.369   4.933
 4455TIP3   OH213321   7.717   3.944   5.290
 4455TIP3    H113322   7.777   3.874   5.316
 4455TIP3    H213323   7.652   3.947   5.360
 4456TIP3   OH213324   7.153   5.749   0.214
 4456TIP3    H113325   7.122   5.694   0.286
 4456TIP3    H213326   7.247   5.759   0.230
 4457TIP3   OH213327   3.194   1.778   4.471
 4457TIP3    H113328   3.231   1.692   4.492
 4457TIP3    H213329   3.238   1.804   4.390
 4458TIP3   OH213330   6.291   7.521   1.123
 4458TIP3    H113331   6.371   7.573   1.124
 4458TIP3    H213332   6.321   7.430   1.115
 4459TIP3   OH213333   1.024   5.160   6.695
 4459TIP3    H113334   0.964   5.156   6.620
 4459TIP3    H213335   1.060   5.072   6.701
 4460TIP3   OH213336   6.243   0.404   2.419
 4460TIP3    H113337   6.338   0.419   2.425
 4460TIP3    H213338   6.212   0.407   2.509
 4461TIP3   OH213339   7.115   0.949   2.518
 4461TIP3    H113340   7.039   0.890   2.518
 4461TIP3    H213341   7.154   0.938   2.432
 4462TIP3   OH213342   2.493   7.623   2.214
 4462TIP3    H113343   2.563   7.657   2.270
 4462TIP3    H213344   2.421   7.605   2.275
 4463TIP3   OH213345   1.167   1.950   5.944
 4463TIP3    H113346   1.083   1.930   5.902
 4463TIP3    H213347   1.145   1.974   6.033
 4464TIP3   OH213348   0.387   5.183   5.199
 4464TIP3    H113349   0.464   5.198   5.143
 4464TIP3    H213350   0.368   5.269   5.237
 4465TIP3   OH213351   6.643   4.865   4.005
 4465TIP3    H113352   6.615   4.831   4.090
 4465TIP3    H213353   6.707   4.933   4.025
 4466TIP3   OH213354   6.543   2.096   3.429
 4466TIP3    H113355   6.515   2.009   3.402
 4466TIP3    H213356   6.485   2.118   3.502
 4467TIP3   OH213357   1.569   5.341   3.128
 4467TIP3    H113358   1.640   5.386   3.081
 4467TIP3    H213359   1.551   5.263   3.075
 4468TIP3   OH213360   7.269   7.794   6.705
 4468TIP3    H113361   7.246   7.870   6.650
 4468TIP3    H213362   7.364   7.787   6.696
 4469TIP3   OH213363   5.541   4.662   2.975
 4469TIP3    H113364   5.522   4.756   2.979
 4469TIP3    H213365   5.505   4.634   2.891
 4470TIP3   OH213366   2.763   6.116   5.878
 4470TIP3    H113367   2.816   6.193   5.901
 4470TIP3    H213368   2.694   6.114   5.943
 4471TIP3   OH213369   7.521   4.632   4.371
 4471TIP3    H113370   7.477   4.550   4.348
 4471TIP3    H213371   7.450   4.691   4.397
 4472TIP3   OH213372   5.775   3.570   5.994
 4472TIP3    H113373   5.819   3.512   6.058
 4472TIP3    H213374   5.834   3.644   5.984
 4473TIP3   OH213375   0.217   4.826   3.591
 4473TIP3    H113376   0.299   4.837   3.542
 4473TIP3    H213377   0.238   4.761   3.659
 4474TIP3   OH213378   7.080   2.166   0.686
 4474TIP3    H113379   7.129   2.240   0.651
 4474TIP3    H213380   7.147   2.109   0.724
 4475TIP3   OH213381   1.842   3.297   1.809
 4475TIP3    H113382   1.907   3.361   1.838
 4475TIP3    H213383   1.778   3.348   1.759
 4476TIP3   OH213384   7.418   5.583   0.887
 4476TIP3    H113385   7.440   5.659   0.834
 4476TIP3    H213386   7.438   5.508   0.831
 4477TIP3   OH213387   1.924   5.213   1.439
 4477TIP3    H113388   1.966   5.221   1.354
 4477TIP3    H213389   1.853   5.150   1.425
 4478TIP3   OH213390   7.893   5.328   0.233
 4478TIP3    H113391   7.933   5.246   0.201
 4478TIP3    H213392   7.826   5.349   0.168
 4479TIP3   OH213393   6.502   0.149   2.381
 4479TIP3    H113394   6.533   0.239   2.379
 4479TIP3    H213395   6.537   0.114   2.463
 4480TIP3   OH213396   6.387   5.785   1.944
 4480TIP3    H113397   6.482   5.777   1.952
 4480TIP3    H213398   6.369   5.877   1.966
 4481TIP3   OH213399   3.945   7.684   4.057
 4481TIP3    H113400   3.944   7.593   4.087
 4481TIP3    H213401   3.867   7.723   4.095
 4482TIP3   OH213402   0.402   5.113   6.621
 4482TIP3    H113403   0.387   5.190   6.677
 4482TIP3    H213404   0.329   5.113   6.559
 4483TIP3   OH213405   1.762   6.399   4.690
 4483TIP3    H113406   1.784   6.382   4.598
 4483TIP3    H213407   1.819   6.339   4.739
 4484TIP3   OH213408   3.426   6.887   0.082
 4484TIP3    H113409   3.404   6.802   0.043
 4484TIP3    H213410   3.520   6.895   0.070
 4485TIP3   OH213411   4.600   1.110   4.066
 4485TIP3    H113412   4.564   1.156   4.141
 4485TIP3    H213413   4.579   1.018   4.081
 4486TIP3   OH213414   7.498   6.286   4.346
 4486TIP3    H113415   7.505   6.265   4.253
 4486TIP3    H213416   7.507   6.202   4.390
 4487TIP3   OH213417   6.669   7.346   2.119
 4487TIP3    H113418   6.591   7.294   2.138
 4487TIP3    H213419   6.638   7.415   2.060
 4488TIP3   OH213420   4.048   5.145   5.847
 4488TIP3    H113421   4.106   5.212   5.882
 4488TIP3    H213422   4.104   5.094   5.788
 4489TIP3   OH213423   3.380   4.108   1.695
 4489TIP3    H113424   3.430   4.184   1.723
 4489TIP3    H213425   3.301   4.144   1.655
 4490TIP3   OH213426   6.987   4.271   3.902
 4490TIP3    H113427   6.938   4.207   3.850
 4490TIP3    H213428   6.978   4.240   3.992
 4491TIP3   OH213429   7.924   2.983   1.836
 4491TIP3    H113430   7.975   2.915   1.792
 4491TIP3    H213431   7.844   2.939   1.865
 4492TIP3   OH213432   3.201   5.710   4.178
 4492TIP3    H113433   3.256   5.679   4.250
 4492TIP3    H213434   3.183   5.801   4.199
 4493TIP3   OH213435   3.086   1.802   3.877
 4493TIP3    H113436   3.046   1.757   3.802
 4493TIP3    H213437   3.104   1.890   3.845
 4494TIP3   OH213438   4.968   3.373   4.048
 4494TIP3    H113439   4.904   3.427   4.094
 4494TIP3    H213440   4.950   3.284   4.076
 4495TIP3   OH213441   1.159   5.114   3.925
 4495TIP3    H113442   1.086   5.055   3.904
 4495TIP3    H213443   1.235   5.057   3.932
 4496TIP3   OH213444   0.849   2.800   3.233
 4496TIP3    H113445   0.919   2.860   3.204
 4496TIP3    H213446   0.788   2.856   3.281
 4497TIP3   OH213447   0.841   4.196   4.540
 4497TIP3    H113448   0.817   4.126   4.601
 4497TIP3    H213449   0.931   4.174   4.513
 4498TIP3   OH213450   3.459   4.951   2.313
 4498TIP3    H113451   3.488   5.032   2.269
 4498TIP3    H213452   3.493   4.958   2.402
 4499TIP3   OH213453   4.645   1.127   3.246
 4499TIP3    H113454   4.573   1.190   3.241
 4499TIP3    H213455   4.617   1.054   3.191
 4500TIP3   OH213456   4.017   0.492   3.046
 4500TIP3    H113457   4.022   0.573   3.096
 4500TIP3    H213458   4.038   0.423   3.109
 4501TIP3   OH213459   2.128   0.923   5.493
 4501TIP3    H113460   2.172   0.878   5.566
 4501TIP3    H213461   2.103   0.852   5.433
 4502TIP3   OH213462   7.556   3.832   2.754
 4502TIP3    H113463   7.597   3.745   2.748
 4502TIP3    H213464   7.630   3.892   2.757
 4503TIP3   OH213465   3.874   0.307   4.763
 4503TIP3    H113466   3.928   0.285   4.687
 4503TIP3    H213467   3.926   0.278   4.838
 4504TIP3   OH213468   1.931   0.740   3.589
 4504TIP3    H113469   1.887   0.807   3.536
 4504TIP3    H213470   2.000   0.705   3.533
 4505TIP3   OH213471   4.111   5.105   2.668
 4505TIP3    H113472   4.157   5.034   2.711
 4505TIP3    H213473   4.175   5.176   2.663
 4506TIP3   OH213474   5.732   7.517   4.555
 4506TIP3    H113475   5.677   7.583   4.597
 4506TIP3    H213476   5.766   7.560   4.477
 4507TIP3   OH213477   5.319   0.370   0.525
 4507TIP3    H113478   5.316   0.356   0.430
 4507TIP3    H213479   5.392   0.316   0.555
 4508TIP3   OH213480   4.869   6.439   3.793
 4508TIP3    H113481   4.841   6.471   3.879
 4508TIP3    H213482   4.963   6.458   3.791
 4509TIP3   OH213483   3.941   7.010   4.056
 4509TIP3    H113484   3.858   6.962   4.053
 4509TIP3    H213485   4.008   6.942   4.053
 4510TIP3   OH213486   5.579   1.483   0.304
 4510TIP3    H113487   5.607   1.394   0.325
 4510TIP3    H213488   5.631   1.539   0.363
 4511TIP3   OH213489   3.263   1.924   5.236
 4511TIP3    H113490   3.236   2.012   5.211
 4511TIP3    H213491   3.290   1.882   5.154
 4512TIP3   OH213492   1.486   5.828   3.926
 4512TIP3    H113493   1.546   5.754   3.933
 4512TIP3    H213494   1.401   5.793   3.952
 4513TIP3   OH213495   1.931   7.538   2.490
 4513TIP3    H113496   1.952   7.535   2.396
 4513TIP3    H213497   1.959   7.624   2.518
 4514TIP3   OH213498   0.937   6.953   6.233
 4514TIP3    H113499   0.850   6.916   6.249
 4514TIP3    H213500   0.930   6.995   6.148
 4515TIP3   OH213501   7.710   6.805   5.434
 4515TIP3    H113502   7.624   6.778   5.402
 4515TIP3    H213503   7.696   6.894   5.466
 4516TIP3   OH213504   2.756   1.961   2.307
 4516TIP3    H113505   2.700   1.942   2.232
 4516TIP3    H213506   2.804   2.040   2.283
 4517TIP3   OH213507   8.129   5.812   4.441
 4517TIP3    H113508   8.046   5.854   4.422
 4517TIP3    H213509   8.140   5.819   4.536
 4518TIP3   OH213510   0.697   3.503   2.673
 4518TIP3    H113511   0.620   3.448   2.690
 4518TIP3    H213512   0.685   3.532   2.582
 4519TIP3   OH213513   4.440   3.078   4.899
 4519TIP3    H113514   4.473   3.095   4.811
 4519TIP3    H213515   4.380   3.004   4.889
 4520TIP3   OH213516   4.193   6.606   6.514
 4520TIP3    H113517   4.240   6.548   6.575
 4520TIP3    H213518   4.151   6.670   6.570
 4521TIP3   OH213519   3.679   7.525   1.219
 4521TIP3    H113520   3.709   7.494   1.304
 4521TIP3    H213521   3.628   7.452   1.184
 4522TIP3   OH213522   1.886   3.650   4.240
 4522TIP3    H113523   1.798   3.638   4.275
 4522TIP3    H213524   1.942   3.598   4.298
 4523TIP3   OH213525   0.001   5.408   1.562
 4523TIP3    H113526  -0.038   5.324   1.537
 4523TIP3    H213527   0.083   5.412   1.513
 4524TIP3   OH213528   3.956   0.551   2.790
 4524TIP3    H113529   3.961   0.512   2.877
 4524TIP3    H213530   3.986   0.641   2.801
 4525TIP3   OH213531   5.642   4.760   1.571
 4525TIP3    H113532   5.592   4.807   1.637
 4525TIP3    H213533   5.576   4.719   1.515
 4526TIP3   OH213534   4.159   2.966   5.672
 4526TIP3    H113535   4.098   3.030   5.634
 4526TIP3    H213536   4.240   2.978   5.624
 4527TIP3   OH213537   6.691   4.586   3.504
 4527TIP3    H113538   6.722   4.527   3.572
 4527TIP3    H213539   6.744   4.665   3.514
 4528TIP3   OH213540   7.497   7.278   2.325
 4528TIP3    H113541   7.531   7.258   2.238
 4528TIP3    H213542   7.569   7.259   2.384
 4529TIP3   OH213543   8.039   0.798   0.224
 4529TIP3    H113544   8.077   0.721   0.181
 4529TIP3    H213545   7.998   0.764   0.303
 4530TIP3   OH213546   0.754   5.017   0.296
 4530TIP3    H113547   0.761   4.925   0.271
 4530TIP3    H213548   0.782   5.019   0.388
 4531TIP3   OH213549   2.197   4.191   0.613
 4531TIP3    H113550   2.146   4.136   0.553
 4531TIP3    H213551   2.156   4.277   0.608
 4532TIP3   OH213552   2.880   4.972   6.142
 4532TIP3    H113553   2.952   4.934   6.192
 4532TIP3    H213554   2.920   5.041   6.090
 4533TIP3   OH213555   7.075   2.129   6.500
 4533TIP3    H113556   7.125   2.102   6.577
 4533TIP3    H213557   7.135   2.186   6.452
 4534TIP3   OH213558   1.676   5.639   3.983
 4534TIP3    H113559   1.670   5.666   4.075
 4534TIP3    H213560   1.697   5.545   3.988
 4535TIP3   OH213561   3.868   1.287   5.965
 4535TIP3    H113562   3.848   1.193   5.971
 4535TIP3    H213563   3.867   1.317   6.056
 4536TIP3   OH213564   3.648   4.364   0.357
 4536TIP3    H113565   3.714   4.295   0.354
 4536TIP3    H213566   3.654   4.400   0.445
 4537TIP3   OH213567   6.208   3.232   2.794
 4537TIP3    H113568   6.152   3.246   2.870
 4537TIP3    H213569   6.187   3.304   2.734
 4538TIP3   OH213570   7.362   6.704   1.335
 4538TIP3    H113571   7.366   6.629   1.276
 4538TIP3    H213572   7.272   6.704   1.368
 4539TIP3   OH213573   0.451   1.863   1.971
 4539TIP3    H113574   0.362   1.862   1.937
 4539TIP3    H213575   0.483   1.774   1.960
 4540TIP3   OH213576   0.283   5.313   1.099
 4540TIP3    H113577   0.316   5.403   1.090
 4540TIP3    H213578   0.325   5.266   1.026
 4541TIP3   OH213579   0.056   5.603  -0.015
 4541TIP3    H113580   0.037   5.510  -0.022
 4541TIP3    H213581   0.128   5.608   0.048
 4542TIP3   OH213582   0.074   7.184   3.004
 4542TIP3    H113583  -0.020   7.191   2.986
 4542TIP3    H213584   0.096   7.265   3.050
 4543TIP3   OH213585   3.403   3.457   2.589
 4543TIP3    H113586   3.379   3.479   2.679
 4543TIP3    H213587   3.471   3.390   2.597
 4544TIP3   OH213588   6.080   1.446   5.327
 4544TIP3    H113589   5.990   1.457   5.359
 4544TIP3    H213590   6.085   1.503   5.250
 4545TIP3   OH213591   8.050   0.045   1.328
 4545TIP3    H113592   8.005   0.095   1.259
 4545TIP3    H213593   7.992  -0.030   1.344
 4546TIP3   OH213594   3.933   2.180   4.723
 4546TIP3    H113595   3.924   2.246   4.792
 4546TIP3    H213596   3.870   2.112   4.746
 4547TIP3   OH213597   4.147   6.208   2.528
 4547TIP3    H113598   4.134   6.303   2.528
 4547TIP3    H213599   4.148   6.184   2.620
 4548TIP3   OH213600   5.686   1.268   0.420
 4548TIP3    H113601   5.748   1.198   0.437
 4548TIP3    H213602   5.645   1.285   0.506
 4549TIP3   OH213603   6.691   2.480   0.835
 4549TIP3    H113604   6.717   2.440   0.918
 4549TIP3    H213605   6.660   2.567   0.859
 4550TIP3   OH213606   6.277   7.191   3.902
 4550TIP3    H113607   6.361   7.235   3.890
 4550TIP3    H213608   6.277   7.164   3.994
 4551TIP3   OH213609   4.732   0.710   6.751
 4551TIP3    H113610   4.715   0.616   6.748
 4551TIP3    H213611   4.656   0.750   6.708
 4552TIP3   OH213612   3.353   2.358   2.540
 4552TIP3    H113613   3.401   2.424   2.590
 4552TIP3    H213614   3.420   2.294   2.515
 4553TIP3   OH213615   7.320   1.902   0.381
 4553TIP3    H113616   7.367   1.958   0.443
 4553TIP3    H213617   7.293   1.826   0.433
 4554TIP3   OH213618   5.316   3.666   6.630
 4554TIP3    H113619   5.310   3.612   6.551
 4554TIP3    H213620   5.398   3.714   6.620
 4555TIP3   OH213621   6.312   5.362   5.905
 4555TIP3    H113622   6.285   5.430   5.968
 4555TIP3    H213623   6.407   5.361   5.911
 4556TIP3   OH213624   7.936   5.707   6.369
 4556TIP3    H113625   7.990   5.663   6.304
 4556TIP3    H213626   7.894   5.779   6.321
 4557TIP3   OH213627   1.716   6.156   4.507
 4557TIP3    H113628   1.701   6.082   4.448
 4557TIP3    H213629   1.631   6.172   4.548
 4558TIP3   OH213630   4.805   4.523   3.833
 4558TIP3    H113631   4.757   4.493   3.756
 4558TIP3    H213632   4.743   4.511   3.906
 4559TIP3   OH213633   1.891   2.749   2.637
 4559TIP3    H113634   1.849   2.732   2.721
 4559TIP3    H213635   1.901   2.662   2.598
 4560TIP3   OH213636   3.731   6.854   3.186
 4560TIP3    H113637   3.679   6.906   3.248
 4560TIP3    H213638   3.709   6.890   3.100
 4561TIP3   OH213639   0.895   4.549   6.237
 4561TIP3    H113640   0.826   4.500   6.193
 4561TIP3    H213641   0.901   4.631   6.188
 4562TIP3   OH213642   5.765   1.569   5.968
 4562TIP3    H113643   5.818   1.494   5.939
 4562TIP3    H213644   5.827   1.624   6.016
 4563TIP3   OH213645   6.921   7.480   0.700
 4563TIP3    H113646   6.845   7.427   0.679
 4563TIP3    H213647   6.985   7.418   0.735
 4564TIP3   OH213648   1.549   0.391   3.861
 4564TIP3    H113649   1.539   0.333   3.786
 4564TIP3    H213650   1.490   0.464   3.844
 4565TIP3   OH213651   8.299   6.227   1.313
 4565TIP3    H113652   8.242   6.236   1.236
 4565TIP3    H213653   8.244   6.251   1.387
 4566TIP3   OH213654   6.181   5.280   3.312
 4566TIP3    H113655   6.255   5.237   3.269
 4566TIP3    H213656   6.219   5.358   3.352
 4567TIP3   OH213657   0.666   7.348   0.148
 4567TIP3    H113658   0.642   7.258   0.123
 4567TIP3    H213659   0.582   7.395   0.150
 4568TIP3   OH213660   3.465   7.158   2.725
 4568TIP3    H113661   3.383   7.184   2.683
 4568TIP3    H213662   3.493   7.235   2.773
 4569TIP3   OH213663   1.775   4.112   3.867
 4569TIP3    H113664   1.794   4.018   3.857
 4569TIP3    H213665   1.759   4.123   3.961
 4570TIP3   OH213666   4.362   5.878   5.506
 4570TIP3    H113667   4.448   5.850   5.475
 4570TIP3    H213668   4.342   5.956   5.455
 4571TIP3   OH213669   3.011   3.677   3.754
 4571TIP3    H113670   3.018   3.714   3.666
 4571TIP3    H213671   2.971   3.592   3.741
 4572TIP3   OH213672   0.216   6.928   0.406
 4572TIP3    H113673   0.170   7.000   0.449
 4572TIP3    H213674   0.308   6.954   0.406
 4573TIP3   OH213675   6.117   3.861   0.799
 4573TIP3    H113676   6.048   3.926   0.790
 4573TIP3    H213677   6.198   3.912   0.803
 4574TIP3   OH213678   0.947   7.151   2.583
 4574TIP3    H113679   0.947   7.192   2.497
 4574TIP3    H213680   0.876   7.088   2.580
 4575TIP3   OH213681   4.701   6.305   2.057
 4575TIP3    H113682   4.644   6.357   2.113
 4575TIP3    H213683   4.786   6.350   2.061
 4576TIP3   OH213684   7.762   3.554   1.660
 4576TIP3    H113685   7.798   3.502   1.588
 4576TIP3    H213686   7.833   3.558   1.724
 4577TIP3   OH213687   1.048   3.144   0.127
 4577TIP3    H113688   0.974   3.122   0.070
 4577TIP3    H213689   1.072   3.062   0.169
 4578TIP3   OH213690   6.006   0.018   2.589
 4578TIP3    H113691   6.075   0.083   2.604
 4578TIP3    H213692   5.929   0.070   2.568
 4579TIP3   OH213693   5.925   3.058   6.192
 4579TIP3    H113694   5.841   3.103   6.189
 4579TIP3    H213695   5.927   3.018   6.279
 4580TIP3   OH213696   0.710   6.758   3.006
 4580TIP3    H113697   0.686   6.669   2.978
 4580TIP3    H213698   0.757   6.794   2.931
 4581TIP3   OH213699   0.833   0.443   2.380
 4581TIP3    H113700   0.795   0.386   2.313
 4581TIP3    H213701   0.767   0.446   2.449
 4582TIP3   OH213702   4.663   4.195   4.053
 4582TIP3    H113703   4.639   4.153   4.136
 4582TIP3    H213704   4.709   4.275   4.079
 4583TIP3   OH213705   0.695   6.913   4.374
 4583TIP3    H113706   0.648   6.987   4.413
 4583TIP3    H213707   0.751   6.953   4.307
 4584TIP3   OH213708   6.463   7.760   6.165
 4584TIP3    H113709   6.508   7.815   6.101
 4584TIP3    H213710   6.523   7.686   6.179
 4585TIP3   OH213711   7.155   0.707   5.777
 4585TIP3    H113712   7.240   0.685   5.815
 4585TIP3    H213713   7.129   0.788   5.820
 4586TIP3   OH213714   5.492   3.313   5.604
 4586TIP3    H113715   5.406   3.349   5.581
 4586TIP3    H213716   5.544   3.390   5.627
 4587TIP3   OH213717   2.511   0.059   5.304
 4587TIP3    H113718   2.462  -0.022   5.316
 4587TIP3    H213719   2.567   0.042   5.229
 4588TIP3   OH213720   2.563   6.033   1.567
 4588TIP3    H113721   2.597   5.946   1.543
 4588TIP3    H213722   2.475   6.035   1.529
 4589TIP3   OH213723   6.635   0.725   1.747
 4589TIP3    H113724   6.661   0.754   1.834
 4589TIP3    H213725   6.584   0.798   1.711
 4590TIP3   OH213726   5.113   4.555   6.125
 4590TIP3    H113727   5.130   4.592   6.211
 4590TIP3    H213728   5.116   4.460   6.139
 4591TIP3   OH213729   5.361   2.128   2.807
 4591TIP3    H113730   5.419   2.056   2.834
 4591TIP3    H213731   5.286   2.085   2.767
 4592TIP3   OH213732   3.512   5.887   5.872
 4592TIP3    H113733   3.586   5.833   5.901
 4592TIP3    H213734   3.479   5.927   5.953
 4593TIP3   OH213735   6.597   6.274   4.270
 4593TIP3    H113736   6.503   6.275   4.252
 4593TIP3    H213737   6.633   6.206   4.213
 4594TIP3   OH213738   7.985   5.109   4.510
 4594TIP3    H113739   7.995   5.181   4.572
 4594TIP3    H213740   7.908   5.132   4.458
 4595TIP3   OH213741   7.626   4.730   6.163
 4595TIP3    H113742   7.565   4.660   6.185
 4595TIP3    H213743   7.569   4.805   6.142
 4596TIP3   OH213744   4.032   6.624   6.264
 4596TIP3    H113745   4.046   6.695   6.201
 4596TIP3    H213746   4.090   6.645   6.337
 4597TIP3   OH213747   0.596   5.132   4.494
 4597TIP3    H113748   0.516   5.079   4.487
 4597TIP3    H213749   0.662   5.083   4.445
 4598TIP3   OH213750   1.755   5.805   0.865
 4598TIP3    H113751   1.796   5.750   0.798
 4598TIP3    H213752   1.759   5.752   0.944
 4599TIP3   OH213753   4.088   1.350   6.445
 4599TIP3    H113754   4.077   1.403   6.524
 4599TIP3    H213755   4.166   1.385   6.403
 4600TIP3   OH213756   6.008   4.214   2.538
 4600TIP3    H113757   5.976   4.125   2.526
 4600TIP3    H213758   6.087   4.219   2.484
 4601TIP3   OH213759   1.480   4.676   2.141
 4601TIP3    H113760   1.439   4.671   2.055
 4601TIP3    H213761   1.474   4.769   2.165
 4602TIP3   OH213762   6.157   7.059   3.699
 4602TIP3    H113763   6.156   6.969   3.730
 4602TIP3    H213764   6.224   7.102   3.753
 4603TIP3   OH213765   4.314   1.167   2.915
 4603TIP3    H113766   4.353   1.254   2.914
 4603TIP3    H213767   4.238   1.174   2.972
 4604TIP3   OH213768   6.929   5.180   3.061
 4604TIP3    H113769   6.950   5.088   3.078
 4604TIP3    H213770   6.927   5.188   2.966
 4605TIP3   OH213771   5.335   3.726   2.735
 4605TIP3    H113772   5.350   3.687   2.821
 4605TIP3    H213773   5.327   3.651   2.676
 4606TIP3   OH213774   5.332   5.393   1.429
 4606TIP3    H113775   5.363   5.325   1.488
 4606TIP3    H213776   5.238   5.377   1.419
 4607TIP3   OH213777   5.526   1.652   1.328
 4607TIP3    H113778   5.488   1.705   1.398
 4607TIP3    H213779   5.612   1.626   1.361
 4608TIP3   OH213780   2.655   5.764   5.596
 4608TIP3    H113781   2.747   5.746   5.578
 4608TIP3    H213782   2.633   5.837   5.538
 4609TIP3   OH213783   0.171   3.287   4.823
 4609TIP3    H113784   0.180   3.374   4.782
 4609TIP3    H213785   0.129   3.305   4.907
 4610TIP3   OH213786   8.015   1.175   4.444
 4610TIP3    H113787   7.954   1.164   4.371
 4610TIP3    H213788   8.063   1.092   4.448
 4611TIP3   OH213789   0.137   5.751   0.748
 4611TIP3    H113790   0.150   5.661   0.776
 4611TIP3    H213791   0.225   5.783   0.729
 4612TIP3   OH213792   1.203   6.807   5.818
 4612TIP3    H113793   1.293   6.831   5.797
 4612TIP3    H213794   1.167   6.885   5.859
 4613TIP3   OH213795   0.037   5.556   0.438
 4613TIP3    H113796  -0.021   5.553   0.514
 4613TIP3    H213797   0.007   5.484   0.382
 4614TIP3   OH213798   8.199   4.141   3.563
 4614TIP3    H113799   8.136   4.102   3.502
 4614TIP3    H213800   8.284   4.133   3.519
 4615TIP3   OH213801   5.370   3.287   3.467
 4615TIP3    H113802   5.287   3.248   3.441
 4615TIP3    H213803   5.373   3.370   3.420
 4616TIP3   OH213804   8.104   2.075   4.708
 4616TIP3    H113805   8.022   2.079   4.758
 4616TIP3    H213806   8.161   2.140   4.749
 4617TIP3   OH213807   1.211   7.256   5.611
 4617TIP3    H113808   1.205   7.352   5.605
 4617TIP3    H213809   1.221   7.228   5.520
 4618TIP3   OH213810   2.462   6.953   0.484
 4618TIP3    H113811   2.483   6.864   0.513
 4618TIP3    H213812   2.454   6.945   0.388
 4619TIP3   OH213813   0.351   3.457   6.705
 4619TIP3    H113814   0.435   3.430   6.742
 4619TIP3    H213815   0.290   3.450   6.778
 4620TIP3   OH213816   0.603   2.638   0.782
 4620TIP3    H113817   0.643   2.690   0.852
 4620TIP3    H213818   0.670   2.574   0.759
 4621TIP3   OH213819   0.099   5.210   0.543
 4621TIP3    H113820   0.145   5.292   0.559
 4621TIP3    H213821   0.123   5.186   0.453
 4622TIP3   OH213822   8.049   1.542   4.749
 4622TIP3    H113823   8.106   1.597   4.802
 4622TIP3    H213824   8.004   1.485   4.811
 4623TIP3   OH213825   7.981   5.970   3.009
 4623TIP3    H113826   8.039   6.047   3.006
 4623TIP3    H213827   7.897   6.004   2.979
 4624TIP3   OH213828   4.936   6.712   1.552
 4624TIP3    H113829   4.902   6.624   1.538
 4624TIP3    H213830   5.029   6.705   1.533
 4625TIP3   OH213831   6.603   1.639   6.186
 4625TIP3    H113832   6.594   1.554   6.228
 4625TIP3    H213833   6.560   1.628   6.101
 4626TIP3   OH213834   1.688   3.260   1.329
 4626TIP3    H113835   1.763   3.290   1.378
 4626TIP3    H213836   1.647   3.193   1.385
 4627TIP3   OH213837   4.161   7.407   5.097
 4627TIP3    H113838   4.238   7.447   5.137
 4627TIP3    H213839   4.185   7.316   5.083
 4628TIP3   OH213840   7.204   0.623   2.170
 4628TIP3    H113841   7.242   0.621   2.258
 4628TIP3    H213842   7.261   0.568   2.117
 4629TIP3   OH213843   2.096   7.565   4.800
 4629TIP3    H113844   2.067   7.490   4.748
 4629TIP3    H213845   2.018   7.592   4.849
 4630TIP3   OH213846   2.195   3.938   0.130
 4630TIP3    H113847   2.277   3.976   0.096
 4630TIP3    H213848   2.178   3.864   0.072
 4631TIP3   OH213849   5.467   0.965   6.733
 4631TIP3    H113850   5.448   0.973   6.640
 4631TIP3    H213851   5.385   0.934   6.772
 4632TIP3   OH213852   2.325   3.954   3.310
 4632TIP3    H113853   2.284   4.040   3.308
 4632TIP3    H213854   2.357   3.945   3.400
 4633TIP3   OH213855   7.826   2.909   0.466
 4633TIP3    H113856   7.762   2.839   0.452
 4633TIP3    H213857   7.774   2.984   0.494
 4634TIP3   OH213858   5.687   1.006   4.496
 4634TIP3    H113859   5.779   1.014   4.469
 4634TIP3    H213860   5.652   1.095   4.486
 4635TIP3   OH213861   3.694   7.323   4.204
 4635TIP3    H113862   3.673   7.409   4.238
 4635TIP3    H213863   3.761   7.290   4.263
 4636TIP3   OH213864   6.997   5.081   1.276
 4636TIP3    H113865   6.909   5.068   1.242
 4636TIP3    H213866   7.051   5.099   1.199
 4637TIP3   OH213867   3.957   0.310   4.040
 4637TIP3    H113868   4.008   0.390   4.050
 4637TIP3    H213869   4.010   0.242   4.083
 4638TIP3   OH213870   4.321   1.478   6.329
 4638TIP3    H113871   4.306   1.520   6.245
 4638TIP3    H213872   4.403   1.516   6.360
 4639TIP3   OH213873   7.656   0.197   2.755
 4639TIP3    H113874   7.680   0.216   2.664
 4639TIP3    H213875   7.569   0.237   2.765
 4640TIP3   OH213876   2.238   6.793   2.837
 4640TIP3    H113877   2.161   6.839   2.869
 4640TIP3    H213878   2.220   6.701   2.855
 4641TIP3   OH213879   4.876   0.943   4.124
 4641TIP3    H113880   4.969   0.964   4.132
 4641TIP3    H213881   4.839   0.971   4.208
 4642TIP3   OH213882   7.020   0.876   1.123
 4642TIP3    H113883   6.963   0.923   1.184
 4642TIP3    H213884   6.995   0.785   1.131
 4643TIP3   OH213885   6.952   1.743   2.655
 4643TIP3    H113886   6.898   1.806   2.703
 4643TIP3    H213887   7.042   1.769   2.675
 4644TIP3   OH213888   7.800   6.307   4.085
 4644TIP3    H113889   7.815   6.396   4.052
 4644TIP3    H213890   7.737   6.268   4.025
 4645TIP3   OH213891   1.505   7.344   3.429
 4645TIP3    H113892   1.437   7.398   3.469
 4645TIP3    H213893   1.518   7.272   3.491
 4646TIP3   OH213894   4.301   4.006   0.077
 4646TIP3    H113895   4.250   3.989  -0.002
 4646TIP3    H213896   4.359   3.930   0.086
 4647TIP3   OH213897   2.206   1.769   0.226
 4647TIP3    H113898   2.280   1.710   0.238
 4647TIP3    H213899   2.198   1.815   0.310
 4648TIP3   OH213900   5.988   5.317   0.786
 4648TIP3    H113901   6.082   5.335   0.782
 4648TIP3    H213902   5.969   5.311   0.880
 4649TIP3   OH213903   6.891   4.161   5.875
 4649TIP3    H113904   6.892   4.237   5.934
 4649TIP3    H213905   6.931   4.091   5.927
 4650TIP3   OH213906   0.284   6.163   3.435
 4650TIP3    H113907   0.266   6.231   3.500
 4650TIP3    H213908   0.273   6.207   3.351
 4651TIP3   OH213909   6.495   7.743   0.355
 4651TIP3    H113910   6.530   7.656   0.373
 4651TIP3    H213911   6.531   7.798   0.425
 4652TIP3   OH213912   7.947   5.102   3.865
 4652TIP3    H113913   8.033   5.101   3.908
 4652TIP3    H213914   7.964   5.072   3.776
 4653TIP3   OH213915   6.757   0.611   3.076
 4653TIP3    H113916   6.769   0.544   3.143
 4653TIP3    H213917   6.778   0.694   3.120
 4654TIP3   OH213918   7.593   2.202   3.643
 4654TIP3    H113919   7.668   2.144   3.659
 4654TIP3    H213920   7.527   2.173   3.706
 4655TIP3   OH213921   7.176   0.458   6.090
 4655TIP3    H113922   7.238   0.455   6.163
 4655TIP3    H213923   7.148   0.549   6.085
 4656TIP3   OH213924   6.687   7.136   4.445
 4656TIP3    H113925   6.783   7.132   4.442
 4656TIP3    H213926   6.666   7.224   4.415
 4657TIP3   OH213927   4.774   4.091   1.409
 4657TIP3    H113928   4.827   4.071   1.332
 4657TIP3    H213929   4.724   4.011   1.425
 4658TIP3   OH213930   4.422   5.207   1.088
 4658TIP3    H113931   4.460   5.212   1.000
 4658TIP3    H213932   4.328   5.216   1.074
 4659TIP3   OH213933   3.930   1.031   6.377
 4659TIP3    H113934   3.854   1.006   6.324
 4659TIP3    H213935   4.005   1.008   6.323
 4660TIP3   OH213936   8.006   5.143   6.041
 4660TIP3    H113937   8.087   5.179   6.076
 4660TIP3    H213938   7.964   5.217   5.997
 4661TIP3   OH213939   6.641   0.562   1.529
 4661TIP3    H113940   6.623   0.631   1.592
 4661TIP3    H213941   6.694   0.604   1.461
 4662TIP3   OH213942   7.951   5.635   0.127
 4662TIP3    H113943   8.004   5.636   0.207
 4662TIP3    H213944   8.004   5.587   0.064
 4663TIP3   OH213945   7.628   1.956   6.234
 4663TIP3    H113946   7.599   2.043   6.205
 4663TIP3    H213947   7.705   1.938   6.180
 4664TIP3   OH213948   5.504   6.178   3.482
 4664TIP3    H113949   5.474   6.087   3.483
 4664TIP3    H213950   5.592   6.175   3.518
 4665TIP3   OH213951   6.026   5.119   2.639
 4665TIP3    H113952   5.981   5.153   2.716
 4665TIP3    H213953   6.097   5.065   2.674
 4666TIP3   OH213954   6.852   0.927   5.108
 4666TIP3    H113955   6.943   0.911   5.132
 4666TIP3    H213956   6.838   1.019   5.127
 4667TIP3   OH213957   3.504   1.778   1.727
 4667TIP3    H113958   3.549   1.693   1.730
 4667TIP3    H213959   3.424   1.761   1.678
 4668TIP3   OH213960   0.058   1.215   1.832
 4668TIP3    H113961   0.048   1.310   1.826
 4668TIP3    H213962   0.013   1.182   1.755
 4669TIP3   OH213963   4.911   3.727   2.007
 4669TIP3    H113964   4.846   3.797   2.005
 4669TIP3    H213965   4.977   3.754   1.943
 4670TIP3   OH213966   2.037   4.561   6.134
 4670TIP3    H113967   2.075   4.482   6.171
 4670TIP3    H213968   2.039   4.547   6.039
 4671TIP3   OH213969   1.695   1.600   3.186
 4671TIP3    H113970   1.682   1.523   3.241
 4671TIP3    H213971   1.764   1.575   3.125
 4672TIP3   OH213972   5.419   5.498   0.347
 4672TIP3    H113973   5.439   5.545   0.428
 4672TIP3    H213974   5.344   5.443   0.370
 4673TIP3   OH213975   6.597   6.889   4.524
 4673TIP3    H113976   6.639   6.970   4.494
 4673TIP3    H213977   6.504   6.909   4.522
 4674TIP3   OH213978   1.098   4.800   3.319
 4674TIP3    H113979   1.079   4.709   3.298
 4674TIP3    H213980   1.025   4.827   3.375
 4675TIP3   OH213981   1.034   4.324   4.843
 4675TIP3    H113982   1.048   4.230   4.856
 4675TIP3    H213983   1.000   4.355   4.927
 4676TIP3   OH213984   0.491   3.194   0.230
 4676TIP3    H113985   0.574   3.160   0.196
 4676TIP3    H213986   0.437   3.116   0.242
 4677TIP3   OH213987   3.231   4.180   5.165
 4677TIP3    H113988   3.228   4.097   5.117
 4677TIP3    H213989   3.280   4.239   5.108
 4678TIP3   OH213990   2.091   3.198   4.579
 4678TIP3    H113991   2.082   3.237   4.492
 4678TIP3    H213992   2.107   3.272   4.637
 4679TIP3   OH213993   0.173   4.837   1.447
 4679TIP3    H113994   0.269   4.837   1.452
 4679TIP3    H213995   0.146   4.910   1.503
 4680TIP3   OH213996   6.102   4.619   5.546
 4680TIP3    H113997   6.155   4.685   5.501
 4680TIP3    H213998   6.052   4.576   5.476
 4681TIP3   OH213999   0.187   7.074   5.051
 4681TIP3    H114000   0.110   7.120   5.019
 4681TIP3    H214001   0.194   7.101   5.143
 4682TIP3   OH214002   2.078   1.691   6.121
 4682TIP3    H114003   2.108   1.658   6.206
 4682TIP3    H214004   2.158   1.716   6.075
 4683TIP3   OH214005   7.619   1.772   2.650
 4683TIP3    H114006   7.713   1.769   2.669
 4683TIP3    H214007   7.607   1.709   2.578
 4684TIP3   OH214008   3.739   2.024   0.089
 4684TIP3    H114009   3.716   2.061   0.174
 4684TIP3    H214010   3.783   2.095   0.042
 4685TIP3   OH214011   5.982   2.413   6.190
 4685TIP3    H114012   6.076   2.398   6.194
 4685TIP3    H214013   5.965   2.438   6.099
 4686TIP3   OH214014   7.963   5.340   2.750
 4686TIP3    H114015   7.875   5.350   2.714
 4686TIP3    H214016   7.949   5.317   2.842
 4687TIP3   OH214017   5.346   1.737   0.557
 4687TIP3    H114018   5.373   1.780   0.638
 4687TIP3    H214019   5.259   1.771   0.539
 4688TIP3   OH214020   3.410   3.817   5.852
 4688TIP3    H114021   3.445   3.861   5.930
 4688TIP3    H214022   3.374   3.735   5.885
 4689TIP3   OH214023   5.337   0.441   2.500
 4689TIP3    H114024   5.306   0.505   2.564
 4689TIP3    H214025   5.309   0.476   2.415
 4690TIP3   OH214026   2.463   5.877   5.778
 4690TIP3    H114027   2.520   5.829   5.717
 4690TIP3    H214028   2.465   5.967   5.746
 4691TIP3   OH214029   2.971   3.100   6.756
 4691TIP3    H114030   2.921   3.144   6.687
 4691TIP3    H214031   3.031   3.041   6.710
 4692TIP3   OH214032   2.023   1.206   3.863
 4692TIP3    H114033   1.934   1.172   3.870
 4692TIP3    H214034   2.061   1.160   3.787
 4693TIP3   OH214035   2.613   5.259   1.286
 4693TIP3    H114036   2.524   5.285   1.265
 4693TIP3    H214037   2.639   5.201   1.214
 4694TIP3   OH214038   7.488   2.717   1.147
 4694TIP3    H114039   7.469   2.809   1.131
 4694TIP3    H214040   7.415   2.686   1.202
 4695TIP3   OH214041   2.253   1.914   3.968
 4695TIP3    H114042   2.212   1.924   4.054
 4695TIP3    H214043   2.198   1.850   3.922
 4696TIP3   OH214044   3.848   6.335   3.179
 4696TIP3    H114045   3.835   6.254   3.228
 4696TIP3    H214046   3.760   6.357   3.147
 4697TIP3   OH214047   2.093   7.014   0.077
 4697TIP3    H114048   2.168   7.065   0.047
 4697TIP3    H214049   2.018   7.071   0.063
 4698TIP3   OH214050   3.068   6.920   4.805
 4698TIP3    H114051   3.065   6.851   4.872
 4698TIP3    H214052   3.149   6.905   4.758
 4699TIP3   OH214053   7.160   4.509   0.312
 4699TIP3    H114054   7.170   4.599   0.345
 4699TIP3    H214055   7.187   4.454   0.386
 4700TIP3   OH214056   2.409   6.462   0.594
 4700TIP3    H114057   2.314   6.455   0.583
 4700TIP3    H214058   2.429   6.399   0.663
 4701TIP3   OH214059   5.620   3.252   6.664
 4701TIP3    H114060   5.698   3.205   6.694
 4701TIP3    H214061   5.654   3.326   6.614
 4702TIP3   OH214062   5.183   3.962   4.808
 4702TIP3    H114063   5.257   3.923   4.855
 4702TIP3    H214064   5.170   3.905   4.732
 4703TIP3   OH214065   3.167   1.675   6.149
 4703TIP3    H114066   3.103   1.745   6.134
 4703TIP3    H214067   3.130   1.624   6.221
 4704TIP3   OH214068   5.351   2.137   6.679
 4704TIP3    H114069   5.413   2.169   6.614
 4704TIP3    H214070   5.396   2.065   6.722
 4705TIP3   OH214071   3.759   6.815   6.570
 4705TIP3    H114072   3.680   6.768   6.595
 4705TIP3    H214073   3.732   6.873   6.499
 4706TIP3   OH214074   0.647   3.924   1.717
 4706TIP3    H114075   0.627   3.830   1.722
 4706TIP3    H214076   0.612   3.952   1.633
 4707TIP3   OH214077   3.465   5.218   0.330
 4707TIP3    H114078   3.428   5.134   0.357
 4707TIP3    H214079   3.484   5.206   0.236
 4708TIP3   OH214080   0.260   4.874   0.521
 4708TIP3    H114081   0.272   4.957   0.567
 4708TIP3    H214082   0.348   4.837   0.514
 4709TIP3   OH214083   2.739   1.134   4.155
 4709TIP3    H114084   2.718   1.041   4.156
 4709TIP3    H214085   2.776   1.149   4.068
 4710TIP3   OH214086   4.247   4.276   2.112
 4710TIP3    H114087   4.272   4.342   2.047
 4710TIP3    H214088   4.277   4.313   2.195
 4711TIP3   OH214089   7.293   7.642   2.138
 4711TIP3    H114090   7.293   7.616   2.046
 4711TIP3    H214091   7.312   7.736   2.136
 4712TIP3   OH214092   0.441   5.306   4.686
 4712TIP3    H114093   0.495   5.248   4.632
 4712TIP3    H214094   0.382   5.349   4.624
 4713TIP3   OH214095   8.034   6.413   3.574
 4713TIP3    H114096   8.040   6.435   3.481
 4713TIP3    H214097   7.946   6.376   3.585
 4714TIP3   OH214098   0.147   2.729   3.092
 4714TIP3    H114099   0.222   2.780   3.125
 4714TIP3    H214100   0.083   2.733   3.163
 4715TIP3   OH214101   7.240   4.344   3.767
 4715TIP3    H114102   7.161   4.382   3.806
 4715TIP3    H214103   7.250   4.260   3.811
 4716TIP3   OH214104   3.659   4.440   0.607
 4716TIP3    H114105   3.576   4.396   0.623
 4716TIP3    H214106   3.652   4.523   0.655
 4717TIP3   OH214107   5.186   1.066   1.427
 4717TIP3    H114108   5.278   1.069   1.402
 4717TIP3    H214109   5.148   1.147   1.393
 4718TIP3   OH214110   3.003   1.559   0.534
 4718TIP3    H114111   2.937   1.528   0.473
 4718TIP3    H214112   3.046   1.632   0.487
 4719TIP3   OH214113   3.971   2.928   6.082
 4719TIP3    H114114   4.049   2.975   6.054
 4719TIP3    H214115   3.904   2.995   6.092
 4720TIP3   OH214116   1.582   7.612   2.914
 4720TIP3    H114117   1.565   7.681   2.850
 4720TIP3    H214118   1.495   7.576   2.933
 4721TIP3   OH214119   8.326   2.170   3.751
 4721TIP3    H114120   8.350   2.220   3.829
 4721TIP3    H214121   8.259   2.222   3.708
 4722TIP3   OH214122   0.982   3.257   3.319
 4722TIP3    H114123   0.987   3.330   3.257
 4722TIP3    H214124   0.922   3.288   3.387
 4723TIP3   OH214125   6.718   5.714   3.556
 4723TIP3    H114126   6.656   5.765   3.505
 4723TIP3    H214127   6.685   5.624   3.552
 4724TIP3   OH214128   6.620   4.590   2.425
 4724TIP3    H114129   6.695   4.631   2.469
 4724TIP3    H214130   6.573   4.664   2.386
 4725TIP3   OH214131   3.200   6.140   1.230
 4725TIP3    H114132   3.115   6.100   1.247
 4725TIP3    H214133   3.262   6.086   1.278
 4726TIP3   OH214134   2.698   4.662   0.764
 4726TIP3    H114135   2.683   4.568   0.776
 4726TIP3    H214136   2.615   4.703   0.788
 4727TIP3   OH214137   6.056   3.517   1.227
 4727TIP3    H114138   5.983   3.578   1.219
 4727TIP3    H214139   6.130   3.571   1.252
 4728TIP3   OH214140   1.114   4.356   3.670
 4728TIP3    H114141   1.191   4.369   3.725
 4728TIP3    H214142   1.066   4.285   3.713
 4729TIP3   OH214143   7.766   0.368   3.912
 4729TIP3    H114144   7.754   0.323   3.995
 4729TIP3    H214145   7.678   0.379   3.877
 4730TIP3   OH214146   8.296   0.707   1.034
 4730TIP3    H114147   8.328   0.678   0.949
 4730TIP3    H214148   8.202   0.721   1.020
 4731TIP3   OH214149   1.460   6.615   6.120
 4731TIP3    H114150   1.367   6.619   6.143
 4731TIP3    H214151   1.478   6.522   6.109
 4732TIP3   OH214152   3.088   0.603   1.418
 4732TIP3    H114153   3.121   0.656   1.345
 4732TIP3    H214154   3.162   0.546   1.441
 4733TIP3   OH214155   0.697   7.799   0.187
 4733TIP3    H114156   0.763   7.866   0.202
 4733TIP3    H214157   0.722   7.759   0.103
 4734TIP3   OH214158   7.056   4.597   1.234
 4734TIP3    H114159   7.016   4.525   1.282
 4734TIP3    H214160   6.987   4.663   1.228
 4735TIP3   OH214161   3.072   5.333   5.549
 4735TIP3    H114162   3.078   5.424   5.577
 4735TIP3    H214163   3.078   5.337   5.453
 4736TIP3   OH214164   2.387   6.945   4.649
 4736TIP3    H114165   2.338   7.027   4.654
 4736TIP3    H214166   2.472   6.965   4.688
 4737TIP3   OH214167   4.598   5.844   0.469
 4737TIP3    H114168   4.636   5.912   0.413
 4737TIP3    H214169   4.612   5.763   0.421
 4738TIP3   OH214170   0.522   5.075   1.717
 4738TIP3    H114171   0.599   5.080   1.661
 4738TIP3    H214172   0.449   5.099   1.660
 4739TIP3   OH214173   0.908   7.836   3.845
 4739TIP3    H114174   0.855   7.842   3.765
 4739TIP3    H214175   0.977   7.774   3.823
 4740TIP3   OH214176   5.224   7.646   3.815
 4740TIP3    H114177   5.284   7.577   3.787
 4740TIP3    H214178   5.229   7.643   3.911
 4741TIP3   OH214179   1.735   6.960   1.710
 4741TIP3    H114180   1.804   6.918   1.761
 4741TIP3    H214181   1.776   7.039   1.674
 4742TIP3   OH214182   7.779   7.546   3.318
 4742TIP3    H114183   7.787   7.452   3.334
 4742TIP3    H214184   7.868   7.575   3.298
 4743TIP3   OH214185   3.236   2.175   4.394
 4743TIP3    H114186   3.249   2.099   4.337
 4743TIP3    H214187   3.321   2.219   4.395
 4744TIP3   OH214188   5.601   2.413   5.298
 4744TIP3    H114189   5.524   2.455   5.260
 4744TIP3    H214190   5.594   2.431   5.392
 4745TIP3   OH214191   2.938   3.472   3.582
 4745TIP3    H114192   2.867   3.412   3.559
 4745TIP3    H214193   2.950   3.527   3.505
 4746TIP3   OH214194   5.796   5.966   2.381
 4746TIP3    H114195   5.796   5.870   2.384
 4746TIP3    H214196   5.707   5.990   2.405
 4747TIP3   OH214197   3.733   0.240   5.508
 4747TIP3    H114198   3.668   0.178   5.475
 4747TIP3    H214199   3.717   0.320   5.459
 4748TIP3   OH214200   4.997   2.956   4.228
 4748TIP3    H114201   4.981   3.039   4.273
 4748TIP3    H214202   4.911   2.916   4.219
 4749TIP3   OH214203   2.823   0.241   5.358
 4749TIP3    H114204   2.866   0.181   5.298
 4749TIP3    H214205   2.867   0.325   5.345
 4750TIP3   OH214206   6.400   7.373   0.375
 4750TIP3    H114207   6.377   7.343   0.463
 4750TIP3    H214208   6.362   7.307   0.317
 4751TIP3   OH214209   6.693   2.937   5.388
 4751TIP3    H114210   6.751   2.996   5.436
 4751TIP3    H214211   6.635   2.995   5.338
 4752TIP3   OH214212   3.512   0.212   0.935
 4752TIP3    H114213   3.487   0.292   0.887
 4752TIP3    H214214   3.560   0.160   0.870
 4753TIP3   OH214215   1.376   7.535   2.629
 4753TIP3    H114216   1.457   7.514   2.582
 4753TIP3    H214217   1.403   7.597   2.697
 4754TIP3   OH214218   7.812   4.419   5.774
 4754TIP3    H114219   7.756   4.497   5.773
 4754TIP3    H214220   7.767   4.358   5.832
 4755TIP3   OH214221   3.542   1.947   3.526
 4755TIP3    H114222   3.601   2.009   3.569
 4755TIP3    H214223   3.546   1.970   3.433
 4756TIP3   OH214224   4.121   1.844   2.365
 4756TIP3    H114225   4.043   1.847   2.419
 4756TIP3    H214226   4.090   1.814   2.279
 4757TIP3   OH214227   7.793   3.970   2.731
 4757TIP3    H114228   7.858   3.905   2.705
 4757TIP3    H214229   7.832   4.016   2.805
 4758TIP3   OH214230   2.174   7.764   2.054
 4758TIP3    H114231   2.080   7.763   2.038
 4758TIP3    H214232   2.184   7.745   2.147
 4759TIP3   OH214233   5.029   2.874   6.672
 4759TIP3    H114234   5.059   2.848   6.585
 4759TIP3    H214235   5.031   2.970   6.670
 4760TIP3   OH214236   1.017   4.308   2.687
 4760TIP3    H114237   0.953   4.241   2.712
 4760TIP3    H214238   0.987   4.387   2.731
 4761TIP3   OH214239   3.146   0.513   6.466
 4761TIP3    H114240   3.117   0.422   6.467
 4761TIP3    H214241   3.219   0.514   6.405
 4762TIP3   OH214242   4.304   5.342   5.682
 4762TIP3    H114243   4.273   5.254   5.658
 4762TIP3    H214244   4.224   5.393   5.693
 4763TIP3   OH214245   7.392   0.783   0.782
 4763TIP3    H114246   7.323   0.717   0.781
 4763TIP3    H214247   7.378   0.834   0.702
 4764TIP3   OH214248   1.984   0.847   4.543
 4764TIP3    H114249   1.967   0.789   4.469
 4764TIP3    H214250   2.080   0.849   4.550
 4765TIP3   OH214251   1.185   4.014   3.886
 4765TIP3    H114252   1.124   4.078   3.922
 4765TIP3    H214253   1.130   3.958   3.831
 4766TIP3   OH214254   3.985   3.152   5.596
 4766TIP3    H114255   3.987   3.205   5.675
 4766TIP3    H214256   4.024   3.208   5.528
 4767TIP3   OH214257   5.940   6.819   6.561
 4767TIP3    H114258   5.887   6.826   6.641
 4767TIP3    H214259   5.882   6.774   6.499
 4768TIP3   OH214260   6.516   5.594   6.615
 4768TIP3    H114261   6.540   5.683   6.586
 4768TIP3    H214262   6.462   5.607   6.692
 4769TIP3   OH214263   7.493   1.234   3.026
 4769TIP3    H114264   7.562   1.177   3.061
 4769TIP3    H214265   7.536   1.284   2.957
 4770TIP3   OH214266   6.495   0.872   0.282
 4770TIP3    H114267   6.579   0.835   0.310
 4770TIP3    H214268   6.430   0.831   0.339
 4771TIP3   OH214269   4.227   4.022   2.020
 4771TIP3    H114270   4.250   3.986   2.106
 4771TIP3    H214271   4.185   4.106   2.040
 4772TIP3   OH214272   7.557   6.629   4.238
 4772TIP3    H114273   7.463   6.646   4.241
 4772TIP3    H214274   7.582   6.651   4.148
 4773TIP3   OH214275   3.298   5.235   1.014
 4773TIP3    H114276   3.336   5.204   1.097
 4773TIP3    H214277   3.373   5.244   0.955
 4774TIP3   OH214278   6.507   4.188   3.086
 4774TIP3    H114279   6.425   4.226   3.118
 4774TIP3    H214280   6.525   4.234   3.004
 4775TIP3   OH214281   3.772   5.061   4.523
 4775TIP3    H114282   3.850   5.075   4.469
 4775TIP3    H214283   3.709   5.127   4.492
 4776TIP3   OH214284   4.821   1.737   1.522
 4776TIP3    H114285   4.843   1.779   1.439
 4776TIP3    H214286   4.889   1.765   1.583
 4777TIP3   OH214287   3.691   6.258   3.427
 4777TIP3    H114288   3.673   6.341   3.383
 4777TIP3    H214289   3.619   6.201   3.402
 4778TIP3   OH214290   3.702   7.558   6.481
 4778TIP3    H114291   3.761   7.617   6.527
 4778TIP3    H214292   3.716   7.578   6.388
 4779TIP3   OH214293   2.097   3.392   5.622
 4779TIP3    H114294   2.038   3.465   5.602
 4779TIP3    H214295   2.051   3.341   5.688
 4780TIP3   OH214296   2.170   2.225   2.061
 4780TIP3    H114297   2.229   2.280   2.009
 4780TIP3    H214298   2.122   2.287   2.116
 4781TIP3   OH214299   3.528   2.245   6.242
 4781TIP3    H114300   3.515   2.299   6.165
 4781TIP3    H214301   3.451   2.261   6.297
 4782TIP3   OH214302   2.047   7.062   6.718
 4782TIP3    H114303   2.134   7.021   6.723
 4782TIP3    H214304   2.037   7.084   6.625
 4783TIP3   OH214305   0.891   1.154   3.914
 4783TIP3    H114306   0.896   1.250   3.920
 4783TIP3    H214307   0.811   1.131   3.961
 4784TIP3   OH214308   0.521   2.368   2.064
 4784TIP3    H114309   0.607   2.362   2.022
 4784TIP3    H214310   0.503   2.462   2.070
 4785TIP3   OH214311   1.323   6.825   3.233
 4785TIP3    H114312   1.289   6.740   3.206
 4785TIP3    H214313   1.307   6.883   3.158
 4786TIP3   OH214314   5.689   1.931   0.878
 4786TIP3    H114315   5.695   2.027   0.878
 4786TIP3    H214316   5.770   1.902   0.837
 4787TIP3   OH214317   4.411   5.421   4.978
 4787TIP3    H114318   4.418   5.332   5.012
 4787TIP3    H214319   4.317   5.440   4.979
 4788TIP3   OH214320   0.571   4.103   1.500
 4788TIP3    H114321   0.517   4.056   1.436
 4788TIP3    H214322   0.511   4.164   1.542
 4789TIP3   OH214323   7.097   6.511   1.976
 4789TIP3    H114324   7.192   6.499   1.985
 4789TIP3    H214325   7.081   6.600   2.006
 4790TIP3   OH214326   3.069   4.649   2.837
 4790TIP3    H114327   3.094   4.723   2.891
 4790TIP3    H214328   2.983   4.623   2.871
 4791TIP3   OH214329   4.268   5.615   2.467
 4791TIP3    H114330   4.215   5.695   2.472
 4791TIP3    H214331   4.317   5.614   2.549
 4792TIP3   OH214332   6.240   6.074   6.702
 4792TIP3    H114333   6.230   6.037   6.790
 4792TIP3    H214334   6.307   6.019   6.661
 4793TIP3   OH214335   4.881   1.120   0.177
 4793TIP3    H114336   4.812   1.178   0.211
 4793TIP3    H214337   4.962   1.168   0.193
 4794TIP3   OH214338   3.668   1.029   0.380
 4794TIP3    H114339   3.738   1.048   0.443
 4794TIP3    H214340   3.698   0.950   0.335
 4795TIP3   OH214341   3.248   5.218   0.646
 4795TIP3    H114342   3.187   5.150   0.619
 4795TIP3    H214343   3.335   5.179   0.634
 4796TIP3   OH214344   1.882   3.178   3.315
 4796TIP3    H114345   1.911   3.089   3.295
 4796TIP3    H214346   1.928   3.201   3.395
 4797TIP3   OH214347   6.051   6.517   3.930
 4797TIP3    H114348   6.005   6.493   3.850
 4797TIP3    H214349   5.993   6.581   3.972
 4798TIP3   OH214350   2.445   1.841   2.140
 4798TIP3    H114351   2.410   1.786   2.069
 4798TIP3    H214352   2.512   1.895   2.097
 4799TIP3   OH214353   1.823   4.842   6.749
 4799TIP3    H114354   1.861   4.862   6.835
 4799TIP3    H214355   1.786   4.925   6.719
 4800TIP3   OH214356   0.583   1.659   4.003
 4800TIP3    H114357   0.560   1.621   3.918
 4800TIP3    H214358   0.538   1.744   4.004
 4801TIP3   OH214359   1.672   2.168   6.588
 4801TIP3    H114360   1.753   2.129   6.555
 4801TIP3    H214361   1.610   2.095   6.592
 4802TIP3   OH214362   7.173   4.992   4.358
 4802TIP3    H114363   7.130   5.021   4.438
 4802TIP3    H214364   7.120   5.029   4.288
 4803TIP3   OH214365   5.587   7.560   5.724
 4803TIP3    H114366   5.529   7.589   5.794
 4803TIP3    H214367   5.581   7.464   5.726
 4804TIP3   OH214368   4.933   6.882   0.998
 4804TIP3    H114369   4.839   6.887   1.014
 4804TIP3    H214370   4.972   6.924   1.075
 4805TIP3   OH214371   6.563   5.354   6.009
 4805TIP3    H114372   6.541   5.344   6.102
 4805TIP3    H214373   6.649   5.397   6.010
 4806TIP3   OH214374   0.937   5.942   4.996
 4806TIP3    H114375   0.978   5.910   5.076
 4806TIP3    H214376   0.845   5.956   5.021
 4807TIP3   OH214377   4.705   2.049   5.840
 4807TIP3    H114378   4.717   1.969   5.890
 4807TIP3    H214379   4.762   2.113   5.882
 4808TIP3   OH214380   3.300   6.220   4.739
 4808TIP3    H114381   3.283   6.168   4.818
 4808TIP3    H214382   3.251   6.301   4.753
 4809TIP3   OH214383   2.477   1.869   5.193
 4809TIP3    H114384   2.494   1.776   5.175
 4809TIP3    H214385   2.402   1.890   5.138
 4810TIP3   OH214386   1.338   3.146   5.960
 4810TIP3    H114387   1.335   3.206   6.034
 4810TIP3    H214388   1.270   3.178   5.900
 4811TIP3   OH214389   1.852   5.933   4.335
 4811TIP3    H114390   1.930   5.880   4.351
 4811TIP3    H214391   1.791   5.874   4.291
 4812TIP3   OH214392   4.082   2.987   4.960
 4812TIP3    H114393   4.037   2.918   5.008
 4812TIP3    H214394   4.159   3.007   5.013
 4813TIP3   OH214395   0.698   0.225   1.618
 4813TIP3    H114396   0.778   0.264   1.653
 4813TIP3    H214397   0.695   0.137   1.657
 4814TIP3   OH214398   8.244   7.351   6.095
 4814TIP3    H114399   8.275   7.285   6.157
 4814TIP3    H214400   8.154   7.368   6.122
 4815TIP3   OH214401   5.479   2.670   3.886
 4815TIP3    H114402   5.485   2.598   3.823
 4815TIP3    H214403   5.416   2.639   3.951
 4816TIP3   OH214404   0.826   7.601   0.667
 4816TIP3    H114405   0.880   7.565   0.597
 4816TIP3    H214406   0.804   7.689   0.638
 4817TIP3   OH214407   0.650   1.094   2.562
 4817TIP3    H114408   0.693   1.049   2.489
 4817TIP3    H214409   0.671   1.186   2.549
 4818TIP3   OH214410   2.063   2.724   2.243
 4818TIP3    H114411   2.117   2.756   2.171
 4818TIP3    H214412   1.996   2.791   2.255
 4819TIP3   OH214413   4.044   0.893   0.760
 4819TIP3    H114414   4.129   0.861   0.731
 4819TIP3    H214415   4.066   0.956   0.829
 4820TIP3   OH214416   6.065   7.617   2.508
 4820TIP3    H114417   6.008   7.685   2.542
 4820TIP3    H214418   6.008   7.542   2.493
 4821TIP3   OH214419   7.321   7.044   3.817
 4821TIP3    H114420   7.321   7.129   3.862
 4821TIP3    H214421   7.296   7.065   3.727
 4822TIP3   OH214422   4.087   3.783   2.532
 4822TIP3    H114423   4.131   3.721   2.590
 4822TIP3    H214424   4.006   3.738   2.507
 4823TIP3   OH214425   6.288   1.161   4.540
 4823TIP3    H114426   6.260   1.183   4.629
 4823TIP3    H214427   6.274   1.067   4.533
 4824TIP3   OH214428   2.655   7.079   0.998
 4824TIP3    H114429   2.633   7.146   0.934
 4824TIP3    H214430   2.640   6.996   0.952
 4825TIP3   OH214431   3.726   4.747   1.675
 4825TIP3    H114432   3.783   4.675   1.649
 4825TIP3    H214433   3.637   4.715   1.657
 4826TIP3   OH214434   6.236   6.173   3.903
 4826TIP3    H114435   6.197   6.226   3.972
 4826TIP3    H214436   6.217   6.221   3.822
 4827TIP3   OH214437   3.049   7.049   0.207
 4827TIP3    H114438   3.139   7.075   0.190
 4827TIP3    H214439   3.057   6.967   0.256
 4828TIP3   OH214440   1.537   1.300   4.702
 4828TIP3    H114441   1.592   1.227   4.675
 4828TIP3    H214442   1.592   1.377   4.690
 4829TIP3   OH214443   6.281   2.618   4.699
 4829TIP3    H114444   6.273   2.547   4.635
 4829TIP3    H214445   6.374   2.639   4.699
 4830TIP3   OH214446   7.441   7.135   2.959
 4830TIP3    H114447   7.405   7.155   2.872
 4830TIP3    H214448   7.497   7.210   2.979
 4831TIP3   OH214449   3.581   0.659   5.909
 4831TIP3    H114450   3.602   0.745   5.874
 4831TIP3    H214451   3.547   0.676   5.997
 4832TIP3   OH214452   2.619   2.422   6.090
 4832TIP3    H114453   2.702   2.465   6.110
 4832TIP3    H214454   2.644   2.333   6.065
 4833TIP3   OH214455   3.276   0.999   2.082
 4833TIP3    H114456   3.206   1.020   2.019
 4833TIP3    H214457   3.281   1.077   2.138
 4834TIP3   OH214458   4.531   6.365   2.275
 4834TIP3    H114459   4.569   6.334   2.357
 4834TIP3    H214460   4.456   6.307   2.259
 4835TIP3   OH214461   5.884   0.939   5.158
 4835TIP3    H114462   5.918   0.925   5.247
 4835TIP3    H214463   5.788   0.934   5.168
 4836TIP3   OH214464   4.561   7.566   0.070
 4836TIP3    H114465   4.650   7.582   0.038
 4836TIP3    H214466   4.564   7.476   0.103
 4837TIP3   OH214467   3.387   2.042   0.176
 4837TIP3    H114468   3.403   2.011   0.265
 4837TIP3    H214469   3.319   1.983   0.142
 4838TIP3   OH214470   0.065   2.907   3.804
 4838TIP3    H114471  -0.005   2.843   3.816
 4838TIP3    H214472   0.047   2.975   3.870
 4839TIP3   OH214473   8.107   0.155   5.007
 4839TIP3    H114474   8.133   0.063   4.999
 4839TIP3    H214475   8.182   0.204   4.973
 4840TIP3   OH214476   2.874   7.636   3.593
 4840TIP3    H114477   2.940   7.568   3.604
 4840TIP3    H214478   2.791   7.590   3.605
 4841TIP3   OH214479   4.026   5.772   3.193
 4841TIP3    H114480   4.016   5.847   3.134
 4841TIP3    H214481   4.117   5.743   3.181
 4842TIP3   OH214482   0.236   3.159   1.025
 4842TIP3    H114483   0.299   3.087   1.020
 4842TIP3    H214484   0.223   3.186   0.935
 4843TIP3   OH214485   6.897   6.567   5.792
 4843TIP3    H114486   6.904   6.513   5.713
 4843TIP3    H214487   6.984   6.605   5.803
 4844TIP3   OH214488   0.908   7.515   5.253
 4844TIP3    H114489   0.999   7.545   5.246
 4844TIP3    H214490   0.876   7.556   5.333
 4845TIP3   OH214491   3.375   2.638   0.261
 4845TIP3    H114492   3.363   2.564   0.321
 4845TIP3    H214493   3.429   2.700   0.310
 4846TIP3   OH214494   6.544   3.235   4.039
 4846TIP3    H114495   6.560   3.168   4.105
 4846TIP3    H214496   6.560   3.318   4.084
 4847TIP3   OH214497   4.769   6.268   2.415
 4847TIP3    H114498   4.836   6.261   2.347
 4847TIP3    H214499   4.812   6.315   2.487
 4848TIP3   OH214500   1.818   0.683   5.436
 4848TIP3    H114501   1.857   0.600   5.409
 4848TIP3    H214502   1.893   0.737   5.462
 4849TIP3   OH214503   6.231   5.237   2.944
 4849TIP3    H114504   6.303   5.174   2.953
 4849TIP3    H214505   6.274   5.318   2.918
 4850TIP3   OH214506   5.684   4.886   6.284
 4850TIP3    H114507   5.603   4.842   6.309
 4850TIP3    H214508   5.674   4.902   6.190
 4851TIP3   OH214509   1.507   0.547   4.321
 4851TIP3    H114510   1.548   0.621   4.276
 4851TIP3    H214511   1.541   0.470   4.275
 4852TIP3   OH214512   0.386   0.128   4.381
 4852TIP3    H114513   0.382   0.191   4.453
 4852TIP3    H214514   0.312   0.151   4.325
 4853TIP3   OH214515   1.297   3.507   1.350
 4853TIP3    H114516   1.386   3.497   1.318
 4853TIP3    H214517   1.244   3.520   1.272
 4854TIP3   OH214518   6.025   6.483   3.389
 4854TIP3    H114519   6.007   6.554   3.327
 4854TIP3    H214520   6.076   6.420   3.338
 4855TIP3   OH214521   2.493   5.914   2.699
 4855TIP3    H114522   2.407   5.871   2.702
 4855TIP3    H214523   2.491   5.975   2.772
 4856TIP3   OH214524   3.597   1.514   3.059
 4856TIP3    H114525   3.665   1.474   3.113
 4856TIP3    H214526   3.516   1.469   3.084
 4857TIP3   OH214527   5.332   3.176   5.781
 4857TIP3    H114528   5.348   3.212   5.694
 4857TIP3    H214529   5.414   3.189   5.828
 4858TIP3   OH214530   4.898   2.180   0.502
 4858TIP3    H114531   4.875   2.255   0.448
 4858TIP3    H214532   4.913   2.109   0.439
 4859TIP3   OH214533   3.916   4.525   0.945
 4859TIP3    H114534   4.010   4.536   0.956
 4859TIP3    H214535   3.884   4.613   0.924
 4860TIP3   OH214536   6.018   5.406   1.691
 4860TIP3    H114537   6.105   5.416   1.730
 4860TIP3    H214538   5.991   5.317   1.716
 4861TIP3   OH214539   7.661   2.902   6.574
 4861TIP3    H114540   7.566   2.899   6.581
 4861TIP3    H214541   7.692   2.863   6.656
 4862TIP3   OH214542   1.214   2.587   5.787
 4862TIP3    H114543   1.252   2.546   5.709
 4862TIP3    H214544   1.284   2.644   5.820
 4863TIP3   OH214545   7.190   0.629   3.877
 4863TIP3    H114546   7.146   0.545   3.863
 4863TIP3    H214547   7.180   0.646   3.970
 4864TIP3   OH214548   6.392   4.578   2.076
 4864TIP3    H114549   6.407   4.521   2.152
 4864TIP3    H214550   6.419   4.526   2.001
 4865TIP3   OH214551   0.534   3.477   5.669
 4865TIP3    H114552   0.575   3.556   5.707
 4865TIP3    H214553   0.596   3.449   5.602
 4866TIP3   OH214554   3.454   0.322   6.469
 4866TIP3    H114555   3.406   0.243   6.497
 4866TIP3    H214556   3.464   0.373   6.549
 4867TIP3   OH214557   6.031   3.372   0.627
 4867TIP3    H114558   6.014   3.315   0.552
 4867TIP3    H214559   5.960   3.436   0.625
 4868TIP3   OH214560   3.339   5.502   3.997
 4868TIP3    H114561   3.429   5.536   3.997
 4868TIP3    H214562   3.285   5.579   4.017
 4869TIP3   OH214563   2.560   0.668   5.551
 4869TIP3    H114564   2.559   0.716   5.468
 4869TIP3    H214565   2.601   0.584   5.530
 4870TIP3   OH214566   3.917   7.472   3.172
 4870TIP3    H114567   3.908   7.493   3.079
 4870TIP3    H214568   3.829   7.447   3.200
 4871TIP3   OH214569   5.583   4.300   1.123
 4871TIP3    H114570   5.551   4.330   1.038
 4871TIP3    H214571   5.609   4.380   1.169
 4872TIP3   OH214572   1.005   0.722   2.959
 4872TIP3    H114573   1.072   0.744   2.895
 4872TIP3    H214574   1.004   0.626   2.961
 4873TIP3   OH214575   4.773   0.848   1.984
 4873TIP3    H114576   4.818   0.932   1.981
 4873TIP3    H214577   4.827   0.794   2.042
 4874TIP3   OH214578   1.224   6.504   0.419
 4874TIP3    H114579   1.159   6.461   0.475
 4874TIP3    H214580   1.304   6.453   0.430
 4875TIP3   OH214581   7.878   5.225   4.763
 4875TIP3    H114582   7.971   5.246   4.756
 4875TIP3    H214583   7.844   5.288   4.826
 4876TIP3   OH214584   7.156   5.865   1.478
 4876TIP3    H114585   7.119   5.838   1.394
 4876TIP3    H214586   7.247   5.889   1.458
 4877TIP3   OH214587   6.361   2.328   2.031
 4877TIP3    H114588   6.272   2.340   2.066
 4877TIP3    H214589   6.348   2.293   1.943
 4878TIP3   OH214590   0.052   5.267   5.526
 4878TIP3    H114591   0.011   5.344   5.489
 4878TIP3    H214592   0.145   5.275   5.502
 4879TIP3   OH214593   5.663   6.828   0.681
 4879TIP3    H114594   5.632   6.918   0.680
 4879TIP3    H214595   5.645   6.797   0.769
 4880TIP3   OH214596   4.204   2.933   1.823
 4880TIP3    H114597   4.187   2.871   1.894
 4880TIP3    H214598   4.200   2.881   1.743
 4881TIP3   OH214599   5.132   0.053   6.098
 4881TIP3    H114600   5.037   0.067   6.098
 4881TIP3    H214601   5.168   0.136   6.129
 4882TIP3   OH214602   0.363   0.058   0.803
 4882TIP3    H114603   0.341   0.105   0.884
 4882TIP3    H214604   0.336  -0.032   0.819
 4883TIP3   OH214605   0.647   6.755   6.570
 4883TIP3    H114606   0.590   6.714   6.635
 4883TIP3    H214607   0.720   6.790   6.620
 4884TIP3   OH214608   7.140   4.949   2.982
 4884TIP3    H114609   7.116   4.866   2.941
 4884TIP3    H214610   7.199   4.924   3.053
 4885TIP3   OH214611   4.765   6.637   5.735
 4885TIP3    H114612   4.694   6.613   5.676
 4885TIP3    H214613   4.757   6.576   5.809
 4886TIP3   OH214614   3.929   6.564   1.454
 4886TIP3    H114615   3.945   6.494   1.390
 4886TIP3    H214616   3.834   6.564   1.466
 4887TIP3   OH214617   3.702   1.951   2.527
 4887TIP3    H114618   3.692   1.876   2.468
 4887TIP3    H214619   3.729   1.913   2.610
 4888TIP3   OH214620   7.481   0.438   4.830
 4888TIP3    H114621   7.548   0.410   4.768
 4888TIP3    H214622   7.502   0.392   4.911
 4889TIP3   OH214623   7.136   1.009   4.656
 4889TIP3    H114624   7.154   1.098   4.686
 4889TIP3    H214625   7.044   0.994   4.679
 4890TIP3   OH214626   6.162   1.666   2.456
 4890TIP3    H114627   6.249   1.625   2.459
 4890TIP3    H214628   6.105   1.597   2.422
 4891TIP3   OH214629   7.321   2.535   6.408
 4891TIP3    H114630   7.392   2.600   6.415
 4891TIP3    H214631   7.286   2.529   6.497
 4892TIP3   OH214632   5.716   0.201   3.049
 4892TIP3    H114633   5.762   0.285   3.055
 4892TIP3    H214634   5.634   0.215   3.096
 4893TIP3   OH214635   7.839   6.135   2.640
 4893TIP3    H114636   7.891   6.059   2.612
 4893TIP3    H214637   7.769   6.142   2.576
 4894TIP3   OH214638   4.239   5.503   1.365
 4894TIP3    H114639   4.269   5.548   1.444
 4894TIP3    H214640   4.143   5.505   1.371
 4895TIP3   OH214641   0.114   0.734   5.087
 4895TIP3    H114642   0.087   0.642   5.088
 4895TIP3    H214643   0.155   0.748   5.172
 4896TIP3   OH214644   1.036   7.732   1.258
 4896TIP3    H114645   1.028   7.660   1.196
 4896TIP3    H214646   1.129   7.736   1.278
 4897TIP3   OH214647   7.091   4.104   0.416
 4897TIP3    H114648   7.157   4.105   0.486
 4897TIP3    H214649   7.066   4.011   0.408
 4898TIP3   OH214650   2.838   7.724   2.936
 4898TIP3    H114651   2.927   7.713   2.903
 4898TIP3    H214652   2.837   7.811   2.976
 4899TIP3   OH214653   4.501   0.864   4.138
 4899TIP3    H114654   4.549   0.784   4.163
 4899TIP3    H214655   4.489   0.855   4.043
 4900TIP3   OH214656   0.256   3.989   1.607
 4900TIP3    H114657   0.310   4.039   1.669
 4900TIP3    H214658   0.298   3.903   1.602
 4901TIP3   OH214659   3.069   3.064   1.505
 4901TIP3    H114660   2.976   3.068   1.484
 4901TIP3    H214661   3.087   2.970   1.516
 4902TIP3   OH214662   0.673   7.139   0.718
 4902TIP3    H114663   0.689   7.220   0.766
 4902TIP3    H214664   0.663   7.165   0.627
 4903TIP3   OH214665   6.826   3.777   2.001
 4903TIP3    H114666   6.766   3.844   1.968
 4903TIP3    H214667   6.864   3.739   1.922
 4904TIP3   OH214668   4.051   5.672   3.649
 4904TIP3    H114669   3.994   5.749   3.642
 4904TIP3    H214670   4.052   5.635   3.561
 4905TIP3   OH214671   7.224   6.116   3.888
 4905TIP3    H114672   7.135   6.092   3.916
 4905TIP3    H214673   7.211   6.190   3.829
 4906TIP3   OH214674   6.858   7.026   4.748
 4906TIP3    H114675   6.924   7.038   4.680
 4906TIP3    H214676   6.861   6.932   4.768
 4907TIP3   OH214677   4.642   3.438   3.244
 4907TIP3    H114678   4.663   3.348   3.218
 4907TIP3    H214679   4.618   3.431   3.337
 4908TIP3   OH214680   5.120   7.694   4.735
 4908TIP3    H114681   5.076   7.763   4.784
 4908TIP3    H214682   5.051   7.649   4.687
 4909TIP3   OH214683   5.179   5.415   0.037
 4909TIP3    H114684   5.209   5.505   0.020
 4909TIP3    H214685   5.108   5.402  -0.027
 4910TIP3   OH214686   2.122   4.651   2.725
 4910TIP3    H114687   2.086   4.567   2.753
 4910TIP3    H214688   2.191   4.629   2.664
 4911TIP3   OH214689   1.211   3.888   5.130
 4911TIP3    H114690   1.269   3.964   5.122
 4911TIP3    H214691   1.126   3.920   5.102
 4912TIP3   OH214692   6.332   0.978   3.690
 4912TIP3    H114693   6.265   0.990   3.758
 4912TIP3    H214694   6.356   1.067   3.664
 4913TIP3   OH214695   2.749   5.602   6.132
 4913TIP3    H114696   2.672   5.615   6.189
 4913TIP3    H214697   2.823   5.605   6.192
 4914TIP3   OH214698   6.241   2.713   1.965
 4914TIP3    H114699   6.321   2.669   1.994
 4914TIP3    H214700   6.181   2.641   1.945
 4915TIP3   OH214701   4.624   6.440   3.539
 4915TIP3    H114702   4.568   6.363   3.539
 4915TIP3    H214703   4.712   6.405   3.525
 4916TIP3   OH214704   3.655   5.769   1.956
 4916TIP3    H114705   3.597   5.761   1.881
 4916TIP3    H214706   3.721   5.701   1.943
 4917TIP3   OH214707   5.821   6.363   3.749
 4917TIP3    H114708   5.898   6.326   3.706
 4917TIP3    H214709   5.757   6.374   3.678
 4918TIP3   OH214710   6.611   6.304   2.588
 4918TIP3    H114711   6.667   6.381   2.593
 4918TIP3    H214712   6.658   6.243   2.530
 4919TIP3   OH214713   2.521   5.695   4.846
 4919TIP3    H114714   2.502   5.774   4.796
 4919TIP3    H214715   2.510   5.623   4.783
 4920TIP3   OH214716   5.971   4.249   6.557
 4920TIP3    H114717   5.879   4.234   6.537
 4920TIP3    H214718   5.973   4.259   6.653
 4921TIP3   OH214719   4.248   2.177   5.641
 4921TIP3    H114720   4.334   2.138   5.653
 4921TIP3    H214721   4.260   2.268   5.669
 4922TIP3   OH214722   5.735   3.805   4.050
 4922TIP3    H114723   5.688   3.731   4.010
 4922TIP3    H214724   5.797   3.832   3.983
 4923TIP3   OH214725   1.875   7.325   6.005
 4923TIP3    H114726   1.808   7.375   6.051
 4923TIP3    H214727   1.844   7.321   5.915
 4924TIP3   OH214728   0.483   6.094   4.557
 4924TIP3    H114729   0.445   6.180   4.576
 4924TIP3    H214730   0.530   6.070   4.637
 4925TIP3   OH214731   4.709   5.289   3.181
 4925TIP3    H114732   4.682   5.324   3.266
 4925TIP3    H214733   4.771   5.219   3.203
 4926TIP3   OH214734   2.200   4.017   6.028
 4926TIP3    H114735   2.182   3.928   5.995
 4926TIP3    H214736   2.124   4.039   6.081
 4927TIP3   OH214737   0.440   0.618   6.666
 4927TIP3    H114738   0.448   0.637   6.759
 4927TIP3    H214739   0.517   0.658   6.626
 4928TIP3   OH214740   7.144   4.703   2.878
 4928TIP3    H114741   7.172   4.693   2.787
 4928TIP3    H214742   7.216   4.666   2.929
 4929TIP3   OH214743   1.277   1.619   0.513
 4929TIP3    H114744   1.362   1.651   0.484
 4929TIP3    H214745   1.239   1.577   0.436
 4930TIP3   OH214746   4.169   5.448   6.660
 4930TIP3    H114747   4.121   5.517   6.704
 4930TIP3    H214748   4.133   5.367   6.695
 4931TIP3   OH214749   0.084   1.334   4.719
 4931TIP3    H114750   0.159   1.364   4.668
 4931TIP3    H214751   0.007   1.364   4.671
 4932TIP3   OH214752   2.817   5.488   3.739
 4932TIP3    H114753   2.906   5.454   3.726
 4932TIP3    H214754   2.829   5.563   3.798
 4933TIP3   OH214755   5.900   5.540   3.319
 4933TIP3    H114756   5.827   5.534   3.258
 4933TIP3    H214757   5.974   5.569   3.266
 4934TIP3   OH214758   1.021   5.556   5.886
 4934TIP3    H114759   0.980   5.483   5.932
 4934TIP3    H214760   1.065   5.515   5.811
 4935TIP3   OH214761   4.364   6.471   1.240
 4935TIP3    H114762   4.329   6.428   1.318
 4935TIP3    H214763   4.395   6.556   1.271
 4936TIP3   OH214764   5.476   4.077   1.269
 4936TIP3    H114765   5.513   4.038   1.189
 4936TIP3    H214766   5.494   4.170   1.261
 4937TIP3   OH214767   4.614   0.329   3.467
 4937TIP3    H114768   4.695   0.361   3.505
 4937TIP3    H214769   4.640   0.254   3.413
 4938TIP3   OH214770   7.339   1.257   0.845
 4938TIP3    H114771   7.313   1.320   0.912
 4938TIP3    H214772   7.429   1.281   0.823
 4939TIP3   OH214773   2.298   3.003   0.865
 4939TIP3    H114774   2.293   2.976   0.774
 4939TIP3    H214775   2.249   3.085   0.868
 4940TIP3   OH214776   3.772   5.212   2.233
 4940TIP3    H114777   3.817   5.145   2.284
 4940TIP3    H214778   3.815   5.211   2.148
 4941TIP3   OH214779   4.693   3.094   0.297
 4941TIP3    H114780   4.785   3.118   0.287
 4941TIP3    H214781   4.646   3.178   0.299
 4942TIP3   OH214782   2.148   1.605   4.555
 4942TIP3    H114783   2.240   1.597   4.579
 4942TIP3    H214784   2.114   1.515   4.558
 4943TIP3   OH214785   4.376   3.089   3.720
 4943TIP3    H114786   4.305   3.124   3.773
 4943TIP3    H214787   4.336   3.068   3.636
 4944TIP3   OH214788   1.276   2.983   5.606
 4944TIP3    H114789   1.297   2.921   5.536
 4944TIP3    H214790   1.261   2.929   5.683
 4945TIP3   OH214791   0.458   6.698   5.045
 4945TIP3    H114792   0.366   6.718   5.029
 4945TIP3    H214793   0.506   6.768   5.001
 4946TIP3   OH214794   7.601   7.217   3.826
 4946TIP3    H114795   7.568   7.232   3.914
 4946TIP3    H214796   7.629   7.126   3.826
 4947TIP3   OH214797   5.039   3.964   0.335
 4947TIP3    H114798   5.022   3.893   0.398
 4947TIP3    H214799   4.998   3.934   0.254
 4948TIP3   OH214800   3.705   7.782   1.113
 4948TIP3    H114801   3.701   7.689   1.137
 4948TIP3    H214802   3.693   7.783   1.018
 4949TIP3   OH214803   0.662   1.801   5.965
 4949TIP3    H114804   0.667   1.881   6.018
 4949TIP3    H214805   0.695   1.732   6.023
 4950TIP3   OH214806   0.194   6.015   3.814
 4950TIP3    H114807   0.235   6.035   3.898
 4950TIP3    H214808   0.247   5.944   3.778
 4951TIP3   OH214809   5.008   1.250   6.390
 4951TIP3    H114810   4.948   1.285   6.324
 4951TIP3    H214811   4.969   1.274   6.474
 4952TIP3   OH214812   8.109   3.194   5.033
 4952TIP3    H114813   8.189   3.247   5.041
 4952TIP3    H214814   8.039   3.257   5.019
 4953TIP3   OH214815   5.445   1.475   4.455
 4953TIP3    H114816   5.352   1.474   4.432
 4953TIP3    H214817   5.490   1.489   4.372
 4954TIP3   OH214818   6.541   3.369   3.664
 4954TIP3    H114819   6.541   3.424   3.742
 4954TIP3    H214820   6.506   3.285   3.694
 4955TIP3   OH214821   4.991   1.507   3.335
 4955TIP3    H114822   4.994   1.427   3.387
 4955TIP3    H214823   4.905   1.506   3.294
 4956TIP3   OH214824   4.976   7.463   1.659
 4956TIP3    H114825   4.968   7.408   1.581
 4956TIP3    H214826   4.956   7.405   1.732
 4957TIP3   OH214827   3.792   6.644   4.153
 4957TIP3    H114828   3.735   6.570   4.173
 4957TIP3    H214829   3.877   6.605   4.134
 4958TIP3   OH214830   7.135   4.783   0.263
 4958TIP3    H114831   7.097   4.802   0.177
 4958TIP3    H214832   7.223   4.750   0.245
 4959TIP3   OH214833   5.963   2.812   5.621
 4959TIP3    H114834   6.044   2.846   5.658
 4959TIP3    H214835   5.924   2.886   5.575
 4960TIP3   OH214836   6.501   0.136   6.653
 4960TIP3    H114837   6.573   0.188   6.617
 4960TIP3    H214838   6.422   0.175   6.615
 4961TIP3   OH214839   5.445   5.888   6.632
 4961TIP3    H114840   5.408   5.908   6.547
 4961TIP3    H214841   5.537   5.913   6.625
 4962TIP3   OH214842   4.086   3.965   5.832
 4962TIP3    H114843   4.132   3.883   5.818
 4962TIP3    H214844   3.993   3.941   5.830
 4963TIP3   OH214845   7.140   5.542   0.825
 4963TIP3    H114846   7.223   5.527   0.870
 4963TIP3    H214847   7.074   5.504   0.882
 4964TIP3   OH214848   1.940   2.082   6.537
 4964TIP3    H114849   1.987   2.093   6.455
 4964TIP3    H214850   2.009   2.070   6.603
 4965TIP3   OH214851   2.623   7.391   0.171
 4965TIP3    H114852   2.585   7.477   0.185
 4965TIP3    H214853   2.571   7.332   0.225
 4966TIP3   OH214854   6.763   0.329   2.628
 4966TIP3    H114855   6.767   0.413   2.674
 4966TIP3    H214856   6.855   0.304   2.615
 4967TIP3   OH214857   0.097   0.326   3.441
 4967TIP3    H114858   0.176   0.355   3.487
 4967TIP3    H214859   0.116   0.340   3.349
 4968TIP3   OH214860   2.228   7.523   1.050
 4968TIP3    H114861   2.139   7.523   1.085
 4968TIP3    H214862   2.280   7.568   1.116
 4969TIP3   OH214863   5.358   7.279   4.013
 4969TIP3    H114864   5.396   7.329   3.940
 4969TIP3    H214865   5.275   7.323   4.031
 4970TIP3   OH214866   5.803   0.255   3.771
 4970TIP3    H114867   5.889   0.232   3.735
 4970TIP3    H214868   5.750   0.176   3.759
 4971TIP3   OH214869   5.843   4.948   3.945
 4971TIP3    H114870   5.912   5.014   3.948
 4971TIP3    H214871   5.883   4.870   3.984
 4972TIP3   OH214872   0.733   4.532   2.744
 4972TIP3    H114873   0.744   4.627   2.743
 4972TIP3    H214874   0.645   4.517   2.777
 4973TIP3   OH214875   5.088   1.821   0.845
 4973TIP3    H114876   5.157   1.824   0.779
 4973TIP3    H214877   5.063   1.728   0.850
 4974TIP3   OH214878   6.678   4.664   0.827
 4974TIP3    H114879   6.702   4.756   0.811
 4974TIP3    H214880   6.755   4.614   0.799
 4975TIP3   OH214881   4.084   3.659   4.390
 4975TIP3    H114882   4.085   3.729   4.325
 4975TIP3    H214883   4.118   3.699   4.470
 4976TIP3   OH214884   2.220   0.389   3.998
 4976TIP3    H114885   2.287   0.320   3.996
 4976TIP3    H214886   2.165   0.367   4.073
 4977TIP3   OH214887   2.275   4.305   4.874
 4977TIP3    H114888   2.352   4.255   4.900
 4977TIP3    H214889   2.305   4.363   4.804
 4978TIP3   OH214890   6.831   7.049   5.453
 4978TIP3    H114891   6.741   7.071   5.431
 4978TIP3    H214892   6.884   7.113   5.405
 4979TIP3   OH214893   7.290   4.153   5.783
 4979TIP3    H114894   7.363   4.184   5.730
 4979TIP3    H214895   7.287   4.212   5.858
 4980TIP3   OH214896   4.494   2.386   0.407
 4980TIP3    H114897   4.547   2.368   0.329
 4980TIP3    H214898   4.412   2.422   0.373
 4981TIP3   OH214899   7.924   3.856   0.158
 4981TIP3    H114900   7.934   3.868   0.063
 4981TIP3    H214901   7.881   3.937   0.187
 4982TIP3   OH214902   1.704   2.113   5.885
 4982TIP3    H114903   1.781   2.130   5.831
 4982TIP3    H214904   1.676   2.025   5.859
 4983TIP3   OH214905   6.713   5.183   2.416
 4983TIP3    H114906   6.790   5.196   2.471
 4983TIP3    H214907   6.721   5.092   2.386
 4984TIP3   OH214908   8.205   5.311   3.250
 4984TIP3    H114909   8.202   5.218   3.228
 4984TIP3    H214910   8.140   5.320   3.320
 4985TIP3   OH214911   4.739   7.250   3.632
 4985TIP3    H114912   4.788   7.331   3.650
 4985TIP3    H214913   4.731   7.207   3.717
 4986TIP3   OH214914   1.984   3.216   2.550
 4986TIP3    H114915   1.969   3.261   2.633
 4986TIP3    H214916   1.972   3.124   2.571
 4987TIP3   OH214917   1.056   3.320   6.271
 4987TIP3    H114918   1.032   3.341   6.362
 4987TIP3    H214919   0.978   3.339   6.220
 4988TIP3   OH214920   0.340   2.869   3.189
 4988TIP3    H114921   0.411   2.815   3.224
 4988TIP3    H214922   0.385   2.941   3.143
 4989TIP3   OH214923   2.940   7.263   5.174
 4989TIP3    H114924   2.944   7.206   5.251
 4989TIP3    H214925   3.029   7.260   5.138
 4990TIP3   OH214926   0.094   5.547   2.348
 4990TIP3    H114927   0.158   5.489   2.390
 4990TIP3    H214928   0.010   5.505   2.366
 4991TIP3   OH214929   5.985   4.366   5.366
 4991TIP3    H114930   5.920   4.309   5.324
 4991TIP3    H214931   5.975   4.450   5.322
 4992TIP3   OH214932   2.389   2.414   2.063
 4992TIP3    H114933   2.409   2.507   2.050
 4992TIP3    H214934   2.468   2.377   2.102
 4993TIP3   OH214935   1.997   1.404   1.517
 4993TIP3    H114936   2.004   1.487   1.470
 4993TIP3    H214937   2.088   1.375   1.528
 4994TIP3   OH214938   4.387   5.607   5.777
 4994TIP3    H114939   4.427   5.592   5.692
 4994TIP3    H214940   4.335   5.529   5.794
 4995TIP3   OH214941   3.908   3.351   1.987
 4995TIP3    H114942   4.004   3.351   1.991
 4995TIP3    H214943   3.884   3.259   1.979
 4996TIP3   OH214944   2.737   1.334   2.057
 4996TIP3    H114945   2.668   1.387   2.018
 4996TIP3    H214946   2.729   1.350   2.151
 4997TIP3   OH214947   3.145   5.644   2.227
 4997TIP3    H114948   3.091   5.671   2.301
 4997TIP3    H214949   3.127   5.550   2.218
 4998TIP3   OH214950   0.686   3.721   3.787
 4998TIP3    H114951   0.616   3.755   3.731
 4998TIP3    H214952   0.719   3.645   3.740
 4999TIP3   OH214953   6.191   6.743   1.302
 4999TIP3    H114954   6.121   6.694   1.258
 4999TIP3    H214955   6.269   6.725   1.250
 5000TIP3   OH214956   5.656   5.939   5.739
 5000TIP3    H114957   5.749   5.953   5.722
 5000TIP3    H214958   5.645   5.961   5.831
 5001TIP3   OH214959   5.884   0.516   5.403
 5001TIP3    H114960   5.830   0.439   5.421
 5001TIP3    H214961   5.904   0.510   5.310
 5002TIP3   OH214962   4.228   4.608   1.566
 5002TIP3    H114963   4.304   4.553   1.586
 5002TIP3    H214964   4.182   4.561   1.497
 5003TIP3   OH214965   2.226   3.024   2.267
 5003TIP3    H114966   2.266   2.947   2.307
 5003TIP3    H214967   2.235   3.093   2.334
 5004TIP3   OH214968   8.133   5.596   6.224
 5004TIP3    H114969   8.204   5.659   6.236
 5004TIP3    H214970   8.139   5.571   6.132
 5005TIP3   OH214971   0.056   3.212   5.948
 5005TIP3    H114972  -0.019   3.168   5.988
 5005TIP3    H214973   0.122   3.143   5.937
 5006TIP3   OH214974   3.358   2.642   5.188
 5006TIP3    H114975   3.350   2.729   5.150
 5006TIP3    H214976   3.344   2.582   5.115
 5007TIP3   OH214977   0.864   4.866   0.557
 5007TIP3    H114978   0.895   4.877   0.647
 5007TIP3    H214979   0.794   4.801   0.563
 5008TIP3   OH214980   4.343   0.142   0.591
 5008TIP3    H114981   4.319   0.069   0.647
 5008TIP3    H214982   4.272   0.205   0.602
 5009TIP3   OH214983   4.350   1.878   0.819
 5009TIP3    H114984   4.358   1.861   0.913
 5009TIP3    H214985   4.330   1.972   0.813
 5010TIP3   OH214986   0.214   0.596   5.548
 5010TIP3    H114987   0.309   0.607   5.538
 5010TIP3    H214988   0.205   0.512   5.593
 5011TIP3   OH214989   4.778   4.028   5.080
 5011TIP3    H114990   4.714   4.096   5.100
 5011TIP3    H214991   4.834   4.067   5.012
 5012TIP3   OH214992   8.197   3.615   2.097
 5012TIP3    H114993   8.120   3.669   2.083
 5012TIP3    H214994   8.270   3.676   2.101
 5013TIP3   OH214995   1.615   1.952   4.408
 5013TIP3    H114996   1.528   1.976   4.440
 5013TIP3    H214997   1.654   1.901   4.479
 5014TIP3   OH214998   0.494   1.566   3.756
 5014TIP3    H114999   0.499   1.476   3.723
 5014TIP3    H215000   0.403   1.591   3.741
 5015TIP3   OH215001   3.829   7.241   0.617
 5015TIP3    H115002   3.872   7.322   0.591
 5015TIP3    H215003   3.738   7.250   0.588
 5016TIP3   OH215004   1.772   3.313   0.372
 5016TIP3    H115005   1.838   3.326   0.440
 5016TIP3    H215006   1.789   3.224   0.339
 5017TIP3   OH215007   1.698   5.027   1.774
 5017TIP3    H115008   1.783   4.986   1.792
 5017TIP3    H215009   1.719   5.103   1.721
 5018TIP3   OH215010   4.234   3.876   6.392
 5018TIP3    H115011   4.285   3.950   6.361
 5018TIP3    H215012   4.198   3.837   6.312
 5019TIP3   OH215013   0.415   1.805   5.841
 5019TIP3    H115014   0.504   1.821   5.874
 5019TIP3    H215015   0.428   1.781   5.749
 5020TIP3   OH215016   6.138   0.473   6.179
 5020TIP3    H115017   6.076   0.400   6.183
 5020TIP3    H215018   6.221   0.436   6.207
 5021TIP3   OH215019   6.039   4.536   4.324
 5021TIP3    H115020   5.966   4.518   4.383
 5021TIP3    H215021   6.117   4.514   4.375
 5022TIP3   OH215022   1.767   0.552   4.925
 5022TIP3    H115023   1.768   0.465   4.886
 5022TIP3    H215024   1.739   0.610   4.854
 5023TIP3   OH215025   3.964   3.018   4.694
 5023TIP3    H115026   3.885   3.069   4.714
 5023TIP3    H215027   4.001   2.998   4.779
 5024TIP3   OH215028   3.367   1.733   2.389
 5024TIP3    H115029   3.338   1.676   2.460
 5024TIP3    H215030   3.345   1.685   2.310
 5025TIP3   OH215031   2.762   3.268   4.351
 5025TIP3    H115032   2.828   3.208   4.387
 5025TIP3    H215033   2.681   3.216   4.348
 5026TIP3   OH215034   7.143   6.610   5.469
 5026TIP3    H115035   7.142   6.621   5.374
 5026TIP3    H215036   7.051   6.594   5.492
 5027TIP3   OH215037   1.372   6.267   3.477
 5027TIP3    H115038   1.400   6.285   3.566
 5027TIP3    H215039   1.364   6.352   3.436
 5028TIP3   OH215040   5.036   7.829   3.262
 5028TIP3    H115041   5.003   7.756   3.314
 5028TIP3    H215042   5.128   7.836   3.285
 5029TIP3   OH215043   7.071   5.122   0.613
 5029TIP3    H115044   7.034   5.114   0.700
 5029TIP3    H215045   7.072   5.032   0.579
 5030TIP3   OH215046   5.747   4.441   3.759
 5030TIP3    H115047   5.690   4.457   3.834
 5030TIP3    H215048   5.687   4.440   3.684
 5031TIP3   OH215049   2.067   1.733   3.051
 5031TIP3    H115050   2.042   1.804   2.993
 5031TIP3    H215051   2.118   1.775   3.121
 5032TIP3   OH215052   4.371   1.491   5.268
 5032TIP3    H115053   4.414   1.574   5.246
 5032TIP3    H215054   4.283   1.517   5.296
 5033TIP3   OH215055   1.379   2.401   6.688
 5033TIP3    H115056   1.343   2.460   6.621
 5033TIP3    H215057   1.305   2.384   6.747
 5034TIP3   OH215058   7.314   3.923   2.631
 5034TIP3    H115059   7.399   3.896   2.667
 5034TIP3    H215060   7.283   3.990   2.692
 5035TIP3   OH215061   4.887   6.721   1.813
 5035TIP3    H115062   4.886   6.739   1.719
 5035TIP3    H215063   4.797   6.699   1.835
 5036TIP3   OH215064   1.147   3.636   4.357
 5036TIP3    H115065   1.130   3.575   4.429
 5036TIP3    H215066   1.108   3.719   4.385
 5037TIP3   OH215067   7.015   7.451   5.412
 5037TIP3    H115068   7.036   7.507   5.488
 5037TIP3    H215069   6.933   7.486   5.378
 5038TIP3   OH215070   2.874   0.315   3.632
 5038TIP3    H115071   2.871   0.274   3.718
 5038TIP3    H215072   2.923   0.253   3.578
 5039TIP3   OH215073   2.641   5.744   3.807
 5039TIP3    H115074   2.662   5.681   3.876
 5039TIP3    H215075   2.554   5.717   3.775
 5040TIP3   OH215076   2.091   4.480   5.859
 5040TIP3    H115077   2.121   4.389   5.865
 5040TIP3    H215078   2.169   4.533   5.875
 5041TIP3   OH215079   0.027   1.839   3.804
 5041TIP3    H115080  -0.059   1.822   3.765
 5041TIP3    H215081   0.026   1.933   3.823
 5042TIP3   OH215082   5.783   5.808   2.649
 5042TIP3    H115083   5.792   5.796   2.744
 5042TIP3    H215084   5.873   5.804   2.616
 5043TIP3   OH215085   4.308   6.886   5.112
 5043TIP3    H115086   4.317   6.877   5.017
 5043TIP3    H215087   4.394   6.864   5.146
 5044TIP3   OH215088   4.885   1.475   1.625
 5044TIP3    H115089   4.855   1.560   1.592
 5044TIP3    H215090   4.980   1.477   1.613
 5045TIP3   OH215091   6.764   6.087   3.396
 5045TIP3    H115092   6.768   6.182   3.405
 5045TIP3    H215093   6.742   6.056   3.484
 5046TIP3   OH215094   1.087   0.422   6.619
 5046TIP3    H115095   1.046   0.503   6.589
 5046TIP3    H215096   1.093   0.432   6.714
 5047TIP3   OH215097   7.477   1.192   1.322
 5047TIP3    H115098   7.397   1.235   1.353
 5047TIP3    H215099   7.510   1.145   1.399
 5048TIP3   OH215100   4.954   3.046   3.169
 5048TIP3    H115101   4.979   3.138   3.171
 5048TIP3    H215102   4.909   3.031   3.252
 5049TIP3   OH215103   8.269   6.136   6.723
 5049TIP3    H115104   8.255   6.188   6.802
 5049TIP3    H215105   8.343   6.179   6.679
 5050TIP3   OH215106   6.069   1.004   2.703
 5050TIP3    H115107   5.996   0.943   2.694
 5050TIP3    H215108   6.116   0.998   2.620
 5051TIP3   OH215109   3.293   5.545   4.409
 5051TIP3    H115110   3.352   5.597   4.464
 5051TIP3    H215111   3.212   5.540   4.458
 5052TIP3   OH215112   6.945   7.566   1.968
 5052TIP3    H115113   6.930   7.504   1.896
 5052TIP3    H215114   7.039   7.586   1.964
 5053TIP3   OH215115   4.483   5.772   6.007
 5053TIP3    H115116   4.427   5.695   6.013
 5053TIP3    H215117   4.543   5.753   5.935
 5054TIP3   OH215118   2.976   4.516   0.739
 5054TIP3    H115119   2.956   4.478   0.824
 5054TIP3    H215120   2.890   4.532   0.698
 5055TIP3   OH215121   0.516   6.159   5.375
 5055TIP3    H115122   0.509   6.135   5.468
 5055TIP3    H215123   0.455   6.231   5.364
 5056TIP3   OH215124   0.459   1.167   1.824
 5056TIP3    H115125   0.431   1.087   1.869
 5056TIP3    H215126   0.391   1.231   1.843
 5057TIP3   OH215127   0.408   6.014   2.458
 5057TIP3    H115128   0.467   5.968   2.398
 5057TIP3    H215129   0.321   6.000   2.421
 5058TIP3   OH215130   2.057   5.174   6.491
 5058TIP3    H115131   2.131   5.125   6.457
 5058TIP3    H215132   2.003   5.193   6.414
 5059TIP3   OH215133   1.538   2.375   3.714
 5059TIP3    H115134   1.558   2.411   3.800
 5059TIP3    H215135   1.536   2.280   3.727
 5060TIP3   OH215136   1.655   2.113   2.212
 5060TIP3    H115137   1.621   2.199   2.185
 5060TIP3    H215138   1.654   2.117   2.308
 5061TIP3   OH215139   4.678   6.026   2.677
 5061TIP3    H115140   4.665   5.977   2.596
 5061TIP3    H215141   4.614   6.097   2.673
 5062TIP3   OH215142   6.776   0.747   3.480
 5062TIP3    H115143   6.831   0.702   3.544
 5062TIP3    H215144   6.687   0.718   3.501
 5063TIP3   OH215145   3.801   3.223   4.811
 5063TIP3    H115146   3.772   3.303   4.768
 5063TIP3    H215147   3.856   3.253   4.883
 5064TIP3   OH215148   5.225   4.223   2.662
 5064TIP3    H115149   5.284   4.147   2.661
 5064TIP3    H215150   5.244   4.267   2.745
 5065TIP3   OH215151   6.757   4.921   0.754
 5065TIP3    H115152   6.768   4.976   0.677
 5065TIP3    H215153   6.827   4.948   0.813
 5066TIP3   OH215154   1.696   0.558   0.118
 5066TIP3    H115155   1.608   0.594   0.104
 5066TIP3    H215156   1.683   0.485   0.178
 5067TIP3   OH215157   1.867   4.720   6.308
 5067TIP3    H115158   1.928   4.673   6.251
 5067TIP3    H215159   1.803   4.654   6.334
 5068TIP3   OH215160   8.167   5.209   4.736
 5068TIP3    H115161   8.228   5.146   4.699
 5068TIP3    H215162   8.214   5.293   4.732
 5069TIP3   OH215163   1.086   5.703   1.295
 5069TIP3    H115164   1.110   5.618   1.333
 5069TIP3    H215165   1.007   5.685   1.244
 5070TIP3   OH215166   6.626   2.705   4.996
 5070TIP3    H115167   6.549   2.762   4.996
 5070TIP3    H215168   6.618   2.653   4.916
 5071TIP3   OH215169   1.065   1.565   2.338
 5071TIP3    H115170   1.036   1.616   2.414
 5071TIP3    H215171   1.107   1.488   2.376
 5072TIP3   OH215172   5.451   7.499   4.799
 5072TIP3    H115173   5.445   7.545   4.883
 5072TIP3    H215174   5.446   7.406   4.822
 5073TIP3   OH215175   6.794   6.759   4.189
 5073TIP3    H115176   6.763   6.765   4.098
 5073TIP3    H215177   6.852   6.834   4.199
 5074TIP3   OH215178   6.796   5.712   1.011
 5074TIP3    H115179   6.707   5.730   1.039
 5074TIP3    H215180   6.807   5.618   1.022
 5075TIP3   OH215181   7.727   3.780   6.373
 5075TIP3    H115182   7.775   3.851   6.416
 5075TIP3    H215183   7.694   3.726   6.445
 5076TIP3   OH215184   5.981   2.778   0.978
 5076TIP3    H115185   5.989   2.689   0.943
 5076TIP3    H215186   6.071   2.810   0.984
 5077TIP3   OH215187   1.199   0.409   1.620
 5077TIP3    H115188   1.117   0.409   1.571
 5077TIP3    H215189   1.199   0.493   1.668
 5078TIP3   OH215190   3.873   5.406   4.680
 5078TIP3    H115191   3.778   5.393   4.681
 5078TIP3    H215192   3.885   5.499   4.703
 5079TIP3   OH215193   2.283   2.432   4.148
 5079TIP3    H115194   2.235   2.395   4.222
 5079TIP3    H215195   2.302   2.357   4.091
 5080TIP3   OH215196   1.315   4.664   0.417
 5080TIP3    H115197   1.311   4.621   0.502
 5080TIP3    H215198   1.336   4.755   0.437
 5081TIP3   OH215199   7.032   5.248   5.849
 5081TIP3    H115200   7.032   5.162   5.807
 5081TIP3    H215201   6.956   5.292   5.812
 5082TIP3   OH215202   3.070   6.571   2.380
 5082TIP3    H115203   3.134   6.641   2.391
 5082TIP3    H215204   3.122   6.493   2.365
 5083TIP3   OH215205   2.099   7.771   1.059
 5083TIP3    H115206   2.021   7.745   1.010
 5083TIP3    H215207   2.169   7.770   0.993
 5084TIP3   OH215208   3.911   2.558   0.457
 5084TIP3    H115209   3.946   2.477   0.493
 5084TIP3    H215210   3.850   2.530   0.389
 5085TIP3   OH215211   3.841   3.270   0.485
 5085TIP3    H115212   3.821   3.324   0.561
 5085TIP3    H215213   3.809   3.320   0.410
 5086TIP3   OH215214   0.734   1.999   1.700
 5086TIP3    H115215   0.660   2.058   1.686
 5086TIP3    H215216   0.695   1.912   1.710
 5087TIP3   OH215217   4.330   7.538   0.321
 5087TIP3    H115218   4.353   7.455   0.361
 5087TIP3    H215219   4.346   7.525   0.227
 5088TIP3   OH215220   4.763   3.300   1.284
 5088TIP3    H115221   4.723   3.365   1.342
 5088TIP3    H215222   4.738   3.328   1.195
 5089TIP3   OH215223   4.127   0.756   2.879
 5089TIP3    H115224   4.185   0.734   2.806
 5089TIP3    H215225   4.179   0.738   2.958
 5090TIP3   OH215226   5.546   5.475   5.877
 5090TIP3    H115227   5.624   5.506   5.923
 5090TIP3    H215228   5.485   5.452   5.947
 5091TIP3   OH215229   1.184   3.698   3.849
 5091TIP3    H115230   1.098   3.741   3.848
 5091TIP3    H215231   1.190   3.657   3.935
 5092TIP3   OH215232   5.374   1.125   4.871
 5092TIP3    H115233   5.369   1.030   4.865
 5092TIP3    H215234   5.463   1.142   4.903
 5093TIP3   OH215235   4.644   0.548   5.768
 5093TIP3    H115236   4.667   0.626   5.718
 5093TIP3    H215237   4.562   0.570   5.812
 5094TIP3   OH215238   2.950   6.883   3.212
 5094TIP3    H115239   3.009   6.958   3.218
 5094TIP3    H215240   2.863   6.922   3.203
 5095TIP3   OH215241   8.151   3.262   4.492
 5095TIP3    H115242   8.111   3.235   4.410
 5095TIP3    H215243   8.203   3.187   4.520
 5096TIP3   OH215244   7.263   4.101   0.632
 5096TIP3    H115245   7.297   4.098   0.721
 5096TIP3    H215246   7.297   4.022   0.590
 5097TIP3   OH215247   2.925   4.854   3.834
 5097TIP3    H115248   2.869   4.901   3.896
 5097TIP3    H215249   2.922   4.763   3.863
 5098TIP3   OH215250   0.338   7.525   3.977
 5098TIP3    H115251   0.381   7.556   4.057
 5098TIP3    H215252   0.405   7.535   3.909
 5099TIP3   OH215253   2.877   2.089   1.959
 5099TIP3    H115254   2.963   2.051   1.973
 5099TIP3    H215255   2.892   2.161   1.897
 5100TIP3   OH215256   4.416   0.201   0.338
 5100TIP3    H115257   4.389   0.292   0.349
 5100TIP3    H215258   4.415   0.165   0.426
 5101TIP3   OH215259   0.013   7.350   2.117
 5101TIP3    H115260   0.029   7.340   2.211
 5101TIP3    H215261  -0.056   7.416   2.112
 5102TIP3   OH215262   4.898   0.836   3.177
 5102TIP3    H115263   4.982   0.840   3.131
 5102TIP3    H215264   4.874   0.743   3.173
 5103TIP3   OH215265   2.643   3.219   5.231
 5103TIP3    H115266   2.566   3.195   5.179
 5103TIP3    H215267   2.707   3.149   5.212
 5104TIP3   OH215268   1.118   1.215   6.257
 5104TIP3    H115269   1.059   1.147   6.224
 5104TIP3    H215270   1.127   1.195   6.350
 5105TIP3   OH215271   5.658   1.082   5.293
 5105TIP3    H115272   5.613   1.155   5.250
 5105TIP3    H215273   5.586   1.027   5.327
 5106TIP3   OH215274   6.277   1.425   6.151
 5106TIP3    H115275   6.302   1.345   6.104
 5106TIP3    H215276   6.182   1.427   6.147
 5107TIP3   OH215277   7.483   0.969   6.208
 5107TIP3    H115278   7.446   0.895   6.160
 5107TIP3    H215279   7.511   1.030   6.140
 5108TIP3   OH215280   0.941   2.007   2.466
 5108TIP3    H115281   0.998   2.017   2.542
 5108TIP3    H215282   0.859   1.974   2.502
 5109TIP3   OH215283   2.867   1.646   4.336
 5109TIP3    H115284   2.943   1.607   4.294
 5109TIP3    H215285   2.793   1.617   4.282
 5110TIP3   OH215286   2.413   7.662   1.207
 5110TIP3    H115287   2.381   7.730   1.148
 5110TIP3    H215288   2.508   7.660   1.192
 5111TIP3   OH215289   8.258   1.231   0.394
 5111TIP3    H115290   8.236   1.172   0.322
 5111TIP3    H215291   8.314   1.179   0.452
 5112TIP3   OH215292   5.202   0.749   5.598
 5112TIP3    H115293   5.156   0.702   5.668
 5112TIP3    H215294   5.204   0.840   5.628
 5113TIP3   OH215295   8.247   2.941   1.905
 5113TIP3    H115296   8.307   3.015   1.906
 5113TIP3    H215297   8.297   2.869   1.865
 5114TIP3   OH215298   4.982   3.201   4.386
 5114TIP3    H115299   5.052   3.200   4.450
 5114TIP3    H215300   4.902   3.216   4.437
 5115TIP3   OH215301   2.835   1.572   0.735
 5115TIP3    H115302   2.907   1.570   0.671
 5115TIP3    H215303   2.773   1.506   0.703
 5116TIP3   OH215304   3.555   4.809   1.975
 5116TIP3    H115305   3.465   4.789   2.002
 5116TIP3    H215306   3.544   4.867   1.899
 5117TIP3   OH215307   4.408   5.449   3.503
 5117TIP3    H115308   4.414   5.363   3.463
 5117TIP3    H215309   4.433   5.435   3.595
 5118TIP3   OH215310   4.918   5.718   3.057
 5118TIP3    H115311   4.877   5.756   2.980
 5118TIP3    H215312   4.946   5.631   3.029
 5119TIP3   OH215313   6.420   5.526   0.540
 5119TIP3    H115314   6.432   5.597   0.478
 5119TIP3    H215315   6.470   5.453   0.503
 5120TIP3   OH215316   2.041   5.864   0.896
 5120TIP3    H115317   2.044   5.837   0.804
 5120TIP3    H215318   1.969   5.928   0.899
 5121TIP3   OH215319   3.618   2.842   2.109
 5121TIP3    H115320   3.543   2.784   2.122
 5121TIP3    H215321   3.581   2.923   2.074
 5122TIP3   OH215322   7.961   0.545   3.886
 5122TIP3    H115323   7.888   0.484   3.891
 5122TIP3    H215324   7.937   0.617   3.945
 5123TIP3   OH215325   1.522   0.630   4.592
 5123TIP3    H115326   1.506   0.602   4.501
 5123TIP3    H215327   1.436   0.656   4.624
 5124TIP3   OH215328   7.132   0.216   3.322
 5124TIP3    H115329   7.199   0.233   3.256
 5124TIP3    H215330   7.141   0.123   3.342
 5125TIP3   OH215331   1.888   4.399   0.689
 5125TIP3    H115332   1.916   4.354   0.769
 5125TIP3    H215333   1.970   4.429   0.649
 5126TIP3   OH215334   4.980   6.613   4.000
 5126TIP3    H115335   5.013   6.622   4.090
 5126TIP3    H215336   5.050   6.649   3.945
 5127TIP3   OH215337   4.354   7.022   2.382
 5127TIP3    H115338   4.261   7.000   2.381
 5127TIP3    H215339   4.392   6.962   2.447
 5128TIP3   OH215340   4.429   7.333   0.099
 5128TIP3    H115341   4.413   7.248   0.141
 5128TIP3    H215342   4.391   7.325   0.012
 5129TIP3   OH215343   4.246   6.002   6.357
 5129TIP3    H115344   4.338   5.978   6.364
 5129TIP3    H215345   4.237   6.041   6.270
 5130TIP3   OH215346   3.263   4.393   5.005
 5130TIP3    H115347   3.271   4.344   4.923
 5130TIP3    H215348   3.237   4.481   4.977
 5131TIP3   OH215349   6.602   2.830   2.036
 5131TIP3    H115350   6.515   2.793   2.051
 5131TIP3    H215351   6.612   2.895   2.106
 5132TIP3   OH215352   3.812   0.563   6.618
 5132TIP3    H115353   3.846   0.582   6.706
 5132TIP3    H215354   3.888   0.530   6.570
 5133TIP3   OH215355   5.778   5.009   5.229
 5133TIP3    H115356   5.759   5.061   5.307
 5133TIP3    H215357   5.762   5.069   5.156
 5134TIP3   OH215358   7.379   7.062   6.645
 5134TIP3    H115359   7.333   7.039   6.726
 5134TIP3    H215360   7.332   7.014   6.576
 5135TIP3   OH215361   5.362   5.597   6.396
 5135TIP3    H115362   5.356   5.526   6.460
 5135TIP3    H215363   5.273   5.629   6.386
 5136TIP3   OH215364   8.235   1.581   4.311
 5136TIP3    H115365   8.300   1.528   4.265
 5136TIP3    H215366   8.199   1.523   4.378
 5137TIP3   OH215367   0.395   4.555   4.395
 5137TIP3    H115368   0.445   4.627   4.356
 5137TIP3    H215369   0.403   4.569   4.489
 5138TIP3   OH215370   5.363   5.200   4.152
 5138TIP3    H115371   5.343   5.191   4.245
 5138TIP3    H215372   5.293   5.257   4.119
 5139TIP3   OH215373   7.433   4.346   4.850
 5139TIP3    H115374   7.377   4.367   4.924
 5139TIP3    H215375   7.390   4.386   4.775
 5140TIP3   OH215376   7.269   1.927   4.483
 5140TIP3    H115377   7.195   1.972   4.443
 5140TIP3    H215378   7.346   1.973   4.449
 5141TIP3   OH215379   5.683   5.327   6.136
 5141TIP3    H115380   5.682   5.254   6.074
 5141TIP3    H215381   5.592   5.338   6.161
 5142TIP3   OH215382   7.508   7.531   1.772
 5142TIP3    H115383   7.532   7.534   1.865
 5142TIP3    H215384   7.468   7.616   1.754
 5143TIP3   OH215385   3.867   0.796   0.569
 5143TIP3    H115386   3.922   0.722   0.544
 5143TIP3    H215387   3.927   0.860   0.607
 5144TIP3   OH215388   1.930   1.571   1.079
 5144TIP3    H115389   1.960   1.599   0.992
 5144TIP3    H215390   2.000   1.597   1.138
 5145TIP3   OH215391   5.304   1.166   4.543
 5145TIP3    H115392   5.229   1.109   4.560
 5145TIP3    H215393   5.346   1.177   4.628
 5146TIP3   OH215394   2.951   2.827   0.547
 5146TIP3    H115395   3.024   2.885   0.570
 5146TIP3    H215396   2.977   2.788   0.463
 5147TIP3   OH215397   3.602   0.933   1.142
 5147TIP3    H115398   3.560   0.915   1.226
 5147TIP3    H215399   3.540   0.989   1.096
 5148TIP3   OH215400   0.909   3.312   2.731
 5148TIP3    H115401   0.951   3.280   2.652
 5148TIP3    H215402   0.835   3.364   2.700
 5149TIP3   OH215403   5.851   5.912   0.954
 5149TIP3    H115404   5.849   5.852   1.029
 5149TIP3    H215405   5.833   5.857   0.878
 5150TIP3   OH215406   7.316   0.443   6.356
 5150TIP3    H115407   7.313   0.405   6.444
 5150TIP3    H215408   7.320   0.537   6.371
 5151TIP3   OH215409   7.844   0.970   1.514
 5151TIP3    H115410   7.844   0.948   1.421
 5151TIP3    H215411   7.853   0.885   1.559
 5152TIP3   OH215412   0.121   6.299   1.982
 5152TIP3    H115413   0.049   6.237   1.985
 5152TIP3    H215414   0.154   6.303   2.072
 5153TIP3   OH215415   2.578   6.000   5.482
 5153TIP3    H115416   2.565   6.037   5.570
 5153TIP3    H215417   2.634   6.064   5.437
 5154TIP3   OH215418   1.848   1.989   2.073
 5154TIP3    H115419   1.853   1.922   2.141
 5154TIP3    H215420   1.787   2.054   2.108
 5155TIP3   OH215421   0.655   5.303   5.793
 5155TIP3    H115422   0.705   5.251   5.856
 5155TIP3    H215423   0.582   5.339   5.843
 5156TIP3   OH215424   7.648   6.934   2.116
 5156TIP3    H115425   7.644   7.020   2.074
 5156TIP3    H215426   7.711   6.945   2.187
 5157TIP3   OH215427   7.340   6.352   2.786
 5157TIP3    H115428   7.299   6.279   2.739
 5157TIP3    H215429   7.349   6.421   2.721
 5158TIP3   OH215430   7.069   1.445   5.403
 5158TIP3    H115431   7.130   1.513   5.375
 5158TIP3    H215432   7.124   1.375   5.438
 5159TIP3   OH215433   3.442   7.690   3.937
 5159TIP3    H115434   3.422   7.663   3.847
 5159TIP3    H215435   3.505   7.761   3.927
 5160TIP3   OH215436   1.450   6.179   6.079
 5160TIP3    H115437   1.515   6.246   6.101
 5160TIP3    H215438   1.458   6.114   6.148
 5161TIP3   OH215439   0.665   6.407   2.580
 5161TIP3    H115440   0.712   6.474   2.531
 5161TIP3    H215441   0.662   6.440   2.670
 5162TIP3   OH215442   3.563   4.610   1.489
 5162TIP3    H115443   3.584   4.610   1.395
 5162TIP3    H215444   3.547   4.518   1.509
 5163TIP3   OH215445   2.878   7.092   2.482
 5163TIP3    H115446   2.804   7.061   2.430
 5163TIP3    H215447   2.949   7.031   2.463
 5164TIP3   OH215448   3.574   6.764   1.373
 5164TIP3    H115449   3.609   6.713   1.447
 5164TIP3    H215450   3.485   6.730   1.361
 5165TIP3   OH215451   4.410   5.883   0.080
 5165TIP3    H115452   4.463   5.963   0.079
 5165TIP3    H215453   4.456   5.822   0.023
 5166TIP3   OH215454   4.252  -0.030   2.742
 5166TIP3    H115455   4.202   0.045   2.774
 5166TIP3    H215456   4.269  -0.010   2.650
 5167TIP3   OH215457   2.152   6.874   1.439
 5167TIP3    H115458   2.215   6.912   1.500
 5167TIP3    H215459   2.098   6.816   1.492
 5168TIP3   OH215460   7.659   7.253   5.213
 5168TIP3    H115461   7.570   7.240   5.245
 5168TIP3    H215462   7.674   7.179   5.154
 5169TIP3   OH215463   4.959   3.780   6.756
 5169TIP3    H115464   5.034   3.757   6.812
 5169TIP3    H215465   4.918   3.696   6.735
 5170TIP3   OH215466   4.014   4.941   5.268
 5170TIP3    H115467   3.991   5.014   5.325
 5170TIP3    H215468   3.949   4.873   5.289
 5171TIP3   OH215469   6.584   3.704   4.462
 5171TIP3    H115470   6.629   3.759   4.526
 5171TIP3    H215471   6.519   3.656   4.513
 5172TIP3   OH215472   3.934   0.806   3.556
 5172TIP3    H115473   3.877   0.791   3.480
 5172TIP3    H215474   4.018   0.766   3.532
 5173TIP3   OH215475   2.247   7.413   5.718
 5173TIP3    H115476   2.278   7.354   5.787
 5173TIP3    H215477   2.160   7.380   5.695
 5174TIP3   OH215478   5.140   6.849   3.843
 5174TIP3    H115479   5.121   6.860   3.936
 5174TIP3    H215480   5.236   6.840   3.840
 5175TIP3   OH215481   3.051   5.158   3.819
 5175TIP3    H115482   3.003   5.076   3.829
 5175TIP3    H215483   3.098   5.169   3.902
 5176TIP3   OH215484   0.151   1.784   5.112
 5176TIP3    H115485   0.228   1.781   5.055
 5176TIP3    H215486   0.188   1.792   5.200
 5177TIP3   OH215487   3.555   6.175   0.899
 5177TIP3    H115488   3.494   6.103   0.881
 5177TIP3    H215489   3.503   6.240   0.946
 5178TIP3   OH215490   2.489   7.763   2.633
 5178TIP3    H115491   2.426   7.817   2.586
 5178TIP3    H215492   2.575   7.795   2.606
 5179TIP3   OH215493   3.556   0.517   6.643
 5179TIP3    H115494   3.647   0.533   6.617
 5179TIP3    H215495   3.543   0.572   6.720
 5180TIP3   OH215496   0.290   1.810   2.888
 5180TIP3    H115497   0.383   1.803   2.911
 5180TIP3    H215498   0.267   1.901   2.906
 5181TIP3   OH215499   3.278   4.557   5.785
 5181TIP3    H115500   3.266   4.464   5.765
 5181TIP3    H215501   3.189   4.590   5.799
 5182TIP3   OH215502   7.137   2.759   3.559
 5182TIP3    H115503   7.078   2.684   3.570
 5182TIP3    H215504   7.082   2.828   3.522
 5183TIP3   OH215505   4.628   4.090   1.682
 5183TIP3    H115506   4.593   4.050   1.603
 5183TIP3    H215507   4.611   4.184   1.671
 5184TIP3   OH215508   3.517   5.177   2.170
 5184TIP3    H115509   3.611   5.196   2.176
 5184TIP3    H215510   3.476   5.238   2.232
 5185TIP3   OH215511   7.610   0.621   6.642
 5185TIP3    H115512   7.676   0.682   6.608
 5185TIP3    H215513   7.527   0.668   6.632
 5186TIP3   OH215514   5.808   1.809   4.479
 5186TIP3    H115515   5.823   1.901   4.498
 5186TIP3    H215516   5.721   1.790   4.515
 5187TIP3   OH215517   1.479   1.803   0.419
 5187TIP3    H115518   1.571   1.801   0.393
 5187TIP3    H215519   1.444   1.882   0.379
 5188TIP3   OH215520   6.297   4.942   5.514
 5188TIP3    H115521   6.314   4.857   5.553
 5188TIP3    H215522   6.341   4.939   5.429
 5189TIP3   OH215523   6.715   3.054   3.615
 5189TIP3    H115524   6.782   3.118   3.640
 5189TIP3    H215525   6.638   3.081   3.664
 5190TIP3   OH215526   7.556   4.653   5.591
 5190TIP3    H115527   7.608   4.729   5.566
 5190TIP3    H215528   7.517   4.678   5.675
 5191TIP3   OH215529   1.395   2.390   4.386
 5191TIP3    H115530   1.415   2.379   4.479
 5191TIP3    H215531   1.466   2.345   4.340
 5192TIP3   OH215532   3.049   0.422   2.040
 5192TIP3    H115533   3.073   0.423   2.133
 5192TIP3    H215534   2.957   0.394   2.040
 5193TIP3   OH215535   5.144   2.605   3.258
 5193TIP3    H115536   5.107   2.616   3.171
 5193TIP3    H215537   5.070   2.577   3.313
 5194TIP3   OH215538   2.142   2.955   4.719
 5194TIP3    H115539   2.211   2.990   4.775
 5194TIP3    H215540   2.115   3.029   4.665
 5195TIP3   OH215541   1.823   3.079   1.952
 5195TIP3    H115542   1.916   3.075   1.975
 5195TIP3    H215543   1.818   3.140   1.878
 5196TIP3   OH215544   3.562   7.162   4.493
 5196TIP3    H115545   3.531   7.178   4.404
 5196TIP3    H215546   3.529   7.236   4.543
 5197TIP3   OH215547   1.259   6.298   2.247
 5197TIP3    H115548   1.313   6.231   2.289
 5197TIP3    H215549   1.250   6.366   2.313
 5198TIP3   OH215550   2.924   4.229   1.588
 5198TIP3    H115551   2.855   4.166   1.568
 5198TIP3    H215552   2.932   4.228   1.683
 5199TIP3   OH215553   0.894   7.793   2.581
 5199TIP3    H115554   0.914   7.703   2.608
 5199TIP3    H215555   0.964   7.817   2.522
 5200TIP3   OH215556   3.527   2.067   3.250
 5200TIP3    H115557   3.480   2.096   3.172
 5200TIP3    H215558   3.511   2.136   3.314
 5201TIP3   OH215559   7.485   7.446   6.607
 5201TIP3    H115560   7.426   7.455   6.532
 5201TIP3    H215561   7.542   7.372   6.585
 5202TIP3   OH215562   0.928   0.085   1.945
 5202TIP3    H115563   0.852   0.053   1.897
 5202TIP3    H215564   0.993   0.104   1.878
 5203TIP3   OH215565   2.337   0.891   6.056
 5203TIP3    H115566   2.345   0.979   6.092
 5203TIP3    H215567   2.332   0.834   6.133
 5204TIP3   OH215568   4.935   4.447   2.944
 5204TIP3    H115569   4.935   4.539   2.972
 5204TIP3    H215570   4.885   4.402   3.012
 5205TIP3   OH215571   0.176   2.344   3.093
 5205TIP3    H115572   0.193   2.338   3.187
 5205TIP3    H215573   0.080   2.350   3.087
 5206TIP3   OH215574   1.070   2.712   4.354
 5206TIP3    H115575   1.163   2.698   4.375
 5206TIP3    H215576   1.049   2.798   4.390
 5207TIP3   OH215577   6.229   6.050   3.467
 5207TIP3    H115578   6.212   5.962   3.500
 5207TIP3    H215579   6.289   6.038   3.394
 5208TIP3   OH215580   2.444   4.312   5.195
 5208TIP3    H115581   2.501   4.297   5.270
 5208TIP3    H215582   2.404   4.227   5.177
 5209TIP3   OH215583   4.932   5.060   0.317
 5209TIP3    H115584   4.924   5.102   0.231
 5209TIP3    H215585   5.026   5.049   0.329
 5210TIP3   OH215586   0.128   5.201   2.008
 5210TIP3    H115587   0.130   5.117   2.053
 5210TIP3    H215588   0.216   5.236   2.019
 5211TIP3   OH215589   5.486   7.649   1.382
 5211TIP3    H115590   5.422   7.642   1.453
 5211TIP3    H215591   5.438   7.688   1.309
 5212TIP3   OH215592   0.125   4.982   2.195
 5212TIP3    H115593   0.030   4.977   2.197
 5212TIP3    H215594   0.151   4.920   2.126
 5213TIP3   OH215595   3.632   0.365   4.469
 5213TIP3    H115596   3.644   0.340   4.377
 5213TIP3    H215597   3.537   0.364   4.481
 5214TIP3   OH215598   2.286   1.163   1.358
 5214TIP3    H115599   2.205   1.163   1.409
 5214TIP3    H215600   2.257   1.168   1.267
 5215TIP3   OH215601   4.039   6.153   4.111
 5215TIP3    H115602   3.973   6.163   4.043
 5215TIP3    H215603   4.028   6.229   4.168
 5216TIP3   OH215604   0.076   4.213   2.559
 5216TIP3    H115605   0.132   4.144   2.595
 5216TIP3    H215606   0.129   4.292   2.566
 5217TIP3   OH215607   0.453   3.786   1.018
 5217TIP3    H115608   0.490   3.717   0.964
 5217TIP3    H215609   0.412   3.740   1.091
 5218TIP3   OH215610   0.484   5.374   6.002
 5218TIP3    H115611   0.483   5.464   5.972
 5218TIP3    H215612   0.433   5.374   6.083
 5219TIP3   OH215613   6.509   5.825   0.781
 5219TIP3    H115614   6.508   5.896   0.845
 5219TIP3    H215615   6.513   5.746   0.834
 5220TIP3   OH215616   5.243   1.319   2.932
 5220TIP3    H115617   5.257   1.262   3.008
 5220TIP3    H215618   5.167   1.372   2.955
 5221TIP3   OH215619   5.225   0.229   5.248
 5221TIP3    H115620   5.282   0.155   5.270
 5221TIP3    H215621   5.201   0.266   5.332
 5222TIP3   OH215622   5.522   2.365   2.793
 5222TIP3    H115623   5.461   2.292   2.806
 5222TIP3    H215624   5.468   2.443   2.807
 5223TIP3   OH215625   4.074   2.215   3.059
 5223TIP3    H115626   4.017   2.166   3.118
 5223TIP3    H215627   4.015   2.278   3.016
 5224TIP3   OH215628   7.110   7.011   5.558
 5224TIP3    H115629   7.056   6.969   5.625
 5224TIP3    H215630   7.048   7.067   5.510
 5225TIP3   OH215631   8.188   3.975   2.330
 5225TIP3    H115632   8.121   4.022   2.381
 5225TIP3    H215633   8.194   3.889   2.371
 5226TIP3   OH215634   1.197   2.387   2.705
 5226TIP3    H115635   1.259   2.333   2.657
 5226TIP3    H215636   1.112   2.366   2.666
 5227TIP3   OH215637   1.731   1.143   2.206
 5227TIP3    H115638   1.737   1.171   2.114
 5227TIP3    H215639   1.709   1.050   2.202
 5228TIP3   OH215640   4.898   3.603   4.495
 5228TIP3    H115641   4.886   3.619   4.589
 5228TIP3    H215642   4.812   3.574   4.464
 5229TIP3   OH215643   7.854   3.111   4.113
 5229TIP3    H115644   7.845   3.087   4.206
 5229TIP3    H215645   7.771   3.154   4.092
 5230TIP3   OH215646   7.151   2.385   0.926
 5230TIP3    H115647   7.166   2.435   1.006
 5230TIP3    H215648   7.082   2.432   0.881
 5231TIP3   OH215649   5.864   0.404   4.079
 5231TIP3    H115650   5.832   0.323   4.040
 5231TIP3    H215651   5.861   0.388   4.173
 5232TIP3   OH215652   1.941   0.641   3.820
 5232TIP3    H115653   1.982   0.556   3.806
 5232TIP3    H215654   1.922   0.673   3.732
 5233TIP3   OH215655   2.814   3.509   0.691
 5233TIP3    H115656   2.746   3.559   0.736
 5233TIP3    H215657   2.768   3.433   0.655
 5234TIP3   OH215658   3.115   2.966   3.980
 5234TIP3    H115659   3.209   2.949   3.984
 5234TIP3    H215660   3.098   2.983   3.887
 5235TIP3   OH215661   5.747   5.204   4.189
 5235TIP3    H115662   5.802   5.192   4.112
 5235TIP3    H215663   5.807   5.235   4.257
 5236TIP3   OH215664   5.673   5.604   3.176
 5236TIP3    H115665   5.664   5.625   3.269
 5236TIP3    H215666   5.586   5.576   3.149
 5237TIP3   OH215667   5.754   6.320   0.230
 5237TIP3    H115668   5.749   6.233   0.271
 5237TIP3    H215669   5.809   6.371   0.290
 5238TIP3   OH215670   4.928   6.401   4.864
 5238TIP3    H115671   4.918   6.473   4.927
 5238TIP3    H215672   4.858   6.415   4.801
 5239TIP3   OH215673   2.211   0.176   4.506
 5239TIP3    H115674   2.168   0.094   4.529
 5239TIP3    H215675   2.303   0.153   4.493
 5240TIP3   OH215676   0.625   2.585   5.217
 5240TIP3    H115677   0.670   2.615   5.296
 5240TIP3    H215678   0.566   2.516   5.249
 5241TIP3   OH215679   6.109   0.788   2.243
 5241TIP3    H115680   6.095   0.763   2.152
 5241TIP3    H215681   6.025   0.772   2.286
 5242TIP3   OH215682   3.647   7.294   2.388
 5242TIP3    H115683   3.651   7.387   2.413
 5242TIP3    H215684   3.592   7.294   2.309
 5243TIP3   OH215685   5.430   7.013   2.858
 5243TIP3    H115686   5.421   7.098   2.903
 5243TIP3    H215687   5.493   6.965   2.911
 5244TIP3   OH215688   3.321   5.197   4.906
 5244TIP3    H115689   3.258   5.175   4.837
 5244TIP3    H215690   3.392   5.134   4.895
 5245TIP3   OH215691   3.406   4.671   2.884
 5245TIP3    H115692   3.352   4.749   2.874
 5245TIP3    H215693   3.446   4.682   2.971
 5246TIP3   OH215694   6.142   0.396   3.995
 5246TIP3    H115695   6.168   0.488   3.990
 5246TIP3    H215696   6.047   0.398   4.008
 5247TIP3   OH215697   5.197   1.008   5.687
 5247TIP3    H115698   5.192   1.072   5.616
 5247TIP3    H215699   5.186   1.059   5.767
 5248TIP3   OH215700   4.645   7.788   1.075
 5248TIP3    H115701   4.561   7.821   1.110
 5248TIP3    H215702   4.657   7.836   0.993
 5249TIP3   OH215703   2.716   3.110   3.541
 5249TIP3    H115704   2.673   3.174   3.485
 5249TIP3    H215705   2.806   3.107   3.510
 5250TIP3   OH215706   2.768   3.735   6.311
 5250TIP3    H115707   2.801   3.709   6.225
 5250TIP3    H215708   2.688   3.784   6.293
 5251TIP3   OH215709   0.071   0.497   1.362
 5251TIP3    H115710   0.117   0.436   1.419
 5251TIP3    H215711  -0.016   0.459   1.351
 5252TIP3   OH215712   0.211   4.573   6.799
 5252TIP3    H115713   0.257   4.508   6.746
 5252TIP3    H215714   0.249   4.657   6.772
 5253TIP3   OH215715   6.155   5.217   6.401
 5253TIP3    H115716   6.080   5.211   6.461
 5253TIP3    H215717   6.203   5.136   6.414
 5254TIP3   OH215718   6.318   6.047   5.494
 5254TIP3    H115719   6.300   6.070   5.403
 5254TIP3    H215720   6.411   6.022   5.495
 5255TIP3   OH215721   5.292   2.660   2.502
 5255TIP3    H115722   5.287   2.693   2.413
 5255TIP3    H215723   5.364   2.596   2.500
 5256TIP3   OH215724   3.777   0.286   3.189
 5256TIP3    H115725   3.736   0.366   3.221
 5256TIP3    H215726   3.760   0.286   3.095
 5257TIP3   OH215727   0.247   6.605   4.434
 5257TIP3    H115728   0.336   6.641   4.426
 5257TIP3    H215729   0.190   6.682   4.425
 5258TIP3   OH215730   1.088   0.312   3.707
 5258TIP3    H115731   1.157   0.253   3.739
 5258TIP3    H215732   1.095   0.390   3.763
 5259TIP3   OH215733   0.817   6.650   2.572
 5259TIP3    H115734   0.846   6.694   2.492
 5259TIP3    H215735   0.871   6.688   2.641
 5260TIP3   OH215736   6.024   5.556   3.856
 5260TIP3    H115737   6.095   5.516   3.806
 5260TIP3    H215738   6.068   5.616   3.917
 5261TIP3   OH215739   3.365   5.011   3.483
 5261TIP3    H115740   3.337   5.033   3.572
 5261TIP3    H215741   3.382   5.096   3.442
 5262TIP3   OH215742   0.246   6.667   0.385
 5262TIP3    H115743   0.253   6.761   0.367
 5262TIP3    H215744   0.180   6.635   0.323
 5263TIP3   OH215745   8.032   1.368   1.174
 5263TIP3    H115746   7.997   1.450   1.207
 5263TIP3    H215747   7.980   1.300   1.218
 5264TIP3   OH215748   3.992   2.365   4.188
 5264TIP3    H115749   3.917   2.306   4.181
 5264TIP3    H215750   4.053   2.321   4.247
 5265TIP3   OH215751   7.954   2.863   6.558
 5265TIP3    H115752   8.046   2.884   6.575
 5265TIP3    H215753   7.920   2.940   6.512
 5266TIP3   OH215754   3.968   6.037   0.875
 5266TIP3    H115755   3.948   6.102   0.942
 5266TIP3    H215756   3.900   6.048   0.809
 5267TIP3   OH215757   6.598   1.099   5.023
 5267TIP3    H115758   6.546   1.020   5.040
 5267TIP3    H215759   6.645   1.079   4.942
 5268TIP3   OH215760   5.207   1.770   6.095
 5268TIP3    H115761   5.279   1.728   6.143
 5268TIP3    H215762   5.227   1.863   6.099
 5269TIP3   OH215763   4.415   5.508   4.464
 5269TIP3    H115764   4.327   5.529   4.496
 5269TIP3    H215765   4.419   5.548   4.377
 5270TIP3   OH215766   6.858   5.259   6.817
 5270TIP3    H115767   6.871   5.317   6.742
 5270TIP3    H215768   6.779   5.210   6.797
 5271TIP3   OH215769   8.263   3.058   2.926
 5271TIP3    H115770   8.317   2.982   2.904
 5271TIP3    H215771   8.215   3.033   3.005
 5272TIP3   OH215772   6.260   2.351   1.151
 5272TIP3    H115773   6.183   2.323   1.101
 5272TIP3    H215774   6.294   2.426   1.101
 5273TIP3   OH215775   1.663   6.960   4.782
 5273TIP3    H115776   1.731   7.022   4.757
 5273TIP3    H215777   1.708   6.876   4.786
 5274TIP3   OH215778   2.731   0.291   5.729
 5274TIP3    H115779   2.681   0.366   5.761
 5274TIP3    H215780   2.821   0.323   5.722
 5275TIP3   OH215781   7.486   5.812   3.844
 5275TIP3    H115782   7.559   5.808   3.783
 5275TIP3    H215783   7.445   5.725   3.838
 5276TIP3   OH215784   7.775   0.867   4.720
 5276TIP3    H115785   7.796   0.874   4.627
 5276TIP3    H215786   7.733   0.781   4.729
 5277TIP3   OH215787   2.202   6.625   1.656
 5277TIP3    H115788   2.242   6.539   1.640
 5277TIP3    H215789   2.275   6.681   1.684
 5278TIP3   OH215790   1.464   3.050   4.201
 5278TIP3    H115791   1.447   3.060   4.295
 5278TIP3    H215792   1.394   2.993   4.170
 5279TIP3   OH215793   3.928   1.646   3.098
 5279TIP3    H115794   3.853   1.703   3.081
 5279TIP3    H215795   3.928   1.583   3.027
 5280TIP3   OH215796   4.722   3.878   6.240
 5280TIP3    H115797   4.794   3.821   6.212
 5280TIP3    H215798   4.672   3.893   6.161
 5281TIP3   OH215799   1.085   6.412   0.621
 5281TIP3    H115800   1.041   6.334   0.654
 5281TIP3    H215801   1.135   6.445   0.696
 5282TIP3   OH215802   1.856   5.770   6.573
 5282TIP3    H115803   1.844   5.693   6.627
 5282TIP3    H215804   1.921   5.744   6.507
 5283TIP3   OH215805   6.233   4.296   3.914
 5283TIP3    H115806   6.157   4.354   3.905
 5283TIP3    H215807   6.237   4.277   4.008
 5284TIP3   OH215808   8.067   0.616   1.967
 5284TIP3    H115809   8.133   0.552   1.994
 5284TIP3    H215810   8.065   0.680   2.039
 5285TIP3   OH215811   6.202   1.009   2.473
 5285TIP3    H115812   6.234   1.093   2.507
 5285TIP3    H215813   6.224   1.011   2.380
 5286TIP3   OH215814   5.801   4.028   2.059
 5286TIP3    H115815   5.787   4.118   2.088
 5286TIP3    H215816   5.854   4.037   1.980
 5287TIP3   OH215817   2.319   3.739   2.296
 5287TIP3    H115818   2.377   3.665   2.278
 5287TIP3    H215819   2.239   3.699   2.329
 5288TIP3   OH215820   3.111   6.657   5.792
 5288TIP3    H115821   3.138   6.586   5.734
 5288TIP3    H215822   3.034   6.622   5.838
 5289TIP3   OH215823   1.931   5.903   2.458
 5289TIP3    H115824   1.995   5.846   2.416
 5289TIP3    H215825   1.846   5.869   2.429
 5290TIP3   OH215826   6.388   3.840   4.044
 5290TIP3    H115827   6.442   3.857   4.122
 5290TIP3    H215828   6.299   3.838   4.077
 5291TIP3   OH215829   5.203   5.651   4.689
 5291TIP3    H115830   5.144   5.590   4.645
 5291TIP3    H215831   5.291   5.620   4.669
 5292TIP3   OH215832   1.013   3.439   1.984
 5292TIP3    H115833   0.941   3.406   1.931
 5292TIP3    H215834   1.082   3.460   1.920
 5293TIP3   OH215835   5.426   6.887   6.101
 5293TIP3    H115836   5.446   6.880   6.194
 5293TIP3    H215837   5.484   6.823   6.059
 5294TIP3   OH215838   6.978   7.371   2.968
 5294TIP3    H115839   7.001   7.415   2.886
 5294TIP3    H215840   6.902   7.420   3.001
 5295TIP3   OH215841   7.007   7.594   4.329
 5295TIP3    H115842   7.042   7.672   4.372
 5295TIP3    H215843   6.933   7.625   4.278
 5296TIP3   OH215844   6.336   6.436   1.841
 5296TIP3    H115845   6.349   6.470   1.930
 5296TIP3    H215846   6.248   6.466   1.817
 5297TIP3   OH215847   2.039   7.541   3.034
 5297TIP3    H115848   1.965   7.483   3.020
 5297TIP3    H215849   2.047   7.591   2.952
 5298TIP3   OH215850   4.981   0.525   0.671
 5298TIP3    H115851   5.050   0.516   0.605
 5298TIP3    H215852   5.010   0.597   0.726
 5299TIP3   OH215853   7.774   5.762   2.708
 5299TIP3    H115854   7.818   5.827   2.653
 5299TIP3    H215855   7.693   5.805   2.735
 5300TIP3   OH215856   3.993   2.790   5.115
 5300TIP3    H115857   3.945   2.809   5.196
 5300TIP3    H215858   4.023   2.700   5.125
 5301TIP3   OH215859   1.244   3.753   0.764
 5301TIP3    H115860   1.242   3.685   0.697
 5301TIP3    H215861   1.186   3.720   0.833
 5302TIP3   OH215862   2.052   2.025   5.889
 5302TIP3    H115863   2.086   1.997   5.974
 5302TIP3    H215864   1.986   1.959   5.867
 5303TIP3   OH215865   6.258   4.373   4.191
 5303TIP3    H115866   6.352   4.388   4.179
 5303TIP3    H215867   6.243   4.388   4.284
 5304TIP3   OH215868   0.775   1.401   1.067
 5304TIP3    H115869   0.860   1.446   1.065
 5304TIP3    H215870   0.790   1.319   1.020
 5305TIP3   OH215871   8.049   3.658   6.120
 5305TIP3    H115872   8.047   3.753   6.118
 5305TIP3    H215873   7.989   3.631   6.051
 5306TIP3   OH215874   2.638   6.199   0.256
 5306TIP3    H115875   2.721   6.221   0.213
 5306TIP3    H215876   2.626   6.267   0.322
 5307TIP3   OH215877   1.415   6.281   5.132
 5307TIP3    H115878   1.478   6.268   5.203
 5307TIP3    H215879   1.417   6.375   5.114
 5308TIP3   OH215880   3.932   3.177   2.429
 5308TIP3    H115881   3.855   3.201   2.377
 5308TIP3    H215882   3.897   3.143   2.511
 5309TIP3   OH215883   2.504   4.298   2.058
 5309TIP3    H115884   2.534   4.217   2.100
 5309TIP3    H215885   2.500   4.361   2.130
 5310TIP3   OH215886   4.705   1.333   0.192
 5310TIP3    H115887   4.768   1.379   0.248
 5310TIP3    H215888   4.656   1.402   0.148
 5311TIP3   OH215889   7.427   5.697   1.620
 5311TIP3    H115890   7.336   5.709   1.646
 5311TIP3    H215891   7.422   5.655   1.534
 5312TIP3   OH215892   3.486   6.833   6.474
 5312TIP3    H115893   3.434   6.772   6.526
 5312TIP3    H215894   3.495   6.791   6.389
 5313TIP3   OH215895   8.129   0.892   5.761
 5313TIP3    H115896   8.109   0.812   5.810
 5313TIP3    H215897   8.044   0.933   5.747
 5314TIP3   OH215898   0.347   1.361   4.595
 5314TIP3    H115899   0.438   1.339   4.614
 5314TIP3    H215900   0.352   1.440   4.542
 5315TIP3   OH215901   0.684   2.107   2.795
 5315TIP3    H115902   0.777   2.129   2.789
 5315TIP3    H215903   0.650   2.163   2.864
 5316TIP3   OH215904   6.705   0.433   1.794
 5316TIP3    H115905   6.691   0.504   1.732
 5316TIP3    H215906   6.800   0.427   1.804
 5317TIP3   OH215907   6.825   7.516   4.611
 5317TIP3    H115908   6.780   7.444   4.566
 5317TIP3    H215909   6.846   7.578   4.540
 5318TIP3   OH215910   7.611   0.058   5.258
 5318TIP3    H115911   7.650  -0.026   5.282
 5318TIP3    H215912   7.526   0.036   5.220
 5319TIP3   OH215913   0.483   4.391   3.704
 5319TIP3    H115914   0.499   4.302   3.736
 5319TIP3    H215915   0.422   4.381   3.632
 5320TIP3   OH215916   2.363   2.679   0.313
 5320TIP3    H115917   2.355   2.677   0.408
 5320TIP3    H215918   2.414   2.601   0.291
 5321TIP3   OH215919   6.308   6.678   4.743
 5321TIP3    H115920   6.380   6.673   4.806
 5321TIP3    H215921   6.343   6.729   4.670
 5322TIP3   OH215922   7.506   2.266   1.137
 5322TIP3    H115923   7.471   2.328   1.202
 5322TIP3    H215924   7.539   2.322   1.067
 5323TIP3   OH215925   6.515   5.336   0.710
 5323TIP3    H115926   6.461   5.397   0.660
 5323TIP3    H215927   6.597   5.331   0.661
 5324TIP3   OH215928   4.153   3.058   5.920
 5324TIP3    H115929   4.156   3.138   5.867
 5324TIP3    H215930   4.181   2.988   5.861
 5325TIP3   OH215931   5.859   3.471   0.264
 5325TIP3    H115932   5.777   3.499   0.303
 5325TIP3    H215933   5.848   3.376   0.253
 5326TIP3   OH215934   3.187   3.162   6.531
 5326TIP3    H115935   3.175   3.246   6.488
 5326TIP3    H215936   3.159   3.097   6.466
 5327TIP3   OH215937   1.031   1.579   2.075
 5327TIP3    H115938   1.040   1.566   2.169
 5327TIP3    H215939   1.121   1.590   2.043
 5328TIP3   OH215940   0.151   4.107   0.867
 5328TIP3    H115941   0.166   4.163   0.943
 5328TIP3    H215942   0.056   4.103   0.858
 5329TIP3   OH215943   1.086   1.080   0.774
 5329TIP3    H115944   1.001   1.123   0.766
 5329TIP3    H215945   1.122   1.111   0.857
 5330TIP3   OH215946   4.374   5.142   5.157
 5330TIP3    H115947   4.469   5.142   5.142
 5330TIP3    H215948   4.337   5.113   5.074
 5331TIP3   OH215949   4.167   1.466   0.735
 5331TIP3    H115950   4.205   1.493   0.818
 5331TIP3    H215951   4.239   1.474   0.672
 5332TIP3   OH215952   3.029   4.942   3.589
 5332TIP3    H115953   3.099   4.876   3.588
 5332TIP3    H215954   2.987   4.931   3.675
 5333TIP3   OH215955   1.251   0.961   6.084
 5333TIP3    H115956   1.300   0.981   6.164
 5333TIP3    H215957   1.160   0.976   6.108
 5334TIP3   OH215958   0.499   4.408   2.499
 5334TIP3    H115959   0.587   4.421   2.463
 5334TIP3    H215960   0.509   4.337   2.561
 5335TIP3   OH215961   0.303   1.363   4.895
 5335TIP3    H115962   0.213   1.353   4.927
 5335TIP3    H215963   0.295   1.367   4.800
 5336TIP3   OH215964   6.740   3.537   2.171
 5336TIP3    H115965   6.776   3.619   2.137
 5336TIP3    H215966   6.697   3.562   2.253
 5337TIP3   OH215967   0.974   6.187   3.552
 5337TIP3    H115968   0.993   6.238   3.474
 5337TIP3    H215969   1.047   6.126   3.560
 5338TIP3   OH215970   6.444   5.673   6.208
 5338TIP3    H115971   6.399   5.617   6.271
 5338TIP3    H215972   6.531   5.685   6.244
 5339TIP3   OH215973   4.623   1.109   1.698
 5339TIP3    H115974   4.625   1.201   1.726
 5339TIP3    H215975   4.540   1.100   1.651
 5340TIP3   OH215976   0.616   0.160   6.625
 5340TIP3    H115977   0.677   0.092   6.599
 5340TIP3    H215978   0.665   0.242   6.616
 5341TIP3   OH215979   4.971   0.360   2.093
 5341TIP3    H115980   4.878   0.380   2.098
 5341TIP3    H215981   5.002   0.365   2.184
 5342TIP3   OH215982   4.407   7.309   1.154
 5342TIP3    H115983   4.445   7.396   1.144
 5342TIP3    H215984   4.342   7.303   1.084
 5343TIP3   OH215985   4.155   1.199   5.441
 5343TIP3    H115986   4.172   1.194   5.347
 5343TIP3    H215987   4.060   1.208   5.448
 5344TIP3   OH215988   2.775   5.347   1.833
 5344TIP3    H115989   2.743   5.288   1.902
 5344TIP3    H215990   2.731   5.430   1.851
 5345TIP3   OH215991   3.787   2.143   6.242
 5345TIP3    H115992   3.851   2.207   6.209
 5345TIP3    H215993   3.702   2.185   6.227
 5346TIP3   OH215994   3.940   1.055   4.485
 5346TIP3    H115995   3.887   1.014   4.554
 5346TIP3    H215996   4.023   1.007   4.487
 5347TIP3   OH215997   2.483   0.028   3.533
 5347TIP3    H115998   2.480   0.075   3.616
 5347TIP3    H215999   2.412  -0.036   3.540
 5348TIP3   OH216000   1.802   6.307   5.045
 5348TIP3    H116001   1.717   6.267   5.031
 5348TIP3    H216002   1.843   6.255   5.114
 5349TIP3   OH216003   6.833   5.982   5.750
 5349TIP3    H116004   6.767   6.052   5.754
 5349TIP3    H216005   6.905   6.014   5.805
 5350TIP3   OH216006   7.735   0.095   4.814
 5350TIP3    H116007   7.738   0.130   4.903
 5350TIP3    H216008   7.644   0.067   4.801
 5351TIP3   OH216009   2.930   5.431   3.075
 5351TIP3    H116010   2.958   5.368   3.009
 5351TIP3    H216011   2.980   5.408   3.153
 5352TIP3   OH216012   6.152   7.765   4.423
 5352TIP3    H116013   6.222   7.830   4.423
 5352TIP3    H216014   6.072   7.817   4.415
 5353TIP3   OH216015   5.645   6.589   3.847
 5353TIP3    H116016   5.707   6.651   3.886
 5353TIP3    H216017   5.700   6.526   3.801
 5354TIP3   OH216018   4.715   7.488   5.019
 5354TIP3    H116019   4.769   7.567   5.019
 5354TIP3    H216020   4.778   7.416   5.030
 5355TIP3   OH216021   4.527   2.583   2.526
 5355TIP3    H116022   4.612   2.623   2.510
 5355TIP3    H216023   4.509   2.601   2.619
 5356TIP3   OH216024   7.652   6.673   0.561
 5356TIP3    H116025   7.601   6.700   0.485
 5356TIP3    H216026   7.725   6.623   0.524
 5357TIP3   OH216027   3.680   3.247   0.985
 5357TIP3    H116028   3.732   3.327   0.976
 5357TIP3    H216029   3.657   3.244   1.078
 5358TIP3   OH216030   6.561   5.485   5.665
 5358TIP3    H116031   6.632   5.539   5.631
 5358TIP3    H216032   6.532   5.530   5.745
 5359TIP3   OH216033   4.321   2.155   0.862
 5359TIP3    H116034   4.232   2.160   0.897
 5359TIP3    H216035   4.376   2.192   0.931
 5360TIP3   OH216036   3.188   0.481   4.207
 5360TIP3    H116037   3.136   0.500   4.284
 5360TIP3    H216038   3.238   0.403   4.230
 5361TIP3   OH216039   1.143   0.661   5.746
 5361TIP3    H116040   1.095   0.604   5.806
 5361TIP3    H216041   1.188   0.600   5.687
 5362TIP3   OH216042   5.076   1.588   1.192
 5362TIP3    H116043   5.065   1.527   1.265
 5362TIP3    H216044   5.130   1.540   1.129
 5363TIP3   OH216045   3.941   1.664   4.219
 5363TIP3    H116046   4.025   1.623   4.241
 5363TIP3    H216047   3.955   1.701   4.131
 5364TIP3   OH216048   0.551   6.376   6.381
 5364TIP3    H116049   0.560   6.308   6.448
 5364TIP3    H216050   0.504   6.334   6.309
 5365TIP3   OH216051   5.722   3.998   4.734
 5365TIP3    H116052   5.734   4.022   4.826
 5365TIP3    H216053   5.674   4.072   4.696
 5366TIP3   OH216054   1.921   3.479   5.049
 5366TIP3    H116055   1.950   3.524   5.129
 5366TIP3    H216056   1.920   3.547   4.982
 5367TIP3   OH216057   5.383   4.479   5.352
 5367TIP3    H116058   5.301   4.528   5.366
 5367TIP3    H216059   5.452   4.542   5.375
 5368TIP3   OH216060   3.621   0.118   5.183
 5368TIP3    H116061   3.591   0.051   5.244
 5368TIP3    H216062   3.579   0.199   5.213
 5369TIP3   OH216063   3.050   0.552   5.889
 5369TIP3    H116064   2.974   0.610   5.902
 5369TIP3    H216065   3.064   0.512   5.975
 5370TIP3   OH216066   5.808   6.769   3.675
 5370TIP3    H116067   5.867   6.845   3.676
 5370TIP3    H216068   5.746   6.785   3.745
 5371TIP3   OH216069   0.825   5.427   3.337
 5371TIP3    H116070   0.914   5.397   3.358
 5371TIP3    H216071   0.809   5.499   3.397
 5372TIP3   OH216072   1.042   3.534   0.480
 5372TIP3    H116073   1.052   3.456   0.426
 5372TIP3    H216074   1.122   3.536   0.533
 5373TIP3   OH216075   0.692   4.117   4.304
 5373TIP3    H116076   0.732   4.120   4.391
 5373TIP3    H216077   0.639   4.196   4.299
 5374TIP3   OH216078   4.709   2.953   4.035
 5374TIP3    H116079   4.651   2.930   3.963
 5374TIP3    H216080   4.785   2.993   3.994
 5375TIP3   OH216081   3.456   1.428   3.609
 5375TIP3    H116082   3.487   1.516   3.632
 5375TIP3    H216083   3.376   1.444   3.559
 5376TIP3   OH216084   7.698   1.107   3.404
 5376TIP3    H116085   7.718   1.015   3.388
 5376TIP3    H216086   7.680   1.112   3.498
 5377TIP3   OH216087   4.335   2.928   1.399
 5377TIP3    H116088   4.297   2.887   1.477
 5377TIP3    H216089   4.424   2.894   1.395
 5378TIP3   OH216090   7.793   4.807   6.418
 5378TIP3    H116091   7.809   4.766   6.503
 5378TIP3    H216092   7.770   4.898   6.439
 5379TIP3   OH216093   5.407   0.933   6.175
 5379TIP3    H116094   5.395   0.989   6.098
 5379TIP3    H216095   5.355   0.855   6.156
 5380TIP3   OH216096   0.231   5.766   2.573
 5380TIP3    H116097   0.237   5.735   2.663
 5380TIP3    H216098   0.231   5.686   2.520
 5381TIP3   OH216099   7.635   4.334   6.179
 5381TIP3    H116100   7.584   4.343   6.098
 5381TIP3    H216101   7.714   4.385   6.164
 5382TIP3   OH216102   1.928   6.453   2.166
 5382TIP3    H116103   1.966   6.421   2.248
 5382TIP3    H216104   1.895   6.540   2.187
 5383TIP3   OH216105   7.664   0.231   0.226
 5383TIP3    H116106   7.625   0.279   0.153
 5383TIP3    H216107   7.695   0.300   0.286
 5384TIP3   OH216108   6.119   7.751   5.448
 5384TIP3    H116109   6.105   7.669   5.495
 5384TIP3    H216110   6.214   7.758   5.439
 5385TIP3   OH216111   3.413   5.734   0.022
 5385TIP3    H116112   3.353   5.716  -0.050
 5385TIP3    H216113   3.402   5.660   0.082
 5386TIP3   OH216114   1.780   0.077   0.269
 5386TIP3    H116115   1.865   0.115   0.290
 5386TIP3    H216116   1.800  -0.009   0.231
 5387TIP3   OH216117   7.997   2.994   1.509
 5387TIP3    H116118   7.913   3.007   1.553
 5387TIP3    H216119   8.048   2.940   1.570
 5388TIP3   OH216120   0.236   5.900   1.881
 5388TIP3    H116121   0.176   5.920   1.953
 5388TIP3    H216122   0.251   5.984   1.838
 5389TIP3   OH216123   2.944   3.446   5.284
 5389TIP3    H116124   2.954   3.537   5.315
 5389TIP3    H216125   2.868   3.450   5.226
 5390TIP3   OH216126   5.451   5.531   4.670
 5390TIP3    H116127   5.435   5.548   4.763
 5390TIP3    H216128   5.452   5.436   4.662
 5391TIP3   OH216129   7.966   7.848   3.130
 5391TIP3    H116130   7.898   7.783   3.113
 5391TIP3    H216131   8.008   7.862   3.045
 5392TIP3   OH216132   5.789   4.449   6.344
 5392TIP3    H116133   5.702   4.451   6.383
 5392TIP3    H216134   5.814   4.541   6.336
 5393TIP3   OH216135   5.818   7.478   1.425
 5393TIP3    H116136   5.751   7.478   1.357
 5393TIP3    H216137   5.900   7.463   1.378
 5394TIP3   OH216138   4.266   2.481   6.016
 5394TIP3    H116139   4.212   2.470   6.094
 5394TIP3    H216140   4.295   2.393   5.993
 5395TIP3   OH216141   2.710   3.632   4.985
 5395TIP3    H116142   2.667   3.643   5.069
 5395TIP3    H216143   2.705   3.719   4.944
 5396TIP3   OH216144   4.855   0.779   0.813
 5396TIP3    H116145   4.905   0.834   0.873
 5396TIP3    H216146   4.832   0.702   0.864
 5397TIP3   OH216147  -0.006   0.421   6.646
 5397TIP3    H116148  -0.069   0.493   6.656
 5397TIP3    H216149   0.080   0.463   6.658
 5398TIP3   OH216150   4.488   6.726   0.002
 5398TIP3    H116151   4.424   6.677  -0.050
 5398TIP3    H216152   4.474   6.696   0.092
 5399TIP3   OH216153   3.233   4.878   6.507
 5399TIP3    H116154   3.298   4.917   6.449
 5399TIP3    H216155   3.224   4.941   6.579
 5400TIP3   OH216156   7.759   2.467   1.653
 5400TIP3    H116157   7.741   2.385   1.606
 5400TIP3    H216158   7.713   2.534   1.602
 5401TIP3   OH216159   2.315   3.638   4.930
 5401TIP3    H116160   2.372   3.570   4.893
 5401TIP3    H216161   2.328   3.631   5.024
 5402TIP3   OH216162   2.620   0.539   0.223
 5402TIP3    H116163   2.589   0.477   0.289
 5402TIP3    H216164   2.715   0.541   0.234
 5403TIP3   OH216165   0.614   6.618   5.888
 5403TIP3    H116166   0.555   6.692   5.894
 5403TIP3    H216167   0.566   6.546   5.929
 5404TIP3   OH216168   3.099   1.686   6.695
 5404TIP3    H116169   3.027   1.748   6.686
 5404TIP3    H216170   3.097   1.659   6.787
 5405TIP3   OH216171   4.166   4.136   0.985
 5405TIP3    H116172   4.185   4.209   0.927
 5405TIP3    H216173   4.071   4.136   0.994
 5406TIP3   OH216174   3.087   3.587   4.713
 5406TIP3    H116175   3.116   3.672   4.680
 5406TIP3    H216176   3.123   3.524   4.651
 5407TIP3   OH216177   2.667   2.986   5.431
 5407TIP3    H116178   2.656   3.026   5.518
 5407TIP3    H216179   2.659   3.059   5.370
 5408TIP3   OH216180   0.330   1.284   0.320
 5408TIP3    H116181   0.421   1.314   0.309
 5408TIP3    H216182   0.338   1.196   0.356
 5409TIP3   OH216183   7.418   1.498   3.534
 5409TIP3    H116184   7.429   1.580   3.487
 5409TIP3    H216185   7.448   1.431   3.472
 5410TIP3   OH216186   2.260   6.022   5.364
 5410TIP3    H116187   2.281   5.934   5.393
 5410TIP3    H216188   2.208   6.011   5.285
 5411TIP3   OH216189   1.874   3.267   0.017
 5411TIP3    H116190   1.814   3.276   0.091
 5411TIP3    H216191   1.915   3.181   0.029
 5412TIP3   OH216192   5.050   0.328   2.596
 5412TIP3    H116193   5.105   0.267   2.645
 5412TIP3    H216194   4.966   0.326   2.641
 5413TIP3   OH216195   0.675   6.020   5.016
 5413TIP3    H116196   0.632   6.105   5.016
 5413TIP3    H216197   0.702   6.006   5.106
 5414TIP3   OH216198   2.515   2.801   0.114
 5414TIP3    H116199   2.450   2.789   0.184
 5414TIP3    H216200   2.538   2.894   0.119
 5415TIP3   OH216201   6.077   1.029   0.143
 5415TIP3    H116202   6.002   1.088   0.151
 5415TIP3    H216203   6.038   0.941   0.146
 5416TIP3   OH216204   2.809   3.196   2.951
 5416TIP3    H116205   2.887   3.159   2.910
 5416TIP3    H216206   2.770   3.123   2.999
 5417TIP3   OH216207   1.553   7.631   2.055
 5417TIP3    H116208   1.513   7.628   1.968
 5417TIP3    H216209   1.614   7.705   2.050
 5418TIP3   OH216210   2.179   7.291   3.810
 5418TIP3    H116211   2.147   7.379   3.827
 5418TIP3    H216212   2.236   7.271   3.884
 5419TIP3   OH216213   6.886   3.681   6.291
 5419TIP3    H116214   6.972   3.719   6.304
 5419TIP3    H216215   6.900   3.610   6.229
 5420TIP3   OH216216   1.880   2.473   0.347
 5420TIP3    H116217   1.964   2.431   0.325
 5420TIP3    H216218   1.861   2.441   0.435
 5421TIP3   OH216219   7.223   5.904   3.718
 5421TIP3    H116220   7.208   5.975   3.780
 5421TIP3    H216221   7.301   5.860   3.750
 5422TIP3   OH216222   4.631   5.576   2.427
 5422TIP3    H116223   4.693   5.627   2.479
 5422TIP3    H216224   4.551   5.628   2.427
 5423TIP3   OH216225   8.103   4.388   3.605
 5423TIP3    H116226   8.114   4.427   3.692
 5423TIP3    H216227   8.167   4.316   3.603
 5424TIP3   OH216228   1.531   1.946   0.687
 5424TIP3    H116229   1.496   1.895   0.614
 5424TIP3    H216230   1.560   1.881   0.750
 5425TIP3   OH216231   7.069   0.034   2.113
 5425TIP3    H116232   7.063   0.126   2.089
 5425TIP3    H216233   7.049   0.033   2.207
 5426TIP3   OH216234   7.171   0.973   4.360
 5426TIP3    H116235   7.138   0.966   4.449
 5426TIP3    H216236   7.093   0.991   4.307
 5427TIP3   OH216237   6.088   1.770   0.213
 5427TIP3    H116238   5.995   1.785   0.227
 5427TIP3    H216239   6.109   1.695   0.268
 5428TIP3   OH216240   1.912   4.683   5.881
 5428TIP3    H116241   1.974   4.612   5.866
 5428TIP3    H216242   1.947   4.757   5.830
 5429TIP3   OH216243   4.676   0.508   2.599
 5429TIP3    H116244   4.624   0.443   2.647
 5429TIP3    H216245   4.722   0.458   2.533
 5430TIP3   OH216246   7.109   0.537   3.121
 5430TIP3    H116247   7.051   0.515   3.194
 5430TIP3    H216248   7.122   0.454   3.075
 5431TIP3   OH216249   1.074   7.744   5.219
 5431TIP3    H116250   1.117   7.772   5.299
 5431TIP3    H216251   1.020   7.818   5.193
 5432TIP3   OH216252   5.874   2.613   3.910
 5432TIP3    H116253   5.804   2.675   3.931
 5432TIP3    H216254   5.931   2.615   3.987
 5433TIP3   OH216255   4.882   6.318   3.542
 5433TIP3    H116256   4.875   6.347   3.633
 5433TIP3    H216257   4.961   6.265   3.540
 5434TIP3   OH216258   6.527   7.260   0.895
 5434TIP3    H116259   6.567   7.195   0.838
 5434TIP3    H216260   6.566   7.244   0.981
 5435TIP3   OH216261   4.646   4.770   5.200
 5435TIP3    H116262   4.674   4.807   5.284
 5435TIP3    H216263   4.637   4.677   5.217
 5436TIP3   OH216264   5.292   6.258   0.986
 5436TIP3    H116265   5.264   6.346   1.011
 5436TIP3    H216266   5.387   6.258   0.997
 5437TIP3   OH216267   0.377   5.323   2.943
 5437TIP3    H116268   0.366   5.272   2.863
 5437TIP3    H216269   0.309   5.291   3.002
 5438TIP3   OH216270   6.919   6.190   4.247
 5438TIP3    H116271   6.865   6.134   4.193
 5438TIP3    H216272   6.907   6.157   4.336
 5439TIP3   OH216273   6.082   3.659   6.650
 5439TIP3    H116274   6.114   3.613   6.572
 5439TIP3    H216275   6.154   3.716   6.676
 5440TIP3   OH216276   3.922   3.747   3.288
 5440TIP3    H116277   3.842   3.696   3.300
 5440TIP3    H216278   3.902   3.804   3.214
 5441TIP3   OH216279   7.283   4.276   6.336
 5441TIP3    H116280   7.294   4.297   6.244
 5441TIP3    H216281   7.366   4.301   6.377
 5442TIP3   OH216282   5.474   0.637   1.837
 5442TIP3    H116283   5.457   0.601   1.750
 5442TIP3    H216284   5.569   0.633   1.847
 5443TIP3   OH216285   0.333   5.710   4.154
 5443TIP3    H116286   0.360   5.674   4.238
 5443TIP3    H216287   0.259   5.767   4.175
 5444TIP3   OH216288   2.302   6.454   3.664
 5444TIP3    H116289   2.296   6.525   3.728
 5444TIP3    H216290   2.215   6.414   3.664
 5445TIP3   OH216291   0.242   4.365   3.475
 5445TIP3    H116292   0.195   4.410   3.545
 5445TIP3    H216293   0.212   4.274   3.481
 5446TIP3   OH216294   8.230   2.831   6.580
 5446TIP3    H116295   8.298   2.871   6.635
 5446TIP3    H216296   8.222   2.742   6.614
 5447TIP3   OH216297   6.838   2.278   6.252
 5447TIP3    H116298   6.760   2.229   6.224
 5447TIP3    H216299   6.911   2.230   6.212
 5448TIP3   OH216300   0.523   5.240   5.544
 5448TIP3    H116301   0.571   5.298   5.603
 5448TIP3    H216302   0.445   5.289   5.520
 5449TIP3   OH216303   0.101   0.293   0.505
 5449TIP3    H116304   0.061   0.378   0.519
 5449TIP3    H216305   0.153   0.304   0.425
 5450TIP3   OH216306   7.182   4.393   4.957
 5450TIP3    H116307   7.097   4.435   4.968
 5450TIP3    H216308   7.165   4.300   4.969
 5451TIP3   OH216309   6.598   2.662   5.273
 5451TIP3    H116310   6.657   2.640   5.201
 5451TIP3    H216311   6.511   2.650   5.237
 5452TIP3   OH216312   2.505   1.908   4.756
 5452TIP3    H116313   2.465   1.880   4.839
 5452TIP3    H216314   2.547   1.991   4.777
 5453TIP3   OH216315   0.047   2.686   1.833
 5453TIP3    H116316  -0.015   2.620   1.802
 5453TIP3    H216317   0.131   2.641   1.836
 5454TIP3   OH216318   3.551   7.011   5.763
 5454TIP3    H116319   3.514   6.974   5.683
 5454TIP3    H216320   3.646   7.003   5.751
 5455TIP3   OH216321   3.535   6.516   1.783
 5455TIP3    H116322   3.505   6.589   1.838
 5455TIP3    H216323   3.562   6.449   1.846
 5456TIP3   OH216324   7.348   2.604   2.757
 5456TIP3    H116325   7.439   2.618   2.731
 5456TIP3    H216326   7.306   2.690   2.747
 5457TIP3   OH216327   4.362   6.114   5.375
 5457TIP3    H116328   4.322   6.186   5.326
 5457TIP3    H216329   4.452   6.113   5.345
 5458TIP3   OH216330   3.903   7.272   3.993
 5458TIP3    H116331   3.945   7.325   4.061
 5458TIP3    H216332   3.926   7.182   4.015
 5459TIP3   OH216333   3.476   1.999   1.917
 5459TIP3    H116334   3.479   1.927   1.855
 5459TIP3    H216335   3.456   1.958   2.001
 5460TIP3   OH216336   0.811   2.486   0.359
 5460TIP3    H116337   0.823   2.484   0.265
 5460TIP3    H216338   0.867   2.557   0.390
 5461TIP3   OH216339   0.774   4.535   2.467
 5461TIP3    H116340   0.845   4.595   2.485
 5461TIP3    H216341   0.761   4.488   2.550
 5462TIP3   OH216342   2.042   5.018   1.961
 5462TIP3    H116343   1.988   4.967   1.901
 5462TIP3    H216344   2.000   5.007   2.046
 5463TIP3   OH216345   7.003   4.481   2.573
 5463TIP3    H116346   7.095   4.460   2.555
 5463TIP3    H216347   6.982   4.428   2.650
 5464TIP3   OH216348   7.732   0.307   3.014
 5464TIP3    H116349   7.757   0.398   3.000
 5464TIP3    H216350   7.724   0.271   2.925
 5465TIP3   OH216351   0.635   1.393   4.598
 5465TIP3    H116352   0.669   1.468   4.647
 5465TIP3    H216353   0.651   1.317   4.655
 5466TIP3   OH216354   8.224   2.400   3.140
 5466TIP3    H116355   8.163   2.341   3.095
 5466TIP3    H216356   8.178   2.423   3.221
 5467TIP3   OH216357   8.222   0.103   0.964
 5467TIP3    H116358   8.255   0.172   1.021
 5467TIP3    H216359   8.292   0.088   0.900
 5468TIP3   OH216360   7.792   0.548   4.870
 5468TIP3    H116361   7.838   0.486   4.927
 5468TIP3    H216362   7.718   0.579   4.922
 5469TIP3   OH216363   0.552   4.760   0.027
 5469TIP3    H116364   0.566   4.702  -0.049
 5469TIP3    H216365   0.544   4.700   0.101
 5470TIP3   OH216366   6.328   6.325   1.309
 5470TIP3    H116367   6.278   6.271   1.248
 5470TIP3    H216368   6.291   6.305   1.395
 5471TIP3   OH216369   2.696   2.899   1.042
 5471TIP3    H116370   2.773   2.851   1.012
 5471TIP3    H216371   2.727   2.989   1.052
 5472TIP3   OH216372   5.214   4.857   1.904
 5472TIP3    H116373   5.193   4.935   1.853
 5472TIP3    H216374   5.133   4.807   1.907
 5473TIP3   OH216375   7.928   5.252   1.779
 5473TIP3    H116376   7.996   5.291   1.833
 5473TIP3    H216377   7.888   5.325   1.732
 5474TIP3   OH216378   2.883   7.131   4.268
 5474TIP3    H116379   2.948   7.077   4.223
 5474TIP3    H216380   2.811   7.071   4.286
 5475TIP3   OH216381   4.743   5.949   4.388
 5475TIP3    H116382   4.678   5.920   4.452
 5475TIP3    H216383   4.815   5.887   4.397
 5476TIP3   OH216384   4.243   0.303   3.504
 5476TIP3    H116385   4.172   0.305   3.568
 5476TIP3    H216386   4.321   0.285   3.556
 5477TIP3   OH216387   5.706   0.409   1.846
 5477TIP3    H116388   5.642   0.380   1.782
 5477TIP3    H216389   5.719   0.502   1.827
 5478TIP3   OH216390   8.129   5.734   4.080
 5478TIP3    H116391   8.165   5.791   4.149
 5478TIP3    H216392   8.034   5.742   4.090
 5479TIP3   OH216393   5.483   3.176   1.420
 5479TIP3    H116394   5.445   3.158   1.506
 5479TIP3    H216395   5.411   3.161   1.359
 5480TIP3   OH216396   3.943   4.790  -0.045
 5480TIP3    H116397   3.882   4.728  -0.005
 5480TIP3    H216398   3.980   4.839   0.028
 5481TIP3   OH216399   2.889   4.289   5.842
 5481TIP3    H116400   2.983   4.307   5.841
 5481TIP3    H216401   2.876   4.236   5.920
 5482TIP3   OH216402   3.198   4.436   6.082
 5482TIP3    H116403   3.117   4.456   6.129
 5482TIP3    H216404   3.243   4.520   6.076
 5483TIP3   OH216405   2.745   7.319   2.590
 5483TIP3    H116406   2.734   7.369   2.509
 5483TIP3    H216407   2.802   7.246   2.567
 5484TIP3   OH216408   1.924   1.874   5.153
 5484TIP3    H116409   1.947   1.960   5.116
 5484TIP3    H216410   1.865   1.895   5.226
 5485TIP3   OH216411   4.167   0.486   4.187
 5485TIP3    H116412   4.226   0.557   4.162
 5485TIP3    H216413   4.117   0.522   4.260
 5486TIP3   OH216414   4.328   5.625   2.027
 5486TIP3    H116415   4.375   5.706   2.046
 5486TIP3    H216416   4.370   5.590   1.949
 5487TIP3   OH216417   5.856   7.635   5.142
 5487TIP3    H116418   5.768   7.600   5.158
 5487TIP3    H216419   5.877   7.685   5.221
 5488TIP3   OH216420   2.057   4.861   5.069
 5488TIP3    H116421   2.145   4.897   5.059
 5488TIP3    H216422   2.045   4.853   5.164
 5489TIP3   OH216423   7.631   7.796   5.868
 5489TIP3    H116424   7.605   7.734   5.800
 5489TIP3    H216425   7.685   7.745   5.928
 5490TIP3   OH216426   3.275   7.421   6.273
 5490TIP3    H116427   3.348   7.365   6.247
 5490TIP3    H216428   3.221   7.364   6.329
 5491TIP3   OH216429   1.412   6.092   0.210
 5491TIP3    H116430   1.426   6.180   0.176
 5491TIP3    H216431   1.434   6.034   0.137
 5492TIP3   OH216432   1.890   0.382   4.400
 5492TIP3    H116433   1.851   0.310   4.350
 5492TIP3    H216434   1.863   0.364   4.491
 5493TIP3   OH216435   6.563   2.823   3.571
 5493TIP3    H116436   6.624   2.895   3.585
 5493TIP3    H216437   6.613   2.745   3.597
 5494TIP3   OH216438   6.603   6.995   2.462
 5494TIP3    H116439   6.612   7.026   2.552
 5494TIP3    H216440   6.530   7.045   2.426
 5495TIP3   OH216441   2.424   4.328   2.464
 5495TIP3    H116442   2.400   4.396   2.527
 5495TIP3    H216443   2.478   4.372   2.399
 5496TIP3   OH216444   1.783   7.226   2.051
 5496TIP3    H116445   1.701   7.181   2.075
 5496TIP3    H216446   1.774   7.242   1.957
 5497TIP3   OH216447   1.391   4.468   6.187
 5497TIP3    H116448   1.458   4.486   6.121
 5497TIP3    H216449   1.323   4.420   6.140
 5498TIP3   OH216450   2.729   4.798   2.533
 5498TIP3    H116451   2.818   4.825   2.553
 5498TIP3    H216452   2.678   4.819   2.611
 5499TIP3   OH216453   0.495   7.147   0.074
 5499TIP3    H116454   0.500   7.066   0.125
 5499TIP3    H216455   0.405   7.177   0.086
 5500TIP3   OH216456  -0.008   4.681   3.502
 5500TIP3    H116457  -0.002   4.626   3.424
 5500TIP3    H216458   0.061   4.746   3.490
 5501TIP3   OH216459   4.382   0.409   6.538
 5501TIP3    H116460   4.413   0.345   6.473
 5501TIP3    H216461   4.379   0.360   6.620
 5502TIP3   OH216462   1.295   7.752   1.344
 5502TIP3    H116463   1.337   7.776   1.261
 5502TIP3    H216464   1.359   7.696   1.388
 5503TIP3   OH216465   4.219   0.615   6.427
 5503TIP3    H116466   4.288   0.555   6.455
 5503TIP3    H216467   4.266   0.687   6.386
 5504TIP3   OH216468   3.197   4.868   3.333
 5504TIP3    H116469   3.152   4.815   3.399
 5504TIP3    H216470   3.242   4.936   3.384
 5505TIP3   OH216471   0.264   0.307   3.198
 5505TIP3    H116472   0.337   0.245   3.201
 5505TIP3    H216473   0.263   0.338   3.108
 5506TIP3   OH216474   2.557   7.713   0.895
 5506TIP3    H116475   2.462   7.707   0.895
 5506TIP3    H216476   2.575   7.807   0.890
 5507TIP3   OH216477   1.625   1.121   3.357
 5507TIP3    H116478   1.580   1.110   3.440
 5507TIP3    H216479   1.565   1.084   3.292
 5508TIP3   OH216480   0.029   3.390   5.031
 5508TIP3    H116481  -0.033   3.451   4.991
 5508TIP3    H216482   0.075   3.442   5.097
 5509TIP3   OH216483   7.978   4.228   2.668
 5509TIP3    H116484   8.010   4.254   2.582
 5509TIP3    H216485   7.884   4.216   2.656
 5510TIP3   OH216486   5.677   6.687   0.130
 5510TIP3    H116487   5.594   6.678   0.176
 5510TIP3    H216488   5.708   6.775   0.152
 5511TIP3   OH216489   2.254   7.710   3.067
 5511TIP3    H116490   2.198   7.632   3.070
 5511TIP3    H216491   2.316   7.696   3.139
 5512TIP3   OH216492   3.164   0.094   1.923
 5512TIP3    H116493   3.109   0.163   1.958
 5512TIP3    H216494   3.195   0.128   1.839
 5513TIP3   OH216495   4.314   7.381   3.390
 5513TIP3    H116496   4.343   7.445   3.454
 5513TIP3    H216497   4.368   7.304   3.405
 5514TIP3   OH216498   3.350   6.513   3.428
 5514TIP3    H116499   3.328   6.530   3.519
 5514TIP3    H216500   3.270   6.478   3.389
 5515TIP3   OH216501   4.722   5.562   2.186
 5515TIP3    H116502   4.721   5.651   2.149
 5515TIP3    H216503   4.683   5.573   2.272
 5516TIP3   OH216504   7.820   4.034   6.775
 5516TIP3    H116505   7.862   3.978   6.710
 5516TIP3    H216506   7.868   4.117   6.770
 5517TIP3   OH216507   0.249   2.732   5.245
 5517TIP3    H116508   0.183   2.763   5.184
 5517TIP3    H216509   0.230   2.639   5.256
 5518TIP3   OH216510   3.782   4.584   3.269
 5518TIP3    H116511   3.836   4.617   3.341
 5518TIP3    H216512   3.845   4.547   3.207
 5519TIP3   OH216513   2.174   3.482   0.179
 5519TIP3    H116514   2.189   3.411   0.116
 5519TIP3    H216515   2.085   3.511   0.162
 5520TIP3   OH216516   5.631   3.199   6.157
 5520TIP3    H116517   5.612   3.150   6.237
 5520TIP3    H216518   5.668   3.282   6.188
 5521TIP3   OH216519   4.044   7.352   6.206
 5521TIP3    H116520   4.125   7.396   6.179
 5521TIP3    H216521   3.983   7.367   6.134
 5522TIP3   OH216522   7.302   2.667   0.188
 5522TIP3    H116523   7.271   2.625   0.269
 5522TIP3    H216524   7.387   2.704   0.211
 5523TIP3   OH216525   6.828   2.346   0.309
 5523TIP3    H116526   6.822   2.441   0.296
 5523TIP3    H216527   6.746   2.323   0.354
 5524TIP3   OH216528   4.813   4.831   0.130
 5524TIP3    H116529   4.871   4.869   0.196
 5524TIP3    H216530   4.802   4.740   0.159
 5525TIP3   OH216531   4.273   4.730   4.078
 5525TIP3    H116532   4.368   4.721   4.078
 5525TIP3    H216533   4.249   4.732   3.985
 5526TIP3   OH216534   2.824   1.241   3.910
 5526TIP3    H116535   2.878   1.209   3.838
 5526TIP3    H216536   2.756   1.293   3.867
 5527TIP3   OH216537   7.205   6.189   4.555
 5527TIP3    H116538   7.188   6.264   4.612
 5527TIP3    H216539   7.245   6.124   4.613
 5528TIP3   OH216540   5.931   3.053   0.646
 5528TIP3    H116541   5.962   3.110   0.576
 5528TIP3    H216542   5.992   2.979   0.645
 5529TIP3   OH216543   1.824   1.293   2.006
 5529TIP3    H116544   1.891   1.334   2.060
 5529TIP3    H216545   1.743   1.339   2.030
 5530TIP3   OH216546   2.796   2.734   6.044
 5530TIP3    H116547   2.709   2.718   6.007
 5530TIP3    H216548   2.829   2.810   5.994
 5531TIP3   OH216549   8.071   3.440   2.553
 5531TIP3    H116550   8.057   3.499   2.627
 5531TIP3    H216551   7.984   3.410   2.529
 5532TIP3   OH216552   5.027   3.283   1.454
 5532TIP3    H116553   5.059   3.364   1.493
 5532TIP3    H216554   4.951   3.309   1.402
 5533TIP3   OH216555   0.501   4.725   1.539
 5533TIP3    H116556   0.439   4.657   1.513
 5533TIP3    H216557   0.580   4.705   1.489
 5534TIP3   OH216558   4.072   6.582   5.257
 5534TIP3    H116559   4.087   6.519   5.187
 5534TIP3    H216560   4.031   6.657   5.213
 5535TIP3   OH216561   6.729   0.786   2.009
 5535TIP3    H116562   6.681   0.858   2.050
 5535TIP3    H216563   6.748   0.726   2.081
 5536TIP3   OH216564   7.610   4.922   3.478
 5536TIP3    H116565   7.589   4.830   3.496
 5536TIP3    H216566   7.579   4.970   3.555
 5537TIP3   OH216567   1.285   0.857   5.160
 5537TIP3    H116568   1.224   0.929   5.175
 5537TIP3    H216569   1.370   0.899   5.151
 5538TIP3   OH216570   5.802   1.998   6.592
 5538TIP3    H116571   5.840   2.086   6.598
 5538TIP3    H216572   5.857   1.944   6.648
 5539TIP3   OH216573   5.525   3.066   3.546
 5539TIP3    H116574   5.482   3.151   3.536
 5539TIP3    H216575   5.476   3.023   3.616
 5540TIP3   OH216576   8.137   3.609   4.952
 5540TIP3    H116577   8.107   3.680   5.009
 5540TIP3    H216578   8.068   3.601   4.886
 5541TIP3   OH216579   1.272   4.203   6.242
 5541TIP3    H116580   1.221   4.274   6.203
 5541TIP3    H216581   1.321   4.165   6.169
 5542TIP3   OH216582   0.992   1.461   5.950
 5542TIP3    H116583   0.987   1.367   5.966
 5542TIP3    H216584   1.051   1.493   6.018
 5543TIP3   OH216585   5.191   1.438   5.507
 5543TIP3    H116586   5.109   1.438   5.557
 5543TIP3    H216587   5.234   1.356   5.532
 5544TIP3   OH216588   6.963   0.970   0.545
 5544TIP3    H116589   7.038   1.015   0.582
 5544TIP3    H216590   6.919   1.035   0.490
 5545TIP3   OH216591   1.204   3.214   5.387
 5545TIP3    H116592   1.275   3.150   5.392
 5545TIP3    H216593   1.187   3.238   5.479
 5546TIP3   OH216594   7.970   6.050   1.965
 5546TIP3    H116595   7.909   6.120   1.942
 5546TIP3    H216596   7.955   5.982   1.898
 5547TIP3   OH216597   4.933   5.999   0.876
 5547TIP3    H116598   4.947   6.042   0.791
 5547TIP3    H216599   4.838   5.991   0.883
 5548TIP3   OH216600   7.021   0.275   4.962
 5548TIP3    H116601   6.948   0.300   5.019
 5548TIP3    H216602   7.095   0.325   4.995
 5549TIP3   OH216603   3.352   0.834   4.380
 5549TIP3    H116604   3.347   0.768   4.448
 5549TIP3    H216605   3.429   0.886   4.402
 5550TIP3   OH216606   2.419   1.266   3.252
 5550TIP3    H116607   2.460   1.182   3.233
 5550TIP3    H216608   2.335   1.264   3.205
 5551TIP3   OH216609   7.879   4.785   2.486
 5551TIP3    H116610   7.935   4.725   2.436
 5551TIP3    H216611   7.826   4.728   2.542
 5552TIP3   OH216612   5.047   3.805   0.578
 5552TIP3    H116613   5.114   3.838   0.638
 5552TIP3    H216614   5.018   3.723   0.617
 5553TIP3   OH216615   0.766   6.779   3.845
 5553TIP3    H116616   0.799   6.850   3.790
 5553TIP3    H216617   0.750   6.707   3.785
 5554TIP3   OH216618   2.807   3.672   4.679
 5554TIP3    H116619   2.818   3.581   4.708
 5554TIP3    H216620   2.896   3.707   4.676
 5555TIP3   OH216621   0.081   5.692   3.714
 5555TIP3    H116622   0.017   5.621   3.714
 5555TIP3    H216623   0.139   5.672   3.787
 5556TIP3   OH216624   1.882   0.079   6.309
 5556TIP3    H116625   1.791   0.068   6.283
 5556TIP3    H216626   1.878   0.127   6.392
 5557TIP3   OH216627   4.846   0.604   6.092
 5557TIP3    H116628   4.901   0.664   6.144
 5557TIP3    H216629   4.774   0.581   6.151
 5558TIP3   OH216630   6.496   0.595   5.941
 5558TIP3    H116631   6.537   0.655   5.878
 5558TIP3    H216632   6.413   0.570   5.899
 5559TIP3   OH216633   4.615  -0.007   0.302
 5559TIP3    H116634   4.696   0.038   0.278
 5559TIP3    H216635   4.564   0.059   0.348
 5560TIP3   OH216636   6.430   3.586   3.473
 5560TIP3    H116637   6.455   3.515   3.532
 5560TIP3    H216638   6.482   3.572   3.394
 5561TIP3   OH216639   6.527   2.112   0.996
 5561TIP3    H116640   6.557   2.183   1.052
 5561TIP3    H216641   6.438   2.094   1.025
 5562TIP3   OH216642   0.483   2.371   2.756
 5562TIP3    H116643   0.441   2.285   2.749
 5562TIP3    H216644   0.410   2.432   2.771
 5563TIP3   OH216645   6.828   0.318   4.124
 5563TIP3    H116646   6.807   0.278   4.040
 5563TIP3    H216647   6.789   0.260   4.189
 5564TIP3   OH216648   0.539   2.988   5.984
 5564TIP3    H116649   0.591   2.967   5.907
 5564TIP3    H216650   0.603   2.993   6.055
 5565TIP3   OH216651   6.937   6.571   4.739
 5565TIP3    H116652   6.978   6.635   4.797
 5565TIP3    H216653   6.873   6.622   4.690
 5566TIP3   OH216654   2.039   6.409   4.073
 5566TIP3    H116655   1.990   6.326   4.068
 5566TIP3    H216656   1.974   6.476   4.050
 5567TIP3   OH216657   7.672   5.594   0.142
 5567TIP3    H116658   7.662   5.530   0.213
 5567TIP3    H216659   7.767   5.607   0.135
 5568TIP3   OH216660   8.027   2.567   2.330
 5568TIP3    H116661   7.936   2.591   2.313
 5568TIP3    H216662   8.062   2.641   2.380
 5569TIP3   OH216663   0.453   7.551   3.448
 5569TIP3    H116664   0.537   7.509   3.433
 5569TIP3    H216665   0.398   7.482   3.484
 5570TIP3   OH216666   0.491   6.220   5.697
 5570TIP3    H116667   0.572   6.261   5.727
 5570TIP3    H216668   0.508   6.126   5.705
 5571TIP3   OH216669   6.877   5.593   6.487
 5571TIP3    H116670   6.809   5.526   6.495
 5571TIP3    H216671   6.912   5.601   6.576
 5572TIP3   OH216672   0.777   3.507   5.136
 5572TIP3    H116673   0.854   3.454   5.157
 5572TIP3    H216674   0.717   3.491   5.208
 5573TIP3   OH216675   3.442   1.469   6.369
 5573TIP3    H116676   3.366   1.443   6.317
 5573TIP3    H216677   3.468   1.553   6.332
 5574TIP3   OH216678   4.129   2.922   3.915
 5574TIP3    H116679   4.154   2.902   3.824
 5574TIP3    H216680   4.143   3.016   3.923
 5575TIP3   OH216681   2.447   7.554   4.629
 5575TIP3    H116682   2.465   7.497   4.554
 5575TIP3    H216683   2.359   7.588   4.613
 5576TIP3   OH216684   6.245   0.190   6.252
 5576TIP3    H116685   6.210   0.133   6.184
 5576TIP3    H216686   6.340   0.183   6.243
 5577TIP3   OH216687   1.483   7.576   1.432
 5577TIP3    H116688   1.451   7.546   1.517
 5577TIP3    H216689   1.485   7.498   1.378
 5578TIP3   OH216690   7.528   3.738   2.053
 5578TIP3    H116691   7.478   3.806   2.099
 5578TIP3    H216692   7.461   3.684   2.011
 5579TIP3   OH216693   3.096   2.179   3.327
 5579TIP3    H116694   3.110   2.258   3.378
 5579TIP3    H216695   3.139   2.110   3.378
 5580TIP3   OH216696   2.944   4.438   6.234
 5580TIP3    H116697   2.856   4.429   6.270
 5580TIP3    H216698   3.001   4.445   6.310
 5581TIP3   OH216699   0.067   7.688   1.133
 5581TIP3    H116700   0.139   7.734   1.091
 5581TIP3    H216701   0.070   7.599   1.097
 5582TIP3   OH216702   1.708   5.948   6.415
 5582TIP3    H116703   1.675   5.876   6.362
 5582TIP3    H216704   1.762   5.906   6.482
 5583TIP3   OH216705   5.389   1.344   5.723
 5583TIP3    H116706   5.421   1.415   5.779
 5583TIP3    H216707   5.463   1.323   5.667
 5584TIP3   OH216708   4.132   0.884   4.540
 5584TIP3    H116709   4.168   0.810   4.491
 5584TIP3    H216710   4.164   0.871   4.629
 5585TIP3   OH216711   4.903   1.380   2.082
 5585TIP3    H116712   4.976   1.433   2.113
 5585TIP3    H216713   4.831   1.400   2.141
 5586TIP3   OH216714   1.619   6.996   2.077
 5586TIP3    H116715   1.559   7.014   2.148
 5586TIP3    H216716   1.563   6.982   2.000
 5587TIP3   OH216717   4.160   2.549   4.446
 5587TIP3    H116718   4.245   2.584   4.471
 5587TIP3    H216719   4.121   2.616   4.391
 5588TIP3   OH216720   0.470   0.517   2.993
 5588TIP3    H116721   0.521   0.480   3.065
 5588TIP3    H216722   0.411   0.580   3.034
 5589TIP3   OH216723   4.014   1.799   3.985
 5589TIP3    H116724   3.932   1.849   3.990
 5589TIP3    H216725   4.054   1.827   3.903
 5590TIP3   OH216726   4.996   4.598   0.673
 5590TIP3    H116727   4.944   4.520   0.653
 5590TIP3    H216728   4.999   4.647   0.591
 5591TIP3   OH216729   6.364   3.927   0.255
 5591TIP3    H116730   6.308   3.960   0.184
 5591TIP3    H216731   6.334   3.973   0.333
 5592TIP3   OH216732   1.898   7.235   1.794
 5592TIP3    H116733   1.899   7.216   1.700
 5592TIP3    H216734   1.968   7.181   1.831
 5593TIP3   OH216735   2.131   5.851   6.466
 5593TIP3    H116736   2.180   5.770   6.482
 5593TIP3    H216737   2.059   5.825   6.408
 5594TIP3   OH216738   7.054   1.315   3.891
 5594TIP3    H116739   7.109   1.338   3.816
 5594TIP3    H216740   7.040   1.220   3.882
 5595TIP3   OH216741   1.038   1.842   0.363
 5595TIP3    H116742   1.036   1.902   0.437
 5595TIP3    H216743   0.948   1.811   0.354
 5596TIP3   OH216744   0.694   7.333   5.203
 5596TIP3    H116745   0.687   7.312   5.296
 5596TIP3    H216746   0.778   7.378   5.195
 5597TIP3   OH216747   1.742   6.157   3.679
 5597TIP3    H116748   1.729   6.251   3.695
 5597TIP3    H216749   1.655   6.119   3.690
 5598TIP3   OH216750   2.463   5.906   4.681
 5598TIP3    H116751   2.446   5.994   4.714
 5598TIP3    H216752   2.375   5.870   4.664
 5599TIP3   OH216753   2.333   5.790   3.822
 5599TIP3    H116754   2.327   5.845   3.901
 5599TIP3    H216755   2.283   5.712   3.843
 5600TIP3   OH216756   8.315   6.591   1.427
 5600TIP3    H116757   8.328   6.685   1.414
 5600TIP3    H216758   8.221   6.578   1.413
 5601TIP3   OH216759   7.302   7.385   1.120
 5601TIP3    H116760   7.301   7.471   1.079
 5601TIP3    H216761   7.241   7.333   1.069
 5602TIP3   OH216762   2.991   0.549   0.642
 5602TIP3    H116763   3.021   0.610   0.574
 5602TIP3    H216764   2.899   0.571   0.654
 5603TIP3   OH216765   5.194   1.350   0.592
 5603TIP3    H116766   5.233   1.387   0.671
 5603TIP3    H216767   5.223   1.408   0.521
 5604TIP3   OH216768   7.268   2.847   1.552
 5604TIP3    H116769   7.361   2.854   1.529
 5604TIP3    H216770   7.243   2.937   1.577
 5605TIP3   OH216771   1.209   6.615   2.636
 5605TIP3    H116772   1.272   6.552   2.602
 5605TIP3    H216773   1.226   6.695   2.587
 5606TIP3   OH216774   5.569   1.107   4.212
 5606TIP3    H116775   5.554   1.163   4.288
 5606TIP3    H216776   5.660   1.124   4.187
 5607TIP3   OH216777   3.601   5.090   5.659
 5607TIP3    H116778   3.539   5.069   5.728
 5607TIP3    H216779   3.683   5.049   5.686
 5608TIP3   OH216780   6.744   3.721   0.100
 5608TIP3    H116781   6.680   3.783   0.064
 5608TIP3    H216782   6.692   3.661   0.153
 5609TIP3   OH216783   8.007   3.714   5.586
 5609TIP3    H116784   8.036   3.623   5.581
 5609TIP3    H216785   7.914   3.711   5.563
 5610TIP3   OH216786   4.587   5.259   2.942
 5610TIP3    H116787   4.495   5.244   2.961
 5610TIP3    H216788   4.627   5.275   3.028
 5611TIP3   OH216789   2.287   5.600   2.906
 5611TIP3    H116790   2.278   5.601   2.811
 5611TIP3    H216791   2.221   5.661   2.938
 5612TIP3   OH216792   2.825   6.489   3.508
 5612TIP3    H116793   2.759   6.468   3.441
 5612TIP3    H216794   2.776   6.486   3.590
 5613TIP3   OH216795   1.284   6.176   0.690
 5613TIP3    H116796   1.279   6.242   0.759
 5613TIP3    H216797   1.362   6.199   0.640
 5614TIP3   OH216798   3.900   7.361   2.812
 5614TIP3    H116799   3.906   7.445   2.767
 5614TIP3    H216800   3.983   7.353   2.860
 5615TIP3   OH216801   0.589   2.467   4.379
 5615TIP3    H116802   0.589   2.518   4.298
 5615TIP3    H216803   0.566   2.378   4.352
 5616TIP3   OH216804   1.935   0.050   5.198
 5616TIP3    H116805   2.022   0.041   5.160
 5616TIP3    H216806   1.949   0.049   5.293
 5617TIP3   OH216807   4.120   4.733   3.315
 5617TIP3    H116808   4.208   4.714   3.347
 5617TIP3    H216809   4.088   4.803   3.373
 5618TIP3   OH216810   7.003   1.288   3.549
 5618TIP3    H116811   6.990   1.194   3.550
 5618TIP3    H216812   7.044   1.306   3.464
 5619TIP3   OH216813   1.884   6.738   2.268
 5619TIP3    H116814   1.961   6.719   2.321
 5619TIP3    H216815   1.859   6.827   2.293
 5620TIP3   OH216816   4.567   1.100   5.026
 5620TIP3    H116817   4.538   1.184   5.061
 5620TIP3    H216818   4.550   1.105   4.932
 5621TIP3   OH216819   2.118   6.155   3.049
 5621TIP3    H116820   2.193   6.154   3.109
 5621TIP3    H216821   2.042   6.157   3.106
 5622TIP3   OH216822   1.603   6.497   4.215
 5622TIP3    H116823   1.610   6.406   4.186
 5622TIP3    H216824   1.510   6.509   4.233
 5623TIP3   OH216825   1.620   5.385   5.424
 5623TIP3    H116826   1.612   5.405   5.517
 5623TIP3    H216827   1.537   5.416   5.386
 5624TIP3   OH216828   5.301   2.922   5.595
 5624TIP3    H116829   5.347   2.867   5.658
 5624TIP3    H216830   5.292   3.006   5.638
 5625TIP3   OH216831   6.756   5.221   6.270
 5625TIP3    H116832   6.663   5.238   6.258
 5625TIP3    H216833   6.796   5.308   6.277
 5626TIP3   OH216834   7.939   4.260   4.659
 5626TIP3    H116835   7.992   4.187   4.626
 5626TIP3    H216836   7.860   4.258   4.605
 5627TIP3   OH216837   1.315   3.563   3.605
 5627TIP3    H116838   1.289   3.639   3.658
 5627TIP3    H216839   1.282   3.488   3.654
 5628TIP3   OH216840   4.149   2.576   0.621
 5628TIP3    H116841   4.099   2.631   0.561
 5628TIP3    H216842   4.140   2.487   0.585
 5629TIP3   OH216843   4.105   7.822   2.647
 5629TIP3    H116844   4.192   7.781   2.651
 5629TIP3    H216845   4.109   7.893   2.711
 5630TIP3   OH216846   4.137   3.300   5.798
 5630TIP3    H116847   4.091   3.378   5.831
 5630TIP3    H216848   4.217   3.335   5.759
 5631TIP3   OH216849   4.340   3.053   5.459
 5631TIP3    H116850   4.268   3.083   5.404
 5631TIP3    H216851   4.413   3.042   5.398
 5632TIP3   OH216852   4.828   3.584   4.762
 5632TIP3    H116853   4.846   3.640   4.837
 5632TIP3    H216854   4.875   3.503   4.780
 5633TIP3   OH216855   0.662   7.422   3.188
 5633TIP3    H116856   0.707   7.506   3.194
 5633TIP3    H216857   0.605   7.430   3.111
 5634TIP3   OH216858   1.333   4.999   3.581
 5634TIP3    H116859   1.251   4.977   3.625
 5634TIP3    H216860   1.395   4.933   3.611
 5635TIP3   OH216861   6.211   3.226   6.634
 5635TIP3    H116862   6.156   3.200   6.707
 5635TIP3    H216863   6.224   3.146   6.583
 5636TIP3   OH216864   4.727   0.587   4.604
 5636TIP3    H116865   4.749   0.615   4.693
 5636TIP3    H216866   4.712   0.669   4.557
 5637TIP3   OH216867   5.849   3.754   4.295
 5637TIP3    H116868   5.795   3.810   4.351
 5637TIP3    H216869   5.805   3.757   4.210
 5638TIP3   OH216870   1.070   2.962   5.840
 5638TIP3    H116871   1.034   3.049   5.855
 5638TIP3    H216872   1.057   2.946   5.747
 5639TIP3   OH216873   1.875   1.186   0.309
 5639TIP3    H116874   1.798   1.193   0.365
 5639TIP3    H216875   1.924   1.267   0.326
 5640TIP3   OH216876   0.685   2.135   3.715
 5640TIP3    H116877   0.635   2.160   3.792
 5640TIP3    H216878   0.715   2.045   3.732
 5641TIP3   OH216879   0.438   3.692   3.559
 5641TIP3    H116880   0.469   3.604   3.538
 5641TIP3    H216881   0.397   3.723   3.478
 5642TIP3   OH216882   2.439   1.742   3.059
 5642TIP3    H116883   2.400   1.678   3.000
 5642TIP3    H216884   2.531   1.716   3.065
 5643TIP3   OH216885   3.938   3.237   4.126
 5643TIP3    H116886   3.934   3.145   4.154
 5643TIP3    H216887   4.019   3.244   4.077
 5644TIP3   OH216888   6.738   1.142   4.773
 5644TIP3    H116889   6.681   1.193   4.715
 5644TIP3    H216890   6.783   1.208   4.826
 5645TIP3   OH216891   4.605   4.464   1.136
 5645TIP3    H116892   4.602   4.485   1.042
 5645TIP3    H216893   4.613   4.369   1.139
 5646TIP3   OH216894   7.303   7.340   3.936
 5646TIP3    H116895   7.362   7.373   3.867
 5646TIP3    H216896   7.331   7.385   4.015
 5647TIP3   OH216897   0.829   4.692   5.535
 5647TIP3    H116898   0.873   4.613   5.570
 5647TIP3    H216899   0.790   4.733   5.612
 5648TIP3   OH216900   2.763   5.603   4.010
 5648TIP3    H116901   2.727   5.515   4.013
 5648TIP3    H216902   2.843   5.599   4.063
 5649TIP3   OH216903   1.551   3.610   1.537
 5649TIP3    H116904   1.576   3.574   1.452
 5649TIP3    H216905   1.573   3.541   1.600
 5650TIP3   OH216906   1.822   7.501   1.782
 5650TIP3    H116907   1.899   7.558   1.791
 5650TIP3    H216908   1.854   7.414   1.805
 5651TIP3   OH216909   5.677   5.778   6.387
 5651TIP3    H116910   5.622   5.712   6.428
 5651TIP3    H216911   5.659   5.769   6.293
 5652TIP3   OH216912   0.143   2.102   6.355
 5652TIP3    H116913   0.167   2.168   6.420
 5652TIP3    H216914   0.049   2.086   6.371
 5653TIP3   OH216915   0.939   1.378   4.024
 5653TIP3    H116916   1.027   1.364   4.059
 5653TIP3    H216917   0.921   1.470   4.043
 5654TIP3   OH216918   5.402   3.998   2.699
 5654TIP3    H116919   5.481   4.007   2.752
 5654TIP3    H216920   5.381   3.904   2.703
 5655TIP3   OH216921   3.795   6.784   0.855
 5655TIP3    H116922   3.888   6.763   0.863
 5655TIP3    H216923   3.793   6.874   0.825
 5656TIP3   OH216924   4.941   0.332   5.096
 5656TIP3    H116925   4.947   0.369   5.008
 5656TIP3    H216926   4.938   0.238   5.083
 5657TIP3   OH216927   1.176   3.249   4.463
 5657TIP3    H116928   1.154   3.226   4.373
 5657TIP3    H216929   1.117   3.320   4.485
 5658TIP3   OH216930   2.909   4.993   1.408
 5658TIP3    H116931   2.879   5.034   1.489
 5658TIP3    H216932   2.999   5.023   1.398
 5659TIP3   OH216933   7.566   3.723   1.576
 5659TIP3    H116934   7.614   3.646   1.608
 5659TIP3    H216935   7.635   3.785   1.553
 5660TIP3   OH216936   1.328   5.204   1.712
 5660TIP3    H116937   1.342   5.190   1.619
 5660TIP3    H216938   1.269   5.279   1.717
 5661TIP3   OH216939   8.291   2.958   2.290
 5661TIP3    H116940   8.308   2.904   2.213
 5661TIP3    H216941   8.210   3.005   2.269
 5662TIP3   OH216942   3.454   0.468   3.700
 5662TIP3    H116943   3.470   0.387   3.749
 5662TIP3    H216944   3.523   0.528   3.731
 5663TIP3   OH216945   4.829   0.924   1.605
 5663TIP3    H116946   4.755   0.908   1.663
 5663TIP3    H216947   4.816   1.014   1.574
 5664TIP3   OH216948   1.989   0.285   5.033
 5664TIP3    H116949   1.954   0.216   5.090
 5664TIP3    H216950   1.924   0.293   4.963
 5665TIP3   OH216951   3.379   2.633  -0.009
 5665TIP3    H116952   3.424   2.711  -0.043
 5665TIP3    H216953   3.368   2.651   0.085
 5666TIP3   OH216954   7.380   1.166   2.264
 5666TIP3    H116955   7.303   1.218   2.287
 5666TIP3    H216956   7.398   1.190   2.173
 5667TIP3   OH216957   0.525   2.908   3.812
 5667TIP3    H116958   0.495   2.860   3.734
 5667TIP3    H216959   0.568   2.842   3.866
 5668TIP3   OH216960   5.214   2.741   0.093
 5668TIP3    H116961   5.225   2.658   0.047
 5668TIP3    H216962   5.239   2.807   0.028
 5669TIP3   OH216963   6.368   2.058   3.922
 5669TIP3    H116964   6.365   1.987   3.987
 5669TIP3    H216965   6.382   2.137   3.973
 5670TIP3   OH216966   6.669   6.639   4.593
 5670TIP3    H116967   6.655   6.591   4.512
 5670TIP3    H216968   6.657   6.731   4.568
 5671TIP3   OH216969   1.107   5.813   3.859
 5671TIP3    H116970   1.162   5.785   3.932
 5671TIP3    H216971   1.033   5.858   3.901
 5672TIP3   OH216972   5.181   4.519   5.079
 5672TIP3    H116973   5.151   4.473   5.157
 5672TIP3    H216974   5.132   4.601   5.078
 5673TIP3   OH216975   8.210   3.831   3.642
 5673TIP3    H116976   8.247   3.894   3.704
 5673TIP3    H216977   8.273   3.759   3.642
 5674TIP3   OH216978   5.476   0.538   4.064
 5674TIP3    H116979   5.494   0.618   4.113
 5674TIP3    H216980   5.558   0.520   4.018
 5675TIP3   OH216981   7.236   4.135   0.158
 5675TIP3    H116982   7.141   4.135   0.176
 5675TIP3    H216983   7.275   4.103   0.240
 5676TIP3   OH216984   2.981   6.779   5.232
 5676TIP3    H116985   3.040   6.810   5.300
 5676TIP3    H216986   2.908   6.739   5.280
 5677TIP3   OH216987   6.433   0.102   3.426
 5677TIP3    H116988   6.528   0.109   3.413
 5677TIP3    H216989   6.414   0.009   3.417
 5678TIP3   OH216990   1.840   2.655   3.758
 5678TIP3    H116991   1.780   2.730   3.751
 5678TIP3    H216992   1.837   2.630   3.850
 5679TIP3   OH216993   6.788   3.019   2.189
 5679TIP3    H116994   6.791   3.106   2.149
 5679TIP3    H216995   6.720   3.025   2.256
 5680TIP3   OH216996   4.796   2.961   6.057
 5680TIP3    H116997   4.860   2.945   6.127
 5680TIP3    H216998   4.823   3.043   6.018
 5681TIP3   OH216999   5.826   3.383   6.312
 5681TIP3    H117000   5.793   3.379   6.402
 5681TIP3    H217001   5.842   3.476   6.297
 5682TIP3   OH217002   1.001   1.484   1.336
 5682TIP3    H117003   1.026   1.402   1.377
 5682TIP3    H217004   0.916   1.506   1.375
 5683TIP3   OH217005   7.258   5.113   5.361
 5683TIP3    H117006   7.278   5.100   5.453
 5683TIP3    H217007   7.247   5.024   5.326
 5684TIP3   OH217008   5.891   0.083   3.254
 5684TIP3    H117009   5.846   0.137   3.189
 5684TIP3    H217010   5.984   0.103   3.243
 5685TIP3   OH217011   2.644   4.894   1.880
 5685TIP3    H117012   2.577   4.959   1.859
 5685TIP3    H217013   2.596   4.823   1.924
 5686TIP3   OH217014   0.143   1.861   1.020
 5686TIP3    H117015   0.224   1.833   1.063
 5686TIP3    H217016   0.139   1.955   1.037
 5687TIP3   OH217017   1.882   0.533   1.773
 5687TIP3    H117018   1.878   0.439   1.757
 5687TIP3    H217019   1.823   0.571   1.708
 5688TIP3   OH217020   0.124   7.149   1.518
 5688TIP3    H117021   0.209   7.107   1.536
 5688TIP3    H217022   0.133   7.180   1.428
 5689TIP3   OH217023   3.336   2.177   6.563
 5689TIP3    H117024   3.430   2.160   6.569
 5689TIP3    H217025   3.328   2.254   6.507
 5690TIP3   OH217026   5.406   7.751   6.238
 5690TIP3    H117027   5.334   7.749   6.175
 5690TIP3    H217028   5.477   7.702   6.196
 5691TIP3   OH217029   2.526   4.376   3.646
 5691TIP3    H117030   2.597   4.347   3.589
 5691TIP3    H217031   2.485   4.448   3.598
 5692TIP3   OH217032   7.520   1.707   2.023
 5692TIP3    H117033   7.490   1.793   2.053
 5692TIP3    H217034   7.441   1.653   2.026
 5693TIP3   OH217035   1.895   7.600   4.491
 5693TIP3    H117036   1.914   7.619   4.583
 5693TIP3    H217037   1.804   7.627   4.479
 5694TIP3   OH217038   3.203   0.799   1.765
 5694TIP3    H117039   3.241   0.745   1.835
 5694TIP3    H217040   3.258   0.781   1.689
 5695TIP3   OH217041   5.714   2.762   1.981
 5695TIP3    H117042   5.788   2.784   1.925
 5695TIP3    H217043   5.716   2.830   2.049
 5696TIP3   OH217044   4.917   5.134   6.306
 5696TIP3    H117045   5.001   5.156   6.347
 5696TIP3    H217046   4.891   5.215   6.262
 5697TIP3   OH217047   0.106   2.508   5.382
 5697TIP3    H117048   0.105   2.441   5.313
 5697TIP3    H217049   0.014   2.534   5.392
 5698TIP3   OH217050   2.287   0.417   1.470
 5698TIP3    H117051   2.253   0.432   1.558
 5698TIP3    H217052   2.382   0.419   1.480
 5699TIP3   OH217053   0.861   0.799   3.523
 5699TIP3    H117054   0.766   0.787   3.519
 5699TIP3    H217055   0.873   0.894   3.533
 5700TIP3   OH217056   3.109   3.832   2.969
 5700TIP3    H117057   3.069   3.795   3.047
 5700TIP3    H217058   3.189   3.781   2.956
 5701TIP3   OH217059   2.623   5.079   4.691
 5701TIP3    H117060   2.672   5.042   4.765
 5701TIP3    H217061   2.600   5.168   4.720
 5702TIP3   OH217062   5.907   6.160   0.630
 5702TIP3    H117063   5.877   6.250   0.617
 5702TIP3    H217064   5.984   6.152   0.575
 5703TIP3   OH217065   2.529   0.460   5.844
 5703TIP3    H117066   2.494   0.526   5.785
 5703TIP3    H217067   2.512   0.495   5.932
 5704TIP3   OH217068   2.493   2.659   2.751
 5704TIP3    H117069   2.567   2.618   2.797
 5704TIP3    H217070   2.503   2.752   2.768
 5705TIP3   OH217071   1.412   7.462   1.680
 5705TIP3    H117072   1.448   7.529   1.738
 5705TIP3    H217073   1.317   7.473   1.686
 5706TIP3   OH217074   1.063   4.653   2.025
 5706TIP3    H117075   1.060   4.584   2.091
 5706TIP3    H217076   0.973   4.656   1.991
 5707TIP3   OH217077   8.261   7.676   0.410
 5707TIP3    H117078   8.254   7.712   0.498
 5707TIP3    H217079   8.198   7.726   0.358
 5708TIP3   OH217080   3.882   0.055   2.411
 5708TIP3    H117081   3.937   0.033   2.335
 5708TIP3    H217082   3.850   0.143   2.392
 5709TIP3   OH217083   5.182   6.817   1.832
 5709TIP3    H117084   5.163   6.868   1.753
 5709TIP3    H217085   5.257   6.861   1.872
 5710TIP3   OH217086   7.535   6.312   3.225
 5710TIP3    H117087   7.560   6.220   3.231
 5710TIP3    H217088   7.562   6.339   3.138
 5711TIP3   OH217089   5.065   3.255   2.065
 5711TIP3    H117090   5.033   3.170   2.095
 5711TIP3    H217091   5.006   3.319   2.105
 5712TIP3   OH217092   2.350   5.386   1.248
 5712TIP3    H117093   2.261   5.365   1.218
 5712TIP3    H217094   2.368   5.473   1.213
 5713TIP3   OH217095   0.394   4.987   5.383
 5713TIP3    H117096   0.377   5.044   5.308
 5713TIP3    H217097   0.439   5.044   5.446
 5714TIP3   OH217098   1.861   5.386   2.491
 5714TIP3    H117099   1.899   5.445   2.556
 5714TIP3    H217100   1.794   5.439   2.447
 5715TIP3   OH217101   3.198   4.013   0.144
 5715TIP3    H117102   3.114   4.017   0.188
 5715TIP3    H217103   3.241   3.936   0.181
 5716TIP3   OH217104   2.362   3.576   5.562
 5716TIP3    H117105   2.338   3.579   5.655
 5716TIP3    H217106   2.309   3.505   5.526
 5717TIP3   OH217107   4.405   1.650   1.407
 5717TIP3    H117108   4.354   1.720   1.368
 5717TIP3    H217109   4.369   1.570   1.369
 5718TIP3   OH217110   8.208   6.468   2.627
 5718TIP3    H117111   8.275   6.400   2.623
 5718TIP3    H217112   8.184   6.472   2.720
 5719TIP3   OH217113   7.102   2.431   0.283
 5719TIP3    H117114   7.036   2.361   0.274
 5719TIP3    H217115   7.080   2.493   0.214
 5720TIP3   OH217116   8.178   2.031   0.648
 5720TIP3    H117117   8.122   1.954   0.635
 5720TIP3    H217118   8.250   1.999   0.702
 5721TIP3   OH217119   0.965   1.913   4.441
 5721TIP3    H117120   0.933   1.829   4.407
 5721TIP3    H217121   1.061   1.905   4.436
 5722TIP3   OH217122   3.818   5.061   0.791
 5722TIP3    H117123   3.817   5.102   0.704
 5722TIP3    H217124   3.829   5.133   0.852
 5723TIP3   OH217125   0.943   3.989   1.256
 5723TIP3    H117126   0.983   3.983   1.169
 5723TIP3    H217127   0.988   3.923   1.308
 5724TIP3   OH217128   1.263   5.279   2.974
 5724TIP3    H117129   1.199   5.303   2.907
 5724TIP3    H217130   1.211   5.233   3.041
 5725TIP3   OH217131   8.125   1.762   1.226
 5725TIP3    H117132   8.156   1.852   1.216
 5725TIP3    H217133   8.107   1.731   1.137
 5726TIP3   OH217134   8.337   4.230   0.097
 5726TIP3    H117135   8.245   4.255   0.092
 5726TIP3    H217136   8.369   4.270   0.178
 5727TIP3   OH217137   4.311   6.503   4.927
 5727TIP3    H117138   4.277   6.588   4.899
 5727TIP3    H217139   4.237   6.461   4.971
 5728TIP3   OH217140   0.395   6.743   6.434
 5728TIP3    H117141   0.399   6.797   6.355
 5728TIP3    H217142   0.457   6.785   6.494
 5729TIP3   OH217143   1.905   6.180   5.300
 5729TIP3    H117144   1.969   6.118   5.335
 5729TIP3    H217145   1.831   6.175   5.361
 5730TIP3   OH217146   7.161   2.881   4.169
 5730TIP3    H117147   7.138   2.788   4.169
 5730TIP3    H217148   7.198   2.896   4.082
 5731TIP3   OH217149   2.521   5.756   0.773
 5731TIP3    H117150   2.530   5.767   0.868
 5731TIP3    H217151   2.479   5.671   0.762
 5732TIP3   OH217152   6.932   2.492   1.686
 5732TIP3    H117153   7.022   2.522   1.671
 5732TIP3    H217154   6.880   2.573   1.687
 5733TIP3   OH217155   5.573   5.138   0.448
 5733TIP3    H117156   5.508   5.089   0.398
 5733TIP3    H217157   5.534   5.146   0.535
 5734TIP3   OH217158   4.293   7.328   2.134
 5734TIP3    H117159   4.269   7.243   2.171
 5734TIP3    H217160   4.236   7.338   2.057
 5735TIP3   OH217161   2.522   2.649   3.579
 5735TIP3    H117162   2.539   2.736   3.617
 5735TIP3    H217163   2.520   2.590   3.654
 5736TIP3   OH217164   2.777   2.692   5.085
 5736TIP3    H117165   2.701   2.744   5.058
 5736TIP3    H217166   2.836   2.695   5.009
 5737TIP3   OH217167   1.626   7.615   3.719
 5737TIP3    H117168   1.689   7.684   3.742
 5737TIP3    H217169   1.621   7.619   3.623
 5738TIP3   OH217170   0.719   1.949   3.399
 5738TIP3    H117171   0.640   1.998   3.421
 5738TIP3    H217172   0.768   1.947   3.481
 5739TIP3   OH217173   0.823   7.654   2.185
 5739TIP3    H117174   0.889   7.722   2.188
 5739TIP3    H217175   0.820   7.627   2.093
 5740TIP3   OH217176   6.476   1.170   1.844
 5740TIP3    H117177   6.562   1.144   1.877
 5740TIP3    H217178   6.471   1.264   1.862
 5741TIP3   OH217179   3.936   6.178   6.226
 5741TIP3    H117180   3.960   6.251   6.170
 5741TIP3    H217181   3.883   6.218   6.295
 5742TIP3   OH217182   6.813   3.848   4.137
 5742TIP3    H117183   6.720   3.863   4.118
 5742TIP3    H217184   6.841   3.928   4.183
 5743TIP3   OH217185   1.302   2.349   6.254
 5743TIP3    H117186   1.366   2.278   6.244
 5743TIP3    H217187   1.219   2.304   6.273
 5744TIP3   OH217188   0.499   1.200   5.048
 5744TIP3    H117189   0.578   1.201   4.994
 5744TIP3    H217190   0.434   1.248   4.996
 5745TIP3   OH217191   0.977   1.366   2.564
 5745TIP3    H117192   0.913   1.434   2.582
 5745TIP3    H217193   1.022   1.352   2.647
 5746TIP3   OH217194   2.247   3.708   6.039
 5746TIP3    H117195   2.213   3.683   6.125
 5746TIP3    H217196   2.206   3.646   5.978
 5747TIP3   OH217197   7.179   2.925   0.190
 5747TIP3    H117198   7.231   2.850   0.217
 5747TIP3    H217199   7.242   2.984   0.147
 5748TIP3   OH217200   2.040   6.995   1.192
 5748TIP3    H117201   2.059   7.088   1.205
 5748TIP3    H217202   2.103   6.950   1.248
 5749TIP3   OH217203   3.124   1.953   2.058
 5749TIP3    H117204   3.193   2.015   2.079
 5749TIP3    H217205   3.163   1.894   1.993
 5750TIP3   OH217206   7.537   3.567   4.642
 5750TIP3    H117207   7.575   3.650   4.671
 5750TIP3    H217208   7.458   3.591   4.595
 5751TIP3   OH217209   3.582   3.236   2.600
 5751TIP3    H117210   3.508   3.177   2.609
 5751TIP3    H217211   3.657   3.179   2.582
 5752TIP3   OH217212   4.017   3.060   0.433
 5752TIP3    H117213   3.957   3.134   0.441
 5752TIP3    H217214   4.088   3.080   0.494
 5753TIP3   OH217215   8.118   3.581   3.858
 5753TIP3    H117216   8.039   3.526   3.868
 5753TIP3    H217217   8.090   3.668   3.887
 5754TIP3   OH217218   3.320   7.403   1.992
 5754TIP3    H117219   3.358   7.487   2.018
 5754TIP3    H217220   3.378   7.337   2.029
 5755TIP3   OH217221   5.529   2.631   1.792
 5755TIP3    H117222   5.608   2.657   1.744
 5755TIP3    H217223   5.556   2.626   1.883
 5756TIP3   OH217224   1.137   3.737   1.262
 5756TIP3    H117225   1.141   3.729   1.166
 5756TIP3    H217226   1.088   3.660   1.290
 5757TIP3   OH217227   4.800   5.373   4.703
 5757TIP3    H117228   4.864   5.416   4.760
 5757TIP3    H217229   4.717   5.417   4.721
 5758TIP3   OH217230   6.693   4.134   0.291
 5758TIP3    H117231   6.598   4.142   0.285
 5758TIP3    H217232   6.708   4.052   0.338
 5759TIP3   OH217233   1.898   6.532   1.909
 5759TIP3    H117234   1.897   6.485   1.993
 5759TIP3    H217235   1.982   6.578   1.909
 5760TIP3   OH217236   5.028   1.479   6.030
 5760TIP3    H117237   5.083   1.476   6.109
 5760TIP3    H217238   5.075   1.536   5.970
 5761TIP3   OH217239   0.947   7.237   0.699
 5761TIP3    H117240   0.925   7.148   0.673
 5761TIP3    H217241   0.985   7.228   0.786
 5762TIP3   OH217242   1.443   1.528   1.095
 5762TIP3    H117243   1.463   1.567   1.010
 5762TIP3    H217244   1.362   1.570   1.123
 5763TIP3   OH217245   3.643   4.261   5.969
 5763TIP3    H117246   3.715   4.210   6.007
 5763TIP3    H217247   3.606   4.203   5.903
 5764TIP3   OH217248   1.542   6.995   3.333
 5764TIP3    H117249   1.460   6.967   3.291
 5764TIP3    H217250   1.610   6.951   3.283
 5765TIP3   OH217251   4.454   7.272   2.479
 5765TIP3    H117252   4.402   7.191   2.476
 5765TIP3    H217253   4.390   7.342   2.471
 5766TIP3   OH217254   0.476   2.229   2.381
 5766TIP3    H117255   0.448   2.313   2.345
 5766TIP3    H217256   0.500   2.176   2.305
 5767TIP3   OH217257   3.943   5.095   4.325
 5767TIP3    H117258   3.991   5.032   4.271
 5767TIP3    H217259   3.918   5.165   4.264
 5768TIP3   OH217260   5.276   2.587   4.053
 5768TIP3    H117261   5.200   2.598   4.110
 5768TIP3    H217262   5.331   2.522   4.097
 5769TIP3   OH217263   6.711   4.083   3.303
 5769TIP3    H117264   6.731   4.176   3.293
 5769TIP3    H217265   6.774   4.052   3.368
 5770TIP3   OH217266   6.375   0.285   0.542
 5770TIP3    H117267   6.439   0.295   0.472
 5770TIP3    H217268   6.415   0.221   0.602
 5771TIP3   OH217269   8.262   0.531   4.543
 5771TIP3    H117270   8.307   0.473   4.605
 5771TIP3    H217271   8.174   0.541   4.581
 5772TIP3   OH217272   4.031   4.600   2.878
 5772TIP3    H117273   4.060   4.572   2.965
 5772TIP3    H217274   3.964   4.666   2.894
 5773TIP3   OH217275   3.753   6.039   1.541
 5773TIP3    H117276   3.789   5.988   1.613
 5773TIP3    H217277   3.801   6.008   1.464
 5774TIP3   OH217278   1.388   6.508   1.773
 5774TIP3    H117279   1.441   6.559   1.834
 5774TIP3    H217280   1.434   6.515   1.690
 5775TIP3   OH217281   7.559   4.495   5.253
 5775TIP3    H117282   7.549   4.567   5.191
 5775TIP3    H217283   7.518   4.420   5.210
 5776TIP3   OH217284   2.175   2.537   3.282
 5776TIP3    H117285   2.149   2.477   3.211
 5776TIP3    H217286   2.095   2.549   3.333
 5777TIP3   OH217287   7.657   4.037   3.179
 5777TIP3    H117288   7.720   4.078   3.119
 5777TIP3    H217289   7.573   4.046   3.135
 5778TIP3   OH217290   3.683   3.556   4.282
 5778TIP3    H117291   3.760   3.579   4.229
 5778TIP3    H217292   3.613   3.545   4.219
 5779TIP3   OH217293   4.001   5.732   6.135
 5779TIP3    H117294   3.985   5.705   6.225
 5779TIP3    H217295   4.015   5.650   6.087
 5780TIP3   OH217296   3.963   5.227   4.873
 5780TIP3    H117297   3.950   5.276   4.792
 5780TIP3    H217298   3.974   5.294   4.940
 5781TIP3   OH217299   3.519   7.473   0.915
 5781TIP3    H117300   3.607   7.453   0.882
 5781TIP3    H217301   3.497   7.399   0.971
 5782TIP3   OH217302   2.918   0.892   3.953
 5782TIP3    H117303   2.856   0.875   3.882
 5782TIP3    H217304   2.876   0.858   4.032
 5783TIP3   OH217305   7.680   6.053   0.093
 5783TIP3    H117306   7.730   5.988   0.044
 5783TIP3    H217307   7.746   6.098   0.146
 5784TIP3   OH217308   0.251   4.316   1.558
 5784TIP3    H117309   0.318   4.320   1.626
 5784TIP3    H217310   0.169   4.308   1.606
 5785TIP3   OH217311   2.267   7.195   5.907
 5785TIP3    H117312   2.288   7.103   5.926
 5785TIP3    H217313   2.204   7.220   5.975
 5786TIP3   OH217314   4.616   0.625   4.165
 5786TIP3    H117315   4.701   0.583   4.176
 5786TIP3    H217316   4.552   0.559   4.193
 5787TIP3   OH217317   6.990   2.950   5.915
 5787TIP3    H117318   6.977   2.946   6.010
 5787TIP3    H217319   7.047   2.875   5.896
 5788TIP3   OH217320   3.698   4.807   0.454
 5788TIP3    H117321   3.690   4.763   0.539
 5788TIP3    H217322   3.792   4.819   0.442
 5789TIP3   OH217323   5.228   6.947   4.114
 5789TIP3    H117324   5.255   6.861   4.146
 5789TIP3    H217325   5.301   6.977   4.060
 5790TIP3   OH217326   4.605   2.701   3.521
 5790TIP3    H117327   4.670   2.750   3.572
 5790TIP3    H217328   4.531   2.690   3.580
 5791TIP3   OH217329   0.586   4.274   4.635
 5791TIP3    H117330   0.651   4.340   4.661
 5791TIP3    H217331   0.605   4.199   4.691
 5792TIP3   OH217332   6.444   1.873   5.489
 5792TIP3    H117333   6.465   1.913   5.573
 5792TIP3    H217334   6.395   1.794   5.512
 5793TIP3   OH217335   8.056   0.182   4.241
 5793TIP3    H117336   8.044   0.181   4.336
 5793TIP3    H217337   7.968   0.191   4.206
 5794TIP3   OH217338   1.102   5.939   2.026
 5794TIP3    H117339   1.009   5.963   2.018
 5794TIP3    H217340   1.120   5.947   2.119
 5795TIP3   OH217341   1.227   2.313   0.985
 5795TIP3    H117342   1.293   2.272   0.930
 5795TIP3    H217343   1.271   2.327   1.069
 5796TIP3   OH217344   5.473   1.057   1.445
 5796TIP3    H117345   5.521   1.012   1.514
 5796TIP3    H217346   5.518   1.032   1.364
 5797TIP3   OH217347   2.971   4.350   0.416
 5797TIP3    H117348   2.916   4.338   0.339
 5797TIP3    H217349   3.000   4.441   0.411
 5798TIP3   OH217350   1.442   0.036   1.713
 5798TIP3    H117351   1.387  -0.020   1.658
 5798TIP3    H217352   1.448   0.118   1.665
 5799TIP3   OH217353   1.376   0.267   2.733
 5799TIP3    H117354   1.321   0.202   2.690
 5799TIP3    H217355   1.315   0.318   2.787
 5800TIP3   OH217356   4.273   0.828   5.198
 5800TIP3    H117357   4.322   0.817   5.117
 5800TIP3    H217358   4.271   0.922   5.213
 5801TIP3   OH217359   3.207   3.780   4.538
 5801TIP3    H117360   3.121   3.789   4.496
 5801TIP3    H217361   3.252   3.713   4.486
 5802TIP3   OH217362   3.333   0.256   2.402
 5802TIP3    H117363   3.419   0.296   2.394
 5802TIP3    H217364   3.351   0.166   2.429
 5803TIP3   OH217365   7.272   2.274   6.350
 5803TIP3    H117366   7.263   2.369   6.343
 5803TIP3    H217367   7.334   2.251   6.281
 5804TIP3   OH217368   7.720   5.065   1.789
 5804TIP3    H117369   7.797   5.096   1.837
 5804TIP3    H217370   7.754   5.039   1.704
 5805TIP3   OH217371   6.307   5.987   4.988
 5805TIP3    H117372   6.290   6.044   4.913
 5805TIP3    H217373   6.402   5.975   4.988
 5806TIP3   OH217374   7.494   2.785   1.751
 5806TIP3    H117375   7.403   2.767   1.775
 5806TIP3    H217376   7.496   2.879   1.734
 5807TIP3   OH217377   6.502   6.710   3.968
 5807TIP3    H117378   6.408   6.694   3.980
 5807TIP3    H217379   6.544   6.633   4.006
 5808TIP3   OH217380   3.760   0.801   0.222
 5808TIP3    H117381   3.670   0.768   0.216
 5808TIP3    H217382   3.813   0.722   0.235
 5809TIP3   OH217383   0.955   3.521   1.349
 5809TIP3    H117384   0.992   3.466   1.418
 5809TIP3    H217385   0.875   3.556   1.388
 5810TIP3   OH217386   7.724   7.410   0.671
 5810TIP3    H117387   7.816   7.433   0.685
 5810TIP3    H217388   7.716   7.321   0.707
 5811TIP3   OH217389   1.250   3.346   3.774
 5811TIP3    H117390   1.344   3.329   3.787
 5811TIP3    H217391   1.207   3.263   3.793
 5812TIP3   OH217392   5.435   0.132   6.700
 5812TIP3    H117393   5.495   0.063   6.727
 5812TIP3    H217394   5.472   0.212   6.738
 5813TIP3   OH217395   4.721   6.021   2.945
 5813TIP3    H117396   4.708   5.990   2.855
 5813TIP3    H217397   4.781   6.096   2.936
 5814TIP3   OH217398   3.220   1.230   3.902
 5814TIP3    H117399   3.192   1.313   3.863
 5814TIP3    H217400   3.167   1.164   3.858
 5815TIP3   OH217401   6.103   0.313   1.208
 5815TIP3    H117402   6.166   0.290   1.139
 5815TIP3    H217403   6.030   0.253   1.194
 5816TIP3   OH217404   8.062   6.985   1.082
 5816TIP3    H117405   8.156   6.975   1.096
 5816TIP3    H217406   8.045   7.077   1.100
 5817TIP3   OH217407   1.812   2.403   5.387
 5817TIP3    H117408   1.754   2.373   5.457
 5817TIP3    H217409   1.883   2.339   5.387
 5818TIP3   OH217410   3.978   2.432   6.571
 5818TIP3    H117411   3.895   2.389   6.591
 5818TIP3    H217412   3.988   2.420   6.477
 5819TIP3   OH217413   7.422   3.838   3.816
 5819TIP3    H117414   7.374   3.830   3.734
 5819TIP3    H217415   7.511   3.808   3.795
 5820TIP3   OH217416   0.605   1.173   0.347
 5820TIP3    H117417   0.614   1.195   0.439
 5820TIP3    H217418   0.694   1.179   0.312
 5821TIP3   OH217419   7.704   0.253   5.070
 5821TIP3    H117420   7.698   0.190   5.141
 5821TIP3    H217421   7.774   0.313   5.096
 5822TIP3   OH217422   6.801   0.380   1.252
 5822TIP3    H117423   6.723   0.346   1.296
 5822TIP3    H217424   6.808   0.470   1.283
 5823TIP3   OH217425   2.043   3.632   0.592
 5823TIP3    H117426   2.004   3.681   0.664
 5823TIP3    H217427   2.075   3.700   0.532
 5824TIP3   OH217428   4.643   7.087   6.183
 5824TIP3    H117429   4.630   7.033   6.105
 5824TIP3    H217430   4.639   7.177   6.151
 5825TIP3   OH217431   0.666   6.517   2.859
 5825TIP3    H117432   0.698   6.432   2.891
 5825TIP3    H217433   0.573   6.501   2.841
 5826TIP3   OH217434   3.589   3.611   1.226
 5826TIP3    H117435   3.644   3.553   1.279
 5826TIP3    H217436   3.633   3.696   1.230
 5827TIP3   OH217437   6.689   4.767   6.204
 5827TIP3    H117438   6.708   4.739   6.115
 5827TIP3    H217439   6.608   4.816   6.197
 5828TIP3   OH217440   3.130   5.227   2.499
 5828TIP3    H117441   3.060   5.261   2.555
 5828TIP3    H217442   3.135   5.288   2.426
 5829TIP3   OH217443   5.855   2.924   6.438
 5829TIP3    H117444   5.899   2.939   6.521
 5829TIP3    H217445   5.869   2.832   6.419
 5830TIP3   OH217446   1.491   5.249   1.276
 5830TIP3    H117447   1.440   5.198   1.338
 5830TIP3    H217448   1.502   5.191   1.200
 5831TIP3   OH217449   7.232   6.350   6.273
 5831TIP3    H117450   7.200   6.411   6.206
 5831TIP3    H217451   7.205   6.389   6.356
 5832TIP3   OH217452   6.196   5.865   1.342
 5832TIP3    H117453   6.178   5.850   1.434
 5832TIP3    H217454   6.131   5.813   1.295
 5833TIP3   OH217455   0.280   6.498   0.141
 5833TIP3    H117456   0.297   6.403   0.146
 5833TIP3    H217457   0.214   6.507   0.072
 5834TIP3   OH217458   2.535   0.600   4.099
 5834TIP3    H117459   2.495   0.647   4.025
 5834TIP3    H217460   2.464   0.589   4.162
 5835TIP3   OH217461   3.128   3.007   1.906
 5835TIP3    H117462   3.080   3.090   1.910
 5835TIP3    H217463   3.061   2.940   1.924
 5836TIP3   OH217464   3.437   3.293   3.555
 5836TIP3    H117465   3.398   3.377   3.531
 5836TIP3    H217466   3.529   3.301   3.532
 5837TIP3   OH217467   2.305   5.859   0.955
 5837TIP3    H117468   2.328   5.769   0.977
 5837TIP3    H217469   2.216   5.852   0.919
 5838TIP3   OH217470   2.086   7.721   4.264
 5838TIP3    H117471   2.036   7.643   4.239
 5838TIP3    H217472   2.026   7.771   4.320
 5839TIP3   OH217473   0.506   2.398   1.459
 5839TIP3    H117474   0.550   2.402   1.543
 5839TIP3    H217475   0.576   2.404   1.394
 5840TIP3   OH217476   0.033   0.256   1.923
 5840TIP3    H117477   0.082   0.300   1.854
 5840TIP3    H217478  -0.055   0.293   1.917
 5841TIP3   OH217479   8.257   6.083   1.947
 5841TIP3    H117480   8.291   6.004   1.988
 5841TIP3    H217481   8.162   6.074   1.951
 5842TIP3   OH217482   2.305   5.729   5.387
 5842TIP3    H117483   2.235   5.676   5.349
 5842TIP3    H217484   2.365   5.746   5.314
 5843TIP3   OH217485   4.305   0.221   4.425
 5843TIP3    H117486   4.347   0.166   4.359
 5843TIP3    H217487   4.376   0.270   4.465
 5844TIP3   OH217488   0.292   4.723   1.155
 5844TIP3    H117489   0.363   4.703   1.216
 5844TIP3    H217490   0.216   4.679   1.191
 5845TIP3   OH217491   7.357   6.592   2.120
 5845TIP3    H117492   7.392   6.662   2.176
 5845TIP3    H217493   7.379   6.511   2.165
 5846TIP3   OH217494   3.434   7.162   2.050
 5846TIP3    H117495   3.398   7.131   1.967
 5846TIP3    H217496   3.515   7.112   2.061
 5847TIP3   OH217497   1.359   4.287   1.066
 5847TIP3    H117498   1.361   4.247   0.979
 5847TIP3    H217499   1.284   4.246   1.109
 5848TIP3   OH217500   3.559   2.937   0.649
 5848TIP3    H117501   3.653   2.927   0.662
 5848TIP3    H217502   3.519   2.877   0.712
 5849TIP3   OH217503   1.171   3.104   0.655
 5849TIP3    H117504   1.157   3.059   0.738
 5849TIP3    H217505   1.174   3.197   0.678
 5850TIP3   OH217506   0.505   1.362   0.978
 5850TIP3    H117507   0.592   1.393   1.003
 5850TIP3    H217508   0.456   1.359   1.060
 5851TIP3   OH217509   5.936   1.382   5.023
 5851TIP3    H117510   5.961   1.466   5.061
 5851TIP3    H217511   5.843   1.392   5.003
 5852TIP3   OH217512   0.358   4.416   6.635
 5852TIP3    H117513   0.428   4.476   6.611
 5852TIP3    H217514   0.385   4.332   6.600
 5853TIP3   OH217515   3.114   0.865   3.249
 5853TIP3    H117516   3.162   0.791   3.285
 5853TIP3    H217517   3.023   0.834   3.243
 5854TIP3   OH217518   4.747   6.557   6.018
 5854TIP3    H117519   4.667   6.610   6.025
 5854TIP3    H217520   4.773   6.539   6.108
 5855TIP3   OH217521   4.233   6.585   3.204
 5855TIP3    H117522   4.190   6.621   3.281
 5855TIP3    H217523   4.167   6.529   3.163
 5856TIP3   OH217524   4.752   3.359   5.605
 5856TIP3    H117525   4.794   3.295   5.548
 5856TIP3    H217526   4.670   3.318   5.631
 5857TIP3   OH217527   0.551   5.859   1.392
 5857TIP3    H117528   0.604   5.938   1.386
 5857TIP3    H217529   0.602   5.800   1.448
 5858TIP3   OH217530   1.638   5.997   4.936
 5858TIP3    H117531   1.728   6.010   4.967
 5858TIP3    H217532   1.645   5.929   4.869
 5859TIP3   OH217533   6.142   0.897   2.985
 5859TIP3    H117534   6.167   0.921   2.896
 5859TIP3    H217535   6.164   0.974   3.038
 5860TIP3   OH217536   2.741   7.471   5.400
 5860TIP3    H117537   2.653   7.506   5.408
 5860TIP3    H217538   2.750   7.409   5.473
 5861TIP3   OH217539   2.633   0.961   0.692
 5861TIP3    H117540   2.593   0.917   0.766
 5861TIP3    H217541   2.591   0.923   0.615
 5862TIP3   OH217542   5.791   7.727   3.465
 5862TIP3    H117543   5.813   7.739   3.373
 5862TIP3    H217544   5.840   7.649   3.492
 5863TIP3   OH217545   1.106   1.929   0.098
 5863TIP3    H117546   1.087   1.902   0.188
 5863TIP3    H217547   1.130   2.022   0.106
 5864TIP3   OH217548   2.539   4.576   0.019
 5864TIP3    H117549   2.630   4.581  -0.010
 5864TIP3    H217550   2.505   4.664   0.006
 5865TIP3   OH217551   6.693   1.414   6.341
 5865TIP3    H117552   6.776   1.461   6.341
 5865TIP3    H217553   6.665   1.413   6.432
 5866TIP3   OH217554   3.569   7.268   5.220
 5866TIP3    H117555   3.578   7.240   5.129
 5866TIP3    H217556   3.490   7.322   5.221
 5867TIP3   OH217557   4.691   2.215   1.638
 5867TIP3    H117558   4.638   2.289   1.607
 5867TIP3    H217559   4.684   2.219   1.734
 5868TIP3   OH217560   8.322   4.807   6.526
 5868TIP3    H117561   8.365   4.743   6.469
 5868TIP3    H217562   8.242   4.832   6.478
 5869TIP3   OH217563   2.779   1.213   0.816
 5869TIP3    H117564   2.685   1.228   0.807
 5869TIP3    H217565   2.804   1.265   0.893
 5870TIP3   OH217566   6.669   5.458   4.146
 5870TIP3    H117567   6.700   5.402   4.075
 5870TIP3    H217568   6.593   5.503   4.110
 5871TIP3   OH217569   1.008   6.341   2.544
 5871TIP3    H117570   1.019   6.250   2.519
 5871TIP3    H217571   1.056   6.349   2.627
 5872TIP3   OH217572   1.612   5.058   4.948
 5872TIP3    H117573   1.679   4.990   4.957
 5872TIP3    H217574   1.657   5.139   4.971
 5873TIP3   OH217575   2.880   4.741   6.361
 5873TIP3    H117576   2.960   4.705   6.323
 5873TIP3    H217577   2.886   4.721   6.454
 5874TIP3   OH217578   4.742   7.148   2.680
 5874TIP3    H117579   4.767   7.216   2.617
 5874TIP3    H217580   4.699   7.196   2.751
 5875TIP3   OH217581   6.454   4.024   5.189
 5875TIP3    H117582   6.434   4.080   5.264
 5875TIP3    H217583   6.413   3.940   5.211
 5876TIP3   OH217584   6.467   1.993   0.751
 5876TIP3    H117585   6.488   2.042   0.831
 5876TIP3    H217586   6.546   1.941   0.734
 5877TIP3   OH217587   1.562   5.834   5.520
 5877TIP3    H117588   1.467   5.830   5.520
 5877TIP3    H217589   1.586   5.834   5.613
 5878TIP3   OH217590   0.720   5.994   3.748
 5878TIP3    H117591   0.677   5.959   3.670
 5878TIP3    H217592   0.728   6.088   3.731
 5879TIP3   OH217593   8.236   2.675   6.065
 5879TIP3    H117594   8.176   2.637   6.129
 5879TIP3    H217595   8.193   2.662   5.980
 5880TIP3   OH217596   0.196   4.986   3.896
 5880TIP3    H117597   0.129   4.923   3.920
 5880TIP3    H217598   0.187   4.994   3.801
 5881TIP3   OH217599   6.857   4.441   5.995
 5881TIP3    H117600   6.935   4.497   5.998
 5881TIP3    H217601   6.786   4.498   5.967
 5882TIP3   OH217602   5.627   3.805   1.921
 5882TIP3    H117603   5.676   3.855   1.986
 5882TIP3    H217604   5.662   3.716   1.927
 5883TIP3   OH217605   7.374   6.826   2.936
 5883TIP3    H117606   7.291   6.869   2.919
 5883TIP3    H217607   7.350   6.741   2.973
 5884TIP3   OH217608   0.163   2.318   3.922
 5884TIP3    H117609   0.177   2.413   3.931
 5884TIP3    H217610   0.222   2.279   3.987
 5885TIP3   OH217611   5.602   6.794   6.595
 5885TIP3    H117612   5.583   6.711   6.638
 5885TIP3    H217613   5.641   6.848   6.664
 5886TIP3   OH217614   3.943   5.253   3.282
 5886TIP3    H117615   3.938   5.348   3.280
 5886TIP3    H217616   3.853   5.225   3.298
 5887TIP3   OH217617   4.478   4.122   1.946
 5887TIP3    H117618   4.433   4.142   1.864
 5887TIP3    H217619   4.409   4.115   2.011
 5888TIP3   OH217620   4.579   0.042   5.994
 5888TIP3    H117621   4.641   0.083   6.055
 5888TIP3    H217622   4.544   0.114   5.942
 5889TIP3   OH217623   5.390   3.555   3.373
 5889TIP3    H117624   5.380   3.634   3.424
 5889TIP3    H217625   5.324   3.562   3.303
 5890TIP3   OH217626   6.479   5.310   6.270
 5890TIP3    H117627   6.412   5.375   6.293
 5890TIP3    H217628   6.466   5.239   6.333
 5891TIP3   OH217629   3.150   6.270   3.583
 5891TIP3    H117630   3.102   6.232   3.658
 5891TIP3    H217631   3.241   6.246   3.598
 5892TIP3   OH217632   7.375   0.576   5.280
 5892TIP3    H117633   7.362   0.649   5.340
 5892TIP3    H217634   7.439   0.520   5.325
 5893TIP3   OH217635   3.217   4.188   3.033
 5893TIP3    H117636   3.278   4.252   2.998
 5893TIP3    H217637   3.272   4.125   3.080
 5894TIP3   OH217638   2.084   2.473   2.159
 5894TIP3    H117639   2.074   2.552   2.213
 5894TIP3    H217640   2.157   2.492   2.101
 5895TIP3   OH217641   7.098   5.649   0.449
 5895TIP3    H117642   7.006   5.647   0.473
 5895TIP3    H217643   7.129   5.560   0.464
 5896TIP3   OH217644   1.908   0.442   0.014
 5896TIP3    H117645   1.850   0.501   0.063
 5896TIP3    H217646   1.852   0.371  -0.015
 5897TIP3   OH217647   2.031   6.394   2.443
 5897TIP3    H117648   2.031   6.490   2.448
 5897TIP3    H217649   2.093   6.367   2.510
 5898TIP3   OH217650   5.463   0.287   2.831
 5898TIP3    H117651   5.487   0.364   2.882
 5898TIP3    H217652   5.530   0.281   2.763
 5899TIP3   OH217653   6.521   0.729   3.031
 5899TIP3    H117654   6.595   0.667   3.028
 5899TIP3    H217655   6.474   0.713   2.949
 5900TIP3   OH217656   4.611   6.279   3.250
 5900TIP3    H117657   4.573   6.367   3.254
 5900TIP3    H217658   4.535   6.220   3.254
 5901TIP3   OH217659   7.349   3.880   1.478
 5901TIP3    H117660   7.370   3.973   1.465
 5901TIP3    H217661   7.431   3.841   1.507
 5902TIP3   OH217662   0.323   7.390   0.899
 5902TIP3    H117663   0.228   7.402   0.907
 5902TIP3    H217664   0.334   7.297   0.881
 5903TIP3   OH217665   3.130   0.591   4.832
 5903TIP3    H117666   3.218   0.618   4.807
 5903TIP3    H217667   3.072   0.650   4.784
 5904TIP3   OH217668   7.295   4.059   1.214
 5904TIP3    H117669   7.329   4.091   1.298
 5904TIP3    H217670   7.288   3.965   1.225
 5905TIP3   OH217671   4.734   1.263   6.288
 5905TIP3    H117672   4.713   1.245   6.380
 5905TIP3    H217673   4.696   1.350   6.272
 5906TIP3   OH217674   4.814   2.706   3.882
 5906TIP3    H117675   4.879   2.761   3.927
 5906TIP3    H217676   4.866   2.635   3.843
 5907TIP3   OH217677   0.102   2.720   2.141
 5907TIP3    H117678   0.010   2.720   2.116
 5907TIP3    H217679   0.114   2.637   2.188
 5908TIP3   OH217680   4.035   0.677   6.740
 5908TIP3    H117681   4.048   0.699   6.832
 5908TIP3    H217682   4.123   0.682   6.702
 5909TIP3   OH217683   3.459   6.219   2.096
 5909TIP3    H117684   3.452   6.123   2.088
 5909TIP3    H217685   3.371   6.247   2.119
 5910TIP3   OH217686   1.745   5.591   5.917
 5910TIP3    H117687   1.837   5.585   5.893
 5910TIP3    H217688   1.727   5.511   5.966
 5911TIP3   OH217689   6.806   1.303   1.719
 5911TIP3    H117690   6.783   1.280   1.809
 5911TIP3    H217691   6.733   1.358   1.689
 5912TIP3   OH217692   3.425   5.428   1.727
 5912TIP3    H117693   3.491   5.378   1.776
 5912TIP3    H217694   3.470   5.511   1.706
 5913TIP3   OH217695   2.661   4.056   4.067
 5913TIP3    H117696   2.649   3.961   4.076
 5913TIP3    H217697   2.625   4.093   4.148
 5914TIP3   OH217698   4.858   0.195   0.606
 5914TIP3    H117699   4.834   0.266   0.547
 5914TIP3    H217700   4.842   0.230   0.694
 5915TIP3   OH217701   4.610   6.921   1.668
 5915TIP3    H117702   4.632   6.955   1.755
 5915TIP3    H217703   4.560   6.841   1.685
 5916TIP3   OH217704   6.766   7.690   0.836
 5916TIP3    H117705   6.812   7.662   0.757
 5916TIP3    H217706   6.779   7.785   0.839
 5917TIP3   OH217707   6.534   0.497   2.116
 5917TIP3    H117708   6.502   0.418   2.072
 5917TIP3    H217709   6.519   0.567   2.053
 5918TIP3   OH217710   0.610   2.903   2.133
 5918TIP3    H117711   0.668   2.842   2.178
 5918TIP3    H217712   0.621   2.986   2.181
 5919TIP3   OH217713   7.459   6.663   3.751
 5919TIP3    H117714   7.479   6.630   3.663
 5919TIP3    H217715   7.490   6.594   3.810
 5920TIP3   OH217716   8.036   2.895   2.118
 5920TIP3    H117717   8.040   2.921   2.026
 5920TIP3    H217718   7.953   2.932   2.150
 5921TIP3   OH217719   3.180   6.869   1.620
 5921TIP3    H117720   3.207   6.804   1.555
 5921TIP3    H217721   3.121   6.927   1.573
 5922TIP3   OH217722   6.612   2.896   4.669
 5922TIP3    H117723   6.545   2.917   4.735
 5922TIP3    H217724   6.609   2.801   4.660
 5923TIP3   OH217725   1.375   6.268   1.473
 5923TIP3    H117726   1.448   6.208   1.484
 5923TIP3    H217727   1.412   6.354   1.495
 5924TIP3   OH217728   5.629   1.902   6.166
 5924TIP3    H117729   5.711   1.892   6.215
 5924TIP3    H217730   5.654   1.945   6.084
 5925TIP3   OH217731   2.653   6.357   2.831
 5925TIP3    H117732   2.573   6.403   2.856
 5925TIP3    H217733   2.720   6.425   2.826
 5926TIP3   OH217734   0.655   5.961   6.610
 5926TIP3    H117735   0.703   6.044   6.604
 5926TIP3    H217736   0.589   5.977   6.677
 5927TIP3   OH217737   2.678   6.964   3.419
 5927TIP3    H117738   2.742   6.893   3.427
 5927TIP3    H217739   2.726   7.042   3.447
 5928TIP3   OH217740   2.368   3.212   5.131
 5928TIP3    H117741   2.277   3.194   5.107
 5928TIP3    H217742   2.361   3.274   5.204
 5929TIP3   OH217743  -0.032   1.799   4.483
 5929TIP3    H117744   0.063   1.806   4.487
 5929TIP3    H217745  -0.049   1.711   4.448
 5930TIP3   OH217746   3.378   3.010   5.292
 5930TIP3    H117747   3.439   3.083   5.302
 5930TIP3    H217748   3.428   2.944   5.245
 5931TIP3   OH217749   7.587   5.019   4.883
 5931TIP3    H117750   7.503   4.974   4.882
 5931TIP3    H217751   7.590   5.065   4.799
 5932TIP3   OH217752   4.826   0.337   4.797
 5932TIP3    H117753   4.838   0.287   4.717
 5932TIP3    H217754   4.836   0.428   4.770
 5933TIP3   OH217755   0.990   2.560   3.791
 5933TIP3    H117756   1.010   2.650   3.764
 5933TIP3    H217757   1.061   2.536   3.851
 5934TIP3   OH217758   2.409   5.379   6.537
 5934TIP3    H117759   2.420   5.374   6.632
 5934TIP3    H217760   2.396   5.288   6.510
 5935TIP3   OH217761   2.451   0.601   4.884
 5935TIP3    H117762   2.393   0.529   4.908
 5935TIP3    H217763   2.485   0.577   4.798
 5936TIP3   OH217764   4.098   0.073   4.595
 5936TIP3    H117765   4.041   0.057   4.519
 5936TIP3    H217766   4.170   0.125   4.560
 5937TIP3   OH217767   0.451   5.368   3.827
 5937TIP3    H117768   0.500   5.316   3.891
 5937TIP3    H217769   0.361   5.335   3.833
 5938TIP3   OH217770   6.596   5.002   0.370
 5938TIP3    H117771   6.675   5.015   0.317
 5938TIP3    H217772   6.529   4.979   0.306
 5939TIP3   OH217773   6.287   4.409   4.476
 5939TIP3    H117774   6.375   4.428   4.508
 5939TIP3    H217775   6.255   4.339   4.534
 5940TIP3   OH217776   5.270   6.921   0.512
 5940TIP3    H117777   5.209   6.848   0.522
 5940TIP3    H217778   5.337   6.889   0.452
 5941TIP3   OH217779   6.549   5.922   1.429
 5941TIP3    H117780   6.474   5.919   1.490
 5941TIP3    H217781   6.616   5.869   1.472
 5942TIP3   OH217782   5.649   6.093   4.543
 5942TIP3    H117783   5.609   6.137   4.618
 5942TIP3    H217784   5.729   6.142   4.526
 5943TIP3   OH217785   4.941   5.020   5.494
 5943TIP3    H117786   4.929   4.926   5.480
 5943TIP3    H217787   4.933   5.059   5.407
 5944TIP3   OH217788   1.987   3.300   5.872
 5944TIP3    H117789   1.898   3.329   5.891
 5944TIP3    H217790   1.990   3.210   5.905
 5945TIP3   OH217791   7.982   2.257   3.867
 5945TIP3    H117792   8.020   2.275   3.781
 5945TIP3    H217793   7.980   2.161   3.872
 5946TIP3   OH217794   3.507   4.604   0.929
 5946TIP3    H117795   3.419   4.570   0.914
 5946TIP3    H217796   3.554   4.534   0.974
 5947TIP3   OH217797   0.954   2.152   2.842
 5947TIP3    H117798   0.965   2.164   2.936
 5947TIP3    H217799   1.000   2.071   2.821
 5948TIP3   OH217800   3.820   1.899   6.095
 5948TIP3    H117801   3.822   1.954   6.174
 5948TIP3    H217802   3.908   1.907   6.059
 5949TIP3   OH217803   2.431   0.218   0.113
 5949TIP3    H117804   2.359   0.262   0.069
 5949TIP3    H217805   2.509   0.242   0.062
 5950TIP3   OH217806   2.838   3.167   0.766
 5950TIP3    H117807   2.783   3.224   0.712
 5950TIP3    H217808   2.790   3.084   0.770
 5951TIP3   OH217809   2.286   1.958   3.151
 5951TIP3    H117810   2.342   1.885   3.128
 5951TIP3    H217811   2.346   2.029   3.172
 5952TIP3   OH217812   1.069   4.534   3.211
 5952TIP3    H117813   1.096   4.523   3.120
 5952TIP3    H217814   0.974   4.542   3.207
 5953TIP3   OH217815   7.196   1.789   2.757
 5953TIP3    H117816   7.145   1.868   2.775
 5953TIP3    H217817   7.202   1.745   2.842
 5954TIP3   OH217818   0.249   7.642   0.638
 5954TIP3    H117819   0.237   7.554   0.602
 5954TIP3    H217820   0.321   7.633   0.701
 5955TIP3   OH217821   0.549   7.002   2.148
 5955TIP3    H117822   0.564   7.096   2.135
 5955TIP3    H217823   0.522   6.970   2.062
 5956TIP3   OH217824   3.722   5.109   6.736
 5956TIP3    H117825   3.687   5.177   6.679
 5956TIP3    H217826   3.786   5.063   6.681
 5957TIP3   OH217827   7.046   3.321   1.273
 5957TIP3    H117828   7.040   3.414   1.251
 5957TIP3    H217829   7.116   3.288   1.216
 5958TIP3   OH217830   1.514   5.196   0.058
 5958TIP3    H117831   1.509   5.120   0.116
 5958TIP3    H217832   1.482   5.164  -0.027
 5959TIP3   OH217833   0.910   2.763   6.483
 5959TIP3    H117834   1.002   2.741   6.472
 5959TIP3    H217835   0.896   2.837   6.423
 5960TIP3   OH217836   3.859   7.802   1.750
 5960TIP3    H117837   3.920   7.856   1.800
 5960TIP3    H217838   3.885   7.712   1.769
 5961TIP3   OH217839   4.075   6.741   2.595
 5961TIP3    H117840   4.144   6.791   2.639
 5961TIP3    H217841   4.004   6.736   2.659
 5962TIP3   OH217842   2.850   6.822   3.983
 5962TIP3    H117843   2.871   6.729   3.989
 5962TIP3    H217844   2.913   6.865   4.040
 5963TIP3   OH217845   4.949   5.042   6.012
 5963TIP3    H117846   4.937   4.947   6.019
 5963TIP3    H217847   4.860   5.077   6.006
 5964TIP3   OH217848   0.316   4.021   6.267
 5964TIP3    H117849   0.238   3.977   6.300
 5964TIP3    H217850   0.283   4.084   6.203
 5965TIP3   OH217851   7.963   6.605   6.252
 5965TIP3    H117852   7.983   6.693   6.285
 5965TIP3    H217853   8.048   6.570   6.225
 5966TIP3   OH217854   2.799   7.181   3.555
 5966TIP3    H117855   2.884   7.211   3.589
 5966TIP3    H217856   2.736   7.244   3.590
 5967TIP3   OH217857   2.609   5.464   0.053
 5967TIP3    H117858   2.664   5.484   0.128
 5967TIP3    H217859   2.546   5.400   0.085
 5968TIP3   OH217860   2.718   5.712   2.172
 5968TIP3    H117861   2.703   5.767   2.248
 5968TIP3    H217862   2.787   5.651   2.199
 5969TIP3   OH217863   3.704   0.295   2.933
 5969TIP3    H117864   3.659   0.374   2.964
 5969TIP3    H217865   3.657   0.271   2.853
 5970TIP3   OH217866   5.864   4.709   6.400
 5970TIP3    H117867   5.796   4.775   6.385
 5970TIP3    H217868   5.919   4.714   6.321
 5971TIP3   OH217869   2.477   4.996   3.948
 5971TIP3    H117870   2.386   4.972   3.966
 5971TIP3    H217871   2.512   5.022   4.033
 5972TIP3   OH217872   7.802   0.465   0.303
 5972TIP3    H117873   7.833   0.472   0.212
 5972TIP3    H217874   7.878   0.487   0.356
 5973TIP3   OH217875   1.736   3.314   5.932
 5973TIP3    H117876   1.696   3.271   5.857
 5973TIP3    H217877   1.702   3.267   6.008
 5974TIP3   OH217878   4.328   2.742   3.350
 5974TIP3    H117879   4.342   2.651   3.375
 5974TIP3    H217880   4.336   2.743   3.255
 5975TIP3   OH217881   6.067   4.790   1.104
 5975TIP3    H117882   6.043   4.822   1.017
 5975TIP3    H217883   6.148   4.835   1.125
 5976TIP3   OH217884   6.976   4.957   3.809
 5976TIP3    H117885   6.943   4.870   3.830
 5976TIP3    H217886   6.904   5.016   3.832
 5977TIP3   OH217887   0.749   1.710   1.005
 5977TIP3    H117888   0.664   1.724   1.046
 5977TIP3    H217889   0.811   1.756   1.063
 5978TIP3   OH217890   3.986   6.923   3.761
 5978TIP3    H117891   3.898   6.891   3.780
 5978TIP3    H217892   3.974   7.015   3.738
 5979TIP3   OH217893   6.747   3.077   6.363
 5979TIP3    H117894   6.676   3.122   6.408
 5979TIP3    H217895   6.819   3.076   6.426
 5980TIP3   OH217896   7.740   3.735   3.377
 5980TIP3    H117897   7.774   3.723   3.288
 5980TIP3    H217898   7.701   3.823   3.377
 5981TIP3   OH217899   4.690   0.335   4.415
 5981TIP3    H117900   4.718   0.413   4.464
 5981TIP3    H217901   4.638   0.370   4.342
 5982TIP3   OH217902   5.804   4.719   1.122
 5982TIP3    H117903   5.889   4.761   1.110
 5982TIP3    H217904   5.753   4.744   1.045
 5983TIP3   OH217905   6.317   7.490   3.670
 5983TIP3    H117906   6.333   7.409   3.622
 5983TIP3    H217907   6.244   7.470   3.728
 5984TIP3   OH217908   6.512   3.507   6.207
 5984TIP3    H117909   6.465   3.582   6.169
 5984TIP3    H217910   6.510   3.440   6.138
 5985TIP3   OH217911   5.151   0.888   5.110
 5985TIP3    H117912   5.104   0.925   5.036
 5985TIP3    H217913   5.082   0.853   5.167
 5986TIP3   OH217914   5.884   6.967   5.198
 5986TIP3    H117915   5.819   6.978   5.128
 5986TIP3    H217916   5.833   6.972   5.279
 5987TIP3   OH217917   6.679   5.270   3.029
 5987TIP3    H117918   6.681   5.254   2.934
 5987TIP3    H217919   6.758   5.226   3.062
 5988TIP3   OH217920   7.503   1.082   4.191
 5988TIP3    H117921   7.592   1.109   4.216
 5988TIP3    H217922   7.464   1.161   4.153
 5989TIP3   OH217923   6.989   5.678   3.439
 5989TIP3    H117924   6.947   5.756   3.475
 5989TIP3    H217925   6.980   5.687   3.344
 5990TIP3   OH217926   4.959   3.095   0.655
 5990TIP3    H117927   4.974   3.006   0.687
 5990TIP3    H217928   4.983   3.091   0.562
 5991TIP3   OH217929   5.218   2.270   0.013
 5991TIP3    H117930   5.226   2.361  -0.016
 5991TIP3    H217931   5.308   2.237   0.015
 5992TIP3   OH217932   0.455   3.745   1.864
 5992TIP3    H117933   0.398   3.669   1.858
 5992TIP3    H217934   0.403   3.809   1.914
 5993TIP3   OH217935   2.733   3.794   1.386
 5993TIP3    H117936   2.739   3.875   1.437
 5993TIP3    H217937   2.781   3.813   1.305
 5994TIP3   OH217938   2.949   4.492   1.529
 5994TIP3    H117939   2.918   4.407   1.558
 5994TIP3    H217940   2.988   4.476   1.443
 5995TIP3   OH217941   4.015   3.689   5.737
 5995TIP3    H117942   3.957   3.763   5.757
 5995TIP3    H217943   4.043   3.704   5.647
 5996TIP3   OH217944   6.676   2.194   3.184
 5996TIP3    H117945   6.695   2.287   3.202
 5996TIP3    H217946   6.626   2.165   3.260
 5997TIP3   OH217947   3.690   5.723   6.018
 5997TIP3    H117948   3.679   5.712   6.113
 5997TIP3    H217949   3.784   5.715   6.004
 5998TIP3   OH217950   0.716   5.816   3.083
 5998TIP3    H117951   0.811   5.817   3.096
 5998TIP3    H217952   0.703   5.866   3.002
 5999TIP3   OH217953   0.693   0.226   0.816
 5999TIP3    H117954   0.671   0.137   0.789
 5999TIP3    H217955   0.641   0.282   0.758
 6000TIP3   OH217956   5.000   3.322   3.212
 6000TIP3    H117957   5.005   3.390   3.278
 6000TIP3    H217958   5.091   3.304   3.189
 6001TIP3   OH217959   5.000   6.265   0.455
 6001TIP3    H117960   4.953   6.269   0.372
 6001TIP3    H217961   5.079   6.216   0.436
 6002TIP3   OH217962   6.785   4.167   1.569
 6002TIP3    H117963   6.740   4.108   1.509
 6002TIP3    H217964   6.799   4.115   1.648
 6003TIP3   OH217965   2.389   3.695   2.899
 6003TIP3    H117966   2.414   3.622   2.843
 6003TIP3    H217967   2.319   3.740   2.850
 6004TIP3   OH217968   6.809   0.518   5.393
 6004TIP3    H117969   6.901   0.529   5.370
 6004TIP3    H217970   6.767   0.599   5.364
 6005TIP3   OH217971   6.970   1.613   6.551
 6005TIP3    H117972   6.947   1.593   6.460
 6005TIP3    H217973   7.023   1.692   6.545
 6006TIP3   OH217974   4.774   1.414   2.678
 6006TIP3    H117975   4.827   1.368   2.613
 6006TIP3    H217976   4.796   1.506   2.665
 6007TIP3   OH217977   4.136   7.726   0.371
 6007TIP3    H117978   4.189   7.652   0.342
 6007TIP3    H217979   4.102   7.765   0.290
 6008TIP3   OH217980   4.446   7.588   1.095
 6008TIP3    H117981   4.517   7.605   1.157
 6008TIP3    H217982   4.457   7.655   1.027
 6009TIP3   OH217983   3.748   6.796   4.381
 6009TIP3    H117984   3.786   6.742   4.312
 6009TIP3    H217985   3.824   6.830   4.429
 6010TIP3   OH217986   2.748   2.682   4.236
 6010TIP3    H117987   2.797   2.760   4.210
 6010TIP3    H217988   2.764   2.619   4.166
 6011TIP3   OH217989   0.763   0.555   2.078
 6011TIP3    H117990   0.805   0.475   2.107
 6011TIP3    H217991   0.815   0.625   2.119
 6012TIP3   OH217992   5.645   0.633   1.088
 6012TIP3    H117993   5.594   0.668   1.015
 6012TIP3    H217994   5.733   0.670   1.075
 6013TIP3   OH217995   6.723   0.862   4.425
 6013TIP3    H117996   6.800   0.807   4.417
 6013TIP3    H217997   6.677   0.828   4.502
 6014TIP3   OH217998   7.488   2.204   0.771
 6014TIP3    H117999   7.563   2.169   0.820
 6014TIP3    H218000   7.492   2.298   0.784
 6015TIP3   OH218001   7.799   2.591   3.404
 6015TIP3    H118002   7.732   2.547   3.457
 6015TIP3    H218003   7.757   2.607   3.320
 6016TIP3   OH218004   1.082   5.079  -0.001
 6016TIP3    H118005   1.018   5.127   0.051
 6016TIP3    H218006   1.155   5.063   0.060
 6017TIP3   OH218007   7.470   2.984   5.861
 6017TIP3    H118008   7.415   2.911   5.889
 6017TIP3    H218009   7.485   2.968   5.768
 6018TIP3   OH218010   6.749   5.019   5.875
 6018TIP3    H118011   6.662   5.032   5.912
 6018TIP3    H218012   6.771   5.104   5.836
 6019TIP3   OH218013   1.110   5.750   4.373
 6019TIP3    H118014   1.046   5.679   4.369
 6019TIP3    H218015   1.070   5.821   4.323
 6020TIP3   OH218016   0.111   7.682   3.327
 6020TIP3    H118017   0.026   7.724   3.342
 6020TIP3    H218018   0.172   7.734   3.378
 6021TIP3   OH218019   1.998   0.101   5.481
 6021TIP3    H118020   2.091   0.092   5.505
 6021TIP3    H218021   1.969   0.179   5.530
 6022TIP3   OH218022   7.381   3.286   2.490
 6022TIP3    H118023   7.458   3.259   2.438
 6022TIP3    H218024   7.405   3.371   2.525
 6023TIP3   OH218025   1.952   7.837   6.627
 6023TIP3    H118026   1.950   7.780   6.550
 6023TIP3    H218027   2.022   7.900   6.609
 6024TIP3   OH218028   2.617   2.672   3.173
 6024TIP3    H118029   2.528   2.686   3.204
 6024TIP3    H218030   2.646   2.758   3.143
 6025TIP3   OH218031   0.857   3.014   4.210
 6025TIP3    H118032   0.798   3.087   4.230
 6025TIP3    H218033   0.891   2.985   4.294
 6026TIP3   OH218034   1.929   6.713   2.613
 6026TIP3    H118035   1.966   6.786   2.662
 6026TIP3    H218036   1.934   6.740   2.522
 6027TIP3   OH218037   3.656   6.507   4.476
 6027TIP3    H118038   3.572   6.466   4.496
 6027TIP3    H218039   3.696   6.449   4.411
 6028TIP3   OH218040   1.075   4.956   0.400
 6028TIP3    H118041   1.087   4.962   0.495
 6028TIP3    H218042   0.984   4.928   0.388
 6029TIP3   OH218043   7.224   4.852   5.297
 6029TIP3    H118044   7.304   4.804   5.277
 6029TIP3    H218045   7.154   4.787   5.288
 6030TIP3   OH218046   1.708   5.952   2.783
 6030TIP3    H118047   1.794   5.995   2.782
 6030TIP3    H218048   1.646   6.020   2.758
 6031TIP3   OH218049   1.997   5.504   2.688
 6031TIP3    H118050   1.998   5.494   2.783
 6031TIP3    H218051   2.000   5.599   2.674
 6032TIP3   OH218052   2.935   4.587   3.840
 6032TIP3    H118053   2.947   4.533   3.762
 6032TIP3    H218054   2.841   4.606   3.842
 6033TIP3   OH218055   1.826   2.397   0.612
 6033TIP3    H118056   1.793   2.325   0.666
 6033TIP3    H218057   1.828   2.473   0.671
 6034TIP3   OH218058   6.295   1.102   4.853
 6034TIP3    H118059   6.342   1.184   4.863
 6034TIP3    H218060   6.225   1.106   4.919
 6035TIP3   OH218061   5.947   3.536   4.419
 6035TIP3    H118062   5.930   3.627   4.398
 6035TIP3    H218063   5.919   3.526   4.510
 6036TIP3   OH218064   0.893   6.543   6.377
 6036TIP3    H118065   0.832   6.616   6.367
 6036TIP3    H218066   0.858   6.474   6.321
 6037TIP3   OH218067   4.034   2.675   5.757
 6037TIP3    H118068   4.057   2.768   5.752
 6037TIP3    H218069   4.015   2.660   5.850
 6038TIP3   OH218070   4.164   3.960   2.758
 6038TIP3    H118071   4.144   3.928   2.671
 6038TIP3    H218072   4.102   3.915   2.815
 6039TIP3   OH218073   7.141   2.656   2.209
 6039TIP3    H118074   7.205   2.722   2.180
 6039TIP3    H218075   7.124   2.603   2.131
 6040TIP3   OH218076   6.507   3.254   2.315
 6040TIP3    H118077   6.449   3.324   2.283
 6040TIP3    H218078   6.513   3.193   2.241
 6041TIP3   OH218079   0.725   4.047   1.985
 6041TIP3    H118080   0.698   3.997   1.908
 6041TIP3    H218081   0.814   4.018   2.002
 6042TIP3   OH218082   2.146   3.498   1.459
 6042TIP3    H118083   2.222   3.520   1.512
 6042TIP3    H218084   2.106   3.582   1.437
 6043TIP3   OH218085   7.225   5.865   3.304
 6043TIP3    H118086   7.270   5.934   3.353
 6043TIP3    H218087   7.155   5.835   3.361
 6044TIP3   OH218088   4.031   5.428   1.738
 6044TIP3    H118089   4.015   5.402   1.829
 6044TIP3    H218090   4.114   5.385   1.715
 6045TIP3   OH218091   1.577   4.893   2.390
 6045TIP3    H118092   1.503   4.952   2.376
 6045TIP3    H218093   1.633   4.938   2.452
 6046TIP3   OH218094   3.810   4.438   3.676
 6046TIP3    H118095   3.866   4.455   3.600
 6046TIP3    H218096   3.765   4.521   3.691
 6047TIP3   OH218097   7.537   0.592   5.945
 6047TIP3    H118098   7.514   0.563   6.033
 6047TIP3    H218099   7.596   0.524   5.912
 6048TIP3   OH218100   5.739   4.610   2.021
 6048TIP3    H118101   5.794   4.532   2.018
 6048TIP3    H218102   5.702   4.618   1.933
 6049TIP3   OH218103   5.253   5.584   2.006
 6049TIP3    H118104   5.170   5.558   2.046
 6049TIP3    H218105   5.316   5.520   2.039
 6050TIP3   OH218106   1.434   7.589   5.183
 6050TIP3    H118107   1.351   7.560   5.220
 6050TIP3    H218108   1.501   7.543   5.233
 6051TIP3   OH218109   6.662   4.235   3.575
 6051TIP3    H118110   6.674   4.272   3.487
 6051TIP3    H218111   6.584   4.180   3.568
 6052TIP3   OH218112   5.248   7.673   2.805
 6052TIP3    H118113   5.224   7.582   2.787
 6052TIP3    H218114   5.186   7.701   2.873
 6053TIP3   OH218115   5.738   4.834   5.761
 6053TIP3    H118116   5.785   4.755   5.737
 6053TIP3    H218117   5.804   4.889   5.803
 6054TIP3   OH218118   7.704   0.377   6.720
 6054TIP3    H118119   7.679   0.463   6.688
 6054TIP3    H218120   7.697   0.320   6.643
 6055TIP3   OH218121   4.692   4.284   6.406
 6055TIP3    H118122   4.631   4.300   6.478
 6055TIP3    H218123   4.657   4.337   6.333
 6056TIP3   OH218124   4.452   5.455   4.075
 6056TIP3    H118125   4.514   5.508   4.025
 6056TIP3    H218126   4.477   5.365   4.057
 6057TIP3   OH218127   4.246   0.139   0.911
 6057TIP3    H118128   4.246   0.043   0.905
 6057TIP3    H218129   4.325   0.160   0.961
 6058TIP3   OH218130   1.036   1.500   0.734
 6058TIP3    H118131   1.084   1.468   0.659
 6058TIP3    H218132   1.095   1.564   0.775
 6059TIP3   OH218133   4.754   0.967   1.082
 6059TIP3    H118134   4.840   0.939   1.051
 6059TIP3    H218135   4.755   0.950   1.176
 6060TIP3   OH218136   4.605   7.002   2.263
 6060TIP3    H118137   4.542   6.950   2.214
 6060TIP3    H218138   4.552   7.057   2.320
 6061TIP3   OH218139   4.759   3.225   0.787
 6061TIP3    H118140   4.823   3.201   0.720
 6061TIP3    H218141   4.740   3.142   0.832
 6062TIP3   OH218142   0.121   0.338   5.300
 6062TIP3    H118143   0.111   0.254   5.343
 6062TIP3    H218144   0.032   0.366   5.279
 6063TIP3   OH218145   6.961   0.509   1.810
 6063TIP3    H118146   6.967   0.519   1.905
 6063TIP3    H218147   6.941   0.597   1.778
 6064TIP3   OH218148   7.326   3.370   4.826
 6064TIP3    H118149   7.378   3.352   4.748
 6064TIP3    H218150   7.348   3.299   4.887
 6065TIP3   OH218151   3.072   4.054   5.596
 6065TIP3    H118152   3.150   3.999   5.599
 6065TIP3    H218153   3.081   4.104   5.515
 6066TIP3   OH218154   1.433   3.046   5.343
 6066TIP3    H118155   1.490   2.999   5.404
 6066TIP3    H218156   1.490   3.111   5.302
 6067TIP3   OH218157   3.940   3.456   0.950
 6067TIP3    H118158   3.939   3.454   1.046
 6067TIP3    H218159   3.963   3.546   0.928
 6068TIP3   OH218160   3.543   1.163   2.747
 6068TIP3    H118161   3.607   1.232   2.727
 6068TIP3    H218162   3.508   1.137   2.662
 6069TIP3   OH218163   7.909   5.480   5.664
 6069TIP3    H118164   8.000   5.479   5.634
 6069TIP3    H218165   7.893   5.391   5.696
 6070TIP3   OH218166   4.327   3.562   6.702
 6070TIP3    H118167   4.357   3.651   6.687
 6070TIP3    H218168   4.372   3.510   6.634
 6071TIP3   OH218169   2.870   5.658   5.512
 6071TIP3    H118170   2.933   5.618   5.573
 6071TIP3    H218171   2.858   5.592   5.444
 6072TIP3   OH218172   4.482   2.276   4.404
 6072TIP3    H118173   4.480   2.371   4.390
 6072TIP3    H218174   4.492   2.266   4.499
 6073TIP3   OH218175   8.020   0.303   4.739
 6073TIP3    H118176   8.040   0.246   4.813
 6073TIP3    H218177   8.036   0.392   4.772
 6074TIP3   OH218178   1.801   5.628   5.616
 6074TIP3    H118179   1.744   5.704   5.619
 6074TIP3    H218180   1.747   5.556   5.650
 6075TIP3   OH218181   2.365   0.517   3.727
 6075TIP3    H118182   2.420   0.439   3.714
 6075TIP3    H218183   2.307   0.493   3.800
 6076TIP3   OH218184   1.321   2.295   3.566
 6076TIP3    H118185   1.244   2.347   3.588
 6076TIP3    H218186   1.381   2.309   3.640
 6077TIP3   OH218187   0.096   3.518   3.336
 6077TIP3    H118188   0.131   3.532   3.248
 6077TIP3    H218189   0.002   3.506   3.323
 6078TIP3   OH218190   2.764   2.649   4.648
 6078TIP3    H118191   2.841   2.632   4.594
 6078TIP3    H218192   2.789   2.722   4.704
 6079TIP3   OH218193   4.326   0.821   1.459
 6079TIP3    H118194   4.377   0.896   1.428
 6079TIP3    H218195   4.243   0.858   1.488
 6080TIP3   OH218196   7.332   6.672   0.565
 6080TIP3    H118197   7.352   6.578   0.557
 6080TIP3    H218198   7.389   6.714   0.501
 6081TIP3   OH218199   3.755   6.329   4.265
 6081TIP3    H118200   3.699   6.251   4.277
 6081TIP3    H218201   3.785   6.322   4.174
 6082TIP3   OH218202   0.148   5.566   5.181
 6082TIP3    H118203   0.196   5.522   5.252
 6082TIP3    H218204   0.182   5.527   5.101
 6083TIP3   OH218205   4.218   4.567   4.273
 6083TIP3    H118206   4.242   4.641   4.218
 6083TIP3    H218207   4.286   4.565   4.341
 6084TIP3   OH218208   8.160   4.701   4.929
 6084TIP3    H118209   8.138   4.621   4.881
 6084TIP3    H218210   8.149   4.771   4.864
 6085TIP3   OH218211   6.505   1.993   6.109
 6085TIP3    H118212   6.423   2.013   6.155
 6085TIP3    H218213   6.521   2.070   6.055
 6086TIP3   OH218214   3.271   5.734   4.978
 6086TIP3    H118215   3.246   5.646   5.005
 6086TIP3    H218216   3.341   5.758   5.037
 6087TIP3   OH218217   7.783   3.284   6.741
 6087TIP3    H118218   7.783   3.361   6.799
 6087TIP3    H218219   7.731   3.311   6.665
 6088TIP3   OH218220   5.321   6.217   2.038
 6088TIP3    H118221   5.392   6.180   2.091
 6088TIP3    H218222   5.259   6.251   2.102
 6089TIP3   OH218223   5.888   2.187   0.321
 6089TIP3    H118224   5.946   2.111   0.324
 6089TIP3    H218225   5.801   2.151   0.304
 6090TIP3   OH218226   7.743   1.320   4.610
 6090TIP3    H118227   7.788   1.325   4.526
 6090TIP3    H218228   7.718   1.411   4.629
 6091TIP3   OH218229   5.849   3.474   4.133
 6091TIP3    H118230   5.940   3.474   4.103
 6091TIP3    H218231   5.843   3.550   4.191
 6092TIP3   OH218232   2.351   6.737   1.085
 6092TIP3    H118233   2.364   6.708   1.175
 6092TIP3    H218234   2.436   6.772   1.058
 6093TIP3   OH218235   5.045   7.073   0.369
 6093TIP3    H118236   5.073   7.147   0.423
 6093TIP3    H218237   5.093   6.998   0.404
 6094TIP3   OH218238   5.395   3.353   0.226
 6094TIP3    H118239   5.308   3.378   0.197
 6094TIP3    H218240   5.393   3.362   0.321
 6095TIP3   OH218241   3.917   1.412   6.255
 6095TIP3    H118242   3.971   1.369   6.321
 6095TIP3    H218243   3.964   1.492   6.233
 6096TIP3   OH218244   0.042   6.391   6.317
 6096TIP3    H118245   0.046   6.299   6.289
 6096TIP3    H218246   0.103   6.396   6.391
 6097TIP3   OH218247   7.558   6.690   4.669
 6097TIP3    H118248   7.469   6.671   4.698
 6097TIP3    H218249   7.585   6.613   4.620
 6098TIP3   OH218250   0.492   7.743   2.696
 6098TIP3    H118251   0.529   7.798   2.765
 6098TIP3    H218252   0.513   7.789   2.615
 6099TIP3   OH218253   0.804   6.143   4.588
 6099TIP3    H118254   0.752   6.122   4.511
 6099TIP3    H218255   0.748   6.198   4.642
 6100TIP3   OH218256   1.855   4.825   4.023
 6100TIP3    H118257   1.888   4.741   3.991
 6100TIP3    H218258   1.760   4.811   4.033
 6101TIP3   OH218259   7.613   7.145   1.838
 6101TIP3    H118260   7.541   7.094   1.802
 6101TIP3    H218261   7.687   7.128   1.779
 6102TIP3   OH218262   8.021   7.261   1.103
 6102TIP3    H118263   8.058   7.313   1.173
 6102TIP3    H218264   7.974   7.324   1.048
 6103TIP3   OH218265   5.724   5.294   0.736
 6103TIP3    H118266   5.708   5.373   0.683
 6103TIP3    H218267   5.816   5.274   0.721
 6104TIP3   OH218268   1.130   1.177   3.053
 6104TIP3    H118269   1.085   1.200   3.134
 6104TIP3    H218270   1.106   1.246   2.991
 6105TIP3   OH218271   3.169   2.566   6.066
 6105TIP3    H118272   3.232   2.493   6.067
 6105TIP3    H218273   3.221   2.643   6.087
 6106TIP3   OH218274   4.748   5.136   0.543
 6106TIP3    H118275   4.793   5.102   0.466
 6106TIP3    H218276   4.800   5.105   0.617
 6107TIP3   OH218277   5.373   3.116   4.259
 6107TIP3    H118278   5.396   3.151   4.173
 6107TIP3    H218279   5.360   3.022   4.244
 6108TIP3   OH218280   0.774   1.635   2.332
 6108TIP3    H118281   0.762   1.649   2.238
 6108TIP3    H218282   0.856   1.585   2.338
 6109TIP3   OH218283   7.311   1.144   1.652
 6109TIP3    H118284   7.260   1.196   1.590
 6109TIP3    H218285   7.246   1.103   1.708
 6110TIP3   OH218286   4.685   2.677   5.619
 6110TIP3    H118287   4.602   2.711   5.654
 6110TIP3    H218288   4.660   2.604   5.562
 6111TIP3   OH218289   3.020   1.320   6.656
 6111TIP3    H118290   2.975   1.405   6.662
 6111TIP3    H218291   3.104   1.334   6.699
 6112TIP3   OH218292   5.474   5.264   5.540
 6112TIP3    H118293   5.553   5.278   5.592
 6112TIP3    H218294   5.492   5.309   5.457
 6113TIP3   OH218295   1.024   5.619   4.126
 6113TIP3    H118296   1.055   5.528   4.125
 6113TIP3    H218297   0.931   5.612   4.146
 6114TIP3   OH218298   4.045   0.580   1.690
 6114TIP3    H118299   3.960   0.618   1.666
 6114TIP3    H218300   4.095   0.581   1.608
 6115TIP3   OH218301   6.114   7.258   1.397
 6115TIP3    H118302   6.177   7.320   1.435
 6115TIP3    H218303   6.149   7.172   1.421
 6116TIP3   OH218304   2.253   1.493   5.173
 6116TIP3    H118305   2.218   1.487   5.262
 6116TIP3    H218306   2.198   1.559   5.130
 6117TIP3   OH218307   2.566   1.911   6.377
 6117TIP3    H118308   2.520   1.992   6.354
 6117TIP3    H218309   2.576   1.916   6.472
 6118TIP3   OH218310   5.113   7.639   6.154
 6118TIP3    H118311   5.118   7.717   6.099
 6118TIP3    H218312   5.125   7.566   6.093
 6119TIP3   OH218313   6.466   2.578   2.068
 6119TIP3    H118314   6.521   2.579   2.146
 6119TIP3    H218315   6.434   2.488   2.063
 6120TIP3   OH218316   3.125   0.229   4.326
 6120TIP3    H118317   3.188   0.183   4.270
 6120TIP3    H218318   3.039   0.200   4.295
 6121TIP3   OH218319   6.947   1.111   4.194
 6121TIP3    H118320   6.936   1.166   4.116
 6121TIP3    H218321   6.867   1.059   4.197
 6122TIP3   OH218322   7.214   3.560   4.240
 6122TIP3    H118323   7.155   3.634   4.256
 6122TIP3    H218324   7.162   3.483   4.265
 6123TIP3   OH218325   4.384   7.501   5.244
 6123TIP3    H118326   4.397   7.591   5.215
 6123TIP3    H218327   4.368   7.507   5.338
 6124TIP3   OH218328   7.714   0.286   0.673
 6124TIP3    H118329   7.713   0.372   0.714
 6124TIP3    H218330   7.805   0.271   0.649
 6125TIP3   OH218331   1.586   5.886   5.246
 6125TIP3    H118332   1.653   5.819   5.261
 6125TIP3    H218333   1.544   5.898   5.331
 6126TIP3   OH218334   4.843   1.093   1.896
 6126TIP3    H118335   4.833   1.188   1.895
 6126TIP3    H218336   4.768   1.060   1.847
 6127TIP3   OH218337   6.594   0.048   2.642
 6127TIP3    H118338   6.565   0.121   2.697
 6127TIP3    H218339   6.687   0.062   2.630
 6128TIP3   OH218340   3.088   3.016   0.818
 6128TIP3    H118341   2.999   3.049   0.809
 6128TIP3    H218342   3.136   3.085   0.863
 6129TIP3   OH218343   6.974   3.587   4.467
 6129TIP3    H118344   6.979   3.491   4.463
 6129TIP3    H218345   6.883   3.607   4.441
 6130TIP3   OH218346   1.177   0.173   1.820
 6130TIP3    H118347   1.228   0.120   1.881
 6130TIP3    H218348   1.226   0.169   1.738
 6131TIP3   OH218349   7.817   0.627   5.256
 6131TIP3    H118350   7.887   0.691   5.243
 6131TIP3    H218351   7.784   0.646   5.344
 6132TIP3   OH218352   0.665   2.950   3.389
 6132TIP3    H118353   0.711   2.983   3.467
 6132TIP3    H218354   0.671   3.021   3.325
 6133TIP3   OH218355   3.439   0.714   0.708
 6133TIP3    H118356   3.482   0.675   0.632
 6133TIP3    H218357   3.496   0.787   0.734
 6134TIP3   OH218358   6.345   2.493   3.907
 6134TIP3    H118359   6.360   2.588   3.903
 6134TIP3    H218360   6.383   2.467   3.991
 6135TIP3   OH218361   7.735   6.791   4.048
 6135TIP3    H118362   7.737   6.853   4.121
 6135TIP3    H218363   7.671   6.828   3.986
 6136TIP3   OH218364   6.162   4.192   0.309
 6136TIP3    H118365   6.089   4.246   0.338
 6136TIP3    H218366   6.174   4.127   0.378
 6137TIP3   OH218367   6.039   5.785   2.591
 6137TIP3    H118368   6.111   5.788   2.655
 6137TIP3    H218369   6.074   5.830   2.514
 6138TIP3   OH218370   7.677   4.882   3.861
 6138TIP3    H118371   7.608   4.819   3.838
 6138TIP3    H218372   7.756   4.829   3.870
 6139TIP3   OH218373   3.864   3.446   6.099
 6139TIP3    H118374   3.942   3.500   6.082
 6139TIP3    H218375   3.828   3.483   6.180
 6140TIP3   OH218376   7.173   4.268   2.004
 6140TIP3    H118377   7.161   4.355   1.965
 6140TIP3    H218378   7.101   4.216   1.970
 6141TIP3   OH218379   2.698   4.851   0.259
 6141TIP3    H118380   2.663   4.874   0.173
 6141TIP3    H218381   2.646   4.775   0.287
 6142TIP3   OH218382   7.722   1.133   3.084
 6142TIP3    H118383   7.809   1.156   3.053
 6142TIP3    H218384   7.727   1.144   3.179
 6143TIP3   OH218385   5.884   6.270   5.648
 6143TIP3    H118386   5.901   6.359   5.616
 6143TIP3    H218387   5.856   6.222   5.570
 6144TIP3   OH218388   2.611   0.965   1.186
 6144TIP3    H118389   2.532   0.929   1.226
 6144TIP3    H218390   2.644   0.895   1.129
 6145TIP3   OH218391   1.706   7.289   4.365
 6145TIP3    H118392   1.679   7.334   4.285
 6145TIP3    H218393   1.795   7.259   4.346
 6146TIP3   OH218394   2.254   0.833   4.820
 6146TIP3    H118395   2.178   0.780   4.796
 6146TIP3    H218396   2.319   0.770   4.850
 6147TIP3   OH218397   0.798   0.137   4.433
 6147TIP3    H118398   0.783   0.207   4.497
 6147TIP3    H218399   0.837   0.181   4.358
 6148TIP3   OH218400   4.481   0.654   0.908
 6148TIP3    H118401   4.437   0.581   0.865
 6148TIP3    H218402   4.574   0.637   0.895
 6149TIP3   OH218403   5.516   3.057   3.246
 6149TIP3    H118404   5.438   3.019   3.206
 6149TIP3    H218405   5.535   2.999   3.320
 6150TIP3   OH218406   8.009   5.379   1.470
 6150TIP3    H118407   7.977   5.450   1.414
 6150TIP3    H218408   8.101   5.401   1.487
 6151TIP3   OH218409   1.881   1.794   3.740
 6151TIP3    H118410   1.891   1.704   3.769
 6151TIP3    H218411   1.928   1.846   3.805
 6152TIP3   OH218412   1.030   6.515   2.333
 6152TIP3    H118413   0.970   6.471   2.273
 6152TIP3    H218414   1.017   6.470   2.417
 6153TIP3   OH218415   3.577   5.666   4.580
 6153TIP3    H118416   3.585   5.571   4.593
 6153TIP3    H218417   3.571   5.702   4.668
 6154TIP3   OH218418   3.943   1.456   2.122
 6154TIP3    H118419   4.021   1.401   2.129
 6154TIP3    H218420   3.869   1.396   2.128
 6155TIP3   OH218421   7.633   6.052   6.186
 6155TIP3    H118422   7.628   6.114   6.114
 6155TIP3    H218423   7.550   6.063   6.233
 6156TIP3   OH218424   7.933   6.148   1.074
 6156TIP3    H118425   7.864   6.178   1.132
 6156TIP3    H218426   8.007   6.206   1.092
 6157TIP3   OH218427   4.595   7.117   5.702
 6157TIP3    H118428   4.554   7.081   5.623
 6157TIP3    H218429   4.568   7.209   5.703
 6158TIP3   OH218430   1.172   0.042   5.216
 6158TIP3    H118431   1.174   0.134   5.190
 6158TIP3    H218432   1.166   0.044   5.311
 6159TIP3   OH218433   2.785   7.600   5.949
 6159TIP3    H118434   2.802   7.519   5.997
 6159TIP3    H218435   2.724   7.576   5.880
 6160TIP3   OH218436   1.955   3.209   2.268
 6160TIP3    H118437   1.949   3.187   2.361
 6160TIP3    H218438   2.030   3.157   2.236
 6161TIP3   OH218439   5.975   0.980   4.772
 6161TIP3    H118440   5.987   1.065   4.730
 6161TIP3    H218441   6.016   0.989   4.858
 6162TIP3   OH218442   1.317   1.018   6.354
 6162TIP3    H118443   1.235   0.985   6.391
 6162TIP3    H218444   1.357   1.069   6.424
 6163TIP3   OH218445   5.803   2.525   4.256
 6163TIP3    H118446   5.753   2.600   4.288
 6163TIP3    H218447   5.895   2.548   4.273
 6164TIP3   OH218448   6.307   6.919   0.824
 6164TIP3    H118449   6.263   6.855   0.880
 6164TIP3    H218450   6.297   7.002   0.869
 6165TIP3   OH218451   2.495   7.547   5.453
 6165TIP3    H118452   2.416   7.494   5.443
 6165TIP3    H218453   2.466   7.637   5.440
 6166TIP3   OH218454   1.486   5.488   3.570
 6166TIP3    H118455   1.559   5.524   3.620
 6166TIP3    H218456   1.433   5.565   3.548
 6167TIP3   OH218457   0.046   3.447   6.179
 6167TIP3    H118458   0.136   3.457   6.212
 6167TIP3    H218459   0.055   3.393   6.100
 6168TIP3   OH218460   6.976   4.632   1.558
 6168TIP3    H118461   6.926   4.636   1.476
 6168TIP3    H218462   7.000   4.722   1.576
 6169TIP3   OH218463   1.810   1.555   1.683
 6169TIP3    H118464   1.745   1.487   1.699
 6169TIP3    H218465   1.870   1.515   1.619
 6170TIP3   OH218466   6.752   5.135   0.588
 6170TIP3    H118467   6.754   5.099   0.500
 6170TIP3    H218468   6.761   5.230   0.576
 6171TIP3   OH218469   0.999   6.282   5.202
 6171TIP3    H118470   0.919   6.293   5.254
 6171TIP3    H218471   0.976   6.312   5.114
 6172TIP3   OH218472   3.295   4.002   6.674
 6172TIP3    H118473   3.354   3.943   6.627
 6172TIP3    H218474   3.207   3.976   6.646
 6173TIP3   OH218475   4.578   7.800   0.178
 6173TIP3    H118476   4.569   7.714   0.135
 6173TIP3    H218477   4.669   7.825   0.163
 6174TIP3   OH218478   2.537   2.241   0.875
 6174TIP3    H118479   2.493   2.300   0.813
 6174TIP3    H218480   2.611   2.206   0.825
 6175TIP3   OH218481   5.624   1.116   2.352
 6175TIP3    H118482   5.564   1.185   2.325
 6175TIP3    H218483   5.706   1.161   2.369
 6176TIP3   OH218484   0.256   6.345   3.243
 6176TIP3    H118485   0.349   6.359   3.261
 6176TIP3    H218486   0.212   6.414   3.294
 6177TIP3   OH218487   3.963   5.866   2.678
 6177TIP3    H118488   3.967   5.962   2.684
 6177TIP3    H218489   3.869   5.847   2.669
 6178TIP3   OH218490   3.324   1.530   4.513
 6178TIP3    H118491   3.376   1.495   4.441
 6178TIP3    H218492   3.365   1.493   4.592
 6179TIP3   OH218493   2.253   0.398   6.310
 6179TIP3    H118494   2.305   0.344   6.250
 6179TIP3    H218495   2.164   0.362   6.305
 6180TIP3   OH218496   2.295   3.672   3.275
 6180TIP3    H118497   2.302   3.667   3.180
 6180TIP3    H218498   2.307   3.765   3.295
 6181TIP3   OH218499   0.483   6.884   1.913
 6181TIP3    H118500   0.403   6.895   1.862
 6181TIP3    H218501   0.554   6.893   1.850
 6182TIP3   OH218502   1.029   2.826   2.880
 6182TIP3    H118503   1.033   2.739   2.919
 6182TIP3    H218504   1.118   2.844   2.852
 6183TIP3   OH218505   6.449   3.431   2.612
 6183TIP3    H118506   6.495   3.424   2.696
 6183TIP3    H218507   6.510   3.479   2.556
 6184TIP3   OH218508   1.842   7.861   2.918
 6184TIP3    H118509   1.768   7.804   2.942
 6184TIP3    H218510   1.919   7.805   2.929
 6185TIP3   OH218511   0.094   6.321   0.945
 6185TIP3    H118512   0.062   6.400   0.988
 6185TIP3    H218513   0.070   6.332   0.853
 6186TIP3   OH218514   4.197   2.490   4.043
 6186TIP3    H118515   4.123   2.461   4.096
 6186TIP3    H218516   4.238   2.560   4.094
 6187TIP3   OH218517   0.931   2.166   3.938
 6187TIP3    H118518   0.854   2.114   3.958
 6187TIP3    H218519   0.986   2.158   4.016
 6188TIP3   OH218520   1.613   2.236   0.440
 6188TIP3    H118521   1.554   2.302   0.475
 6188TIP3    H218522   1.675   2.220   0.511
 6189TIP3   OH218523   5.615   4.747   3.306
 6189TIP3    H118524   5.700   4.707   3.286
 6189TIP3    H218525   5.626   4.784   3.393
 6190TIP3   OH218526   3.943   1.656   2.471
 6190TIP3    H118527   4.017   1.596   2.473
 6190TIP3    H218528   3.870   1.603   2.437
 6191TIP3   OH218529   0.052   1.095   2.253
 6191TIP3    H118530   0.084   1.022   2.306
 6191TIP3    H218531  -0.038   1.107   2.283
 6192TIP3   OH218532   1.153   2.733   2.190
 6192TIP3    H118533   1.076   2.790   2.199
 6192TIP3    H218534   1.225   2.785   2.226
 6193TIP3   OH218535   0.267   0.121   5.081
 6193TIP3    H118536   0.319   0.163   5.149
 6193TIP3    H218537   0.314   0.040   5.060
 6194TIP3   OH218538   5.512   4.415   1.832
 6194TIP3    H118539   5.440   4.361   1.799
 6194TIP3    H218540   5.480   4.505   1.822
 6195TIP3   OH218541   4.908   1.220   5.890
 6195TIP3    H118542   4.991   1.265   5.875
 6195TIP3    H218543   4.895   1.223   5.985
 6196TIP3   OH218544   5.237   1.429   3.330
 6196TIP3    H118545   5.146   1.459   3.335
 6196TIP3    H218546   5.239   1.348   3.381
 6197TIP3   OH218547   8.270   1.767   0.284
 6197TIP3    H118548   8.255   1.710   0.208
 6197TIP3    H218549   8.190   1.761   0.335
 6198TIP3   OH218550   0.090   3.691   5.419
 6198TIP3    H118551   0.151   3.637   5.469
 6198TIP3    H218552   0.095   3.657   5.329
 6199TIP3   OH218553   4.084   4.515   4.718
 6199TIP3    H118554   4.166   4.536   4.674
 6199TIP3    H218555   4.075   4.581   4.786
 6200TIP3   OH218556   2.253   2.516   5.158
 6200TIP3    H118557   2.254   2.608   5.183
 6200TIP3    H218558   2.258   2.517   5.062
 6201TIP3   OH218559   3.965   0.036   5.933
 6201TIP3    H118560   3.946   0.116   5.981
 6201TIP3    H218561   4.045   0.001   5.974
 6202TIP3   OH218562   6.460   5.071   5.960
 6202TIP3    H118563   6.425   5.062   5.871
 6202TIP3    H218564   6.490   5.161   5.965
 6203TIP3   OH218565   3.698   1.301   1.715
 6203TIP3    H118566   3.665   1.365   1.652
 6203TIP3    H218567   3.792   1.315   1.717
 6204TIP3   OH218568   3.303   3.174   4.826
 6204TIP3    H118569   3.338   3.086   4.837
 6204TIP3    H218570   3.322   3.196   4.735
 6205TIP3   OH218571   7.968   5.353   3.732
 6205TIP3    H118572   7.967   5.277   3.789
 6205TIP3    H218573   7.895   5.407   3.763
 6206TIP3   OH218574   0.864   2.853   4.671
 6206TIP3    H118575   0.908   2.793   4.732
 6206TIP3    H218576   0.793   2.892   4.723
 6207TIP3   OH218577   7.864   3.535   6.494
 6207TIP3    H118578   7.907   3.538   6.408
 6207TIP3    H218579   7.901   3.609   6.542
 6208TIP3   OH218580   0.473   1.597   6.324
 6208TIP3    H118581   0.434   1.589   6.237
 6208TIP3    H218582   0.400   1.586   6.384
 6209TIP3   OH218583   2.339   6.291   6.605
 6209TIP3    H118584   2.316   6.298   6.513
 6209TIP3    H218585   2.294   6.366   6.646
 6210TIP3   OH218586   3.443   1.684   6.197
 6210TIP3    H118587   3.348   1.676   6.190
 6210TIP3    H218588   3.458   1.777   6.215
 6211TIP3   OH218589   7.290   5.098   2.800
 6211TIP3    H118590   7.252   5.026   2.849
 6211TIP3    H218591   7.274   5.175   2.854
 6212TIP3   OH218592   7.941   4.798   3.409
 6212TIP3    H118593   8.003   4.792   3.337
 6212TIP3    H218594   7.917   4.890   3.413
 6213TIP3   OH218595   4.823   5.804   6.692
 6213TIP3    H118596   4.855   5.761   6.613
 6213TIP3    H218597   4.811   5.732   6.755
 6214TIP3   OH218598   5.249   5.301   2.617
 6214TIP3    H118599   5.159   5.269   2.612
 6214TIP3    H218600   5.243   5.385   2.662
 6215TIP3   OH218601   3.402   5.966   4.627
 6215TIP3    H118602   3.326   5.912   4.649
 6215TIP3    H218603   3.373   6.056   4.643
 6216TIP3   OH218604   3.532   1.113   1.482
 6216TIP3    H118605   3.489   1.116   1.568
 6216TIP3    H218606   3.567   1.201   1.470
 6217TIP3   OH218607   0.978   5.644   5.483
 6217TIP3    H118608   0.890   5.630   5.517
 6217TIP3    H218609   1.010   5.720   5.531
 6218TIP3   OH218610   4.546   5.035   4.683
 6218TIP3    H118611   4.468   5.053   4.736
 6218TIP3    H218612   4.532   5.085   4.602
 6219TIP3   OH218613   7.805   5.735   5.786
 6219TIP3    H118614   7.806   5.640   5.786
 6219TIP3    H218615   7.896   5.760   5.801
 6220TIP3   OH218616   7.900   1.152   2.170
 6220TIP3    H118617   7.865   1.110   2.249
 6220TIP3    H218618   7.879   1.091   2.099
 6221TIP3   OH218619   6.368   4.812   3.344
 6221TIP3    H118620   6.390   4.862   3.422
 6221TIP3    H218621   6.444   4.821   3.287
 6222TIP3   OH218622   1.253   1.863   4.455
 6222TIP3    H118623   1.281   1.774   4.433
 6222TIP3    H218624   1.326   1.898   4.507
 6223TIP3   OH218625   1.480   1.841   1.220
 6223TIP3    H118626   1.395   1.798   1.205
 6223TIP3    H218627   1.545   1.773   1.204
 6224TIP3   OH218628   2.959   1.648   2.576
 6224TIP3    H118629   2.940   1.741   2.585
 6224TIP3    H218630   2.884   1.612   2.530
 6225TIP3   OH218631   2.194   2.226   2.829
 6225TIP3    H118632   2.278   2.250   2.789
 6225TIP3    H218633   2.167   2.147   2.782
 6226TIP3   OH218634   0.075   0.828   1.379
 6226TIP3    H118635   0.008   0.880   1.335
 6226TIP3    H218636   0.075   0.744   1.334
 6227TIP3   OH218637   0.146   3.529   0.193
 6227TIP3    H118638   0.133   3.482   0.110
 6227TIP3    H218639   0.211   3.596   0.172
 6228TIP3   OH218640   4.760   7.694   4.173
 6228TIP3    H118641   4.784   7.604   4.151
 6228TIP3    H218642   4.807   7.749   4.111
 6229TIP3   OH218643   7.869   6.820   0.322
 6229TIP3    H118644   7.803   6.772   0.272
 6229TIP3    H218645   7.819   6.890   0.366
 6230TIP3   OH218646   7.178   6.411   4.711
 6230TIP3    H118647   7.233   6.485   4.737
 6230TIP3    H218648   7.091   6.450   4.698
 6231TIP3   OH218649   0.072   1.447   1.393
 6231TIP3    H118650   0.050   1.414   1.307
 6231TIP3    H218651   0.014   1.522   1.406
 6232TIP3   OH218652   0.052   5.355   5.815
 6232TIP3    H118653   0.144   5.338   5.833
 6232TIP3    H218654   0.047   5.364   5.720
 6233TIP3   OH218655   4.864   0.324   6.287
 6233TIP3    H118656   4.881   0.247   6.233
 6233TIP3    H218657   4.947   0.372   6.287
 6234TIP3   OH218658   6.858   1.712   3.436
 6234TIP3    H118659   6.771   1.727   3.473
 6234TIP3    H218660   6.900   1.650   3.496
 6235TIP3   OH218661   3.607   2.194   6.706
 6235TIP3    H118662   3.542   2.166   6.770
 6235TIP3    H218663   3.654   2.266   6.748
 6236TIP3   OH218664   2.246   3.392   0.736
 6236TIP3    H118665   2.289   3.404   0.820
 6236TIP3    H218666   2.184   3.320   0.751
 6237TIP3   OH218667   0.819   6.195   0.047
 6237TIP3    H118668   0.906   6.204   0.086
 6237TIP3    H218669   0.770   6.140   0.108
 6238TIP3   OH218670   3.159   4.698   3.561
 6238TIP3    H118671   3.237   4.648   3.539
 6238TIP3    H218672   3.087   4.635   3.552
 6239TIP3   OH218673   7.207   0.476   4.759
 6239TIP3    H118674   7.155   0.512   4.830
 6239TIP3    H218675   7.292   0.457   4.799
 6240TIP3   OH218676   6.386   7.455   4.450
 6240TIP3    H118677   6.402   7.548   4.465
 6240TIP3    H218678   6.313   7.452   4.388
 6241TIP3   OH218679   5.142   1.649   5.856
 6241TIP3    H118680   5.155   1.708   5.931
 6241TIP3    H218681   5.227   1.649   5.811
 6242TIP3   OH218682   5.418   2.136   5.953
 6242TIP3    H118683   5.513   2.121   5.951
 6242TIP3    H218684   5.391   2.133   5.861
 6243TIP3   OH218685   7.302   5.039   5.608
 6243TIP3    H118686   7.336   5.064   5.695
 6243TIP3    H218687   7.265   4.952   5.621
 6244TIP3   OH218688   2.125   0.211   3.620
 6244TIP3    H118689   2.090   0.133   3.578
 6244TIP3    H218690   2.113   0.281   3.556
 6245TIP3   OH218691   3.320   6.172   5.658
 6245TIP3    H118692   3.362   6.233   5.597
 6245TIP3    H218693   3.362   6.189   5.742
 6246TIP3   OH218694   4.990   1.680   4.053
 6246TIP3    H118695   4.923   1.613   4.044
 6246TIP3    H218696   5.045   1.650   4.125
 6247TIP3   OH218697   4.965   2.287   3.415
 6247TIP3    H118698   4.933   2.375   3.393
 6247TIP3    H218699   4.887   2.241   3.446
 6248TIP3   OH218700   4.407   2.802   0.520
 6248TIP3    H118701   4.422   2.889   0.558
 6248TIP3    H218702   4.312   2.798   0.508
 6249TIP3   OH218703   2.817   5.117   1.961
 6249TIP3    H118704   2.768   5.036   1.943
 6249TIP3    H218705   2.794   5.139   2.051
 6250TIP3   OH218706   8.115   3.019   3.606
 6250TIP3    H118707   8.060   2.945   3.580
 6250TIP3    H218708   8.055   3.080   3.649
 6251TIP3   OH218709   3.418   7.260   6.518
 6251TIP3    H118710   3.446   7.245   6.428
 6251TIP3    H218711   3.328   7.228   6.521
 6252TIP3   OH218712   6.243   0.197   6.544
 6252TIP3    H118713   6.163   0.152   6.571
 6252TIP3    H218714   6.239   0.198   6.448
 6253TIP3   OH218715   2.014   4.306   4.690
 6253TIP3    H118716   1.991   4.245   4.621
 6253TIP3    H218717   1.962   4.384   4.673
 6254TIP3   OH218718   7.191   0.955   3.485
 6254TIP3    H118719   7.132   0.990   3.419
 6254TIP3    H218720   7.274   1.000   3.469
 6255TIP3   OH218721   3.183   6.379   0.736
 6255TIP3    H118722   3.176   6.284   0.731
 6255TIP3    H218723   3.273   6.395   0.765
 6256TIP3   OH218724   3.080   2.338   2.391
 6256TIP3    H118725   3.147   2.295   2.338
 6256TIP3    H218726   3.118   2.340   2.479
 6257TIP3   OH218727   2.320   0.631   5.930
 6257TIP3    H118728   2.351   0.717   5.960
 6257TIP3    H218729   2.291   0.588   6.010
 6258TIP3   OH218730   0.650   5.177   6.226
 6258TIP3    H118731   0.557   5.158   6.218
 6258TIP3    H218732   0.654   5.272   6.238
 6259TIP3   OH218733   5.420   4.502   4.588
 6259TIP3    H118734   5.434   4.588   4.628
 6259TIP3    H218735   5.353   4.461   4.643
 6260TIP3   OH218736   2.718   6.744   3.757
 6260TIP3    H118737   2.769   6.763   3.837
 6260TIP3    H218738   2.651   6.683   3.786
 6261TIP3   OH218739   5.269   3.485   3.684
 6261TIP3    H118740   5.213   3.438   3.621
 6261TIP3    H218741   5.262   3.577   3.658
 6262TIP3   OH218742   0.181   0.745   0.181
 6262TIP3    H118743   0.100   0.742   0.131
 6262TIP3    H218744   0.153   0.743   0.273
 6263TIP3   OH218745   6.911   0.270   4.697
 6263TIP3    H118746   6.900   0.365   4.686
 6263TIP3    H218747   6.957   0.261   4.780
 6264TIP3   OH218748   7.776   5.872   3.964
 6264TIP3    H118749   7.743   5.837   3.882
 6264TIP3    H218750   7.871   5.876   3.952
 6265TIP3   OH218751   6.799   2.375   2.909
 6265TIP3    H118752   6.853   2.332   2.975
 6265TIP3    H218753   6.845   2.362   2.826
 6266TIP3   OH218754   6.111   2.995   3.361
 6266TIP3    H118755   6.170   2.942   3.415
 6266TIP3    H218756   6.030   2.945   3.358
 6267TIP3   OH218757   6.802   1.909   0.428
 6267TIP3    H118758   6.782   1.908   0.522
 6267TIP3    H218759   6.875   1.971   0.420
 6268TIP3   OH218760   2.050   5.152   5.649
 6268TIP3    H118761   1.964   5.191   5.633
 6268TIP3    H218762   2.111   5.207   5.600
 6269TIP3   OH218763   2.774   1.920   0.966
 6269TIP3    H118764   2.861   1.883   0.980
 6269TIP3    H218765   2.772   1.999   1.019
 6270TIP3   OH218766   7.744   7.686   1.371
 6270TIP3    H118767   7.806   7.634   1.423
 6270TIP3    H218768   7.742   7.771   1.414
 6271TIP3   OH218769   4.722   0.622   6.415
 6271TIP3    H118770   4.643   0.595   6.370
 6271TIP3    H218771   4.731   0.561   6.488
 6272TIP3   OH218772   5.554   0.327   5.894
 6272TIP3    H118773   5.495   0.259   5.927
 6272TIP3    H218774   5.516   0.355   5.811
 6273TIP3   OH218775   0.580   0.226   6.165
 6273TIP3    H118776   0.498   0.177   6.168
 6273TIP3    H218777   0.573   0.288   6.237
 6274TIP3   OH218778   7.921   7.150   5.309
 6274TIP3    H118779   7.915   7.062   5.271
 6274TIP3    H218780   7.843   7.195   5.275
 6275TIP3   OH218781   0.996   5.871   3.450
 6275TIP3    H118782   1.063   5.938   3.461
 6275TIP3    H218783   1.038   5.790   3.477
 6276TIP3   OH218784   3.414   2.681   1.787
 6276TIP3    H118785   3.415   2.596   1.743
 6276TIP3    H218786   3.433   2.662   1.878
 6277TIP3   OH218787   3.977   3.784   2.926
 6277TIP3    H118788   3.928   3.825   2.854
 6277TIP3    H218789   4.003   3.858   2.981
 6278TIP3   OH218790   3.607   3.163   3.016
 6278TIP3    H118791   3.680   3.101   3.019
 6278TIP3    H218792   3.569   3.159   3.104
 6279TIP3   OH218793   4.026   6.715   1.713
 6279TIP3    H118794   3.980   6.666   1.645
 6279TIP3    H218795   3.973   6.794   1.726
 6280TIP3   OH218796   6.169   5.377   1.220
 6280TIP3    H118797   6.221   5.445   1.263
 6280TIP3    H218798   6.105   5.351   1.286
 6281TIP3   OH218799   1.487   2.719   6.670
 6281TIP3    H118800   1.440   2.664   6.607
 6281TIP3    H218801   1.435   2.799   6.674
 6282TIP3   OH218802   2.002   7.607   0.426
 6282TIP3    H118803   1.958   7.667   0.366
 6282TIP3    H218804   2.082   7.653   0.452
 6283TIP3   OH218805   1.222   1.258   2.429
 6283TIP3    H118806   1.147   1.199   2.438
 6283TIP3    H218807   1.279   1.235   2.503
 6284TIP3   OH218808   0.628   1.023   1.364
 6284TIP3    H118809   0.632   0.929   1.343
 6284TIP3    H218810   0.566   1.029   1.437
 6285TIP3   OH218811   3.119   4.909   5.324
 6285TIP3    H118812   3.171   4.950   5.255
 6285TIP3    H218813   3.176   4.843   5.362
 6286TIP3   OH218814   7.632   2.274   1.525
 6286TIP3    H118815   7.651   2.204   1.463
 6286TIP3    H218816   7.546   2.252   1.560
 6287TIP3   OH218817   7.964   6.654   5.522
 6287TIP3    H118818   7.886   6.701   5.492
 6287TIP3    H218819   8.014   6.720   5.571
 6288TIP3   OH218820   5.811   6.826   1.779
 6288TIP3    H118821   5.823   6.737   1.811
 6288TIP3    H218822   5.876   6.836   1.710
 6289TIP3   OH218823   7.988   2.266   6.200
 6289TIP3    H118824   8.044   2.237   6.128
 6289TIP3    H218825   7.974   2.359   6.185
 6290TIP3   OH218826   7.547   1.386   2.794
 6290TIP3    H118827   7.627   1.399   2.742
 6290TIP3    H218828   7.477   1.382   2.729
 6291TIP3   OH218829   4.242   7.557   4.286
 6291TIP3    H118830   4.236   7.649   4.313
 6291TIP3    H218831   4.335   7.540   4.280
 6292TIP3   OH218832   2.467   0.485   4.635
 6292TIP3    H118833   2.462   0.391   4.623
 6292TIP3    H218834   2.521   0.516   4.563
 6293TIP3   OH218835   3.601   4.613   0.271
 6293TIP3    H118836   3.622   4.676   0.340
 6293TIP3    H218837   3.623   4.528   0.308
 6294TIP3   OH218838   5.349   2.687   0.548
 6294TIP3    H118839   5.292   2.716   0.476
 6294TIP3    H218840   5.304   2.611   0.584
 6295TIP3   OH218841   1.093   6.350   4.080
 6295TIP3    H118842   1.002   6.338   4.110
 6295TIP3    H218843   1.127   6.261   4.071
 6296TIP3   OH218844   4.646   7.410   3.999
 6296TIP3    H118845   4.617   7.494   4.034
 6296TIP3    H218846   4.574   7.381   3.943
 6297TIP3   OH218847   7.526   4.166   5.638
 6297TIP3    H118848   7.513   4.256   5.606
 6297TIP3    H218849   7.514   4.111   5.560
 6298TIP3   OH218850   2.198   5.720   0.638
 6298TIP3    H118851   2.275   5.757   0.596
 6298TIP3    H218852   2.212   5.626   0.636
 6299TIP3   OH218853   5.392   1.712   1.084
 6299TIP3    H118854   5.432   1.749   1.163
 6299TIP3    H218855   5.366   1.624   1.110
 6300TIP3   OH218856   4.226   0.755   5.491
 6300TIP3    H118857   4.255   0.816   5.424
 6300TIP3    H218858   4.214   0.809   5.569
 6301TIP3   OH218859   2.505   0.000   0.278
 6301TIP3    H118860   2.496   0.081   0.227
 6301TIP3    H218861   2.440   0.010   0.348
 6302TIP3   OH218862   6.070   1.144   3.983
 6302TIP3    H118863   6.101   1.231   3.959
 6302TIP3    H218864   6.099   1.133   4.073
 6303TIP3   OH218865   0.636   4.813   4.781
 6303TIP3    H118866   0.639   4.724   4.815
 6303TIP3    H218867   0.543   4.835   4.780
 6304TIP3   OH218868   1.442   2.987   3.408
 6304TIP3    H118869   1.415   2.917   3.349
 6304TIP3    H218870   1.361   3.034   3.428
 6305TIP3   OH218871   5.463   0.812   0.935
 6305TIP3    H118872   5.465   0.774   0.848
 6305TIP3    H218873   5.421   0.897   0.924
 6306TIP3   OH218874   7.986   0.995   6.335
 6306TIP3    H118875   7.920   0.935   6.300
 6306TIP3    H218876   7.940   1.077   6.351
 6307TIP3   OH218877   5.327   6.355   5.357
 6307TIP3    H118878   5.415   6.326   5.383
 6307TIP3    H218879   5.268   6.310   5.418
 6308TIP3   OH218880   5.613   0.705   1.408
 6308TIP3    H118881   5.528   0.661   1.405
 6308TIP3    H218882   5.600   0.777   1.470
 6309TIP3   OH218883   2.671   0.599   6.440
 6309TIP3    H118884   2.713   0.590   6.354
 6309TIP3    H218885   2.731   0.555   6.500
 6310TIP3   OH218886   7.448   5.391   0.691
 6310TIP3    H118887   7.432   5.431   0.606
 6310TIP3    H218888   7.467   5.299   0.672
 6311TIP3   OH218889   3.445   3.510   4.067
 6311TIP3    H118890   3.443   3.485   3.975
 6311TIP3    H218891   3.380   3.580   4.075
 6312TIP3   OH218892   2.865   4.550   5.692
 6312TIP3    H118893   2.828   4.463   5.708
 6312TIP3    H218894   2.891   4.548   5.600
 6313TIP3   OH218895   5.670   6.839   4.999
 6313TIP3    H118896   5.717   6.777   4.943
 6313TIP3    H218897   5.619   6.892   4.937
 6314TIP3   OH218898   5.523   2.628   6.049
 6314TIP3    H118899   5.579   2.663   6.119
 6314TIP3    H218900   5.487   2.706   6.006
 6315TIP3   OH218901   3.584   3.993   2.617
 6315TIP3    H118902   3.544   3.952   2.541
 6315TIP3    H218903   3.595   4.085   2.592
 6316TIP3   OH218904   1.108   3.384   3.987
 6316TIP3    H118905   1.016   3.392   3.960
 6316TIP3    H218906   1.158   3.391   3.906
 6317TIP3   OH218907   5.052   4.362   5.288
 6317TIP3    H118908   4.980   4.302   5.306
 6317TIP3    H218909   5.055   4.419   5.365
 6318TIP3   OH218910   1.441   2.763   6.315
 6318TIP3    H118911   1.394   2.721   6.243
 6318TIP3    H218912   1.516   2.706   6.332
 6319TIP3   OH218913   2.645   4.257   5.426
 6319TIP3    H118914   2.693   4.235   5.346
 6319TIP3    H218915   2.710   4.251   5.496
 6320TIP3   OH218916   7.475   4.749   0.240
 6320TIP3    H118917   7.479   4.677   0.177
 6320TIP3    H218918   7.557   4.743   0.289
 6321TIP3   OH218919   2.595   1.510   1.796
 6321TIP3    H118920   2.608   1.495   1.703
 6321TIP3    H218921   2.543   1.435   1.826
 6322TIP3   OH218922   3.997   1.715   6.721
 6322TIP3    H118923   3.999   1.747   6.631
 6322TIP3    H218924   4.031   1.788   6.773
 6323TIP3   OH218925   4.291   0.345   1.566
 6323TIP3    H118926   4.379   0.363   1.597
 6323TIP3    H218927   4.235   0.357   1.643
 6324TIP3   OH218928   2.111   1.962   4.214
 6324TIP3    H118929   2.098   1.905   4.289
 6324TIP3    H218930   2.147   2.043   4.250
 6325TIP3   OH218931   8.126   0.699   6.260
 6325TIP3    H118932   8.110   0.637   6.331
 6325TIP3    H218933   8.046   0.752   6.257
 6326TIP3   OH218934   5.897   3.154   4.923
 6326TIP3    H118935   5.917   3.069   4.962
 6326TIP3    H218936   5.819   3.138   4.870
 6327TIP3   OH218937   3.388   1.546   1.399
 6327TIP3    H118938   3.317   1.572   1.458
 6327TIP3    H218939   3.390   1.614   1.332
 6328TIP3   OH218940   7.981   3.799   0.521
 6328TIP3    H118941   7.940   3.758   0.445
 6328TIP3    H218942   7.958   3.741   0.594
 6329TIP3   OH218943   2.397   7.493   1.446
 6329TIP3    H118944   2.486   7.478   1.413
 6329TIP3    H218945   2.358   7.554   1.384
 6330TIP3   OH218946   1.936   2.315   4.692
 6330TIP3    H118947   1.877   2.328   4.618
 6330TIP3    H218948   1.985   2.235   4.670
 6331TIP3   OH218949   3.884   0.591   4.715
 6331TIP3    H118950   3.873   0.496   4.719
 6331TIP3    H218951   3.891   0.611   4.622
 6332TIP3   OH218952   3.965   2.644   2.152
 6332TIP3    H118953   4.019   2.604   2.221
 6332TIP3    H218954   3.893   2.686   2.199
 6333TIP3   OH218955   5.919   5.359   3.538
 6333TIP3    H118956   5.890   5.271   3.513
 6333TIP3    H218957   5.947   5.399   3.456
 6334TIP3   OH218958   0.329   1.277   2.322
 6334TIP3    H118959   0.264   1.294   2.254
 6334TIP3    H218960   0.404   1.332   2.299
 6335TIP3   OH218961   1.578   2.526   0.243
 6335TIP3    H118962   1.557   2.588   0.313
 6335TIP3    H218963   1.594   2.443   0.288
 6336TIP3   OH218964   1.742   1.050   2.782
 6336TIP3    H118965   1.791   0.975   2.748
 6336TIP3    H218966   1.671   1.012   2.833
 6337TIP3   OH218967   2.432   6.747   2.226
 6337TIP3    H118968   2.419   6.814   2.159
 6337TIP3    H218969   2.485   6.790   2.293
 6338TIP3   OH218970   3.314   2.990   0.177
 6338TIP3    H118971   3.371   2.932   0.227
 6338TIP3    H218972   3.306   3.069   0.231
 6339TIP3   OH218973   0.188   3.276   3.665
 6339TIP3    H118974   0.117   3.212   3.663
 6339TIP3    H218975   0.232   3.267   3.580
 6340TIP3   OH218976   2.254   0.488   1.204
 6340TIP3    H118977   2.283   0.467   1.292
 6340TIP3    H218978   2.222   0.405   1.168
 6341TIP3   OH218979   3.177   4.448   2.662
 6341TIP3    H118980   3.147   4.517   2.721
 6341TIP3    H218981   3.133   4.369   2.694
 6342TIP3   OH218982   2.254   5.415   0.914
 6342TIP3    H118983   2.239   5.424   0.820
 6342TIP3    H218984   2.189   5.472   0.954
 6343TIP3   OH218985   3.059   2.466   1.614
 6343TIP3    H118986   3.039   2.512   1.533
 6343TIP3    H218987   3.106   2.530   1.667
 6344TIP3   OH218988   4.731   2.952   6.552
 6344TIP3    H118989   4.708   2.930   6.462
 6344TIP3    H218990   4.806   2.896   6.572
 6345TIP3   OH218991   5.581   7.593   6.104
 6345TIP3    H118992   5.523   7.596   6.028
 6345TIP3    H218993   5.621   7.506   6.101
 6346TIP3   OH218994   5.084   3.651   4.088
 6346TIP3    H118995   5.033   3.612   4.018
 6346TIP3    H218996   5.141   3.581   4.119
 6347TIP3   OH218997   2.015   2.374   5.100
 6347TIP3    H118998   2.094   2.407   5.144
 6347TIP3    H218999   1.959   2.452   5.090
 6348TIP3   OH219000   0.780   1.259   0.591
 6348TIP3    H119001   0.812   1.346   0.566
 6348TIP3    H219002   0.753   1.268   0.682
 6349TIP3   OH219003   0.265   2.545   2.905
 6349TIP3    H119004   0.223   2.461   2.925
 6349TIP3    H219005   0.238   2.602   2.978
 6350TIP3   OH219006   0.726   4.837   5.739
 6350TIP3    H119007   0.662   4.878   5.797
 6350TIP3    H219008   0.788   4.906   5.718
 6351TIP3   OH219009   0.925   7.594   4.237
 6351TIP3    H119010   1.004   7.541   4.230
 6351TIP3    H219011   0.912   7.606   4.331
 6352TIP3   OH219012   8.099   2.343   5.063
 6352TIP3    H119013   8.129   2.315   5.149
 6352TIP3    H219014   8.012   2.381   5.079
 6353TIP3   OH219015   1.494   3.679   0.097
 6353TIP3    H119016   1.433   3.651   0.028
 6353TIP3    H219017   1.467   3.769   0.118
 6354TIP3   OH219018   6.731   3.051   4.912
 6354TIP3    H119019   6.758   3.076   4.824
 6354TIP3    H219020   6.760   2.961   4.921
 6355TIP3   OH219021   7.138   4.792   6.225
 6355TIP3    H119022   7.053   4.826   6.252
 6355TIP3    H219023   7.153   4.716   6.281
 6356TIP3   OH219024   2.299   0.368   0.310
 6356TIP3    H119025   2.231   0.409   0.257
 6356TIP3    H219026   2.340   0.305   0.251
 6357TIP3   OH219027   2.212   4.471   0.877
 6357TIP3    H119028   2.269   4.522   0.819
 6357TIP3    H219029   2.171   4.406   0.819
 6358TIP3   OH219030   2.617   0.374   3.952
 6358TIP3    H119031   2.587   0.461   3.978
 6358TIP3    H219032   2.537   0.329   3.923
 6359TIP3   OH219033   5.824   0.086   5.028
 6359TIP3    H119034   5.838   0.058   4.937
 6359TIP3    H219035   5.760   0.156   5.021
 6360TIP3   OH219036   4.433   4.246   0.729
 6360TIP3    H119037   4.368   4.180   0.704
 6360TIP3    H219038   4.494   4.199   0.787
 6361TIP3   OH219039   2.484   2.024   5.826
 6361TIP3    H119040   2.407   2.009   5.880
 6361TIP3    H219041   2.501   1.939   5.784
 6362TIP3   OH219042   2.515   2.159   5.284
 6362TIP3    H119043   2.506   2.064   5.274
 6362TIP3    H219044   2.497   2.194   5.196
 6363TIP3   OH219045   2.663   6.086   6.576
 6363TIP3    H119046   2.727   6.024   6.542
 6363TIP3    H219047   2.579   6.040   6.570
 6364TIP3   OH219048   3.945   0.999   6.016
 6364TIP3    H119049   3.860   0.975   6.052
 6364TIP3    H219050   4.008   0.945   6.065
 6365TIP3   OH219051   7.971   3.632   1.281
 6365TIP3    H119052   7.891   3.682   1.293
 6365TIP3    H219053   8.027   3.659   1.354
 6366TIP3   OH219054   7.582   1.034   4.808
 6366TIP3    H119055   7.537   1.036   4.723
 6366TIP3    H219056   7.650   0.968   4.798
 6367TIP3   OH219057   5.070   4.473   3.712
 6367TIP3    H119058   5.073   4.383   3.743
 6367TIP3    H219059   4.991   4.509   3.752
 6368TIP3   OH219060   5.970   4.118   3.564
 6368TIP3    H119061   5.880   4.093   3.544
 6368TIP3    H219062   5.967   4.147   3.656
 6369TIP3   OH219063   5.855   7.124   2.455
 6369TIP3    H119064   5.799   7.134   2.532
 6369TIP3    H219065   5.816   7.182   2.390
 6370TIP3   OH219066   2.214   6.415   5.759
 6370TIP3    H119067   2.166   6.342   5.798
 6370TIP3    H219068   2.248   6.381   5.677
 6371TIP3   OH219069   0.189   5.638   6.073
 6371TIP3    H119070   0.128   5.705   6.044
 6371TIP3    H219071   0.274   5.668   6.042
 6372TIP3   OH219072   2.357   0.871   2.583
 6372TIP3    H119073   2.330   0.803   2.521
 6372TIP3    H219074   2.279   0.923   2.598
 6373TIP3   OH219075   5.202   0.142   4.210
 6373TIP3    H119076   5.256   0.064   4.200
 6373TIP3    H219077   5.265   0.212   4.231
 6374TIP3   OH219078   4.740   0.775   3.953
 6374TIP3    H119079   4.757   0.808   4.041
 6374TIP3    H219080   4.784   0.837   3.895
 6375TIP3   OH219081   3.272   4.626   4.648
 6375TIP3    H119082   3.284   4.686   4.574
 6375TIP3    H219083   3.362   4.606   4.676
 6376TIP3   OH219084   7.933   0.432   5.073
 6376TIP3    H119085   8.009   0.390   5.113
 6376TIP3    H219086   7.913   0.506   5.130
 6377TIP3   OH219087   3.312   7.669   4.952
 6377TIP3    H119088   3.362   7.714   4.883
 6377TIP3    H219089   3.227   7.653   4.912
 6378TIP3   OH219090   3.056   2.685   0.330
 6378TIP3    H119091   3.012   2.644   0.256
 6378TIP3    H219092   3.146   2.654   0.325
 6379TIP3   OH219093   5.746   0.476   1.497
 6379TIP3    H119094   5.841   0.482   1.499
 6379TIP3    H219095   5.716   0.567   1.495
 6380TIP3   OH219096   4.729   1.767   2.097
 6380TIP3    H119097   4.810   1.796   2.054
 6380TIP3    H219098   4.697   1.844   2.143
 6381TIP3   OH219099   6.268   5.291   0.833
 6381TIP3    H119100   6.285   5.370   0.884
 6381TIP3    H219101   6.342   5.283   0.774
 6382TIP3   OH219102   0.503   2.163   4.580
 6382TIP3    H119103   0.525   2.184   4.490
 6382TIP3    H219104   0.497   2.068   4.582
 6383TIP3   OH219105   1.564   3.286   4.101
 6383TIP3    H119106   1.559   3.257   4.009
 6383TIP3    H219107   1.545   3.207   4.152
 6384TIP3   OH219108   5.743   5.684   5.506
 6384TIP3    H119109   5.757   5.770   5.547
 6384TIP3    H219110   5.802   5.626   5.553
 6385TIP3   OH219111   3.254   6.402   6.484
 6385TIP3    H119112   3.250   6.496   6.500
 6385TIP3    H219113   3.270   6.395   6.390
 6386TIP3   OH219114   8.218   7.395   3.395
 6386TIP3    H119115   8.234   7.319   3.338
 6386TIP3    H219116   8.185   7.358   3.476
 6387TIP3   OH219117   6.665   6.253   5.402
 6387TIP3    H119118   6.646   6.249   5.308
 6387TIP3    H219119   6.656   6.163   5.432
 6388TIP3   OH219120   5.885   1.991   2.201
 6388TIP3    H119121   5.911   1.978   2.292
 6388TIP3    H219122   5.799   2.033   2.207
 6389TIP3   OH219123   5.892   7.150   3.351
 6389TIP3    H119124   5.813   7.125   3.302
 6389TIP3    H219125   5.866   7.227   3.400
 6390TIP3   OH219126   7.884   3.295   2.980
 6390TIP3    H119127   7.848   3.384   2.971
 6390TIP3    H219128   7.976   3.309   3.001
 6391TIP3   OH219129   1.654   0.623   2.656
 6391TIP3    H119130   1.575   0.656   2.699
 6391TIP3    H219131   1.624   0.591   2.571
 6392TIP3   OH219132   4.148   7.239   1.523
 6392TIP3    H119133   4.092   7.253   1.447
 6392TIP3    H219134   4.236   7.229   1.485
 6393TIP3   OH219135   3.006   7.127   2.739
 6393TIP3    H119136   2.987   7.206   2.790
 6393TIP3    H219137   3.000   7.156   2.648
 6394TIP3   OH219138   7.340   1.520   1.700
 6394TIP3    H119139   7.260   1.528   1.648
 6394TIP3    H219140   7.311   1.532   1.791
 6395TIP3   OH219141   7.770   3.112   6.428
 6395TIP3    H119142   7.724   3.040   6.470
 6395TIP3    H219143   7.732   3.191   6.466
 6396TIP3   OH219144   8.199   0.794   3.447
 6396TIP3    H119145   8.290   0.822   3.455
 6396TIP3    H219146   8.202   0.699   3.452
 6397TIP3   OH219147   5.892   2.016   1.466
 6397TIP3    H119148   5.848   1.998   1.383
 6397TIP3    H219149   5.862   2.104   1.490
 6398TIP3   OH219150   5.311   2.378   3.378
 6398TIP3    H119151   5.311   2.290   3.342
 6398TIP3    H219152   5.261   2.430   3.315
 6399TIP3   OH219153   4.672   5.930   0.903
 6399TIP3    H119154   4.667   5.897   0.992
 6399TIP3    H219155   4.622   6.011   0.904
 6400TIP3   OH219156   2.702  -0.014   5.051
 6400TIP3    H119157   2.667   0.070   5.023
 6400TIP3    H219158   2.773  -0.032   4.988
 6401TIP3   OH219159   6.022   7.801   0.150
 6401TIP3    H119160   6.089   7.735   0.132
 6401TIP3    H219161   6.018   7.853   0.070
 6402TIP3   OH219162   4.971   3.054   5.147
 6402TIP3    H119163   4.998   2.962   5.149
 6402TIP3    H219164   4.880   3.052   5.118
 6403TIP3   OH219165   6.026   0.653   1.799
 6403TIP3    H119166   6.044   0.747   1.799
 6403TIP3    H219167   6.057   0.623   1.885
 6404TIP3   OH219168   5.104   5.832   4.903
 6404TIP3    H119169   5.195   5.840   4.932
 6404TIP3    H219170   5.104   5.757   4.843
 6405TIP3   OH219171   3.541   7.182   5.488
 6405TIP3    H119172   3.630   7.162   5.519
 6405TIP3    H219173   3.554   7.218   5.400
 6406TIP3   OH219174   1.452   0.836   3.785
 6406TIP3    H119175   1.437   0.787   3.704
 6406TIP3    H219176   1.369   0.829   3.832
 6407TIP3   OH219177   7.031   7.203   5.348
 6407TIP3    H119178   7.030   7.290   5.387
 6407TIP3    H219179   7.070   7.216   5.261
 6408TIP3   OH219180   3.743   6.983   3.528
 6408TIP3    H119181   3.667   6.950   3.480
 6408TIP3    H219182   3.734   6.946   3.616
 6409TIP3   OH219183   7.140   2.603   5.344
 6409TIP3    H119184   7.136   2.695   5.372
 6409TIP3    H219185   7.205   2.602   5.274
 6410TIP3   OH219186   3.204   1.983   6.389
 6410TIP3    H119187   3.264   2.018   6.455
 6410TIP3    H219188   3.232   1.892   6.377
 6411TIP3   OH219189   6.253   3.083   0.576
 6411TIP3    H119190   6.205   3.001   0.571
 6411TIP3    H219191   6.237   3.126   0.492
 6412TIP3   OH219192   0.944   2.626   1.728
 6412TIP3    H119193   0.945   2.531   1.721
 6412TIP3    H219194   0.857   2.651   1.696
 6413TIP3   OH219195   4.515   2.259   4.664
 6413TIP3    H119196   4.422   2.236   4.665
 6413TIP3    H219197   4.528   2.308   4.745
 6414TIP3   OH219198   0.051   0.583   0.518
 6414TIP3    H119199   0.062   0.588   0.613
 6414TIP3    H219200  -0.019   0.645   0.498
 6415TIP3   OH219201   6.179   6.784   3.758
 6415TIP3    H119202   6.145   6.708   3.712
 6415TIP3    H219203   6.123   6.793   3.836
 6416TIP3   OH219204   2.854   4.235   2.439
 6416TIP3    H119205   2.866   4.292   2.363
 6416TIP3    H219206   2.818   4.293   2.507
 6417TIP3   OH219207   2.293   3.377   1.242
 6417TIP3    H119208   2.254   3.290   1.250
 6417TIP3    H219209   2.258   3.426   1.317
 6418TIP3   OH219210   0.211   5.117   0.291
 6418TIP3    H119211   0.249   5.203   0.273
 6418TIP3    H219212   0.197   5.078   0.205
 6419TIP3   OH219213   1.957   4.567   3.890
 6419TIP3    H119214   2.042   4.566   3.847
 6419TIP3    H219215   1.950   4.481   3.931
 6420TIP3   OH219216   0.743   0.132   3.320
 6420TIP3    H119217   0.766   0.134   3.413
 6420TIP3    H219218   0.824   0.153   3.274
 6421TIP3   OH219219   1.765   1.488   5.712
 6421TIP3    H119220   1.697   1.424   5.733
 6421TIP3    H219221   1.846   1.446   5.740
 6422TIP3   OH219222   5.166   5.702   0.278
 6422TIP3    H119223   5.108   5.630   0.257
 6422TIP3    H219224   5.199   5.683   0.366
 6423TIP3   OH219225   7.080   2.035   4.102
 6423TIP3    H119226   7.149   1.971   4.083
 6423TIP3    H219227   7.010   2.015   4.039
 6424TIP3   OH219228   5.298   0.000   0.533
 6424TIP3    H119229   5.298   0.035   0.444
 6424TIP3    H219230   5.240   0.058   0.582
 6425TIP3   OH219231   7.582   5.554   3.502
 6425TIP3    H119232   7.663   5.530   3.456
 6425TIP3    H219233   7.514   5.506   3.455
 6426TIP3   OH219234   4.744   5.726   3.274
 6426TIP3    H119235   4.798   5.715   3.196
 6426TIP3    H219236   4.796   5.782   3.331
 6427TIP3   OH219237   5.191   0.868   3.879
 6427TIP3    H119238   5.116   0.926   3.887
 6427TIP3    H219239   5.261   0.911   3.929
 6428TIP3   OH219240   4.506   3.333   0.743
 6428TIP3    H119241   4.585   3.290   0.777
 6428TIP3    H219242   4.507   3.420   0.783
 6429TIP3   OH219243   1.775   2.963   2.515
 6429TIP3    H119244   1.789   2.880   2.559
 6429TIP3    H219245   1.782   2.942   2.421
 6430TIP3   OH219246   6.530   2.350   6.305
 6430TIP3    H119247   6.529   2.314   6.217
 6430TIP3    H219248   6.505   2.276   6.362
 6431TIP3   OH219249   1.142   5.346   0.596
 6431TIP3    H119250   1.077   5.314   0.659
 6431TIP3    H219251   1.220   5.293   0.613
 6432TIP3   OH219252   4.547   0.279   5.287
 6432TIP3    H119253   4.635   0.304   5.317
 6432TIP3    H219254   4.551   0.183   5.280
 6433TIP3   OH219255   5.900   2.288   6.615
 6433TIP3    H119256   5.945   2.342   6.549
 6433TIP3    H219257   5.919   2.331   6.698
 6434TIP3   OH219258   6.210   7.153   0.908
 6434TIP3    H119259   6.132   7.186   0.863
 6434TIP3    H219260   6.240   7.227   0.960
 6435TIP3   OH219261   1.695   0.885   2.224
 6435TIP3    H119262   1.695   0.871   2.318
 6435TIP3    H219263   1.611   0.850   2.194
 6436TIP3   OH219264   7.256   3.959   6.566
 6436TIP3    H119265   7.225   3.982   6.653
 6436TIP3    H219266   7.203   4.011   6.506
 6437TIP3   OH219267   6.132   2.353   5.497
 6437TIP3    H119268   6.042   2.323   5.493
 6437TIP3    H219269   6.127   2.447   5.475
 6438TIP3   OH219270   0.867   2.018   1.999
 6438TIP3    H119271   0.931   2.026   2.070
 6438TIP3    H219272   0.848   1.924   1.995
 6439TIP3   OH219273   2.752   0.627   0.760
 6439TIP3    H119274   2.760   0.563   0.830
 6439TIP3    H219275   2.660   0.653   0.761
 6440TIP3   OH219276   4.244   3.754   0.845
 6440TIP3    H119277   4.153   3.738   0.872
 6440TIP3    H219278   4.290   3.772   0.927
 6441TIP3   OH219279   7.900   4.831   4.830
 6441TIP3    H119280   7.863   4.762   4.775
 6441TIP3    H219281   7.827   4.891   4.845
 6442TIP3   OH219282   3.547   2.705   1.320
 6442TIP3    H119283   3.513   2.768   1.257
 6442TIP3    H219284   3.479   2.699   1.387
 6443TIP3   OH219285   8.312   0.829   0.390
 6443TIP3    H119286   8.282   0.888   0.321
 6443TIP3    H219287   8.270   0.863   0.470
 6444TIP3   OH219288   2.096   2.869   5.382
 6444TIP3    H119289   2.070   2.931   5.314
 6444TIP3    H219290   2.069   2.911   5.464
 6445TIP3   OH219291   5.559   2.359   6.469
 6445TIP3    H119292   5.592   2.425   6.408
 6445TIP3    H219293   5.584   2.275   6.429
 6446TIP3   OH219294   8.253   7.219   0.905
 6446TIP3    H119295   8.271   7.132   0.941
 6446TIP3    H219296   8.158   7.228   0.911
 6447TIP3   OH219297   5.622   6.502   4.629
 6447TIP3    H119298   5.638   6.590   4.661
 6447TIP3    H219299   5.656   6.445   4.699
 6448TIP3   OH219300   4.841   4.022   6.747
 6448TIP3    H119301   4.876   4.061   6.667
 6448TIP3    H219302   4.894   3.944   6.762
 6449TIP3   OH219303   5.850   3.615   1.058
 6449TIP3    H119304   5.860   3.545   0.994
 6449TIP3    H219305   5.809   3.687   1.009
 6450TIP3   OH219306   3.877   5.680   4.902
 6450TIP3    H119307   3.919   5.642   4.979
 6450TIP3    H219308   3.784   5.657   4.912
 6451TIP3   OH219309   6.594   6.294   3.243
 6451TIP3    H119310   6.618   6.289   3.150
 6451TIP3    H219311   6.626   6.379   3.272
 6452TIP3   OH219312   5.533   3.824   3.379
 6452TIP3    H119313   5.539   3.783   3.466
 6452TIP3    H219314   5.622   3.820   3.345
 6453TIP3   OH219315   2.500   5.458   6.293
 6453TIP3    H119316   2.485   5.445   6.386
 6453TIP3    H219317   2.413   5.470   6.255
 6454TIP3   OH219318   0.221   7.719   4.898
 6454TIP3    H119319   0.294   7.777   4.874
 6454TIP3    H219320   0.239   7.638   4.849
 6455TIP3   OH219321   7.781   3.551   4.311
 6455TIP3    H119322   7.748   3.560   4.401
 6455TIP3    H219323   7.703   3.561   4.256
 6456TIP3   OH219324   7.387   2.742   3.021
 6456TIP3    H119325   7.380   2.683   2.946
 6456TIP3    H219326   7.457   2.704   3.075
 6457TIP3   OH219327   1.240   4.065   2.494
 6457TIP3    H119328   1.276   3.979   2.470
 6457TIP3    H219329   1.311   4.127   2.479
 6458TIP3   OH219330   5.238   3.701   0.891
 6458TIP3    H119331   5.270   3.662   0.809
 6458TIP3    H219332   5.229   3.794   0.870
 6459TIP3   OH219333   6.120   4.453   3.576
 6459TIP3    H119334   6.162   4.370   3.551
 6459TIP3    H219335   6.041   4.457   3.523
 6460TIP3   OH219336   1.081   7.611   3.792
 6460TIP3    H119337   1.137   7.624   3.869
 6460TIP3    H219338   1.136   7.636   3.718
 6461TIP3   OH219339   3.510   3.089   2.072
 6461TIP3    H119340   3.550   3.074   1.986
 6461TIP3    H219341   3.495   3.183   2.075
 6462TIP3   OH219342   7.997   4.759   0.255
 6462TIP3    H119343   8.072   4.815   0.274
 6462TIP3    H219344   8.035   4.674   0.231
 6463TIP3   OH219345   5.136   5.096   2.109
 6463TIP3    H119346   5.196   5.050   2.168
 6463TIP3    H219347   5.077   5.143   2.168
 6464TIP3   OH219348   4.474   7.703   5.991
 6464TIP3    H119349   4.561   7.714   6.029
 6464TIP3    H219350   4.413   7.717   6.064
 6465TIP3   OH219351   5.466   7.763   0.285
 6465TIP3    H119352   5.485   7.715   0.205
 6465TIP3    H219353   5.531   7.833   0.287
 6466TIP3   OH219354   8.172   0.046   2.717
 6466TIP3    H119355   8.124  -0.033   2.692
 6466TIP3    H219356   8.234   0.016   2.783
 6467TIP3   OH219357   3.357   1.519   0.859
 6467TIP3    H119358   3.262   1.506   0.851
 6467TIP3    H219359   3.391   1.502   0.772
 6468TIP3   OH219360   1.407   5.475   0.021
 6468TIP3    H119361   1.323   5.500   0.058
 6468TIP3    H219362   1.402   5.503  -0.070
 6469TIP3   OH219363   2.440   6.447   1.788
 6469TIP3    H119364   2.526   6.418   1.757
 6469TIP3    H219365   2.460   6.517   1.851
 6470TIP3   OH219366   3.763   6.380   5.864
 6470TIP3    H119367   3.799   6.433   5.793
 6470TIP3    H219368   3.759   6.291   5.827
 6471TIP3   OH219369   4.929   4.664   4.274
 6471TIP3    H119370   4.940   4.676   4.368
 6471TIP3    H219371   5.018   4.665   4.239
 6472TIP3   OH219372   0.617   3.135   5.657
 6472TIP3    H119373   0.666   3.056   5.678
 6472TIP3    H219374   0.525   3.109   5.664
 6473TIP3   OH219375   1.519   4.621   2.975
 6473TIP3    H119376   1.546   4.711   2.995
 6473TIP3    H219377   1.576   4.567   3.030
 6474TIP3   OH219378   5.670   0.386   6.610
 6474TIP3    H119379   5.675   0.390   6.705
 6474TIP3    H219380   5.681   0.476   6.581
 6475TIP3   OH219381   6.930   7.170   0.593
 6475TIP3    H119382   6.912   7.079   0.570
 6475TIP3    H219383   6.908   7.220   0.514
 6476TIP3   OH219384   6.210   3.755   3.212
 6476TIP3    H119385   6.224   3.699   3.136
 6476TIP3    H219386   6.199   3.695   3.285
 6477TIP3   OH219387   3.961   2.441   2.922
 6477TIP3    H119388   3.935   2.503   2.990
 6477TIP3    H219389   4.046   2.473   2.891
 6478TIP3   OH219390   6.601   0.987   2.160
 6478TIP3    H119391   6.633   1.065   2.205
 6478TIP3    H219392   6.506   0.990   2.170
 6479TIP3   OH219393   3.079   7.582   4.849
 6479TIP3    H119394   3.008   7.553   4.907
 6479TIP3    H219395   3.042   7.657   4.802
 6480TIP3   OH219396   7.789   4.657   4.401
 6480TIP3    H119397   7.695   4.634   4.400
 6480TIP3    H219398   7.798   4.721   4.331
 6481TIP3   OH219399   4.379   3.673   0.534
 6481TIP3    H119400   4.299   3.667   0.587
 6481TIP3    H219401   4.349   3.657   0.444
 6482TIP3   OH219402   2.705   4.948   4.928
 6482TIP3    H119403   2.646   4.873   4.916
 6482TIP3    H219404   2.785   4.910   4.963
 6483TIP3   OH219405   3.264   3.348   4.517
 6483TIP3    H119406   3.203   3.390   4.456
 6483TIP3    H219407   3.345   3.339   4.468
 6484TIP3   OH219408   7.074   0.966   2.874
 6484TIP3    H119409   7.016   1.007   2.810
 6484TIP3    H219410   7.062   0.872   2.860
 6485TIP3   OH219411   3.006   2.968   1.191
 6485TIP3    H119412   2.980   2.884   1.154
 6485TIP3    H219413   2.956   3.033   1.141
 6486TIP3   OH219414   0.700   1.401   3.396
 6486TIP3    H119415   0.668   1.488   3.421
 6486TIP3    H219416   0.740   1.413   3.310
 6487TIP3   OH219417   1.547   3.007   4.766
 6487TIP3    H119418   1.623   3.032   4.713
 6487TIP3    H219419   1.507   3.091   4.789
 6488TIP3   OH219420   7.314   7.438   3.066
 6488TIP3    H119421   7.276   7.493   2.997
 6488TIP3    H219422   7.408   7.453   3.059
 6489TIP3   OH219423   3.034   3.412   4.001
 6489TIP3    H119424   3.110   3.400   4.058
 6489TIP3    H219425   3.067   3.397   3.912
 6490TIP3   OH219426   4.811   3.973   2.067
 6490TIP3    H119427   4.888   4.011   2.108
 6490TIP3    H219428   4.774   4.043   2.014
 6491TIP3   OH219429   7.192   6.840   6.072
 6491TIP3    H119430   7.097   6.834   6.073
 6491TIP3    H219431   7.216   6.860   6.162
 6492TIP3   OH219432   2.834   4.996   0.480
 6492TIP3    H119433   2.769   4.973   0.413
 6492TIP3    H219434   2.868   5.081   0.453
 6493TIP3   OH219435   0.420   0.868   0.990
 6493TIP3    H119436   0.494   0.808   1.002
 6493TIP3    H219437   0.425   0.894   0.899
 6494TIP3   OH219438   7.010   3.688  -0.004
 6494TIP3    H119439   7.052   3.682   0.081
 6494TIP3    H219440   6.918   3.703   0.015
 6495TIP3   OH219441   3.705   4.250   2.186
 6495TIP3    H119442   3.784   4.283   2.145
 6495TIP3    H219443   3.662   4.328   2.221
 6496TIP3   OH219444   0.379   5.803   3.762
 6496TIP3    H119445   0.338   5.763   3.839
 6496TIP3    H219446   0.417   5.730   3.714
 6497TIP3   OH219447   0.449   7.480   0.228
 6497TIP3    H119448   0.434   7.575   0.236
 6497TIP3    H219449   0.372   7.448   0.181
 6498TIP3   OH219450   6.549   5.528   2.065
 6498TIP3    H119451   6.559   5.608   2.013
 6498TIP3    H219452   6.512   5.464   2.003
 6499TIP3   OH219453   1.080   7.418   6.212
 6499TIP3    H119454   1.024   7.478   6.260
 6499TIP3    H219455   1.154   7.401   6.271
 6500TIP3   OH219456   0.183   4.754   4.361
 6500TIP3    H119457   0.270   4.715   4.361
 6500TIP3    H219458   0.125   4.685   4.392
 6501TIP3   OH219459   6.711   6.462   6.435
 6501TIP3    H119460   6.740   6.537   6.384
 6501TIP3    H219461   6.626   6.489   6.471
 6502TIP3   OH219462   3.040   4.073   0.604
 6502TIP3    H119463   2.960   4.072   0.657
 6502TIP3    H219464   3.098   4.134   0.650
 6503TIP3   OH219465   1.822   2.955   0.512
 6503TIP3    H119466   1.858   2.868   0.529
 6503TIP3    H219467   1.809   2.958   0.417
 6504TIP3   OH219468   2.963   6.611   3.154
 6504TIP3    H119469   2.933   6.701   3.140
 6504TIP3    H219470   3.035   6.619   3.217
 6505TIP3   OH219471   7.847   2.032   6.047
 6505TIP3    H119472   7.835   2.077   5.964
 6505TIP3    H219473   7.893   2.095   6.102
 6506TIP3   OH219474   5.338   0.860   0.251
 6506TIP3    H119475   5.245   0.883   0.253
 6506TIP3    H219476   5.352   0.825   0.163
 6507TIP3   OH219477   1.800   0.165   4.563
 6507TIP3    H119478   1.708   0.157   4.538
 6507TIP3    H219479   1.838   0.081   4.537
 6508TIP3   OH219480   3.057   4.274   4.772
 6508TIP3    H119481   3.038   4.348   4.715
 6508TIP3    H219482   3.093   4.207   4.714
 6509TIP3   OH219483   0.403   7.479   2.709
 6509TIP3    H119484   0.414   7.574   2.697
 6509TIP3    H219485   0.472   7.440   2.654
 6510TIP3   OH219486   5.802   2.362   3.284
 6510TIP3    H119487   5.741   2.289   3.271
 6510TIP3    H219488   5.774   2.429   3.222
 6511TIP3   OH219489   4.964   1.086   3.328
 6511TIP3    H119490   4.940   1.129   3.246
 6511TIP3    H219491   4.972   0.994   3.305
 6512TIP3   OH219492   6.647   6.984   2.140
 6512TIP3    H119493   6.632   6.900   2.183
 6512TIP3    H219494   6.577   7.041   2.172
 6513TIP3   OH219495   7.907   0.604   0.035
 6513TIP3    H119496   7.850   0.544  -0.014
 6513TIP3    H219497   7.881   0.691   0.004
 6514TIP3   OH219498   8.055   0.046   1.767
 6514TIP3    H119499   8.030   0.069   1.857
 6514TIP3    H219500   8.075  -0.048   1.771
 6515TIP3   OH219501   5.993   0.148   4.657
 6515TIP3    H119502   5.954   0.236   4.656
 6515TIP3    H219503   5.920   0.091   4.681
 6516TIP3   OH219504   2.481   4.429   3.928
 6516TIP3    H119505   2.402   4.483   3.922
 6516TIP3    H219506   2.483   4.379   3.846
 6517TIP3   OH219507   4.466   2.568   1.176
 6517TIP3    H119508   4.549   2.581   1.224
 6517TIP3    H219509   4.435   2.657   1.160
 6518TIP3   OH219510   2.454   3.502   2.711
 6518TIP3    H119511   2.505   3.459   2.779
 6518TIP3    H219512   2.464   3.445   2.634
 6519TIP3   OH219513   8.192   5.086   3.995
 6519TIP3    H119514   8.153   5.149   4.055
 6519TIP3    H219515   8.249   5.032   4.051
 6520TIP3   OH219516   1.574   2.399   1.086
 6520TIP3    H119517   1.564   2.306   1.102
 6520TIP3    H219518   1.669   2.414   1.086
 6521TIP3   OH219519   0.200   7.408   1.916
 6521TIP3    H119520   0.241   7.335   1.869
 6521TIP3    H219521   0.162   7.367   1.994
 6522TIP3   OH219522   8.099   3.841   1.098
 6522TIP3    H119523   8.192   3.847   1.078
 6522TIP3    H219524   8.094   3.782   1.174
 6523TIP3   OH219525   7.380   5.983   1.356
 6523TIP3    H119526   7.441   6.052   1.383
 6523TIP3    H219527   7.299   6.029   1.334
 6524TIP3   OH219528   1.693   1.833   2.875
 6524TIP3    H119529   1.744   1.826   2.956
 6524TIP3    H219530   1.632   1.905   2.891
 6525TIP3   OH219531   6.124   0.901   4.183
 6525TIP3    H119532   6.156   0.829   4.238
 6525TIP3    H219533   6.040   0.870   4.149
 6526TIP3   OH219534   4.963   6.835   6.393
 6526TIP3    H119535   5.032   6.872   6.448
 6526TIP3    H219536   4.981   6.869   6.305
 6527TIP3   OH219537   6.762   2.014   6.238
 6527TIP3    H119538   6.683   1.993   6.188
 6527TIP3    H219539   6.828   1.952   6.207
 6528TIP3   OH219540   4.255   0.859   3.758
 6528TIP3    H119541   4.197   0.910   3.814
 6528TIP3    H219542   4.227   0.768   3.770
 6529TIP3   OH219543   3.091   4.325   4.132
 6529TIP3    H119544   3.096   4.389   4.203
 6529TIP3    H219545   2.998   4.324   4.108
 6530TIP3   OH219546   6.563   3.927   2.467
 6530TIP3    H119547   6.577   3.987   2.394
 6530TIP3    H219548   6.485   3.959   2.511
 6531TIP3   OH219549   3.223   6.639   4.556
 6531TIP3    H119550   3.176   6.610   4.477
 6531TIP3    H219551   3.248   6.729   4.538
 6532TIP3   OH219552   3.869   0.262   6.401
 6532TIP3    H119553   3.803   0.325   6.372
 6532TIP3    H219554   3.927   0.312   6.459
 6533TIP3   OH219555   1.208   6.031   3.483
 6533TIP3    H119556   1.267   5.955   3.482
 6533TIP3    H219557   1.262   6.103   3.450
 6534TIP3   OH219558   8.176   4.416   3.863
 6534TIP3    H119559   8.231   4.370   3.927
 6534TIP3    H219560   8.112   4.463   3.915
 6535TIP3   OH219561   4.851   4.145   0.028
 6535TIP3    H119562   4.830   4.067   0.080
 6535TIP3    H219563   4.925   4.119  -0.026
 6536TIP3   OH219564   6.501   6.561   5.217
 6536TIP3    H119565   6.464   6.527   5.298
 6536TIP3    H219566   6.593   6.578   5.237
 6537TIP3   OH219567   6.339   5.533   6.405
 6537TIP3    H119568   6.409   5.534   6.469
 6537TIP3    H219569   6.267   5.488   6.449
 6538TIP3   OH219570   8.122   1.543   1.406
 6538TIP3    H119571   8.030   1.526   1.428
 6538TIP3    H219572   8.118   1.621   1.350
 6539TIP3   OH219573   8.030   7.313   3.590
 6539TIP3    H119574   7.968   7.250   3.627
 6539TIP3    H219575   7.997   7.330   3.502
 6540TIP3   OH219576   7.234   0.855   4.895
 6540TIP3    H119577   7.296   0.787   4.868
 6540TIP3    H219578   7.228   0.914   4.820
 6541TIP3   OH219579   1.989   1.626   0.804
 6541TIP3    H119580   2.050   1.563   0.764
 6541TIP3    H219581   1.920   1.637   0.738
 6542TIP3   OH219582   0.422   0.295   4.604
 6542TIP3    H119583   0.339   0.343   4.604
 6542TIP3    H219584   0.485   0.359   4.571
 6543TIP3   OH219585   5.481   5.892   0.653
 6543TIP3    H119586   5.559   5.948   0.653
 6543TIP3    H219587   5.468   5.869   0.745
 6544TIP3   OH219588   6.158   0.228   0.783
 6544TIP3    H119589   6.241   0.210   0.739
 6544TIP3    H219590   6.105   0.273   0.717
 6545TIP3   OH219591   5.177   7.055   2.595
 6545TIP3    H119592   5.171   7.091   2.683
 6545TIP3    H219593   5.124   7.114   2.541
 6546TIP3   OH219594   7.279   4.498   1.050
 6546TIP3    H119595   7.267   4.592   1.038
 6546TIP3    H219596   7.212   4.473   1.114
 6547TIP3   OH219597   7.236   0.874   3.739
 6547TIP3    H119598   7.220   0.884   3.645
 6547TIP3    H219599   7.216   0.782   3.757
 6548TIP3   OH219600   2.951   5.090   5.448
 6548TIP3    H119601   3.001   5.021   5.405
 6548TIP3    H219602   2.984   5.171   5.409
 6549TIP3   OH219603   8.191   0.958   4.500
 6549TIP3    H119604   8.223   0.954   4.590
 6549TIP3    H219605   8.183   0.867   4.473
 6550TIP3   OH219606   0.930   4.176   3.769
 6550TIP3    H119607   0.861   4.242   3.765
 6550TIP3    H219608   0.946   4.164   3.863
 6551TIP3   OH219609   0.070   5.901   3.526
 6551TIP3    H119610   0.099   5.873   3.613
 6551TIP3    H219611   0.152   5.919   3.479
 6552TIP3   OH219612   2.763   5.698   1.810
 6552TIP3    H119613   2.684   5.740   1.842
 6552TIP3    H219614   2.832   5.764   1.819
 6553TIP3   OH219615   8.137   4.513   5.952
 6553TIP3    H119616   8.205   4.485   6.014
 6553TIP3    H219617   8.056   4.514   6.002
 6554TIP3   OH219618   7.514   4.880   1.763
 6554TIP3    H119619   7.576   4.809   1.745
 6554TIP3    H219620   7.565   4.946   1.809
 6555TIP3   OH219621   3.312   6.497   4.801
 6555TIP3    H119622   3.277   6.546   4.726
 6555TIP3    H219623   3.405   6.518   4.801
 6556TIP3   OH219624   1.751   3.411   5.351
 6556TIP3    H119625   1.789   3.491   5.315
 6556TIP3    H219626   1.693   3.441   5.421
 6557TIP3   OH219627   1.965   5.225   0.637
 6557TIP3    H119628   1.890   5.277   0.609
 6557TIP3    H219629   1.950   5.138   0.599
 6558TIP3   OH219630   2.057   2.826   4.974
 6558TIP3    H119631   2.033   2.885   4.902
 6558TIP3    H219632   2.133   2.777   4.940
 6559TIP3   OH219633   6.315   5.484   3.426
 6559TIP3    H119634   6.321   5.549   3.356
 6559TIP3    H219635   6.405   5.469   3.454
 6560TIP3   OH219636   7.572   3.001   0.982
 6560TIP3    H119637   7.532   3.064   0.922
 6560TIP3    H219638   7.538   3.025   1.069
 6561TIP3   OH219639   3.324   7.664   1.774
 6561TIP3    H119640   3.375   7.672   1.855
 6561TIP3    H219641   3.388   7.673   1.704
 6562TIP3   OH219642   4.838   6.568   0.107
 6562TIP3    H119643   4.872   6.549   0.020
 6562TIP3    H219644   4.749   6.533   0.106
 6563TIP3   OH219645   4.016   7.738   3.664
 6563TIP3    H119646   4.022   7.663   3.605
 6563TIP3    H219647   4.088   7.795   3.637
 6564TIP3   OH219648   0.960   3.700   6.198
 6564TIP3    H119649   0.991   3.650   6.122
 6564TIP3    H219650   1.021   3.679   6.268
 6565TIP3   OH219651   5.951   7.362   4.876
 6565TIP3    H119652   5.871   7.333   4.919
 6565TIP3    H219653   5.938   7.455   4.859
 6566TIP3   OH219654   7.493   2.933   2.513
 6566TIP3    H119655   7.519   2.841   2.503
 6566TIP3    H219656   7.474   2.944   2.606
 6567TIP3   OH219657   4.332   1.518   4.905
 6567TIP3    H119658   4.280   1.588   4.944
 6567TIP3    H219659   4.270   1.469   4.851
 6568TIP3   OH219660   3.712   4.142   0.691
 6568TIP3    H119661   3.647   4.096   0.744
 6568TIP3    H219662   3.663   4.214   0.651
 6569TIP3   OH219663   3.348   1.441   5.871
 6569TIP3    H119664   3.406   1.451   5.947
 6569TIP3    H219665   3.338   1.347   5.860
 6570TIP3   OH219666   1.238   0.655   6.418
 6570TIP3    H119667   1.271   0.678   6.331
 6570TIP3    H219668   1.237   0.560   6.420
 6571TIP3   OH219669   3.939   1.271   0.955
 6571TIP3    H119670   3.885   1.193   0.967
 6571TIP3    H219671   3.988   1.254   0.875
 6572TIP3   OH219672   2.781   5.345   5.762
 6572TIP3    H119673   2.741   5.302   5.838
 6572TIP3    H219674   2.783   5.438   5.786
 6573TIP3   OH219675   8.174   1.698   5.257
 6573TIP3    H119676   8.164   1.670   5.348
 6573TIP3    H219677   8.268   1.695   5.242
 6574TIP3   OH219678   7.776   6.541   3.927
 6574TIP3    H119679   7.776   6.633   3.953
 6574TIP3    H219680   7.862   6.526   3.887
 6575TIP3   OH219681   3.613   7.567   2.436
 6575TIP3    H119682   3.586   7.653   2.404
 6575TIP3    H219683   3.556   7.550   2.511
 6576TIP3   OH219684   6.376   6.773   1.075
 6576TIP3    H119685   6.342   6.687   1.054
 6576TIP3    H219686   6.454   6.782   1.020
 6577TIP3   OH219687   6.404   4.703   1.656
 6577TIP3    H119688   6.351   4.763   1.604
 6577TIP3    H219689   6.484   4.753   1.676
 6578TIP3   OH219690   0.276   2.975   2.164
 6578TIP3    H119691   0.218   2.899   2.170
 6578TIP3    H219692   0.303   2.993   2.255
 6579TIP3   OH219693   6.184   3.433   6.457
 6579TIP3    H119694   6.194   3.361   6.520
 6579TIP3    H219695   6.154   3.390   6.376
 6580TIP3   OH219696   1.061   0.086   6.366
 6580TIP3    H119697   1.036   0.114   6.455
 6580TIP3    H219698   0.997   0.018   6.344
 6581TIP3   OH219699   2.224  -0.017   1.662
 6581TIP3    H119700   2.266  -0.073   1.726
 6581TIP3    H219701   2.177   0.048   1.714
 6582TIP3   OH219702   1.705   0.827   5.076
 6582TIP3    H119703   1.652   0.756   5.041
 6582TIP3    H219704   1.790   0.817   5.032
 6583TIP3   OH219705   4.619   2.861   3.037
 6583TIP3    H119706   4.563   2.925   2.992
 6583TIP3    H219707   4.608   2.881   3.130
 6584TIP3   OH219708   2.674   3.013   1.973
 6584TIP3    H119709   2.617   3.026   2.049
 6584TIP3    H219710   2.639   3.073   1.907
 6585TIP3   OH219711   3.014   5.140   4.295
 6585TIP3    H119712   3.051   5.070   4.241
 6585TIP3    H219713   3.090   5.191   4.324
 6586TIP3   OH219714   7.130   0.481   1.492
 6586TIP3    H119715   7.076   0.561   1.488
 6586TIP3    H219716   7.216   0.509   1.460
 6587TIP3   OH219717   1.944   7.742   3.474
 6587TIP3    H119718   1.965   7.662   3.425
 6587TIP3    H219719   1.848   7.739   3.483
 6588TIP3   OH219720   4.162   5.720   1.577
 6588TIP3    H119721   4.242   5.692   1.621
 6588TIP3    H219722   4.145   5.808   1.610
 6589TIP3   OH219723   1.920   3.711   3.162
 6589TIP3    H119724   1.952   3.760   3.238
 6589TIP3    H219725   1.899   3.777   3.097
 6590TIP3   OH219726   0.708   5.998   1.732
 6590TIP3    H119727   0.713   5.903   1.737
 6590TIP3    H219728   0.786   6.029   1.779
 6591TIP3   OH219729   7.432   7.003   2.527
 6591TIP3    H119730   7.507   7.037   2.576
 6591TIP3    H219731   7.381   7.081   2.505
 6592TIP3   OH219732   0.786   3.991   4.080
 6592TIP3    H119733   0.878   4.011   4.095
 6592TIP3    H219734   0.741   4.027   4.157
 6593TIP3   OH219735   1.302   1.377   6.732
 6593TIP3    H119736   1.269   1.460   6.698
 6593TIP3    H219737   1.310   1.391   6.827
 6594TIP3   OH219738   3.181   4.979   1.985
 6594TIP3    H119739   3.159   5.057   2.034
 6594TIP3    H219740   3.256   4.941   2.031
 6595TIP3   OH219741   6.450   6.654   2.559
 6595TIP3    H119742   6.384   6.596   2.521
 6595TIP3    H219743   6.400   6.714   2.615
 6596TIP3   OH219744   1.136   1.209   1.036
 6596TIP3    H119745   1.097   1.295   1.022
 6596TIP3    H219746   1.228   1.227   1.058
 6597TIP3   OH219747   4.502   1.998   3.676
 6597TIP3    H119748   4.461   2.001   3.763
 6597TIP3    H219749   4.595   2.013   3.694
 6598TIP3   OH219750   0.087   1.504   6.225
 6598TIP3    H119751   0.055   1.439   6.162
 6598TIP3    H219752   0.156   1.550   6.178
 6599TIP3   OH219753   5.416   0.684   6.551
 6599TIP3    H119754   5.328   0.646   6.543
 6599TIP3    H219755   5.401   0.779   6.550
 6600TIP3   OH219756   3.457   4.994   6.406
 6600TIP3    H119757   3.546   4.959   6.399
 6600TIP3    H219758   3.462   5.082   6.367
 6601TIP3   OH219759   2.496   4.192   6.684
 6601TIP3    H119760   2.531   4.244   6.757
 6601TIP3    H219761   2.439   4.128   6.725
 6602TIP3   OH219762   0.227   6.083   6.048
 6602TIP3    H119763   0.302   6.043   6.005
 6602TIP3    H219764   0.169   6.108   5.976
 6603TIP3   OH219765   2.177   5.022   0.130
 6603TIP3    H119766   2.121   4.976   0.193
 6603TIP3    H219767   2.127   5.099   0.105
 6604TIP3   OH219768   6.476   0.264   2.792
 6604TIP3    H119769   6.544   0.302   2.736
 6604TIP3    H219770   6.508   0.279   2.881
 6605TIP3   OH219771   2.029   5.475   6.765
 6605TIP3    H119772   2.011   5.389   6.802
 6605TIP3    H219773   1.994   5.472   6.676
 6606TIP3   OH219774   8.026   6.967   4.552
 6606TIP3    H119775   8.003   7.055   4.580
 6606TIP3    H219776   8.122   6.969   4.544
 6607TIP3   OH219777   1.008   7.610   3.337
 6607TIP3    H119778   1.045   7.687   3.382
 6607TIP3    H219779   1.041   7.535   3.387
 6608TIP3   OH219780   4.346   4.972   2.464
 6608TIP3    H119781   4.364   4.914   2.391
 6608TIP3    H219782   4.327   4.914   2.537
 6609TIP3   OH219783   5.123   6.881   6.132
 6609TIP3    H119784   5.216   6.902   6.144
 6609TIP3    H219785   5.113   6.868   6.038
 6610TIP3   OH219786   6.315   1.338   5.415
 6610TIP3    H119787   6.340   1.290   5.336
 6610TIP3    H219788   6.226   1.368   5.398
 6611TIP3   OH219789   5.446   0.853   4.880
 6611TIP3    H119790   5.484   0.797   4.812
 6611TIP3    H219791   5.490   0.826   4.960
 6612TIP3   OH219792   7.750   3.915   1.532
 6612TIP3    H119793   7.716   3.948   1.616
 6612TIP3    H219794   7.736   3.987   1.471
 6613TIP3   OH219795   1.776   0.263   2.945
 6613TIP3    H119796   1.777   0.339   2.886
 6613TIP3    H219797   1.762   0.301   3.032
 6614TIP3   OH219798   8.267   7.448   0.108
 6614TIP3    H119799   8.303   7.537   0.112
 6614TIP3    H219800   8.227   7.435   0.193
 6615TIP3   OH219801   4.839   6.989   0.567
 6615TIP3    H119802   4.894   6.914   0.543
 6615TIP3    H219803   4.849   7.050   0.494
 6616TIP3   OH219804   4.270   5.213   4.663
 6616TIP3    H119805   4.235   5.292   4.622
 6616TIP3    H219806   4.214   5.142   4.630
 6617TIP3   OH219807   3.500   6.605   4.247
 6617TIP3    H119808   3.486   6.511   4.260
 6617TIP3    H219809   3.547   6.633   4.326
 6618TIP3   OH219810   2.792   1.878   5.300
 6618TIP3    H119811   2.701   1.857   5.278
 6618TIP3    H219812   2.815   1.815   5.368
 6619TIP3   OH219813   1.014   3.765   2.515
 6619TIP3    H119814   0.953   3.799   2.450
 6619TIP3    H219815   1.088   3.825   2.515
 6620TIP3   OH219816   1.846   0.136   3.252
 6620TIP3    H119817   1.821   0.069   3.189
 6620TIP3    H219818   1.937   0.156   3.231
 6621TIP3   OH219819   0.786   0.879   6.085
 6621TIP3    H119820   0.711   0.836   6.126
 6621TIP3    H219821   0.752   0.909   6.000
 6622TIP3   OH219822   7.433   6.242   6.549
 6622TIP3    H119823   7.521   6.259   6.515
 6622TIP3    H219824   7.417   6.150   6.529
 6623TIP3   OH219825   1.329   4.015   5.537
 6623TIP3    H119826   1.408   4.045   5.582
 6623TIP3    H219827   1.269   3.992   5.607
 6624TIP3   OH219828   4.042   2.206   0.273
 6624TIP3    H119829   4.074   2.118   0.254
 6624TIP3    H219830   4.023   2.243   0.187
 6625TIP3   OH219831   0.910   6.423   3.131
 6625TIP3    H119832   0.966   6.461   3.064
 6625TIP3    H219833   0.830   6.398   3.084
 6626TIP3   OH219834   5.770   1.776   6.430
 6626TIP3    H119835   5.800   1.846   6.488
 6626TIP3    H219836   5.689   1.745   6.470
 6627TIP3   OH219837   1.755   5.384   3.346
 6627TIP3    H119838   1.713   5.468   3.327
 6627TIP3    H219839   1.844   5.393   3.312
 6628TIP3   OH219840   5.113   3.253   6.332
 6628TIP3    H119841   5.046   3.310   6.371
 6628TIP3    H219842   5.177   3.314   6.297
 6629TIP3   OH219843   8.175   0.443   5.267
 6629TIP3    H119844   8.124   0.498   5.327
 6629TIP3    H219845   8.145   0.354   5.286
 6630TIP3   OH219846   0.744   3.466   4.861
 6630TIP3    H119847   0.761   3.372   4.855
 6630TIP3    H219848   0.735   3.482   4.955
 6631TIP3   OH219849   2.465   4.213   1.650
 6631TIP3    H119850   2.451   4.125   1.685
 6631TIP3    H219851   2.526   4.254   1.712
 6632TIP3   OH219852   4.778   0.536   0.919
 6632TIP3    H119853   4.821   0.481   0.985
 6632TIP3    H219854   4.776   0.482   0.840
 6633TIP3   OH219855   7.432   2.348   5.192
 6633TIP3    H119856   7.346   2.345   5.233
 6633TIP3    H219857   7.451   2.258   5.168
 6634TIP3   OH219858   3.747   7.414   1.512
 6634TIP3    H119859   3.743   7.509   1.509
 6634TIP3    H219860   3.680   7.389   1.577
 6635TIP3   OH219861   0.738   1.248   1.788
 6635TIP3    H119862   0.744   1.258   1.693
 6635TIP3    H219863   0.657   1.293   1.812
 6636TIP3   OH219864   4.490   2.777   5.793
 6636TIP3    H119865   4.502   2.871   5.809
 6636TIP3    H219866   4.534   2.735   5.866
 6637TIP3   OH219867   4.530   5.495   6.053
 6637TIP3    H119868   4.566   5.558   5.989
 6637TIP3    H219869   4.582   5.416   6.040
 6638TIP3   OH219870   1.903   2.977   3.037
 6638TIP3    H119871   1.887   3.040   2.967
 6638TIP3    H219872   1.839   2.907   3.023
 6639TIP3   OH219873   1.145   0.883   4.395
 6639TIP3    H119874   1.059   0.923   4.389
 6639TIP3    H219875   1.159   0.870   4.489
 6640TIP3   OH219876   7.850   6.642   6.595
 6640TIP3    H119877   7.897   6.725   6.589
 6640TIP3    H219878   7.821   6.638   6.686
 6641TIP3   OH219879   3.310   5.752   6.426
 6641TIP3    H119880   3.273   5.785   6.344
 6641TIP3    H219881   3.386   5.808   6.442
 6642TIP3   OH219882   3.441   5.177   1.247
 6642TIP3    H119883   3.535   5.184   1.230
 6642TIP3    H219884   3.421   5.251   1.305
 6643TIP3   OH219885   3.602   1.078   6.398
 6643TIP3    H119886   3.592   1.119   6.312
 6643TIP3    H219887   3.688   1.106   6.429
 6644TIP3   OH219888   7.333   6.291   1.856
 6644TIP3    H119889   7.422   6.259   1.866
 6644TIP3    H219890   7.342   6.384   1.835
 6645TIP3   OH219891   0.047   4.271   6.425
 6645TIP3    H119892   0.091   4.356   6.422
 6645TIP3    H219893   0.003   4.263   6.341
 6646TIP3   OH219894   2.177   5.253   2.527
 6646TIP3    H119895   2.255   5.298   2.562
 6646TIP3    H219896   2.213   5.181   2.476
 6647TIP3   OH219897   2.357   4.817   1.111
 6647TIP3    H119898   2.280   4.802   1.057
 6647TIP3    H219899   2.346   4.907   1.144
 6648TIP3   OH219900   0.210   2.893   0.828
 6648TIP3    H119901   0.162   2.844   0.895
 6648TIP3    H219902   0.153   2.890   0.751
 6649TIP3   OH219903   3.220   1.544   2.536
 6649TIP3    H119904   3.126   1.563   2.535
 6649TIP3    H219905   3.225   1.450   2.550
 6650TIP3   OH219906   3.287   1.620   0.495
 6650TIP3    H119907   3.364   1.564   0.500
 6650TIP3    H219908   3.244   1.594   0.413
 6651TIP3   OH219909   4.660   3.549   2.619
 6651TIP3    H119910   4.713   3.471   2.632
 6651TIP3    H219911   4.664   3.595   2.703
 6652TIP3   OH219912   3.383   4.735   0.143
 6652TIP3    H119913   3.448   4.671   0.170
 6652TIP3    H219914   3.301   4.685   0.137
 6653TIP3   OH219915   7.285   1.321   5.971
 6653TIP3    H119916   7.356   1.283   5.919
 6653TIP3    H219917   7.232   1.246   5.999
 6654TIP3   OH219918   1.011   4.004   4.658
 6654TIP3    H119919   1.031   3.914   4.684
 6654TIP3    H219920   1.071   4.058   4.708
 6655TIP3   OH219921   4.628   5.089   6.336
 6655TIP3    H119922   4.612   5.027   6.266
 6655TIP3    H219923   4.719   5.075   6.362
 6656TIP3   OH219924   0.781   7.004   4.124
 6656TIP3    H119925   0.873   7.021   4.146
 6656TIP3    H219926   0.772   7.038   4.035
 6657TIP3   OH219927   3.762   7.278   5.684
 6657TIP3    H119928   3.691   7.338   5.660
 6657TIP3    H219929   3.734   7.241   5.768
 6658TIP3   OH219930   2.067   1.353   2.188
 6658TIP3    H119931   2.140   1.380   2.132
 6658TIP3    H219932   2.078   1.258   2.197
 6659TIP3   OH219933   4.188   2.249   1.289
 6659TIP3    H119934   4.102   2.285   1.267
 6659TIP3    H219935   4.212   2.290   1.372
 6660TIP3   OH219936   4.599   1.949   6.148
 6660TIP3    H119937   4.518   1.986   6.112
 6660TIP3    H219938   4.626   2.012   6.215
 6661TIP3   OH219939   8.218   4.751   0.640
 6661TIP3    H119940   8.152   4.774   0.706
 6661TIP3    H219941   8.219   4.656   0.640
 6662TIP3   OH219942   1.750   6.277   3.435
 6662TIP3    H119943   1.787   6.358   3.469
 6662TIP3    H219944   1.774   6.211   3.500
 6663TIP3   OH219945   2.217   5.297   5.963
 6663TIP3    H119946   2.310   5.319   5.955
 6663TIP3    H219947   2.202   5.233   5.893
 6664TIP3   OH219948   3.211   1.163   5.111
 6664TIP3    H119949   3.270   1.152   5.036
 6664TIP3    H219950   3.146   1.094   5.100
 6665TIP3   OH219951   1.225   4.491   2.974
 6665TIP3    H119952   1.281   4.567   2.981
 6665TIP3    H219953   1.156   4.517   2.913
 6666TIP3   OH219954   7.648   6.571   2.660
 6666TIP3    H119955   7.706   6.531   2.724
 6666TIP3    H219956   7.626   6.656   2.697
 6667TIP3   OH219957   2.675   7.426   3.884
 6667TIP3    H119958   2.629   7.403   3.804
 6667TIP3    H219959   2.721   7.346   3.909
 6668TIP3   OH219960   0.856   5.108   5.246
 6668TIP3    H119961   0.896   5.038   5.298
 6668TIP3    H219962   0.813   5.164   5.311
 6669TIP3   OH219963   1.954   3.921   0.534
 6669TIP3    H119964   1.902   3.967   0.468
 6669TIP3    H219965   2.027   3.884   0.485
 6670TIP3   OH219966   6.505   2.508   0.308
 6670TIP3    H119967   6.583   2.537   0.356
 6670TIP3    H219968   6.477   2.585   0.259
 6671TIP3   OH219969   4.912   2.572   3.417
 6671TIP3    H119970   4.935   2.581   3.510
 6671TIP3    H219971   4.822   2.540   3.418
 6672TIP3   OH219972   5.672   1.958   3.716
 6672TIP3    H119973   5.766   1.945   3.704
 6672TIP3    H219974   5.660   1.964   3.811
 6673TIP3   OH219975   7.746   5.498   6.689
 6673TIP3    H119976   7.729   5.543   6.772
 6673TIP3    H219977   7.835   5.464   6.698
 6674TIP3   OH219978   4.499   1.108   4.575
 6674TIP3    H119979   4.508   1.126   4.482
 6674TIP3    H219980   4.561   1.167   4.618
 6675TIP3   OH219981   7.694   4.492   4.053
 6675TIP3    H119982   7.609   4.521   4.021
 6675TIP3    H219983   7.678   4.406   4.091
 6676TIP3   OH219984   7.331   3.093   4.239
 6676TIP3    H119985   7.282   3.174   4.225
 6676TIP3    H219986   7.289   3.029   4.181
 6677TIP3   OH219987   7.801   5.635   5.214
 6677TIP3    H119988   7.859   5.572   5.169
 6677TIP3    H219989   7.860   5.690   5.265
 6678TIP3   OH219990   1.924   4.541   1.239
 6678TIP3    H119991   1.859   4.519   1.306
 6678TIP3    H219992   2.008   4.518   1.278
 6679TIP3   OH219993   3.798   2.823   2.306
 6679TIP3    H119994   3.784   2.855   2.395
 6679TIP3    H219995   3.714   2.836   2.263
 6680TIP3   OH219996   6.423   6.297   0.132
 6680TIP3    H119997   6.375   6.221   0.163
 6680TIP3    H219998   6.506   6.294   0.179
 6681TIP3   OH219999   3.802   6.510   0.551
 6681TIP3    H120000   3.718   6.496   0.508
 6681TIP3    H220001   3.781   6.511   0.645
 6682TIP3   OH220002   3.967   6.139   4.639
 6682TIP3    H120003   3.930   6.060   4.678
 6682TIP3    H220004   4.047   6.109   4.595
 6683TIP3   OH220005   6.640   0.929   0.680
 6683TIP3    H120006   6.550   0.899   0.676
 6683TIP3    H220007   6.645   0.979   0.762
 6684TIP3   OH220008   6.977   1.946   5.656
 6684TIP3    H120009   7.016   1.859   5.645
 6684TIP3    H220010   7.015   1.979   5.737
 6685TIP3   OH220011   7.160   6.752   1.797
 6685TIP3    H120012   7.123   6.840   1.790
 6685TIP3    H220013   7.084   6.694   1.800
 6686TIP3   OH220014   4.444   1.794   1.809
 6686TIP3    H120015   4.435   1.884   1.840
 6686TIP3    H220016   4.476   1.803   1.720
 6687TIP3   OH220017   4.093   5.975   2.955
 6687TIP3    H120018   4.094   5.886   2.921
 6687TIP3    H220019   4.000   5.995   2.966
 6688TIP3   OH220020   2.814   3.442   3.072
 6688TIP3    H120021   2.796   3.356   3.035
 6688TIP3    H220022   2.887   3.476   3.021
 6689TIP3   OH220023   0.090   0.548   0.799
 6689TIP3    H120024   0.069   0.474   0.856
 6689TIP3    H220025   0.176   0.578   0.829
 6690TIP3   OH220026   5.724   0.906   1.930
 6690TIP3    H120027   5.631   0.925   1.917
 6690TIP3    H220028   5.752   0.968   1.997
 6691TIP3   OH220029   6.531   3.877   4.278
 6691TIP3    H120030   6.536   3.803   4.338
 6691TIP3    H220031   6.565   3.951   4.328
 6692TIP3   OH220032   6.506   3.608   0.748
 6692TIP3    H120033   6.532   3.534   0.802
 6692TIP3    H220034   6.413   3.595   0.731
 6693TIP3   OH220035   2.465   1.342   0.173
 6693TIP3    H120036   2.398   1.322   0.238
 6693TIP3    H220037   2.439   1.292   0.096
 6694TIP3   OH220038   1.373   1.081   5.664
 6694TIP3    H120039   1.292   1.032   5.676
 6694TIP3    H220040   1.424   1.030   5.601
 6695TIP3   OH220041   6.494   5.149   3.549
 6695TIP3    H120042   6.445   5.067   3.557
 6695TIP3    H220043   6.585   5.121   3.540
 6696TIP3   OH220044   4.956   5.788   3.556
 6696TIP3    H120045   4.926   5.844   3.627
 6696TIP3    H220046   5.050   5.780   3.569
 6697TIP3   OH220047   6.270   4.227   0.752
 6697TIP3    H120048   6.259   4.308   0.802
 6697TIP3    H220049   6.345   4.243   0.694
 6698TIP3   OH220050   5.455   3.771   4.822
 6698TIP3    H120051   5.483   3.735   4.738
 6698TIP3    H220052   5.391   3.708   4.855
 6699TIP3   OH220053   3.865   0.803   1.961
 6699TIP3    H120054   3.776   0.778   1.985
 6699TIP3    H220055   3.864   0.899   1.962
 6700TIP3   OH220056   3.113   0.386   0.840
 6700TIP3    H120057   3.090   0.437   0.762
 6700TIP3    H220058   3.203   0.356   0.823
 6701TIP3   OH220059   4.542   6.645   2.192
 6701TIP3    H120060   4.540   6.675   2.283
 6701TIP3    H220061   4.450   6.647   2.165
 6702TIP3   OH220062   0.342   1.826   5.311
 6702TIP3    H120063   0.420   1.816   5.256
 6702TIP3    H220064   0.351   1.913   5.349
 6703TIP3   OH220065   2.146   3.573   4.426
 6703TIP3    H120066   2.081   3.606   4.488
 6703TIP3    H220067   2.197   3.510   4.476
 6704TIP3   OH220068   4.188   0.942   0.084
 6704TIP3    H120069   4.193   1.012   0.149
 6704TIP3    H220070   4.094   0.931   0.068
 6705TIP3   OH220071   2.302   0.511   0.556
 6705TIP3    H120072   2.332   0.459   0.482
 6705TIP3    H220073   2.234   0.568   0.519
 6706TIP3   OH220074   3.156   1.743   0.726
 6706TIP3    H120075   3.134   1.655   0.755
 6706TIP3    H220076   3.209   1.729   0.647
 6707TIP3   OH220077   0.331   2.542   0.872
 6707TIP3    H120078   0.334   2.579   0.960
 6707TIP3    H220079   0.394   2.594   0.822
 6708TIP3   OH220080   4.660   1.865   0.649
 6708TIP3    H120081   4.725   1.933   0.668
 6708TIP3    H220082   4.577   1.903   0.679
 6709TIP3   OH220083   2.055   1.165   5.559
 6709TIP3    H120084   1.964   1.152   5.587
 6709TIP3    H220085   2.087   1.077   5.541
 6710TIP3   OH220086   6.907   0.630   5.128
 6710TIP3    H120087   6.930   0.610   5.037
 6710TIP3    H220088   6.875   0.721   5.125
 6711TIP3   OH220089   3.677   5.774   6.707
 6711TIP3    H120090   3.766   5.771   6.742
 6711TIP3    H220091   3.655   5.867   6.707
 6712TIP3   OH220092   2.618   2.964   5.119
 6712TIP3    H120093   2.712   2.966   5.102
 6712TIP3    H220094   2.609   2.911   5.199
 6713TIP3   OH220095   4.219   0.010   2.236
 6713TIP3    H120096   4.183   0.074   2.175
 6713TIP3    H220097   4.232  -0.069   2.184
 6714TIP3   OH220098   8.110   2.816   2.500
 6714TIP3    H120099   8.141   2.824   2.590
 6714TIP3    H220100   8.188   2.830   2.446
 6715TIP3   OH220101   4.010   3.944   3.817
 6715TIP3    H120102   4.078   3.926   3.882
 6715TIP3    H220103   3.973   3.859   3.796
 6716TIP3   OH220104   4.048   7.255   5.682
 6716TIP3    H120105   4.041   7.216   5.595
 6716TIP3    H220106   3.964   7.299   5.696
 6717TIP3   OH220107   2.499   5.245   4.846
 6717TIP3    H120108   2.508   5.226   4.940
 6717TIP3    H220109   2.414   5.207   4.823
 6718TIP3   OH220110   7.464   2.075   0.545
 6718TIP3    H120111   7.556   2.081   0.520
 6718TIP3    H220112   7.461   2.109   0.635
 6719TIP3   OH220113   1.783   3.038   2.793
 6719TIP3    H120114   1.748   3.015   2.708
 6719TIP3    H220115   1.713   3.088   2.836
 6720TIP3   OH220116   5.114   0.118   3.414
 6720TIP3    H120117   5.187   0.078   3.366
 6720TIP3    H220118   5.101   0.060   3.489
 6721TIP3   OH220119   4.584   6.409   0.766
 6721TIP3    H120120   4.676   6.433   0.777
 6721TIP3    H220121   4.580   6.318   0.796
 6722TIP3   OH220122   3.857   0.144   2.055
 6722TIP3    H120123   3.874   0.060   2.012
 6722TIP3    H220124   3.762   0.145   2.070
 6723TIP3   OH220125   3.413   6.526   0.804
 6723TIP3    H120126   3.366   6.594   0.853
 6723TIP3    H220127   3.504   6.537   0.832
 6724TIP3   OH220128   4.343   1.408   3.385
 6724TIP3    H120129   4.350   1.414   3.481
 6724TIP3    H220130   4.251   1.424   3.366
 6725TIP3   OH220131   7.806   2.696   0.713
 6725TIP3    H120132   7.805   2.668   0.621
 6725TIP3    H220133   7.714   2.696   0.739
 6726TIP3   OH220134   2.898   6.168   1.574
 6726TIP3    H120135   2.842   6.134   1.644
 6726TIP3    H220136   2.953   6.234   1.617
 6727TIP3   OH220137   1.153   6.385   3.786
 6727TIP3    H120138   1.132   6.419   3.873
 6727TIP3    H220139   1.138   6.290   3.793
 6728TIP3   OH220140   7.449   3.580   3.314
 6728TIP3    H120141   7.396   3.502   3.325
 6728TIP3    H220142   7.491   3.594   3.400
 6729TIP3   OH220143   2.468   0.996   2.251
 6729TIP3    H120144   2.496   0.930   2.313
 6729TIP3    H220145   2.521   0.980   2.173
 6730TIP3   OH220146   7.288   6.662   4.095
 6730TIP3    H120147   7.265   6.691   4.183
 6730TIP3    H220148   7.271   6.738   4.040
 6731TIP3   OH220149   2.327   1.037   6.727
 6731TIP3    H120150   2.346   1.042   6.633
 6731TIP3    H220151   2.320   0.944   6.745
 6732TIP3   OH220152   2.891   0.396  -0.014
 6732TIP3    H120153   2.831   0.435   0.050
 6732TIP3    H220154   2.854   0.421  -0.099
 6733TIP3   OH220155   4.528   0.294   4.626
 6733TIP3    H120156   4.549   0.209   4.666
 6733TIP3    H220157   4.595   0.305   4.558
 6734TIP3   OH220158   2.959   5.577   1.968
 6734TIP3    H120159   2.875   5.620   1.954
 6734TIP3    H220160   2.946   5.525   2.047
 6735TIP3   OH220161   7.789   5.221   4.362
 6735TIP3    H120162   7.801   5.225   4.267
 6735TIP3    H220163   7.760   5.309   4.387
 6736TIP3   OH220164   7.152   4.530   2.217
 6736TIP3    H120165   7.228   4.498   2.265
 6736TIP3    H220166   7.182   4.536   2.126
 6737TIP3   OH220167   5.528   4.256   5.033
 6737TIP3    H120168   5.482   4.231   5.113
 6737TIP3    H220169   5.459   4.274   4.969
 6738TIP3   OH220170   4.545   5.530   0.081
 6738TIP3    H120171   4.614   5.570   0.029
 6738TIP3    H220172   4.464   5.564   0.044
 6739TIP3   OH220173   1.863   5.681   1.761
 6739TIP3    H120174   1.938   5.625   1.741
 6739TIP3    H220175   1.900   5.751   1.816
 6740TIP3   OH220176   2.299   5.107   2.325
 6740TIP3    H120177   2.268   5.189   2.288
 6740TIP3    H220178   2.231   5.043   2.305
 6741TIP3   OH220179   6.747   2.607   0.337
 6741TIP3    H120180   6.705   2.683   0.295
 6741TIP3    H220181   6.833   2.639   0.365
 6742TIP3   OH220182   2.005   1.955   2.933
 6742TIP3    H120183   1.981   2.044   2.961
 6742TIP3    H220184   1.958   1.942   2.851
 6743TIP3   OH220185   2.760   5.276   4.303
 6743TIP3    H120186   2.776   5.309   4.391
 6743TIP3    H220187   2.843   5.239   4.275
 6744TIP3   OH220188   8.284   0.973   5.977
 6744TIP3    H120189   8.358   1.013   5.932
 6744TIP3    H220190   8.221   0.953   5.908
 6745TIP3   OH220191   3.440   1.566   2.680
 6745TIP3    H120192   3.377   1.540   2.747
 6745TIP3    H220193   3.391   1.561   2.598
 6746TIP3   OH220194   2.428   4.793   2.291
 6746TIP3    H120195   2.341   4.819   2.261
 6746TIP3    H220196   2.482   4.871   2.280
 6747TIP3   OH220197   0.118   7.653   2.947
 6747TIP3    H120198   0.213   7.664   2.946
 6747TIP3    H220199   0.083   7.741   2.958
 6748TIP3   OH220200   1.964   3.050   5.990
 6748TIP3    H120201   1.991   2.961   6.009
 6748TIP3    H220202   1.874   3.056   6.023
 6749TIP3   OH220203   2.820   7.069   1.812
 6749TIP3    H120204   2.786   7.159   1.816
 6749TIP3    H220205   2.761   7.019   1.868
 6750TIP3   OH220206   4.213   1.114   4.679
 6750TIP3    H120207   4.307   1.100   4.668
 6750TIP3    H220208   4.186   1.160   4.600
 6751TIP3   OH220209   2.228   5.197   5.133
 6751TIP3    H120210   2.302   5.250   5.163
 6751TIP3    H220211   2.255   5.106   5.150
 6752TIP3   OH220212   0.788   3.244   1.065
 6752TIP3    H120213   0.776   3.263   0.972
 6752TIP3    H220214   0.703   3.209   1.093
 6753TIP3   OH220215   7.762   3.201   1.401
 6753TIP3    H120216   7.783   3.188   1.309
 6753TIP3    H220217   7.812   3.279   1.426
 6754TIP3   OH220218   3.215   7.626   0.174
 6754TIP3    H120219   3.275   7.609   0.247
 6754TIP3    H220220   3.248   7.706   0.134
 6755TIP3   OH220221   3.552   5.180   4.353
 6755TIP3    H120222   3.583   5.251   4.297
 6755TIP3    H220223   3.526   5.111   4.291
 6756TIP3   OH220224   4.034   2.688   3.457
 6756TIP3    H120225   4.035   2.624   3.528
 6756TIP3    H220226   4.124   2.692   3.426
 6757TIP3   OH220227   6.544   3.113   5.250
 6757TIP3    H120228   6.470   3.161   5.287
 6757TIP3    H220229   6.618   3.173   5.256
 6758TIP3   OH220230   5.134   3.337   0.675
 6758TIP3    H120231   5.104   3.253   0.708
 6758TIP3    H220232   5.219   3.352   0.718
 6759TIP3   OH220233   5.307   1.877   4.166
 6759TIP3    H120234   5.396   1.854   4.139
 6759TIP3    H220235   5.293   1.828   4.247
 6760TIP3   OH220236   5.095   6.021   4.610
 6760TIP3    H120237   5.013   6.058   4.640
 6760TIP3    H220238   5.141   6.094   4.569
 6761TIP3   OH220239   2.290   2.951   3.867
 6761TIP3    H120240   2.220   2.918   3.810
 6761TIP3    H220241   2.269   3.043   3.880
 6762TIP3   OH220242   1.753   2.152   4.519
 6762TIP3    H120243   1.762   2.086   4.451
 6762TIP3    H220244   1.727   2.103   4.597
 6763TIP3   OH220245   7.303   3.042   2.958
 6763TIP3    H120246   7.274   2.953   2.938
 6763TIP3    H220247   7.335   3.076   2.875
 6764TIP3   OH220248   2.847   2.256   2.247
 6764TIP3    H120249   2.855   2.273   2.154
 6764TIP3    H220250   2.933   2.280   2.283
 6765TIP3   OH220251   1.398   3.251   4.773
 6765TIP3    H120252   1.309   3.219   4.760
 6765TIP3    H220253   1.415   3.309   4.698
 6766TIP3   OH220254   6.580   1.870   4.521
 6766TIP3    H120255   6.595   1.800   4.458
 6766TIP3    H220256   6.665   1.913   4.530
 6767TIP3   OH220257   2.673   7.495   1.623
 6767TIP3    H120258   2.705   7.551   1.553
 6767TIP3    H220259   2.618   7.552   1.677
 6768TIP3   OH220260   1.235   5.079   4.224
 6768TIP3    H120261   1.209   5.031   4.302
 6768TIP3    H220262   1.155   5.124   4.195
 6769TIP3   OH220263   6.877   2.985   4.659
 6769TIP3    H120264   6.823   2.914   4.694
 6769TIP3    H220265   6.921   2.947   4.584
 6770TIP3   OH220266   3.131   4.039   4.641
 6770TIP3    H120267   3.171   3.964   4.597
 6770TIP3    H220268   3.042   4.010   4.662
 6771TIP3   OH220269   4.560   4.107   6.743
 6771TIP3    H120270   4.651   4.081   6.759
 6771TIP3    H220271   4.508   4.030   6.767
 6772TIP3   OH220272   1.071   5.877   1.604
 6772TIP3    H120273   1.039   5.967   1.608
 6772TIP3    H220274   1.166   5.885   1.614
 6773TIP3   OH220275   4.093   5.772   4.564
 6773TIP3    H120276   4.002   5.757   4.592
 6773TIP3    H220277   4.146   5.746   4.639
 6774TIP3   OH220278   2.591   0.824   5.326
 6774TIP3    H120279   2.644   0.879   5.384
 6774TIP3    H220280   2.508   0.871   5.317
 6775TIP3   OH220281   6.185   7.522   4.269
 6775TIP3    H120282   6.244   7.569   4.210
 6775TIP3    H220283   6.148   7.590   4.325
 6776TIP3   OH220284   4.815   2.067   0.759
 6776TIP3    H120285   4.785   2.147   0.716
 6776TIP3    H220286   4.906   2.058   0.731
 6777TIP3   OH220287   2.924   4.778   4.963
 6777TIP3    H120288   2.904   4.688   4.937
 6777TIP3    H220289   3.009   4.795   4.921
 6778TIP3   OH220290   6.297   2.027   1.119
 6778TIP3    H120291   6.275   2.048   1.210
 6778TIP3    H220292   6.254   2.096   1.068
 6779TIP3   OH220293   7.391   6.245   5.492
 6779TIP3    H120294   7.453   6.318   5.505
 6779TIP3    H220295   7.359   6.226   5.580
 6780TIP3   OH220296   8.224   6.112   2.929
 6780TIP3    H120297   8.293   6.175   2.947
 6780TIP3    H220298   8.263   6.052   2.865
 6781TIP3   OH220299   1.538   7.101   3.564
 6781TIP3    H120300   1.535   7.080   3.470
 6781TIP3    H220301   1.540   7.016   3.608
 6782TIP3   OH220302   0.182   0.983   4.949
 6782TIP3    H120303   0.114   0.930   4.990
 6782TIP3    H220304   0.257   0.925   4.941
 6783TIP3   OH220305   6.886   4.374   6.253
 6783TIP3    H120306   6.818   4.391   6.319
 6783TIP3    H220307   6.844   4.393   6.169
 6784TIP3   OH220308   6.866   6.263   0.055
 6784TIP3    H120309   6.961   6.274   0.059
 6784TIP3    H220310   6.844   6.274  -0.038
 6785TIP3   OH220311   5.997   6.785   1.551
 6785TIP3    H120312   5.916   6.804   1.503
 6785TIP3    H220313   6.050   6.734   1.489
 6786TIP3   OH220314   1.285   4.189   0.816
 6786TIP3    H120315   1.194   4.214   0.800
 6786TIP3    H220316   1.318   4.164   0.730
 6787TIP3   OH220317   7.966   7.398   3.111
 6787TIP3    H120318   8.016   7.433   3.185
 6787TIP3    H220319   7.902   7.339   3.151
 6788TIP3   OH220320   8.254   0.686   0.039
 6788TIP3    H120321   8.286   0.603   0.001
 6788TIP3    H220322   8.169   0.699  -0.003
 6789TIP3   OH220323   7.342   4.638   1.383
 6789TIP3    H120324   7.428   4.620   1.344
 6789TIP3    H220325   7.280   4.627   1.311
 6790TIP3   OH220326   8.028   2.743   2.768
 6790TIP3    H120327   8.113   2.719   2.805
 6790TIP3    H220328   7.992   2.805   2.831
 6791TIP3   OH220329   4.911   1.830   2.419
 6791TIP3    H120330   4.888   1.914   2.458
 6791TIP3    H220331   4.906   1.845   2.324
 6792TIP3   OH220332   1.243   5.356   6.675
 6792TIP3    H120333   1.151   5.332   6.675
 6792TIP3    H220334   1.243   5.451   6.685
 6793TIP3   OH220335   2.205   2.095   6.363
 6793TIP3    H120336   2.245   2.030   6.306
 6793TIP3    H220337   2.277   2.152   6.389
 6794TIP3   OH220338   5.530   5.888   5.239
 6794TIP3    H120339   5.542   5.918   5.329
 6794TIP3    H220340   5.609   5.917   5.194
 6795TIP3   OH220341   0.039   2.276   1.485
 6795TIP3    H120342   0.048   2.306   1.575
 6795TIP3    H220343  -0.055   2.281   1.468
 6796TIP3   OH220344   5.301   3.276   2.824
 6796TIP3    H120345   5.360   3.206   2.851
 6796TIP3    H220346   5.221   3.260   2.873
 6797TIP3   OH220347   3.006   2.823   4.223
 6797TIP3    H120348   3.022   2.729   4.215
 6797TIP3    H220349   3.045   2.861   4.144
 6798TIP3   OH220350   7.124   2.248   1.573
 6798TIP3    H120351   7.047   2.280   1.619
 6798TIP3    H220352   7.139   2.311   1.503
 6799TIP3   OH220353   1.702   0.954   1.056
 6799TIP3    H120354   1.619   0.997   1.039
 6799TIP3    H220355   1.716   0.966   1.150
 6800TIP3   OH220356   3.388   2.393   4.289
 6800TIP3    H120357   3.476   2.377   4.256
 6800TIP3    H220358   3.330   2.347   4.228
 6801TIP3   OH220359   4.028   7.130   5.450
 6801TIP3    H120360   4.038   7.141   5.355
 6801TIP3    H220361   3.957   7.066   5.459
 6802TIP3   OH220362   1.394   3.795   5.321
 6802TIP3    H120363   1.331   3.824   5.255
 6802TIP3    H220364   1.381   3.854   5.395
 6803TIP3   OH220365   6.362   2.135   3.630
 6803TIP3    H120366   6.402   2.151   3.715
 6803TIP3    H220367   6.315   2.216   3.609
 6804TIP3   OH220368   4.164   0.507   5.430
 6804TIP3    H120369   4.177   0.598   5.457
 6804TIP3    H220370   4.244   0.462   5.456
 6805TIP3   OH220371   2.379   7.872   3.752
 6805TIP3    H120372   2.307   7.815   3.726
 6805TIP3    H220373   2.431   7.820   3.813
 6806TIP3   OH220374   7.171   4.525   1.889
 6806TIP3    H120375   7.242   4.588   1.899
 6806TIP3    H220376   7.093   4.579   1.876
 6807TIP3   OH220377   2.007   5.232   1.163
 6807TIP3    H120378   1.938   5.240   1.097
 6807TIP3    H220379   2.016   5.138   1.178
 6808TIP3   OH220380   3.559   0.733   4.713
 6808TIP3    H120381   3.566   0.708   4.805
 6808TIP3    H220382   3.475   0.698   4.684
 6809TIP3   OH220383   1.085   6.979   2.238
 6809TIP3    H120384   1.017   6.998   2.174
 6809TIP3    H220385   1.103   7.064   2.279
 6810TIP3   OH220386   7.860   5.456   0.791
 6810TIP3    H120387   7.886   5.464   0.699
 6810TIP3    H220388   7.793   5.388   0.791
 6811TIP3   OH220389   1.576   7.211   5.314
 6811TIP3    H120390   1.639   7.234   5.245
 6811TIP3    H220391   1.630   7.185   5.388
 6812TIP3   OH220392   0.555   0.453   2.481
 6812TIP3    H120393   0.524   0.363   2.476
 6812TIP3    H220394   0.560   0.482   2.390
 6813TIP3   OH220395   6.487   0.970   1.657
 6813TIP3    H120396   6.405   0.925   1.671
 6813TIP3    H220397   6.484   1.046   1.716
 6814TIP3   OH220398   1.956   7.696   6.401
 6814TIP3    H120399   2.044   7.690   6.363
 6814TIP3    H220400   1.898   7.698   6.325
 6815TIP3   OH220401   4.965   7.753   2.759
 6815TIP3    H120402   4.872   7.762   2.738
 6815TIP3    H220403   4.995   7.842   2.777
 6816TIP3   OH220404   3.867   5.569   1.967
 6816TIP3    H120405   3.941   5.548   2.024
 6816TIP3    H220406   3.834   5.484   1.938
 6817TIP3   OH220407   5.335   7.602   1.816
 6817TIP3    H120408   5.332   7.582   1.723
 6817TIP3    H220409   5.424   7.579   1.842
 6818TIP3   OH220410   3.979   0.361   5.295
 6818TIP3    H120411   4.032   0.421   5.347
 6818TIP3    H220412   3.997   0.274   5.331
 6819TIP3   OH220413   0.722   3.772   0.483
 6819TIP3    H120414   0.677   3.856   0.480
 6819TIP3    H220415   0.815   3.795   0.479
 6820TIP3   OH220416   3.269   6.104   0.786
 6820TIP3    H120417   3.327   6.052   0.731
 6820TIP3    H220418   3.221   6.039   0.838
 6821TIP3   OH220419   7.244   6.899   1.069
 6821TIP3    H120420   7.320   6.887   1.126
 6821TIP3    H220421   7.259   6.838   0.996
 6822TIP3   OH220422   1.492   2.494   3.234
 6822TIP3    H120423   1.402   2.474   3.262
 6822TIP3    H220424   1.537   2.520   3.314
 6823TIP3   OH220425   5.754   0.054   4.757
 6823TIP3    H120426   5.684   0.025   4.815
 6823TIP3    H220427   5.715   0.054   4.670
 6824TIP3   OH220428   0.946   0.353   2.062
 6824TIP3    H120429   0.960   0.258   2.059
 6824TIP3    H220430   0.886   0.370   1.989
 6825TIP3   OH220431   3.859   7.319   4.413
 6825TIP3    H120432   3.798   7.390   4.430
 6825TIP3    H220433   3.866   7.272   4.496
 6826TIP3   OH220434   3.670   2.354   3.126
 6826TIP3    H120435   3.736   2.389   3.186
 6826TIP3    H220436   3.587   2.388   3.158
 6827TIP3   OH220437   5.690   3.291   3.656
 6827TIP3    H120438   5.761   3.321   3.713
 6827TIP3    H220439   5.651   3.217   3.704
 6828TIP3   OH220440   6.481   7.067   2.829
 6828TIP3    H120441   6.567   7.106   2.811
 6828TIP3    H220442   6.496   7.007   2.902
 6829TIP3   OH220443   5.077   1.070   1.705
 6829TIP3    H120444   5.009   1.011   1.738
 6829TIP3    H220445   5.078   1.055   1.611
 6830TIP3   OH220446   8.159   3.455   1.690
 6830TIP3    H120447   8.110   3.377   1.662
 6830TIP3    H220448   8.215   3.424   1.760
 6831TIP3   OH220449   6.316   4.398   3.081
 6831TIP3    H120450   6.261   4.390   3.004
 6831TIP3    H220451   6.282   4.474   3.128
 6832TIP3   OH220452   2.809   0.202   3.871
 6832TIP3    H120453   2.889   0.235   3.911
 6832TIP3    H220454   2.739   0.248   3.918
 6833TIP3   OH220455   0.080   6.719   6.493
 6833TIP3    H120456   0.080   6.787   6.561
 6833TIP3    H220457   0.166   6.727   6.452
 6834TIP3   OH220458   7.722   5.700   4.581
 6834TIP3    H120459   7.638   5.719   4.538
 6834TIP3    H220460   7.735   5.774   4.641
 6835TIP3   OH220461   6.890   4.564   0.345
 6835TIP3    H120462   6.864   4.476   0.316
 6835TIP3    H220463   6.981   4.573   0.317
 6836TIP3   OH220464   7.035   6.260   3.397
 6836TIP3    H120465   7.009   6.173   3.369
 6836TIP3    H220466   7.075   6.299   3.319
 6837TIP3   OH220467   5.730   2.548   3.092
 6837TIP3    H120468   5.634   2.558   3.089
 6837TIP3    H220469   5.752   2.506   3.009
 6838TIP3   OH220470   7.978   7.706   4.355
 6838TIP3    H120471   7.973   7.767   4.281
 6838TIP3    H220472   8.045   7.643   4.329
 6839TIP3   OH220473   3.104   7.748   6.100
 6839TIP3    H120474   3.096   7.718   6.190
 6839TIP3    H220475   3.067   7.836   6.100
 6840TIP3   OH220476   1.249   3.627   2.217
 6840TIP3    H120477   1.296   3.577   2.151
 6840TIP3    H220478   1.169   3.655   2.172
 6841TIP3   OH220479   0.248   5.691   2.182
 6841TIP3    H120480   0.194   5.635   2.238
 6841TIP3    H220481   0.288   5.630   2.119
 6842TIP3   OH220482   2.040   6.402   0.527
 6842TIP3    H120483   1.987   6.475   0.496
 6842TIP3    H220484   2.110   6.393   0.463
 6843TIP3   OH220485   0.845   2.438   2.164
 6843TIP3    H120486   0.923   2.382   2.156
 6843TIP3    H220487   0.778   2.380   2.200
 6844TIP3   OH220488   6.816   6.344   3.575
 6844TIP3    H120489   6.800   6.420   3.519
 6844TIP3    H220490   6.906   6.319   3.556
 6845TIP3   OH220491   8.206   5.488   1.237
 6845TIP3    H120492   8.284   5.501   1.291
 6845TIP3    H220493   8.214   5.398   1.205
 6846TIP3   OH220494   0.816   4.139   2.711
 6846TIP3    H120495   0.733   4.184   2.728
 6846TIP3    H220496   0.807   4.055   2.757
 6847TIP3   OH220497   3.583   2.025   1.598
 6847TIP3    H120498   3.578   1.963   1.671
 6847TIP3    H220499   3.586   1.970   1.520
 6848TIP3   OH220500   1.294   6.130   3.803
 6848TIP3    H120501   1.334   6.088   3.727
 6848TIP3    H220502   1.364   6.181   3.842
 6849TIP3   OH220503   5.934   1.691   3.173
 6849TIP3    H120504   5.911   1.765   3.230
 6849TIP3    H220505   6.029   1.685   3.178
 6850TIP3   OH220506   7.431   4.220   1.979
 6850TIP3    H120507   7.469   4.297   2.021
 6850TIP3    H220508   7.337   4.233   1.987
 6851TIP3   OH220509   2.725   1.584   4.932
 6851TIP3    H120510   2.720   1.505   4.986
 6851TIP3    H220511   2.792   1.638   4.975
 6852TIP3   OH220512   5.712   0.122   5.940
 6852TIP3    H120513   5.658   0.201   5.939
 6852TIP3    H220514   5.670   0.064   5.877
 6853TIP3   OH220515   5.196   1.224   5.868
 6853TIP3    H120516   5.254   1.276   5.812
 6853TIP3    H220517   5.250   1.202   5.944
 6854TIP3   OH220518   5.453   7.665   2.179
 6854TIP3    H120519   5.482   7.753   2.155
 6854TIP3    H220520   5.358   7.667   2.167
 6855TIP3   OH220521   2.549   2.510   4.902
 6855TIP3    H120522   2.596   2.587   4.872
 6855TIP3    H220523   2.458   2.525   4.876
 6856TIP3   OH220524   5.757   3.212   0.511
 6856TIP3    H120525   5.767   3.200   0.605
 6856TIP3    H220526   5.687   3.278   0.503
 6857TIP3   OH220527   7.829   2.857   5.080
 6857TIP3    H120528   7.768   2.783   5.084
 6857TIP3    H220529   7.777   2.932   5.107
 6858TIP3   OH220530   2.038   2.974   3.730
 6858TIP3    H120531   1.954   3.019   3.743
 6858TIP3    H220532   2.027   2.925   3.649
 6859TIP3   OH220533   6.278   4.200   5.951
 6859TIP3    H120534   6.215   4.136   5.984
 6859TIP3    H220535   6.266   4.276   6.008
 6860TIP3   OH220536   6.572   5.423   5.285
 6860TIP3    H120537   6.594   5.343   5.236
 6860TIP3    H220538   6.635   5.425   5.357
 6861TIP3   OH220539   4.956   2.565   3.695
 6861TIP3    H120540   5.049   2.574   3.673
 6861TIP3    H220541   4.952   2.490   3.753
 6862TIP3   OH220542   5.707   4.738   2.647
 6862TIP3    H120543   5.754   4.806   2.696
 6862TIP3    H220544   5.658   4.786   2.581
 6863TIP3   OH220545   0.605   5.164   3.974
 6863TIP3    H120546   0.628   5.200   4.060
 6863TIP3    H220547   0.685   5.121   3.944
 6864TIP3   OH220548   4.333   0.893   1.992
 6864TIP3    H120549   4.279   0.881   1.915
 6864TIP3    H220550   4.308   0.822   2.051
 6865TIP3   OH220551   2.470   5.147   6.110
 6865TIP3    H120552   2.504   5.231   6.142
 6865TIP3    H220553   2.521   5.129   6.031
 6866TIP3   OH220554   6.752   2.847   6.647
 6866TIP3    H120555   6.747   2.809   6.735
 6866TIP3    H220556   6.671   2.896   6.637
 6867TIP3   OH220557   7.881   4.887   4.253
 6867TIP3    H120558   7.929   4.941   4.316
 6867TIP3    H220559   7.805   4.940   4.229
 6868TIP3   OH220560   7.019   3.750   4.675
 6868TIP3    H120561   6.993   3.694   4.602
 6868TIP3    H220562   7.064   3.691   4.736
 6869TIP3   OH220563   1.825   3.464   3.699
 6869TIP3    H120564   1.889   3.516   3.747
 6869TIP3    H220565   1.740   3.500   3.725
 6870TIP3   OH220566   4.465   6.237   1.119
 6870TIP3    H120567   4.427   6.325   1.124
 6870TIP3    H220568   4.526   6.233   1.192
 6871TIP3   OH220569   4.460   0.246   6.352
 6871TIP3    H120570   4.404   0.196   6.293
 6871TIP3    H220571   4.490   0.181   6.416
 6872TIP3   OH220572   4.853   6.140   4.685
 6872TIP3    H120573   4.835   6.071   4.750
 6872TIP3    H220574   4.857   6.221   4.736
 6873TIP3   OH220575   2.573   6.763   5.402
 6873TIP3    H120576   2.484   6.739   5.376
 6873TIP3    H220577   2.568   6.857   5.420
 6874TIP3   OH220578   7.089   7.230   6.400
 6874TIP3    H120579   7.137   7.217   6.318
 6874TIP3    H220580   7.003   7.260   6.373
 6875TIP3   OH220581   6.848   3.455   3.636
 6875TIP3    H120582   6.824   3.548   3.630
 6875TIP3    H220583   6.803   3.414   3.562
 6876TIP3   OH220584   6.289   2.359   0.411
 6876TIP3    H120585   6.307   2.282   0.466
 6876TIP3    H220586   6.375   2.391   0.386
 6877TIP3   OH220587   1.764   5.667   1.111
 6877TIP3    H120588   1.750   5.576   1.134
 6877TIP3    H220589   1.694   5.715   1.155
 6878TIP3   OH220590   6.228   1.058   1.199
 6878TIP3    H120591   6.146   1.028   1.237
 6878TIP3    H220592   6.294   1.040   1.267
 6879TIP3   OH220593   1.734   4.197   3.227
 6879TIP3    H120594   1.709   4.130   3.163
 6879TIP3    H220595   1.653   4.221   3.271
 6880TIP3   OH220596   1.701   6.327   1.790
 6880TIP3    H120597   1.655   6.402   1.827
 6880TIP3    H220598   1.779   6.365   1.748
 6881TIP3   OH220599   6.149   5.142   4.273
 6881TIP3    H120600   6.087   5.078   4.306
 6881TIP3    H220601   6.189   5.100   4.196
 6882TIP3   OH220602   3.385   2.493   0.494
 6882TIP3    H120603   3.333   2.561   0.537
 6882TIP3    H220604   3.467   2.491   0.543
 6883TIP3   OH220605   0.556   3.074   1.911
 6883TIP3    H120606   0.646   3.089   1.882
 6883TIP3    H220607   0.562   2.996   1.967
 6884TIP3   OH220608   2.994   4.300   1.859
 6884TIP3    H120609   2.938   4.371   1.889
 6884TIP3    H220610   3.034   4.266   1.939
 6885TIP3   OH220611   5.688   5.379   1.366
 6885TIP3    H120612   5.667   5.399   1.275
 6885TIP3    H220613   5.784   5.383   1.370
 6886TIP3   OH220614   5.397   7.130   0.362
 6886TIP3    H120615   5.438   7.049   0.332
 6886TIP3    H220616   5.336   7.102   0.431
 6887TIP3   OH220617   3.875   3.176   1.557
 6887TIP3    H120618   3.957   3.212   1.590
 6887TIP3    H220619   3.895   3.149   1.467
 6888TIP3   OH220620   1.452   6.352   2.795
 6888TIP3    H120621   1.467   6.443   2.821
 6888TIP3    H220622   1.508   6.301   2.854
 6889TIP3   OH220623   4.424   1.301   4.173
 6889TIP3    H120624   4.448   1.393   4.184
 6889TIP3    H220625   4.329   1.301   4.173
 6890TIP3   OH220626   2.507   7.481   4.141
 6890TIP3    H120627   2.544   7.456   4.056
 6890TIP3    H220628   2.521   7.405   4.196
 6891TIP3   OH220629   7.607   4.273   2.694
 6891TIP3    H120630   7.612   4.314   2.608
 6891TIP3    H220631   7.630   4.342   2.755
 6892TIP3   OH220632   0.017   0.938   1.908
 6892TIP3    H120633   0.048   1.020   1.870
 6892TIP3    H220634  -0.067   0.922   1.864
 6893TIP3   OH220635   2.246   7.656   3.515
 6893TIP3    H120636   2.178   7.605   3.472
 6893TIP3    H220637   2.236   7.635   3.608
 6894TIP3   OH220638   1.142   5.876   5.164
 6894TIP3    H120639   1.166   5.932   5.238
 6894TIP3    H220640   1.222   5.871   5.111
 6895TIP3   OH220641   3.618   0.807   6.672
 6895TIP3    H120642   3.708   0.789   6.644
 6895TIP3    H220643   3.613   0.771   6.760
 6896TIP3   OH220644   0.640   7.329   2.856
 6896TIP3    H120645   0.638   7.330   2.760
 6896TIP3    H220646   0.695   7.404   2.880
 6897TIP3   OH220647   5.669   4.609   5.493
 6897TIP3    H120648   5.718   4.680   5.451
 6897TIP3    H220649   5.711   4.596   5.577
 6898TIP3   OH220650   1.824   2.184   1.266
 6898TIP3    H120651   1.777   2.122   1.209
 6898TIP3    H220652   1.823   2.266   1.217
 6899TIP3   OH220653   2.171   1.980   0.692
 6899TIP3    H120654   2.206   2.069   0.702
 6899TIP3    H220655   2.211   1.930   0.763
 6900TIP3   OH220656   0.562   5.962   2.003
 6900TIP3    H120657   0.505   6.039   1.996
 6900TIP3    H220658   0.649   5.994   1.979
 6901TIP3   OH220659   2.934   0.653   0.139
 6901TIP3    H120660   2.956   0.622   0.051
 6901TIP3    H220661   2.930   0.748   0.130
 6902TIP3   OH220662   4.483   2.734   4.662
 6902TIP3    H120663   4.408   2.759   4.608
 6902TIP3    H220664   4.447   2.727   4.751
 6903TIP3   OH220665   7.925   5.099   6.759
 6903TIP3    H120666   7.906   5.181   6.805
 6903TIP3    H220667   7.847   5.084   6.705
 6904TIP3   OH220668   6.271   2.016   6.230
 6904TIP3    H120669   6.229   2.049   6.150
 6904TIP3    H220670   6.220   2.056   6.301
 6905TIP3   OH220671   0.172   2.553   0.390
 6905TIP3    H120672   0.170   2.578   0.298
 6905TIP3    H220673   0.180   2.636   0.438
 6906TIP3   OH220674   5.128   5.390   5.968
 6906TIP3    H120675   5.178   5.381   6.049
 6906TIP3    H220676   5.172   5.331   5.906
 6907TIP3   OH220677   7.415   0.799   2.554
 6907TIP3    H120678   7.346   0.857   2.520
 6907TIP3    H220679   7.484   0.858   2.583
 6908TIP3   OH220680   3.098   7.198   3.577
 6908TIP3    H120681   3.059   7.122   3.622
 6908TIP3    H220682   3.192   7.184   3.584
 6909TIP3   OH220683   5.407   5.940   6.081
 6909TIP3    H120684   5.378   5.857   6.119
 6909TIP3    H220685   5.330   5.997   6.085
 6910TIP3   OH220686   5.594   0.752   4.675
 6910TIP3    H120687   5.565   0.693   4.605
 6910TIP3    H220688   5.633   0.826   4.630
 6911TIP3   OH220689   0.273   5.405   0.590
 6911TIP3    H120690   0.250   5.472   0.527
 6911TIP3    H220691   0.327   5.450   0.655
 6912TIP3   OH220692   4.010   7.723   1.971
 6912TIP3    H120693   4.043   7.693   2.055
 6912TIP3    H220694   4.087   7.753   1.924
 6913TIP3   OH220695   2.294   4.945   5.438
 6913TIP3    H120696   2.365   4.885   5.460
 6913TIP3    H220697   2.330   5.032   5.457
 6914TIP3   OH220698   3.028   4.783   2.598
 6914TIP3    H120699   3.070   4.717   2.653
 6914TIP3    H220700   3.015   4.858   2.655
 6915TIP3   OH220701   7.135   3.455   6.596
 6915TIP3    H120702   7.060   3.457   6.656
 6915TIP3    H220703   7.116   3.382   6.537
 6916TIP3   OH220704   7.439   2.986   1.265
 6916TIP3    H120705   7.447   3.048   1.338
 6916TIP3    H220706   7.345   2.983   1.248
 6917TIP3   OH220707   2.477   1.192   1.572
 6917TIP3    H120708   2.408   1.166   1.511
 6917TIP3    H220709   2.558   1.166   1.529
 6918TIP3   OH220710   1.262   7.293   1.045
 6918TIP3    H120711   1.301   7.243   1.116
 6918TIP3    H220712   1.334   7.307   0.983
 6919TIP3   OH220713   5.300   6.051   0.121
 6919TIP3    H120714   5.346   5.992   0.180
 6919TIP3    H220715   5.340   6.137   0.137
 6920TIP3   OH220716   2.804   6.382   3.210
 6920TIP3    H120717   2.717   6.418   3.194
 6920TIP3    H220718   2.864   6.455   3.193
 6921TIP3   OH220719   1.800   7.814   4.685
 6921TIP3    H120720   1.831   7.791   4.772
 6921TIP3    H220721   1.751   7.736   4.656
 6922TIP3   OH220722   1.810   5.228   5.544
 6922TIP3    H120723   1.776   5.306   5.500
 6922TIP3    H220724   1.750   5.214   5.618
 6923TIP3   OH220725   7.354   6.101   2.559
 6923TIP3    H120726   7.317   6.049   2.630
 6923TIP3    H220727   7.277   6.132   2.510
 6924TIP3   OH220728   1.565   0.538   0.840
 6924TIP3    H120729   1.533   0.601   0.775
 6924TIP3    H220730   1.591   0.461   0.788
 6925TIP3   OH220731   7.976   6.072   3.349
 6925TIP3    H120732   8.071   6.072   3.338
 6925TIP3    H220733   7.950   5.982   3.333
 6926TIP3   OH220734   3.173   3.606   6.326
 6926TIP3    H120735   3.157   3.615   6.232
 6926TIP3    H220736   3.190   3.513   6.338
 6927TIP3   OH220737   6.301   7.213   0.117
 6927TIP3    H120738   6.232   7.156   0.084
 6927TIP3    H220739   6.291   7.294   0.068
 6928TIP3   OH220740   3.471   2.932   3.792
 6928TIP3    H120741   3.427   2.899   3.871
 6928TIP3    H220742   3.437   2.877   3.721
 6929TIP3   OH220743   7.708   3.708   1.232
 6929TIP3    H120744   7.631   3.672   1.277
 6929TIP3    H220745   7.680   3.794   1.202
 6930TIP3   OH220746   2.727   3.109   2.559
 6930TIP3    H120747   2.813   3.105   2.516
 6930TIP3    H220748   2.727   3.194   2.604
 6931TIP3   OH220749   5.699   0.004   1.155
 6931TIP3    H120750   5.668   0.059   1.226
 6931TIP3    H220751   5.736   0.065   1.091
 6932TIP3   OH220752   3.007   6.010   5.788
 6932TIP3    H120753   2.916   6.025   5.810
 6932TIP3    H220754   3.033   6.088   5.738
 6933TIP3   OH220755   4.298   1.527   2.205
 6933TIP3    H120756   4.266   1.562   2.122
 6933TIP3    H220757   4.243   1.450   2.221
 6934TIP3   OH220758   0.845   3.125   1.978
 6934TIP3    H120759   0.862   3.187   1.908
 6934TIP3    H220760   0.815   3.179   2.052
 6935TIP3   OH220761   5.159   5.544   2.738
 6935TIP3    H120762   5.091   5.572   2.677
 6935TIP3    H220763   5.226   5.612   2.731
 6936TIP3   OH220764   4.956   6.751   2.622
 6936TIP3    H120765   4.955   6.663   2.584
 6936TIP3    H220766   5.029   6.750   2.684
 6937TIP3   OH220767   4.742   6.348   5.421
 6937TIP3    H120768   4.815   6.345   5.483
 6937TIP3    H220769   4.775   6.399   5.347
 6938TIP3   OH220770   8.248   4.856   6.217
 6938TIP3    H120771   8.194   4.919   6.264
 6938TIP3    H220772   8.268   4.898   6.133
 6939TIP3   OH220773   2.045   7.286   5.595
 6939TIP3    H120774   2.052   7.220   5.527
 6939TIP3    H220775   1.952   7.285   5.620
 6940TIP3   OH220776   1.129   7.392   3.478
 6940TIP3    H120777   1.174   7.312   3.453
 6940TIP3    H220778   1.193   7.439   3.532
 6941TIP3   OH220779   1.624   1.547   0.234
 6941TIP3    H120780   1.641   1.497   0.154
 6941TIP3    H220781   1.629   1.638   0.206
 6942TIP3   OH220782   6.886   6.234   2.990
 6942TIP3    H120783   6.979   6.250   3.008
 6942TIP3    H220784   6.865   6.294   2.918
 6943TIP3   OH220785   0.112   6.109   5.780
 6943TIP3    H120786   0.031   6.057   5.784
 6943TIP3    H220787   0.090   6.182   5.722
 6944TIP3   OH220788   4.934   6.624   2.271
 6944TIP3    H120789   4.940   6.719   2.282
 6944TIP3    H220790   4.850   6.600   2.311
 6945TIP3   OH220791   6.198   3.328   2.003
 6945TIP3    H120792   6.214   3.412   1.960
 6945TIP3    H220793   6.168   3.271   1.932
 6946TIP3   OH220794   6.099   2.705   6.612
 6946TIP3    H120795   6.141   2.631   6.656
 6946TIP3    H220796   6.069   2.761   6.684
 6947TIP3   OH220797   5.970   0.947   6.101
 6947TIP3    H120798   5.901   0.932   6.165
 6947TIP3    H220799   5.935   0.914   6.019
 6948TIP3   OH220800   7.194   2.108   3.841
 6948TIP3    H120801   7.129   2.112   3.771
 6948TIP3    H220802   7.169   2.031   3.893
 6949TIP3   OH220803   4.604   3.144   6.129
 6949TIP3    H120804   4.534   3.153   6.193
 6949TIP3    H220805   4.649   3.063   6.153
 6950TIP3   OH220806   4.338   5.364   2.148
 6950TIP3    H120807   4.342   5.412   2.065
 6950TIP3    H220808   4.422   5.319   2.155
 6951TIP3   OH220809   6.967   6.357   2.197
 6951TIP3    H120810   6.908   6.423   2.234
 6951TIP3    H220811   7.014   6.403   2.127
 6952TIP3   OH220812   7.465   5.346   6.167
 6952TIP3    H120813   7.395   5.325   6.105
 6952TIP3    H220814   7.525   5.402   6.118
 6953TIP3   OH220815   5.741   5.182   2.587
 6953TIP3    H120816   5.731   5.265   2.634
 6953TIP3    H220817   5.652   5.157   2.562
 6954TIP3   OH220818   6.926   4.022   0.127
 6954TIP3    H120819   6.875   3.942   0.134
 6954TIP3    H220820   6.915   4.065   0.212
 6955TIP3   OH220821   5.712   3.273   2.923
 6955TIP3    H120822   5.645   3.214   2.959
 6955TIP3    H220823   5.747   3.318   2.999
 6956TIP3   OH220824   3.057   3.834   4.857
 6956TIP3    H120825   3.043   3.739   4.862
 6956TIP3    H220826   2.975   3.872   4.886
 6957TIP3   OH220827   2.320   4.624   3.855
 6957TIP3    H120828   2.257   4.637   3.784
 6957TIP3    H220829   2.361   4.710   3.867
 6958TIP3   OH220830   4.033   4.321   1.510
 6958TIP3    H120831   4.035   4.295   1.603
 6958TIP3    H220832   3.941   4.311   1.485
 6959TIP3   OH220833   8.154   0.911   0.640
 6959TIP3    H120834   8.069   0.937   0.607
 6959TIP3    H220835   8.162   0.819   0.617
 6960TIP3   OH220836   6.981   3.049   1.379
 6960TIP3    H120837   7.057   3.048   1.436
 6960TIP3    H220838   6.961   3.142   1.367
 6961TIP3   OH220839   3.822   2.807   1.963
 6961TIP3    H120840   3.763   2.818   2.037
 6961TIP3    H220841   3.838   2.712   1.959
 6962TIP3   OH220842   3.749   3.538   3.360
 6962TIP3    H120843   3.682   3.592   3.401
 6962TIP3    H220844   3.789   3.490   3.433
 6963TIP3   OH220845   8.224   4.848   1.657
 6963TIP3    H120846   8.151   4.815   1.605
 6963TIP3    H220847   8.262   4.918   1.604
 6964TIP3   OH220848   4.170   2.478   4.842
 6964TIP3    H120849   4.080   2.486   4.809
 6964TIP3    H220850   4.202   2.396   4.804
 6965TIP3   OH220851   5.014   4.673   3.990
 6965TIP3    H120852   4.961   4.594   3.988
 6965TIP3    H220853   5.085   4.655   3.929
 6966TIP3   OH220854   2.830   1.578   5.288
 6966TIP3    H120855   2.910   1.603   5.242
 6966TIP3    H220856   2.842   1.486   5.310
 6967TIP3   OH220857   1.965   7.362   6.682
 6967TIP3    H120858   2.018   7.440   6.703
 6967TIP3    H220859   1.982   7.346   6.589
 6968TIP3   OH220860   3.070   5.355   3.620
 6968TIP3    H120861   3.063   5.277   3.675
 6968TIP3    H220862   3.147   5.401   3.653
 6969TIP3   OH220863   3.502   5.567   0.845
 6969TIP3    H120864   3.552   5.601   0.920
 6969TIP3    H220865   3.423   5.620   0.843
 6970TIP3   OH220866   0.137   6.911   5.895
 6970TIP3    H120867   0.084   6.974   5.845
 6970TIP3    H220868   0.082   6.887   5.970
 6971TIP3   OH220869   6.602   6.933   5.817
 6971TIP3    H120870   6.588   6.838   5.817
 6971TIP3    H220871   6.601   6.957   5.910
 6972TIP3   OH220872   6.345   4.756   0.396
 6972TIP3    H120873   6.341   4.828   0.332
 6972TIP3    H220874   6.431   4.765   0.437
 6973TIP3   OH220875   2.607   0.691   4.468
 6973TIP3    H120876   2.581   0.761   4.408
 6973TIP3    H220877   2.697   0.670   4.443
 6974TIP3   OH220878   4.372   4.602   2.135
 6974TIP3    H120879   4.374   4.533   2.201
 6974TIP3    H220880   4.309   4.666   2.170
 6975TIP3   OH220881   7.050   7.770   1.228
 6975TIP3    H120882   7.071   7.721   1.307
 6975TIP3    H220883   7.007   7.706   1.171
 6976TIP3   OH220884   5.823   1.172   1.470
 6976TIP3    H120885   5.757   1.233   1.503
 6976TIP3    H220886   5.873   1.147   1.548
 6977TIP3   OH220887   0.399   2.444   5.483
 6977TIP3    H120888   0.389   2.534   5.453
 6977TIP3    H220889   0.399   2.451   5.579
 6978TIP3   OH220890   7.923   7.517   1.482
 6978TIP3    H120891   7.907   7.425   1.502
 6978TIP3    H220892   8.015   7.521   1.455
 6979TIP3   OH220893   2.060   5.915   1.746
 6979TIP3    H120894   2.039   5.875   1.661
 6979TIP3    H220895   1.988   5.976   1.762
 6980TIP3   OH220896   0.684   7.360   6.604
 6980TIP3    H120897   0.739   7.289   6.637
 6980TIP3    H220898   0.594   7.327   6.613
 6981TIP3   OH220899   0.331   0.444   3.832
 6981TIP3    H120900   0.287   0.455   3.748
 6981TIP3    H220901   0.407   0.389   3.813
 6982TIP3   OH220902   4.250   3.976   5.174
 6982TIP3    H120903   4.313   3.953   5.105
 6982TIP3    H220904   4.175   3.920   5.156
 6983TIP3   OH220905   2.746   7.484   6.700
 6983TIP3    H120906   2.724   7.394   6.677
 6983TIP3    H220907   2.841   7.484   6.711
 6984TIP3   OH220908   2.356   7.155   3.986
 6984TIP3    H120909   2.384   7.064   3.990
 6984TIP3    H220910   2.427   7.205   4.027
 6985TIP3   OH220911   3.921   7.522   5.011
 6985TIP3    H120912   3.998   7.473   5.037
 6985TIP3    H220913   3.950   7.613   5.009
 6986TIP3   OH220914   5.606   5.683   4.241
 6986TIP3    H120915   5.555   5.715   4.167
 6986TIP3    H220916   5.683   5.740   4.244
 6987TIP3   OH220917   1.865   2.369   1.989
 6987TIP3    H120918   1.877   2.402   1.900
 6987TIP3    H220919   1.941   2.401   2.037
 6988TIP3   OH220920   3.803   3.452   6.821
 6988TIP3    H120921   3.876   3.441   6.761
 6988TIP3    H220922   3.745   3.379   6.802
 6989TIP3   OH220923   1.776   3.516   2.374
 6989TIP3    H120924   1.721   3.588   2.343
 6989TIP3    H220925   1.755   3.508   2.467
 6990TIP3   OH220926   0.832   2.199   0.998
 6990TIP3    H120927   0.756   2.141   0.988
 6990TIP3    H220928   0.795   2.285   1.018
 6991TIP3   OH220929   1.869   1.202   0.742
 6991TIP3    H120930   1.841   1.162   0.659
 6991TIP3    H220931   1.964   1.190   0.743
 6992TIP3   OH220932   0.677   1.163   6.219
 6992TIP3    H120933   0.750   1.172   6.158
 6992TIP3    H220934   0.682   1.072   6.249
 6993TIP3   OH220935   3.436   1.818   6.747
 6993TIP3    H120936   3.416   1.782   6.660
 6993TIP3    H220937   3.526   1.849   6.741
 6994TIP3   OH220938   3.279   4.181   1.285
 6994TIP3    H120939   3.234   4.234   1.219
 6994TIP3    H220940   3.357   4.148   1.241
 6995TIP3   OH220941   8.130   1.676   0.943
 6995TIP3    H120942   8.184   1.606   0.906
 6995TIP3    H220943   8.110   1.733   0.869
 6996TIP3   OH220944   5.721   5.095   0.148
 6996TIP3    H120945   5.706   5.186   0.172
 6996TIP3    H220946   5.772   5.099   0.067
 6997TIP3   OH220947   6.498   2.354   2.852
 6997TIP3    H120948   6.586   2.360   2.887
 6997TIP3    H220949   6.447   2.416   2.904
 6998TIP3   OH220950   2.612   2.436   4.542
 6998TIP3    H120951   2.655   2.513   4.579
 6998TIP3    H220952   2.682   2.386   4.502
 6999TIP3   OH220953   0.205   2.932   5.430
 6999TIP3    H120954   0.213   2.861   5.366
 6999TIP3    H220955   0.119   2.920   5.468
 7000TIP3   OH220956   3.313   6.463   1.597
 7000TIP3    H120957   3.396   6.454   1.644
 7000TIP3    H220958   3.308   6.386   1.541
 7001TIP3   OH220959   6.914   2.551   0.679
 7001TIP3    H120960   6.911   2.501   0.597
 7001TIP3    H220961   6.837   2.521   0.728
 7002TIP3   OH220962   3.079   6.217   6.061
 7002TIP3    H120963   3.126   6.272   6.123
 7002TIP3    H220964   3.115   6.241   5.975
 7003TIP3   OH220965   4.725   2.029   4.723
 7003TIP3    H120966   4.676   2.109   4.705
 7003TIP3    H220967   4.658   1.962   4.734
 7004TIP3   OH220968   1.742   4.364   2.883
 7004TIP3    H120969   1.741   4.407   2.969
 7004TIP3    H220970   1.663   4.309   2.883
 7005TIP3   OH220971   5.623   1.222   1.951
 7005TIP3    H120972   5.632   1.315   1.970
 7005TIP3    H220973   5.660   1.178   2.027
 7006TIP3   OH220974   1.838   2.848   6.247
 7006TIP3    H120975   1.805   2.797   6.320
 7006TIP3    H220976   1.921   2.884   6.277
 7007TIP3   OH220977   2.998   3.753   3.219
 7007TIP3    H120978   2.948   3.693   3.274
 7007TIP3    H220979   3.080   3.767   3.267
 7008TIP3   OH220980   0.816   0.943   5.387
 7008TIP3    H120981   0.754   0.872   5.369
 7008TIP3    H220982   0.883   0.903   5.443
 7009TIP3   OH220983   1.117   1.454   5.707
 7009TIP3    H120984   1.076   1.487   5.786
 7009TIP3    H220985   1.209   1.441   5.732
 7010TIP3   OH220986   3.556   3.003   2.392
 7010TIP3    H120987   3.487   3.049   2.439
 7010TIP3    H220988   3.600   3.071   2.341
 7011TIP3   OH220989   0.826   0.215   2.869
 7011TIP3    H120990   0.818   0.143   2.807
 7011TIP3    H220991   0.736   0.242   2.886
 7012TIP3   OH220992   4.119   7.445   3.874
 7012TIP3    H120993   4.073   7.523   3.907
 7012TIP3    H220994   4.065   7.372   3.903
 7013TIP3   OH220995   4.168   1.122   2.396
 7013TIP3    H120996   4.199   1.161   2.478
 7013TIP3    H220997   4.168   1.028   2.412
 7014TIP3   OH220998   1.333   0.143   5.469
 7014TIP3    H120999   1.399   0.087   5.428
 7014TIP3    H221000   1.380   0.191   5.538
 7015TIP3   OH221001   5.011   2.775   2.119
 7015TIP3    H121002   4.921   2.782   2.088
 7015TIP3    H221003   5.049   2.705   2.066
 7016TIP3   OH221004   5.503   3.354   0.469
 7016TIP3    H121005   5.496   3.385   0.560
 7016TIP3    H221006   5.476   3.262   0.473
 7017TIP3   OH221007   2.412   3.287   5.915
 7017TIP3    H121008   2.495   3.273   5.961
 7017TIP3    H221009   2.352   3.225   5.955
 7018TIP3   OH221010   2.817   1.545   6.139
 7018TIP3    H121011   2.821   1.622   6.196
 7018TIP3    H221012   2.880   1.484   6.177
 7019TIP3   OH221013   1.053   5.079   5.918
 7019TIP3    H121014   1.147   5.096   5.928
 7019TIP3    H221015   1.049   5.005   5.857
 7020TIP3   OH221016   0.154   4.661   2.131
 7020TIP3    H121017   0.240   4.698   2.113
 7020TIP3    H221018   0.168   4.606   2.208
 7021TIP3   OH221019   6.767   6.679   5.043
 7021TIP3    H121020   6.843   6.625   5.024
 7021TIP3    H221021   6.796   6.737   5.114
 7022TIP3   OH221022   0.972   4.941   5.421
 7022TIP3    H121023   0.940   4.859   5.458
 7022TIP3    H221024   1.055   4.917   5.380
 7023TIP3   OH221025   1.017   0.569   1.124
 7023TIP3    H121026   1.072   0.617   1.187
 7023TIP3    H221027   1.046   0.601   1.039
 7024TIP3   OH221028   6.018   3.275   3.305
 7024TIP3    H121029   6.066   3.198   3.335
 7024TIP3    H221030   5.972   3.246   3.226
 7025TIP3   OH221031   6.785   7.772   2.035
 7025TIP3    H121032   6.732   7.746   2.111
 7025TIP3    H221033   6.866   7.723   2.044
 7026TIP3   OH221034   7.125   1.269   2.347
 7026TIP3    H121035   7.057   1.211   2.381
 7026TIP3    H221036   7.113   1.351   2.394
 7027TIP3   OH221037   0.313   4.507   0.030
 7027TIP3    H121038   0.229   4.546   0.054
 7027TIP3    H221039   0.370   4.523   0.105
 7028TIP3   OH221040   1.593   6.283   2.103
 7028TIP3    H121041   1.507   6.293   2.144
 7028TIP3    H221042   1.597   6.354   2.039
 7029TIP3   OH221043   7.491   5.079   4.366
 7029TIP3    H121044   7.548   5.122   4.303
 7029TIP3    H221045   7.537   5.088   4.450
 7030TIP3   OH221046   7.264   0.719   5.485
 7030TIP3    H121047   7.305   0.685   5.564
 7030TIP3    H221048   7.182   0.670   5.477
 7031TIP3   OH221049   6.990   6.522   0.415
 7031TIP3    H121050   6.926   6.519   0.344
 7031TIP3    H221051   7.070   6.556   0.375
 7032TIP3   OH221052   5.835   0.245   5.516
 7032TIP3    H121053   5.759   0.205   5.557
 7032TIP3    H221054   5.852   0.191   5.439
 7033TIP3   OH221055   7.702   4.667   3.291
 7033TIP3    H121056   7.638   4.675   3.362
 7033TIP3    H221057   7.778   4.717   3.320
 7034TIP3   OH221058   5.275   6.193   0.391
 7034TIP3    H121059   5.320   6.236   0.463
 7034TIP3    H221060   5.266   6.261   0.324
 7035TIP3   OH221061   3.732   2.088   5.716
 7035TIP3    H121062   3.765   1.999   5.709
 7035TIP3    H221063   3.640   2.082   5.690
 7036TIP3   OH221064   3.723   7.293   6.758
 7036TIP3    H121065   3.692   7.247   6.680
 7036TIP3    H221066   3.730   7.225   6.825
 7037TIP3   OH221067   4.185   5.439   3.188
 7037TIP3    H121068   4.271   5.430   3.148
 7037TIP3    H221069   4.125   5.443   3.114
 7038TIP3   OH221070   7.092   5.194   1.531
 7038TIP3    H121071   7.024   5.262   1.534
 7038TIP3    H221072   7.087   5.159   1.442
 7039TIP3   OH221073   6.675   5.085   2.791
 7039TIP3    H121074   6.664   5.007   2.736
 7039TIP3    H221075   6.770   5.095   2.799
 7040TIP3   OH221076   4.969   4.114   5.796
 7040TIP3    H121077   4.881   4.136   5.825
 7040TIP3    H221078   5.019   4.196   5.806
 7041TIP3   OH221079   3.198   1.481   3.793
 7041TIP3    H121080   3.289   1.478   3.820
 7041TIP3    H221081   3.201   1.506   3.701
 7042TIP3   OH221082   2.796   7.801   4.928
 7042TIP3    H121083   2.794   7.732   4.995
 7042TIP3    H221084   2.739   7.869   4.963
 7043TIP3   OH221085   4.623   5.813   1.748
 7043TIP3    H121086   4.568   5.833   1.823
 7043TIP3    H221087   4.611   5.887   1.689
 7044TIP3   OH221088   5.264   3.914   3.432
 7044TIP3    H121089   5.358   3.894   3.437
 7044TIP3    H221090   5.244   3.912   3.338
 7045TIP3   OH221091   5.352   2.718   1.271
 7045TIP3    H121092   5.289   2.789   1.279
 7045TIP3    H221093   5.376   2.717   1.178
 7046TIP3   OH221094   6.804   0.215   2.206
 7046TIP3    H121095   6.897   0.233   2.193
 7046TIP3    H221096   6.802   0.128   2.247
 7047TIP3   OH221097   1.927   6.590   5.073
 7047TIP3    H121098   2.023   6.594   5.069
 7047TIP3    H221099   1.905   6.510   5.026
 7048TIP3   OH221100   7.112   1.440   6.158
 7048TIP3    H121101   7.062   1.403   6.086
 7048TIP3    H221102   7.203   1.438   6.128
 7049TIP3   OH221103   6.160   1.656   3.774
 7049TIP3    H121104   6.076   1.680   3.734
 7049TIP3    H221105   6.219   1.727   3.749
 7050TIP3   OH221106   5.651   0.928   1.615
 7050TIP3    H121107   5.603   0.893   1.691
 7050TIP3    H221108   5.714   0.989   1.653
 7051TIP3   OH221109   0.321   0.582   2.513
 7051TIP3    H121110   0.371   0.505   2.487
 7051TIP3    H221111   0.377   0.656   2.489
 7052TIP3   OH221112   6.585   3.948   3.869
 7052TIP3    H121113   6.564   4.037   3.842
 7052TIP3    H221114   6.507   3.917   3.914
 7053TIP3   OH221115   7.154   4.331   6.575
 7053TIP3    H121116   7.102   4.411   6.566
 7053TIP3    H221117   7.209   4.329   6.498
 7054TIP3   OH221118   3.834   5.785   0.968
 7054TIP3    H121119   3.873   5.870   0.951
 7054TIP3    H221120   3.853   5.733   0.890
 7055TIP3   OH221121   3.031   5.238   1.847
 7055TIP3    H121122   3.003   5.154   1.883
 7055TIP3    H221123   2.955   5.295   1.854
 7056TIP3   OH221124   4.607   6.940   3.806
 7056TIP3    H121125   4.567   6.856   3.786
 7056TIP3    H221126   4.650   6.927   3.891
 7057TIP3   OH221127   6.435   5.742   5.476
 7057TIP3    H121128   6.361   5.730   5.417
 7057TIP3    H221129   6.511   5.751   5.419
 7058TIP3   OH221130   6.285   6.857   6.190
 7058TIP3    H121131   6.226   6.803   6.243
 7058TIP3    H221132   6.372   6.841   6.228
 7059TIP3   OH221133   5.597   7.572   5.303
 7059TIP3    H121134   5.593   7.648   5.361
 7059TIP3    H221135   5.530   7.588   5.237
 7060TIP3   OH221136   2.324   7.040   0.721
 7060TIP3    H121137   2.383   7.003   0.785
 7060TIP3    H221138   2.366   7.024   0.636
 7061TIP3   OH221139   7.908   1.460   0.929
 7061TIP3    H121140   7.909   1.554   0.909
 7061TIP3    H221141   7.945   1.454   1.018
 7062TIP3   OH221142   4.383   4.870   4.424
 7062TIP3    H121143   4.300   4.825   4.437
 7062TIP3    H221144   4.360   4.951   4.379
 7063TIP3   OH221145   2.405   3.193   5.639
 7063TIP3    H121146   2.352   3.115   5.653
 7063TIP3    H221147   2.392   3.245   5.719
 7064TIP3   OH221148   6.414   1.949   4.732
 7064TIP3    H121149   6.330   1.905   4.716
 7064TIP3    H221150   6.462   1.940   4.650
 7065TIP3   OH221151   3.261   0.799   0.185
 7065TIP3    H121152   3.305   0.840   0.260
 7065TIP3    H221153   3.185   0.755   0.223
 7066TIP3   OH221154   0.595   2.921   4.761
 7066TIP3    H121155   0.573   2.852   4.824
 7066TIP3    H221156   0.516   2.974   4.755
 7067TIP3   OH221157   2.276   2.797   5.175
 7067TIP3    H121158   2.245   2.858   5.109
 7067TIP3    H221159   2.229   2.821   5.255
 7068TIP3   OH221160   7.530   3.175   0.357
 7068TIP3    H121161   7.535   3.223   0.440
 7068TIP3    H221162   7.508   3.085   0.384
 7069TIP3   OH221163   0.769   4.382   3.743
 7069TIP3    H121164   0.725   4.352   3.822
 7069TIP3    H221165   0.701   4.425   3.692
 7070TIP3   OH221166   8.071   2.629   0.535
 7070TIP3    H121167   8.127   2.620   0.613
 7070TIP3    H221168   8.094   2.715   0.499
 7071TIP3   OH221169   2.362   2.923   0.607
 7071TIP3    H121170   2.306   2.990   0.567
 7071TIP3    H221171   2.435   2.912   0.546
 7072TIP3   OH221172   6.004   2.349   0.054
 7072TIP3    H121173   5.931   2.337  -0.007
 7072TIP3    H221174   6.008   2.266   0.103
 7073TIP3   OH221175   6.741   7.646   1.235
 7073TIP3    H121176   6.723   7.554   1.251
 7073TIP3    H221177   6.819   7.646   1.179
 7074TIP3   OH221178   0.606   0.144   2.616
 7074TIP3    H121179   0.528   0.136   2.670
 7074TIP3    H221180   0.583   0.102   2.533
 7075TIP3   OH221181   3.360   0.148   4.201
 7075TIP3    H121182   3.434   0.130   4.259
 7075TIP3    H221183   3.384   0.231   4.158
 7076TIP3   OH221184   0.203   0.805   3.794
 7076TIP3    H121185   0.177   0.841   3.709
 7076TIP3    H221186   0.181   0.712   3.788
 7077TIP3   OH221187   8.075   3.402   0.630
 7077TIP3    H121188   8.046   3.400   0.721
 7077TIP3    H221189   7.994   3.401   0.579
 7078TIP3   OH221190   4.512   0.743   5.308
 7078TIP3    H121191   4.481   0.673   5.365
 7078TIP3    H221192   4.432   0.776   5.266
 7079TIP3   OH221193   6.530   5.590   0.909
 7079TIP3    H121194   6.445   5.600   0.951
 7079TIP3    H221195   6.527   5.503   0.868
 7080TIP3   OH221196   6.226   6.421   5.910
 7080TIP3    H121197   6.169   6.480   5.960
 7080TIP3    H221198   6.166   6.359   5.869
 7081TIP3   OH221199   6.943   5.026   6.273
 7081TIP3    H121200   6.869   5.081   6.245
 7081TIP3    H221201   6.915   4.989   6.357
 7082TIP3   OH221202   4.748   1.507   1.318
 7082TIP3    H121203   4.770   1.586   1.270
 7082TIP3    H221204   4.753   1.532   1.410
 7083TIP3   OH221205   7.243   0.957   1.392
 7083TIP3    H121206   7.168   1.016   1.398
 7083TIP3    H221207   7.283   0.978   1.307
 7084TIP3   OH221208   2.239   2.043   2.254
 7084TIP3    H121209   2.317   1.996   2.224
 7084TIP3    H221210   2.204   2.083   2.174
 7085TIP3   OH221211   3.574   6.556   6.604
 7085TIP3    H121212   3.615   6.541   6.519
 7085TIP3    H221213   3.480   6.562   6.585
 7086TIP3   OH221214   3.320   5.795   2.810
 7086TIP3    H121215   3.369   5.743   2.746
 7086TIP3    H221216   3.276   5.731   2.865
 7087TIP3   OH221217   1.196   2.920   4.116
 7087TIP3    H121218   1.268   2.858   4.103
 7087TIP3    H221219   1.127   2.868   4.157
 7088TIP3   OH221220   5.680   2.658   0.896
 7088TIP3    H121221   5.723   2.744   0.897
 7088TIP3    H221222   5.690   2.624   0.984
 7089TIP3   OH221223   1.697   5.885   0.149
 7089TIP3    H121224   1.698   5.924   0.237
 7089TIP3    H221225   1.667   5.956   0.092
 7090TIP3   OH221226   1.343   6.407   2.487
 7090TIP3    H121227   1.416   6.465   2.507
 7090TIP3    H221228   1.380   6.319   2.492
 7091TIP3   OH221229   0.416   6.360   5.931
 7091TIP3    H121230   0.467   6.282   5.953
 7091TIP3    H221231   0.353   6.330   5.865
 7092TIP3   OH221232   2.021   6.461   2.745
 7092TIP3    H121233   2.004   6.551   2.717
 7092TIP3    H221234   2.089   6.470   2.812
 7093TIP3   OH221235   3.832   5.848   1.756
 7093TIP3    H121236   3.770   5.868   1.826
 7093TIP3    H221237   3.903   5.801   1.799
 7094TIP3   OH221238   5.494   7.359   3.260
 7094TIP3    H121239   5.439   7.437   3.259
 7094TIP3    H221240   5.539   7.361   3.345
 7095TIP3   OH221241   1.422   3.026   2.759
 7095TIP3    H121242   1.357   2.978   2.810
 7095TIP3    H221243   1.477   2.958   2.720
 7096TIP3   OH221244   3.067   0.259   6.435
 7096TIP3    H121245   3.146   0.206   6.446
 7096TIP3    H221246   2.995   0.195   6.435
 7097TIP3   OH221247   2.345   0.753   6.773
 7097TIP3    H121248   2.386   0.709   6.698
 7097TIP3    H221249   2.358   0.693   6.846
 7098TIP3   OH221250   7.966   0.953   2.759
 7098TIP3    H121251   8.019   0.930   2.683
 7098TIP3    H221252   7.963   1.049   2.758
 7099TIP3   OH221253   1.466  -0.007   5.086
 7099TIP3    H121254   1.506   0.000   5.173
 7099TIP3    H221255   1.398   0.059   5.085
 7100TIP3   OH221256   7.532   5.589   1.856
 7100TIP3    H121257   7.454   5.565   1.906
 7100TIP3    H221258   7.500   5.612   1.769
 7101TIP3   OH221259   1.500   3.459   6.655
 7101TIP3    H121260   1.446   3.382   6.641
 7101TIP3    H221261   1.557   3.463   6.578
 7102TIP3   OH221262   7.680   4.660   1.707
 7102TIP3    H121263   7.714   4.648   1.618
 7102TIP3    H221264   7.602   4.604   1.711
 7103TIP3   OH221265   2.567   6.031   6.298
 7103TIP3    H121266   2.596   6.076   6.218
 7103TIP3    H221267   2.499   6.087   6.334
 7104TIP3   OH221268   3.857   3.676   0.444
 7104TIP3    H121269   3.821   3.728   0.515
 7104TIP3    H221270   3.797   3.601   0.435
 7105TIP3   OH221271   4.520   5.650   1.231
 7105TIP3    H121272   4.452   5.610   1.286
 7105TIP3    H221273   4.485   5.646   1.143
 7106TIP3   OH221274   1.788   7.182   3.253
 7106TIP3    H121275   1.707   7.132   3.254
 7106TIP3    H221276   1.812   7.187   3.161
 7107TIP3   OH221277   0.689   4.529   1.709
 7107TIP3    H121278   0.768   4.482   1.683
 7107TIP3    H221279   0.649   4.557   1.627
 7108TIP3   OH221280   3.922   2.335   3.382
 7108TIP3    H121281   3.961   2.418   3.353
 7108TIP3    H221282   3.960   2.319   3.468
 7109TIP3   OH221283   1.042   3.667   0.983
 7109TIP3    H121284   1.038   3.578   1.016
 7109TIP3    H221285   0.964   3.677   0.929
 7110TIP3   OH221286   4.917   7.615   3.078
 7110TIP3    H121287   4.994   7.559   3.077
 7110TIP3    H221288   4.943   7.694   3.030
 7111TIP3   OH221289   8.227   2.406   0.428
 7111TIP3    H121290   8.259   2.465   0.359
 7111TIP3    H221291   8.199   2.465   0.498
 7112TIP3   OH221292   3.465   5.555   3.454
 7112TIP3    H121293   3.456   5.606   3.535
 7112TIP3    H221294   3.459   5.619   3.384
 7113TIP3   OH221295   0.541   2.527   0.378
 7113TIP3    H121296   0.542   2.610   0.426
 7113TIP3    H221297   0.634   2.504   0.368
 7114TIP3   OH221298   4.693   0.063   4.414
 7114TIP3    H121299   4.707   0.044   4.506
 7114TIP3    H221300   4.703   0.158   4.407
 7115TIP3   OH221301   5.370   5.508   4.939
 7115TIP3    H121302   5.278   5.492   4.916
 7115TIP3    H221303   5.366   5.565   5.016
 7116TIP3   OH221304   2.006   2.742   4.368
 7116TIP3    H121305   2.095   2.745   4.404
 7116TIP3    H221306   1.976   2.832   4.371
 7117TIP3   OH221307   8.125   0.242   2.522
 7117TIP3    H121308   8.135   0.330   2.559
 7117TIP3    H221309   8.184   0.188   2.574
 7118TIP3   OH221310   7.034   4.804   4.772
 7118TIP3    H121311   7.010   4.751   4.848
 7118TIP3    H221312   7.116   4.766   4.741
 7119TIP3   OH221313   3.379   2.859   5.028
 7119TIP3    H121314   3.402   2.893   4.942
 7119TIP3    H221315   3.341   2.934   5.074
 7120TIP3   OH221316   2.027   5.032   3.516
 7120TIP3    H121317   2.117   5.027   3.485
 7120TIP3    H221318   1.986   4.952   3.484
 7121TIP3   OH221319   1.733   0.431   4.108
 7121TIP3    H121320   1.741   0.355   4.165
 7121TIP3    H221321   1.673   0.403   4.038
 7122TIP3   OH221322   6.655   6.495   2.276
 7122TIP3    H121323   6.667   6.541   2.193
 7122TIP3    H221324   6.617   6.560   2.335
 7123TIP3   OH221325   3.744   7.494   3.926
 7123TIP3    H121326   3.785   7.409   3.943
 7123TIP3    H221327   3.702   7.517   4.009
 7124TIP3   OH221328   0.127   2.599   1.514
 7124TIP3    H121329   0.160   2.554   1.436
 7124TIP3    H221330   0.076   2.533   1.561
 7125TIP3   OH221331   7.648   5.193   4.647
 7125TIP3    H121332   7.733   5.174   4.687
 7125TIP3    H221333   7.641   5.289   4.650
 7126TIP3   OH221334   0.090   6.947   0.879
 7126TIP3    H121335   0.176   6.985   0.862
 7126TIP3    H221336   0.037   6.971   0.803
 7127TIP3   OH221337   1.333   3.241   6.679
 7127TIP3    H121338   1.287   3.186   6.617
 7127TIP3    H221339   1.345   3.186   6.756
 7128TIP3   OH221340   7.520   3.295   2.161
 7128TIP3    H121341   7.612   3.318   2.173
 7128TIP3    H221342   7.522   3.209   2.119
 7129TIP3   OH221343   5.306   4.560   2.032
 7129TIP3    H121344   5.324   4.592   1.943
 7129TIP3    H221345   5.245   4.487   2.018
 7130TIP3   OH221346   1.479   6.271   3.951
 7130TIP3    H121347   1.568   6.238   3.964
 7130TIP3    H221348   1.438   6.263   4.037
 7131TIP3   OH221349   6.509   0.397   3.953
 7131TIP3    H121350   6.551   0.413   3.869
 7131TIP3    H221351   6.516   0.302   3.965
 7132TIP3   OH221352   8.257   0.991   4.801
 7132TIP3    H121353   8.283   0.908   4.760
 7132TIP3    H221354   8.339   1.028   4.833
 7133TIP3   OH221355   3.337   6.750   5.896
 7133TIP3    H121356   3.262   6.715   5.847
 7133TIP3    H221357   3.298   6.805   5.964
 7134TIP3   OH221358   1.988   4.286   5.029
 7134TIP3    H121359   1.903   4.307   5.068
 7134TIP3    H221360   2.048   4.281   5.104
 7135TIP3   OH221361   5.725   0.567   2.442
 7135TIP3    H121362   5.751   0.508   2.371
 7135TIP3    H221363   5.763   0.528   2.521
 7136TIP3   OH221364   2.105   7.256   5.269
 7136TIP3    H121365   2.110   7.177   5.323
 7136TIP3    H221366   2.196   7.278   5.250
 7137TIP3   OH221367   2.645   0.459   4.328
 7137TIP3    H121368   2.551   0.463   4.315
 7137TIP3    H221369   2.677   0.546   4.303
 7138TIP3   OH221370   4.772   2.915   1.797
 7138TIP3    H121371   4.682   2.934   1.769
 7138TIP3    H221372   4.824   2.987   1.760
 7139TIP3   OH221373   5.664   2.185   3.579
 7139TIP3    H121374   5.628   2.103   3.614
 7139TIP3    H221375   5.746   2.196   3.628
 7140TIP3   OH221376   0.252   1.516   6.457
 7140TIP3    H121377   0.196   1.496   6.382
 7140TIP3    H221378   0.199   1.573   6.513
 7141TIP3   OH221379   6.169   2.741   3.085
 7141TIP3    H121380   6.076   2.759   3.097
 7141TIP3    H221381   6.209   2.827   3.072
 7142TIP3   OH221382   4.045   1.938   5.667
 7142TIP3    H121383   3.973   1.947   5.605
 7142TIP3    H221384   4.099   2.016   5.652
 7143TIP3   OH221385   5.764   7.301   0.050
 7143TIP3    H121386   5.711   7.295   0.129
 7143TIP3    H221387   5.750   7.219   0.004
 7144TIP3   OH221388   2.338   5.000   1.982
 7144TIP3    H121389   2.276   5.069   2.003
 7144TIP3    H221390   2.416   5.046   1.951
 7145TIP3   OH221391   3.642   7.329   2.925
 7145TIP3    H121392   3.728   7.328   2.882
 7145TIP3    H221393   3.606   7.415   2.902
 7146TIP3   OH221394   6.501   6.962   3.090
 7146TIP3    H121395   6.420   7.011   3.106
 7146TIP3    H221396   6.571   7.024   3.108
 7147TIP3   OH221397   5.934   3.480   3.014
 7147TIP3    H121398   6.010   3.514   2.966
 7147TIP3    H221399   5.927   3.537   3.091
 7148TIP3   OH221400   6.816   5.495   4.384
 7148TIP3    H121401   6.777   5.491   4.297
 7148TIP3    H221402   6.803   5.408   4.421
 7149TIP3   OH221403   1.924   7.122   4.311
 7149TIP3    H121404   1.945   7.036   4.275
 7149TIP3    H221405   1.987   7.181   4.270
 7150TIP3   OH221406   7.536   2.011   2.146
 7150TIP3    H121407   7.531   2.104   2.168
 7150TIP3    H221408   7.622   1.984   2.178
 7151TIP3   OH221409   6.876   2.564   4.440
 7151TIP3    H121410   6.967   2.592   4.429
 7151TIP3    H221411   6.881   2.484   4.492
 7152TIP3   OH221412   6.660   4.363   3.309
 7152TIP3    H121413   6.654   4.440   3.366
 7152TIP3    H221414   6.734   4.382   3.251
 7153TIP3   OH221415   5.485   2.391   0.186
 7153TIP3    H121416   5.533   2.464   0.224
 7153TIP3    H221417   5.417   2.371   0.251
 7154TIP3   OH221418   5.552   3.312   3.195
 7154TIP3    H121419   5.586   3.342   3.279
 7154TIP3    H221420   5.557   3.216   3.200
 7155TIP3   OH221421   2.116   5.437   1.484
 7155TIP3    H121422   2.089   5.501   1.550
 7155TIP3    H221423   2.104   5.352   1.527
 7156TIP3   OH221424   6.668   1.894   4.044
 7156TIP3    H121425   6.626   1.813   4.015
 7156TIP3    H221426   6.753   1.894   4.001
 7157TIP3   OH221427   2.776   6.497   5.525
 7157TIP3    H121428   2.722   6.530   5.453
 7157TIP3    H221429   2.866   6.512   5.497
 7158TIP3   OH221430   4.028   0.617   6.124
 7158TIP3    H121431   3.975   0.685   6.166
 7158TIP3    H221432   3.981   0.597   6.043
 7159TIP3   OH221433   0.171   6.392   0.424
 7159TIP3    H121434   0.247   6.335   0.428
 7159TIP3    H221435   0.207   6.480   0.412
 7160TIP3   OH221436   6.395   1.613   4.254
 7160TIP3    H121437   6.461   1.632   4.320
 7160TIP3    H221438   6.431   1.539   4.204
 7161TIP3   OH221439   7.933   3.455   5.415
 7161TIP3    H121440   7.886   3.521   5.364
 7161TIP3    H221441   8.025   3.467   5.391
 7162TIP3   OH221442   0.048   5.691   5.401
 7162TIP3    H121443   0.048   5.678   5.306
 7162TIP3    H221444   0.140   5.696   5.425
 7163TIP3   OH221445   2.290   5.159   4.168
 7163TIP3    H121446   2.369   5.110   4.192
 7163TIP3    H221447   2.315   5.251   4.175
 7164TIP3   OH221448   2.979   1.610   1.908
 7164TIP3    H121449   3.003   1.518   1.916
 7164TIP3    H221450   2.997   1.646   1.995
 7165TIP3   OH221451   6.760   1.473   2.148
 7165TIP3    H121452   6.791   1.555   2.187
 7165TIP3    H221453   6.673   1.495   2.113
 7166TIP3   OH221454   1.372   1.217   0.215
 7166TIP3    H121455   1.447   1.179   0.170
 7166TIP3    H221456   1.341   1.148   0.273
 7167TIP3   OH221457   7.205   4.748   2.600
 7167TIP3    H121458   7.136   4.762   2.535
 7167TIP3    H221459   7.235   4.837   2.621
 7168TIP3   OH221460   8.023   6.010   4.088
 7168TIP3    H121461   8.117   6.024   4.088
 7168TIP3    H221462   7.988   6.081   4.034
 7169TIP3   OH221463   1.136   7.526   2.449
 7169TIP3    H121464   1.085   7.500   2.525
 7169TIP3    H221465   1.218   7.559   2.485
 7170TIP3   OH221466   3.381   1.754   0.125
 7170TIP3    H121467   3.369   1.680   0.184
 7170TIP3    H221468   3.298   1.801   0.128
 7171TIP3   OH221469   4.549   4.454   6.246
 7171TIP3    H121470   4.486   4.508   6.293
 7171TIP3    H221471   4.563   4.501   6.163
 7172TIP3   OH221472   5.067   4.699   0.439
 7172TIP3    H121473   5.119   4.775   0.414
 7172TIP3    H221474   5.119   4.624   0.409
 7173TIP3   OH221475   1.169   1.358   2.812
 7173TIP3    H121476   1.245   1.415   2.806
 7173TIP3    H221477   1.099   1.414   2.845
 7174TIP3   OH221478   3.416   0.236   3.868
 7174TIP3    H121479   3.426   0.296   3.943
 7174TIP3    H221480   3.343   0.179   3.893
 7175TIP3   OH221481   5.848   7.033   6.307
 7175TIP3    H121482   5.840   7.012   6.400
 7175TIP3    H221483   5.798   7.113   6.296
 7176TIP3   OH221484   4.325   7.703  -0.040
 7176TIP3    H121485   4.376   7.646   0.019
 7176TIP3    H221486   4.234   7.676  -0.026
 7177TIP3   OH221487   7.844   0.316   1.705
 7177TIP3    H121488   7.883   0.297   1.620
 7177TIP3    H221489   7.796   0.236   1.728
 7178TIP3   OH221490   4.670   6.947   6.433
 7178TIP3    H121491   4.750   6.897   6.447
 7178TIP3    H221492   4.677   6.977   6.342
 7179TIP3   OH221493   2.291   4.927   5.749
 7179TIP3    H121494   2.243   4.972   5.680
 7179TIP3    H221495   2.379   4.963   5.744
 7180TIP3   OH221496   2.340   6.047   2.086
 7180TIP3    H121497   2.359   6.057   1.993
 7180TIP3    H221498   2.245   6.060   2.092
 7181TIP3   OH221499   6.685   4.177   5.547
 7181TIP3    H121500   6.749   4.248   5.544
 7181TIP3    H221501   6.627   4.199   5.619
 7182TIP3   OH221502   0.055   2.388   2.444
 7182TIP3    H121503   0.099   2.438   2.513
 7182TIP3    H221504   0.109   2.401   2.366
 7183TIP3   OH221505   2.142   1.164   0.813
 7183TIP3    H121506   2.165   1.253   0.840
 7183TIP3    H221507   2.213   1.138   0.754
 7184TIP3   OH221508   4.515   0.474   6.201
 7184TIP3    H121509   4.492   0.404   6.262
 7184TIP3    H221510   4.461   0.548   6.228
 7185TIP3   OH221511   0.430   2.719   6.095
 7185TIP3    H121512   0.378   2.799   6.101
 7185TIP3    H221513   0.459   2.715   6.004
 7186TIP3   OH221514   3.410   6.055   2.486
 7186TIP3    H121515   3.366   6.109   2.552
 7186TIP3    H221516   3.475   6.113   2.447
 7187TIP3   OH221517   3.557   0.512   3.022
 7187TIP3    H121518   3.468   0.501   3.055
 7187TIP3    H221519   3.604   0.553   3.094
 7188TIP3   OH221520   6.042   0.201   0.528
 7188TIP3    H121521   6.107   0.133   0.541
 7188TIP3    H221522   5.989   0.170   0.454
 7189TIP3   OH221523   5.320   5.523   5.712
 7189TIP3    H121524   5.414   5.521   5.731
 7189TIP3    H221525   5.289   5.435   5.734
 7190TIP3   OH221526   5.608   1.314   1.538
 7190TIP3    H121527   5.534   1.262   1.505
 7190TIP3    H221528   5.567   1.392   1.575
 7191TIP3   OH221529   3.754   1.607   5.219
 7191TIP3    H121530   3.767   1.513   5.234
 7191TIP3    H221531   3.737   1.643   5.306
 7192TIP3   OH221532   4.068   5.187   0.263
 7192TIP3    H121533   3.997   5.236   0.305
 7192TIP3    H221534   4.131   5.254   0.237
 7193TIP3   OH221535   2.367   6.090   1.822
 7193TIP3    H121536   2.289   6.049   1.785
 7193TIP3    H221537   2.424   6.106   1.746
 7194TIP3   OH221538   5.526   4.829   5.263
 7194TIP3    H121539   5.578   4.901   5.228
 7194TIP3    H221540   5.551   4.753   5.210
 7195TIP3   OH221541   1.517   7.691   0.914
 7195TIP3    H121542   1.433   7.669   0.874
 7195TIP3    H221543   1.548   7.609   0.951
 7196TIP3   OH221544   5.148   7.267   2.815
 7196TIP3    H121545   5.066   7.311   2.836
 7196TIP3    H221546   5.185   7.319   2.743
 7197TIP3   OH221547   4.182   2.128   5.130
 7197TIP3    H121548   4.107   2.143   5.072
 7197TIP3    H221549   4.149   2.144   5.218
 7198TIP3   OH221550   7.336   5.037   6.760
 7198TIP3    H121551   7.422   5.068   6.732
 7198TIP3    H221552   7.278   5.112   6.747
 7199TIP3   OH221553   2.838   1.872   6.724
 7199TIP3    H121554   2.821   1.966   6.735
 7199TIP3    H221555   2.823   1.835   6.811
 7200TIP3   OH221556   6.064   1.612   1.453
 7200TIP3    H121557   6.118   1.663   1.513
 7200TIP3    H221558   6.060   1.666   1.374
 7201TIP3   OH221559   3.161   7.403   3.887
 7201TIP3    H121560   3.128   7.314   3.871
 7201TIP3    H221561   3.249   7.390   3.921
 7202TIP3   OH221562   4.956   6.369   5.590
 7202TIP3    H121563   5.026   6.304   5.596
 7202TIP3    H221564   4.929   6.384   5.681
 7203TIP3   OH221565   4.007   7.428   4.714
 7203TIP3    H121566   4.037   7.467   4.632
 7203TIP3    H221567   3.991   7.336   4.693
 7204TIP3   OH221568   0.242   0.611   4.784
 7204TIP3    H121569   0.269   0.604   4.875
 7204TIP3    H221570   0.322   0.633   4.736
 7205TIP3   OH221571   5.556   1.717   3.665
 7205TIP3    H121572   5.509   1.739   3.585
 7205TIP3    H221573   5.612   1.794   3.682
 7206TIP3   OH221574   5.556   1.945   2.867
 7206TIP3    H121575   5.634   1.966   2.816
 7206TIP3    H221576   5.573   1.858   2.903
 7207TIP3   OH221577   5.924   7.183   4.404
 7207TIP3    H121578   5.963   7.189   4.491
 7207TIP3    H221579   5.830   7.177   4.421
 7208TIP3   OH221580   2.633   3.360   2.423
 7208TIP3    H121581   2.718   3.323   2.450
 7208TIP3    H221582   2.568   3.306   2.468
 7209TIP3   OH221583   7.848   5.861   0.704
 7209TIP3    H121584   7.937   5.831   0.725
 7209TIP3    H221585   7.805   5.785   0.666
 7210TIP3   OH221586   0.806   6.603   0.784
 7210TIP3    H121587   0.753   6.681   0.793
 7210TIP3    H221588   0.794   6.555   0.867
 7211TIP3   OH221589   5.371   3.746   1.138
 7211TIP3    H121590   5.438   3.679   1.146
 7211TIP3    H221591   5.312   3.714   1.069
 7212TIP3   OH221592   4.946   4.303   4.023
 7212TIP3    H121593   4.984   4.237   3.965
 7212TIP3    H221594   4.887   4.352   3.967
 7213TIP3   OH221595   6.111   3.632   0.230
 7213TIP3    H121596   6.161   3.593   0.302
 7213TIP3    H221597   6.028   3.583   0.230
 7214TIP3   OH221598   1.928   4.051   2.439
 7214TIP3    H121599   1.941   3.957   2.448
 7214TIP3    H221600   1.833   4.062   2.430
 7215TIP3   OH221601   6.203   1.328   6.745
 7215TIP3    H121602   6.290   1.339   6.783
 7215TIP3    H221603   6.197   1.234   6.726
 7216TIP3   OH221604   4.992   3.172   6.691
 7216TIP3    H121605   4.915   3.229   6.688
 7216TIP3    H221606   5.066   3.233   6.687
 7217TIP3   OH221607   2.005   4.148   1.130
 7217TIP3    H121608   2.075   4.085   1.147
 7217TIP3    H221609   1.942   4.132   1.200
 7218TIP3   OH221610   7.798   5.536   3.325
 7218TIP3    H121611   7.811   5.470   3.257
 7218TIP3    H221612   7.838   5.615   3.289
 7219TIP3   OH221613   5.535   2.460   5.567
 7219TIP3    H121614   5.521   2.555   5.571
 7219TIP3    H221615   5.577   2.438   5.650
 7220TIP3   OH221616   2.221   3.980   1.130
 7220TIP3    H121617   2.291   3.958   1.191
 7220TIP3    H221618   2.187   3.895   1.102
 7221TIP3   OH221619   1.462   1.240   6.533
 7221TIP3    H121620   1.455   1.163   6.590
 7221TIP3    H221621   1.403   1.304   6.573
 7222TIP3   OH221622   0.469   5.055   4.268
 7222TIP3    H121623   0.418   5.136   4.264
 7222TIP3    H221624   0.529   5.060   4.194
 7223TIP3   OH221625   8.313   5.184   6.642
 7223TIP3    H121626   8.303   5.188   6.737
 7223TIP3    H221627   8.305   5.275   6.613
 7224TIP3   OH221628   3.480   6.349   5.495
 7224TIP3    H121629   3.458   6.293   5.421
 7224TIP3    H221630   3.554   6.401   5.465
 7225TIP3   OH221631   0.726   1.006   3.677
 7225TIP3    H121632   0.633   0.985   3.682
 7225TIP3    H221633   0.745   1.053   3.758
 7226TIP3   OH221634   4.103   7.141   2.926
 7226TIP3    H121635   4.036   7.076   2.907
 7226TIP3    H221636   4.083   7.172   3.014
 7227TIP3   OH221637   2.418   3.123   1.519
 7227TIP3    H121638   2.475   3.180   1.468
 7227TIP3    H221639   2.466   3.040   1.525
 7228TIP3   OH221640   6.093   0.890   3.359
 7228TIP3    H121641   6.171   0.891   3.302
 7228TIP3    H221642   6.026   0.937   3.308
 7229TIP3   OH221643   6.689   2.677   1.216
 7229TIP3    H121644   6.657   2.654   1.303
 7229TIP3    H221645   6.714   2.769   1.223
 7230TIP3   OH221646   6.979   6.565   4.418
 7230TIP3    H121647   6.958   6.534   4.329
 7230TIP3    H221648   6.895   6.560   4.465
 7231TIP3   OH221649   2.075   5.665   3.437
 7231TIP3    H121650   2.104   5.603   3.503
 7231TIP3    H221651   1.982   5.678   3.454
 7232TIP3   OH221652   0.543   6.902   0.176
 7232TIP3    H121653   0.634   6.874   0.166
 7232TIP3    H221654   0.491   6.827   0.147
 7233TIP3   OH221655   4.238   0.600   4.538
 7233TIP3    H121656   4.149   0.585   4.507
 7233TIP3    H221657   4.263   0.518   4.581
 7234TIP3   OH221658   5.646   7.453   1.148
 7234TIP3    H121659   5.627   7.543   1.123
 7234TIP3    H221660   5.668   7.409   1.066
 7235TIP3   OH221661   4.971   1.491   5.682
 7235TIP3    H121662   4.880   1.504   5.709
 7235TIP3    H221663   5.022   1.520   5.758
 7236TIP3   OH221664   1.569   3.252   2.756
 7236TIP3    H121665   1.497   3.314   2.769
 7236TIP3    H221666   1.527   3.166   2.755
 7237TIP3   OH221667   0.506   3.134   6.620
 7237TIP3    H121668   0.469   3.194   6.684
 7237TIP3    H221669   0.578   3.090   6.667
 7238TIP3   OH221670   1.445   4.936   2.723
 7238TIP3    H121671   1.460   5.024   2.758
 7238TIP3    H221672   1.429   4.882   2.801
 7239TIP3   OH221673   3.344   4.072   2.493
 7239TIP3    H121674   3.352   4.151   2.547
 7239TIP3    H221675   3.249   4.061   2.482
 7240TIP3   OH221676   4.447   2.877   6.521
 7240TIP3    H121677   4.509   2.877   6.593
 7240TIP3    H221678   4.500   2.892   6.443
 7241TIP3   OH221679   3.555   1.890   5.962
 7241TIP3    H121680   3.566   1.836   6.041
 7241TIP3    H221681   3.638   1.936   5.952
 7242TIP3   OH221682   5.151   5.128   1.169
 7242TIP3    H121683   5.074   5.131   1.226
 7242TIP3    H221684   5.116   5.115   1.082
 7243TIP3   OH221685   4.546   6.559   1.742
 7243TIP3    H121686   4.583   6.601   1.819
 7243TIP3    H221687   4.621   6.523   1.695
 7244TIP3   OH221688   7.959   5.139   2.980
 7244TIP3    H121689   7.894   5.079   3.018
 7244TIP3    H221690   8.019   5.082   2.933
 7245TIP3   OH221691   6.146   3.140   2.215
 7245TIP3    H121692   6.225   3.106   2.173
 7245TIP3    H221693   6.138   3.230   2.182
 7246TIP3   OH221694   5.781   2.404   2.845
 7246TIP3    H121695   5.837   2.351   2.788
 7246TIP3    H221696   5.692   2.382   2.817
 7247TIP3   OH221697   2.864   7.781   3.353
 7247TIP3    H121698   2.874   7.739   3.439
 7247TIP3    H221699   2.953   7.805   3.327
 7248TIP3   OH221700   6.327   3.621   5.513
 7248TIP3    H121701   6.385   3.597   5.586
 7248TIP3    H221702   6.261   3.551   5.511
 7249TIP3   OH221703   4.557   5.949   4.742
 7249TIP3    H121704   4.563   5.878   4.679
 7249TIP3    H221705   4.573   6.028   4.691
 7250TIP3   OH221706   0.069   4.838   6.792
 7250TIP3    H121707   0.165   4.841   6.789
 7250TIP3    H221708   0.043   4.823   6.701
 7251TIP3   OH221709   7.789   1.322   1.665
 7251TIP3    H121710   7.855   1.269   1.710
 7251TIP3    H221711   7.732   1.354   1.736
 7252TIP3   OH221712   4.864   7.374   6.623
 7252TIP3    H121713   4.778   7.397   6.658
 7252TIP3    H221714   4.855   7.385   6.529
 7253TIP3   OH221715   3.931   3.998   3.433
 7253TIP3    H121716   3.990   4.050   3.379
 7253TIP3    H221717   3.903   3.926   3.375
 7254TIP3   OH221718   4.220   7.779   5.666
 7254TIP3    H121719   4.240   7.804   5.756
 7254TIP3    H221720   4.127   7.753   5.668
 7255TIP3   OH221721   6.531   4.300   0.950
 7255TIP3    H121722   6.527   4.394   0.934
 7255TIP3    H221723   6.484   4.287   1.033
 7256TIP3   OH221724   2.846   0.180   1.208
 7256TIP3    H121725   2.857   0.118   1.137
 7256TIP3    H221726   2.924   0.235   1.205
 7257TIP3   OH221727   0.494   1.546   0.300
 7257TIP3    H121728   0.578   1.520   0.261
 7257TIP3    H221729   0.513   1.552   0.394
 7258TIP3   OH221730   2.599   7.483   3.078
 7258TIP3    H121731   2.552   7.550   3.128
 7258TIP3    H221732   2.611   7.522   2.991
 7259TIP3   OH221733   0.377   1.721   1.143
 7259TIP3    H121734   0.436   1.652   1.172
 7259TIP3    H221735   0.310   1.726   1.212
 7260TIP3   OH221736   5.968   3.759   2.510
 7260TIP3    H121737   5.958   3.849   2.539
 7260TIP3    H221738   5.914   3.753   2.431
 7261TIP3   OH221739   2.838   4.172   4.300
 7261TIP3    H121740   2.830   4.244   4.237
 7261TIP3    H221741   2.810   4.209   4.383
 7262TIP3   OH221742   0.979   2.248   0.765
 7262TIP3    H121743   0.914   2.219   0.829
 7262TIP3    H221744   1.039   2.303   0.815
 7263TIP3   OH221745   6.806   6.828   2.513
 7263TIP3    H121746   6.798   6.833   2.608
 7263TIP3    H221747   6.739   6.889   2.480
 7264TIP3   OH221748   1.719   3.602   2.927
 7264TIP3    H121749   1.758   3.689   2.937
 7264TIP3    H221750   1.625   3.620   2.916
 7265TIP3   OH221751   0.588   4.685   6.248
 7265TIP3    H121752   0.655   4.695   6.316
 7265TIP3    H221753   0.592   4.593   6.223
 7266TIP3   OH221754   4.666   5.607   0.341
 7266TIP3    H121755   4.758   5.589   0.317
 7266TIP3    H221756   4.616   5.576   0.265
 7267TIP3   OH221757   6.341   0.198   3.704
 7267TIP3    H121758   6.363   0.184   3.612
 7267TIP3    H221759   6.393   0.134   3.751
 7268TIP3   OH221760   7.943   2.669   3.850
 7268TIP3    H121761   7.889   2.709   3.918
 7268TIP3    H221762   7.926   2.575   3.858
 7269TIP3   OH221763   7.023   2.846   5.500
 7269TIP3    H121764   6.942   2.821   5.545
 7269TIP3    H221765   7.093   2.819   5.559
 7270TIP3   OH221766   6.865   3.415   5.786
 7270TIP3    H121767   6.907   3.489   5.742
 7270TIP3    H221768   6.929   3.344   5.780
 7271TIP3   OH221769   4.502   0.283   2.760
 7271TIP3    H121770   4.560   0.287   2.836
 7271TIP3    H221771   4.533   0.208   2.710
 7272TIP3   OH221772   2.866   2.505   6.167
 7272TIP3    H121773   2.844   2.586   6.122
 7272TIP3    H221774   2.957   2.488   6.144
 7273TIP3   OH221775   7.407   2.721   3.503
 7273TIP3    H121776   7.389   2.750   3.413
 7273TIP3    H221777   7.324   2.734   3.549
 7274TIP3   OH221778   3.585   4.542   4.667
 7274TIP3    H121779   3.680   4.545   4.683
 7274TIP3    H221780   3.569   4.616   4.609
 7275TIP3   OH221781   1.451   2.768   1.617
 7275TIP3    H121782   1.461   2.819   1.697
 7275TIP3    H221783   1.371   2.717   1.629
 7276TIP3   OH221784   2.636   3.474   4.217
 7276TIP3    H121785   2.676   3.399   4.262
 7276TIP3    H221786   2.699   3.496   4.148
 7277TIP3   OH221787   5.000   2.211   1.571
 7277TIP3    H121788   5.058   2.286   1.553
 7277TIP3    H221789   4.915   2.250   1.588
 7278TIP3   OH221790   0.289   4.629   6.237
 7278TIP3    H121791   0.305   4.563   6.169
 7278TIP3    H221792   0.370   4.680   6.239
 7279TIP3   OH221793   3.112   2.064   3.702
 7279TIP3    H121794   3.155   2.050   3.618
 7279TIP3    H221795   3.141   2.151   3.730
 7280TIP3   OH221796   1.627   2.744   4.785
 7280TIP3    H121797   1.589   2.831   4.771
 7280TIP3    H221798   1.708   2.745   4.734
 7281TIP3   OH221799   5.511   6.752   2.383
 7281TIP3    H121800   5.437   6.790   2.431
 7281TIP3    H221801   5.473   6.718   2.303
 7282TIP3   OH221802   1.555   3.500   1.249
 7282TIP3    H121803   1.632   3.556   1.253
 7282TIP3    H221804   1.589   3.411   1.262
 7283TIP3   OH221805   5.591   4.209   4.638
 7283TIP3    H121806   5.503   4.174   4.652
 7283TIP3    H221807   5.584   4.262   4.559
 7284TIP3   OH221808   1.788   0.459   0.986
 7284TIP3    H121809   1.842   0.532   1.018
 7284TIP3    H221810   1.716   0.502   0.940
 7285TIP3   OH221811   3.597   1.833   4.337
 7285TIP3    H121812   3.586   1.756   4.392
 7285TIP3    H221813   3.688   1.861   4.352
 7286TIP3   OH221814   5.594   3.069   5.622
 7286TIP3    H121815   5.582   3.162   5.604
 7286TIP3    H221816   5.578   3.060   5.716
 7287TIP3   OH221817   1.990   6.400   3.566
 7287TIP3    H121818   1.913   6.409   3.622
 7287TIP3    H221819   2.004   6.487   3.530
 7288TIP3   OH221820   2.564   5.806   6.765
 7288TIP3    H121821   2.509   5.840   6.695
 7288TIP3    H221822   2.534   5.853   6.843
 7289TIP3   OH221823   7.269   5.297   2.974
 7289TIP3    H121824   7.351   5.345   2.979
 7289TIP3    H221825   7.203   5.357   3.010
 7290TIP3   OH221826   7.074   5.446   6.374
 7290TIP3    H121827   7.013   5.510   6.412
 7290TIP3    H221828   7.042   5.361   6.403
 7291TIP3   OH221829   5.456   0.759   3.142
 7291TIP3    H121830   5.521   0.721   3.200
 7291TIP3    H221831   5.391   0.798   3.201
 7292TIP3   OH221832   7.713   7.103   2.743
 7292TIP3    H121833   7.685   7.180   2.792
 7292TIP3    H221834   7.739   7.138   2.657
 7293TIP3   OH221835   5.789   2.009   2.461
 7293TIP3    H121836   5.866   1.952   2.469
 7293TIP3    H221837   5.733   1.985   2.535
 7294TIP3   OH221838   2.095   0.727   5.307
 7294TIP3    H121839   2.057   0.660   5.251
 7294TIP3    H221840   2.121   0.797   5.247
 7295TIP3   OH221841   6.388   4.448   6.132
 7295TIP3    H121842   6.383   4.473   6.040
 7295TIP3    H221843   6.366   4.527   6.180
 7296TIP3   OH221844   3.889   6.145   2.721
 7296TIP3    H121845   3.950   6.214   2.747
 7296TIP3    H221846   3.841   6.182   2.647
 7297TIP3   OH221847   3.154   4.278   3.494
 7297TIP3    H121848   3.231   4.302   3.442
 7297TIP3    H221849   3.130   4.192   3.461
 7298TIP3   OH221850   6.423   7.579   5.605
 7298TIP3    H121851   6.356   7.606   5.668
 7298TIP3    H221852   6.438   7.657   5.551
 7299TIP3   OH221853   2.896   3.862   2.342
 7299TIP3    H121854   2.943   3.934   2.384
 7299TIP3    H221855   2.964   3.810   2.299
 7300TIP3   OH221856   1.858   2.800   4.658
 7300TIP3    H121857   1.815   2.807   4.573
 7300TIP3    H221858   1.937   2.853   4.649
 7301TIP3   OH221859   0.269   0.301   0.175
 7301TIP3    H121860   0.246   0.292   0.083
 7301TIP3    H221861   0.274   0.395   0.190
 7302TIP3   OH221862   3.683   1.279   6.194
 7302TIP3    H121863   3.764   1.323   6.218
 7302TIP3    H221864   3.626   1.349   6.161
 7303TIP3   OH221865   1.352   4.018   4.094
 7303TIP3    H121866   1.334   3.954   4.162
 7303TIP3    H221867   1.302   3.988   4.018
 7304TIP3   OH221868   5.182   0.922   6.713
 7304TIP3    H121869   5.107   0.981   6.721
 7304TIP3    H221870   5.147   0.835   6.731
 7305TIP3   OH221871   4.359   4.351   2.341
 7305TIP3    H121872   4.377   4.392   2.425
 7305TIP3    H221873   4.444   4.316   2.312
 7306TIP3   OH221874   2.514   5.810   1.906
 7306TIP3    H121875   2.538   5.884   1.961
 7306TIP3    H221876   2.432   5.837   1.863
 7307TIP3   OH221877   2.988   3.664   6.513
 7307TIP3    H121878   2.910   3.627   6.473
 7307TIP3    H221879   3.052   3.669   6.442
 7308TIP3   OH221880   3.098   2.995   5.328
 7308TIP3    H121881   3.081   2.913   5.375
 7308TIP3    H221882   3.189   2.987   5.299
 7309TIP3   OH221883   6.639   5.974   0.049
 7309TIP3    H121884   6.663   6.037  -0.019
 7309TIP3    H221885   6.596   5.902   0.002
 7310TIP3   OH221886   7.966   2.575   6.484
 7310TIP3    H121887   7.953   2.670   6.480
 7310TIP3    H221888   8.041   2.558   6.427
 7311TIP3   OH221889   4.284   0.142   2.534
 7311TIP3    H121890   4.227   0.214   2.561
 7311TIP3    H221891   4.249   0.115   2.449
 7312TIP3   OH221892   7.473   7.502   4.096
 7312TIP3    H121893   7.487   7.578   4.152
 7312TIP3    H221894   7.560   7.464   4.085
 7313TIP3   OH221895   2.048   2.334   1.478
 7313TIP3    H121896   2.130   2.331   1.527
 7313TIP3    H221897   2.075   2.340   1.387
 7314TIP3   OH221898   2.474   6.461   6.088
 7314TIP3    H121899   2.391   6.473   6.042
 7314TIP3    H221900   2.523   6.541   6.071
 7315TIP3   OH221901   0.859   4.766   0.232
 7315TIP3    H121902   0.823   4.692   0.280
 7315TIP3    H221903   0.885   4.730   0.147
 7316TIP3   OH221904   6.826   4.346   4.175
 7316TIP3    H121905   6.880   4.272   4.202
 7316TIP3    H221906   6.783   4.376   4.255
 7317TIP3   OH221907   2.772   3.637   0.174
 7317TIP3    H121908   2.763   3.631   0.078
 7317TIP3    H221909   2.859   3.601   0.192
 7318TIP3   OH221910   2.701   6.804   0.210
 7318TIP3    H121911   2.721   6.733   0.150
 7318TIP3    H221912   2.786   6.835   0.241
 7319TIP3   OH221913   0.394   7.674   2.961
 7319TIP3    H121914   0.463   7.694   3.024
 7319TIP3    H221915   0.429   7.704   2.877
 7320TIP3   OH221916   5.214   5.943   1.916
 7320TIP3    H121917   5.267   6.009   1.871
 7320TIP3    H221918   5.270   5.909   1.985
 7321TIP3   OH221919   7.414   5.836   5.904
 7321TIP3    H121920   7.459   5.853   5.821
 7321TIP3    H221921   7.358   5.912   5.917
 7322TIP3   OH221922   3.107   5.737   1.283
 7322TIP3    H121923   3.070   5.669   1.227
 7322TIP3    H221924   3.077   5.716   1.371
 7323TIP3   OH221925   4.577   3.862   1.888
 7323TIP3    H121926   4.542   3.888   1.973
 7323TIP3    H221927   4.600   3.944   1.846
 7324TIP3   OH221928   7.013   4.352   1.433
 7324TIP3    H121929   7.048   4.425   1.483
 7324TIP3    H221930   6.939   4.320   1.485
 7325TIP3   OH221931   3.128   7.173   5.623
 7325TIP3    H121932   3.141   7.078   5.633
 7325TIP3    H221933   3.124   7.206   5.712
 7326TIP3   OH221934   7.689   6.237   6.425
 7326TIP3    H121935   7.709   6.328   6.404
 7326TIP3    H221936   7.699   6.190   6.342
 7327TIP3   OH221937   2.100   4.429   0.353
 7327TIP3    H121938   2.030   4.435   0.288
 7327TIP3    H221939   2.178   4.462   0.308
 7328TIP3   OH221940   2.246   7.665   5.152
 7328TIP3    H121941   2.279   7.577   5.134
 7328TIP3    H221942   2.324   7.718   5.166
 7329TIP3   OH221943   6.209   2.935   2.675
 7329TIP3    H121944   6.139   2.909   2.734
 7329TIP3    H221945   6.165   2.951   2.591
 7330TIP3   OH221946   0.626   4.313   4.986
 7330TIP3    H121947   0.551   4.308   5.046
 7330TIP3    H221948   0.630   4.228   4.944
 7331TIP3   OH221949   4.583   0.685   0.217
 7331TIP3    H121950   4.561   0.634   0.139
 7331TIP3    H221951   4.530   0.765   0.209
 7332TIP3   OH221952   5.386   1.079   0.883
 7332TIP3    H121953   5.303   1.116   0.855
 7332TIP3    H221954   5.429   1.050   0.802
 7333TIP3   OH221955   6.597   4.178   4.716
 7333TIP3    H121956   6.619   4.092   4.749
 7333TIP3    H221957   6.606   4.237   4.791
 7334TIP3   OH221958   2.106   3.260   4.996
 7334TIP3    H121959   2.135   3.278   4.906
 7334TIP3    H221960   2.062   3.340   5.023
 7335TIP3   OH221961   5.199   6.232   5.559
 7335TIP3    H121962   5.279   6.264   5.601
 7335TIP3    H221963   5.224   6.146   5.523
 7336TIP3   OH221964   2.251   0.125   1.425
 7336TIP3    H121965   2.272   0.085   1.509
 7336TIP3    H221966   2.266   0.219   1.438
 7337TIP3   OH221967   0.847   4.469   1.191
 7337TIP3    H121968   0.891   4.511   1.117
 7337TIP3    H221969   0.793   4.401   1.151
 7338TIP3   OH221970   6.080   0.648   6.622
 7338TIP3    H121971   5.998   0.612   6.655
 7338TIP3    H221972   6.137   0.572   6.609
 7339TIP3   OH221973   7.511   2.577   4.904
 7339TIP3    H121974   7.506   2.628   4.822
 7339TIP3    H221975   7.447   2.507   4.892
 7340TIP3   OH221976   6.534   6.156   6.696
 7340TIP3    H121977   6.461   6.203   6.736
 7340TIP3    H221978   6.516   6.156   6.603
 7341TIP3   OH221979   6.399   4.499   5.338
 7341TIP3    H121980   6.444   4.439   5.279
 7341TIP3    H221981   6.342   4.443   5.391
 7342TIP3   OH221982   8.079   6.381   1.108
 7342TIP3    H121983   8.015   6.426   1.164
 7342TIP3    H221984   8.135   6.450   1.075
 7343TIP3   OH221985   8.130   1.254   1.497
 7343TIP3    H121986   8.081   1.276   1.418
 7343TIP3    H221987   8.220   1.279   1.478
 7344TIP3   OH221988   1.241   2.980   6.413
 7344TIP3    H121989   1.246   2.963   6.507
 7344TIP3    H221990   1.308   2.923   6.375
 7345TIP3   OH221991   5.820   4.055   4.968
 7345TIP3    H121992   5.912   4.073   4.949
 7345TIP3    H221993   5.822   3.999   5.046
 7346TIP3   OH221994   2.236   2.667   0.854
 7346TIP3    H121995   2.152   2.702   0.823
 7346TIP3    H221996   2.288   2.656   0.775
 7347TIP3   OH221997   1.212   2.051   6.716
 7347TIP3    H121998   1.218   2.146   6.727
 7347TIP3    H221999   1.178   2.020   6.800
 7348TIP3   OH222000   4.621   5.022   5.943
 7348TIP3    H122001   4.614   4.959   5.871
 7348TIP3    H222002   4.593   4.973   6.020
 7349TIP3   OH222003   2.885   4.573   5.424
 7349TIP3    H122004   2.873   4.654   5.375
 7349TIP3    H222005   2.899   4.506   5.357
 7350TIP3   OH222006   2.670   4.611   3.857
 7350TIP3    H122007   2.629   4.673   3.797
 7350TIP3    H222008   2.609   4.537   3.860
 7351TIP3   OH222009   6.753   2.176   3.595
 7351TIP3    H122010   6.712   2.184   3.681
 7351TIP3    H222011   6.680   2.157   3.536
 7352TIP3   OH222012   1.939   5.199   2.705
 7352TIP3    H122013   1.875   5.148   2.754
 7352TIP3    H222014   2.022   5.153   2.718
 7353TIP3   OH222015   2.312   7.086   6.248
 7353TIP3    H122016   2.235   7.143   6.241
 7353TIP3    H222017   2.327   7.054   6.160
 7354TIP3   OH222018   7.496   7.442  -0.018
 7354TIP3    H122019   7.588   7.430   0.006
 7354TIP3    H222020   7.460   7.354  -0.020
 7355TIP3   OH222021   6.723   2.956   3.129
 7355TIP3    H122022   6.627   2.957   3.133
 7355TIP3    H222023   6.748   2.878   3.179
 7356TIP3   OH222024   0.522   4.303   0.064
 7356TIP3    H122025   0.576   4.381   0.078
 7356TIP3    H222026   0.432   4.335   0.065
 7357TIP3   OH222027   5.379   0.044   3.303
 7357TIP3    H122028   5.469   0.011   3.294
 7357TIP3    H222029   5.388   0.138   3.313
 7358TIP3   OH222030   3.610   2.292   2.196
 7358TIP3    H122031   3.615   2.386   2.215
 7358TIP3    H222032   3.629   2.250   2.280
 7359TIP3   OH222033   3.253   5.471   3.200
 7359TIP3    H122034   3.326   5.409   3.202
 7359TIP3    H222035   3.187   5.432   3.258
 7360TIP3   OH222036   1.957   2.441   6.086
 7360TIP3    H122037   2.013   2.393   6.146
 7360TIP3    H222038   1.981   2.408   5.999
 7361TIP3   OH222039   4.726   4.352   1.457
 7361TIP3    H122040   4.748   4.264   1.428
 7361TIP3    H222041   4.642   4.372   1.414
 7362TIP3   OH222042   1.838   4.430   3.490
 7362TIP3    H122043   1.813   4.385   3.571
 7362TIP3    H222044   1.764   4.486   3.469
 7363TIP3   OH222045   6.580   2.734   0.862
 7363TIP3    H122046   6.537   2.805   0.814
 7363TIP3    H222047   6.657   2.775   0.901
 7364TIP3   OH222048   3.915   6.849   2.165
 7364TIP3    H122049   3.865   6.928   2.187
 7364TIP3    H222050   3.854   6.795   2.115
 7365TIP3   OH222051   2.793   6.244   4.000
 7365TIP3    H122052   2.835   6.161   4.025
 7365TIP3    H222053   2.699   6.224   4.001
 7366TIP3   OH222054   3.852   3.629   2.411
 7366TIP3    H122055   3.918   3.560   2.418
 7366TIP3    H222056   3.813   3.616   2.324
 7367TIP3   OH222057   3.447   4.355   3.607
 7367TIP3    H122058   3.527   4.335   3.655
 7367TIP3    H222059   3.378   4.347   3.673
 7368TIP3   OH222060   0.220   1.444   3.325
 7368TIP3    H122061   0.292   1.463   3.264
 7368TIP3    H222062   0.210   1.525   3.376
 7369TIP3   OH222063   7.360   3.669   0.855
 7369TIP3    H122064   7.441   3.661   0.805
 7369TIP3    H222065   7.295   3.625   0.801
 7370TIP3   OH222066   2.770   7.832   6.440
 7370TIP3    H122067   2.704   7.781   6.395
 7370TIP3    H222068   2.747   7.825   6.533
 7371TIP3   OH222069   1.978   0.026   3.491
 7371TIP3    H122070   2.013  -0.053   3.450
 7371TIP3    H222071   1.901   0.049   3.440
 7372TIP3   OH222072   8.076   0.680   0.550
 7372TIP3    H122073   8.037   0.618   0.612
 7372TIP3    H222074   8.002   0.725   0.511
 7373TIP3   OH222075   6.008   7.834   4.876
 7373TIP3    H122076   6.061   7.811   4.799
 7373TIP3    H222077   5.937   7.771   4.876
 7374TIP3   OH222078   4.701   2.329   1.122
 7374TIP3    H122079   4.691   2.367   1.035
 7374TIP3    H222080   4.613   2.299   1.146
 7375TIP3   OH222081   6.629   2.432   5.718
 7375TIP3    H122082   6.658   2.393   5.635
 7375TIP3    H222083   6.664   2.374   5.785
 7376TIP3   OH222084   5.815   7.447   3.267
 7376TIP3    H122085   5.732   7.459   3.313
 7376TIP3    H222086   5.820   7.521   3.206
 7377TIP3   OH222087   7.985   3.879   1.704
 7377TIP3    H122088   7.984   3.962   1.658
 7377TIP3    H222089   7.910   3.831   1.669
 7378TIP3   OH222090   4.843   0.740   0.236
 7378TIP3    H122091   4.850   0.811   0.172
 7378TIP3    H222092   4.750   0.717   0.235
 7379TIP3   OH222093   8.242   6.334   5.104
 7379TIP3    H122094   8.268   6.411   5.156
 7379TIP3    H222095   8.255   6.362   5.014
 7380TIP3   OH222096   0.660   4.059   4.823
 7380TIP3    H122097   0.701   4.017   4.898
 7380TIP3    H222098   0.630   3.986   4.768
 7381TIP3   OH222099   4.019   4.730   2.414
 7381TIP3    H122100   3.956   4.795   2.382
 7381TIP3    H222101   3.970   4.682   2.482
 7382TIP3   OH222102   5.650   0.313   5.033
 7382TIP3    H122103   5.654   0.397   4.988
 7382TIP3    H222104   5.560   0.283   5.023
 7383TIP3   OH222105   0.774   1.289   5.790
 7383TIP3    H122106   0.852   1.260   5.744
 7383TIP3    H222107   0.772   1.384   5.777
 7384TIP3   OH222108   7.402   3.895   5.121
 7384TIP3    H122109   7.468   3.958   5.151
 7384TIP3    H222110   7.342   3.947   5.067
 7385TIP3   OH222111   1.414   6.977   4.834
 7385TIP3    H122112   1.400   7.018   4.920
 7385TIP3    H222113   1.508   6.968   4.827
 7386TIP3   OH222114   5.671   1.898   4.787
 7386TIP3    H122115   5.707   1.979   4.750
 7386TIP3    H222116   5.591   1.884   4.738
 7387TIP3   OH222117   7.418   6.938   3.442
 7387TIP3    H122118   7.332   6.903   3.465
 7387TIP3    H222119   7.418   7.027   3.476
 7388TIP3   OH222120   7.215   6.886   5.329
 7388TIP3    H122121   7.222   6.955   5.395
 7388TIP3    H222122   7.128   6.849   5.343
 7389TIP3   OH222123   3.789   1.353   0.098
 7389TIP3    H122124   3.771   1.357   0.192
 7389TIP3    H222125   3.707   1.383   0.058
 7390TIP3   OH222126   3.173   3.595   1.177
 7390TIP3    H122127   3.219   3.550   1.248
 7390TIP3    H222128   3.207   3.685   1.181
 7391TIP3   OH222129   1.341   5.891   1.637
 7391TIP3    H122130   1.335   5.804   1.675
 7391TIP3    H222131   1.430   5.920   1.658
 7392TIP3   OH222132   8.084   0.530   0.969
 7392TIP3    H122133   8.037   0.596   0.919
 7392TIP3    H222134   8.031   0.517   1.048
 7393TIP3   OH222135   6.294   4.842   6.663
 7393TIP3    H122136   6.294   4.879   6.751
 7393TIP3    H222137   6.227   4.774   6.665
 7394TIP3   OH222138   7.850   5.359   5.957
 7394TIP3    H122139   7.793   5.338   5.882
 7394TIP3    H222140   7.794   5.409   6.016
 7395TIP3   OH222141   6.767   0.377   5.065
 7395TIP3    H122142   6.732   0.443   5.004
 7395TIP3    H222143   6.816   0.429   5.130
 7396TIP3   OH222144   4.601   2.247   2.464
 7396TIP3    H122145   4.556   2.227   2.382
 7396TIP3    H222146   4.666   2.313   2.440
 7397TIP3   OH222147   4.242   4.875   0.652
 7397TIP3    H122148   4.255   4.947   0.591
 7397TIP3    H222149   4.206   4.916   0.731
 7398TIP3   OH222150   1.774   3.088   4.624
 7398TIP3    H122151   1.851   3.051   4.582
 7398TIP3    H222152   1.745   3.157   4.564
 7399TIP3   OH222153   3.820   2.653   4.199
 7399TIP3    H122154   3.780   2.668   4.113
 7399TIP3    H222155   3.911   2.683   4.188
 7400TIP3   OH222156   1.957   1.480   4.898
 7400TIP3    H122157   2.002   1.395   4.906
 7400TIP3    H222158   1.978   1.525   4.980
 7401TIP3   OH222159   5.157   1.651   4.434
 7401TIP3    H122160   5.169   1.556   4.426
 7401TIP3    H222161   5.073   1.667   4.390
 7402TIP3   OH222162   4.513   5.219   3.981
 7402TIP3    H122163   4.587   5.166   4.013
 7402TIP3    H222164   4.437   5.161   3.990
 7403TIP3   OH222165   2.185   0.552   5.488
 7403TIP3    H122166   2.141   0.605   5.554
 7403TIP3    H222167   2.212   0.615   5.421
 7404TIP3   OH222168   2.886   1.102   1.681
 7404TIP3    H122169   2.801   1.122   1.642
 7404TIP3    H222170   2.939   1.069   1.608
 7405TIP3   OH222171   2.099   3.770   5.578
 7405TIP3    H122172   2.022   3.754   5.523
 7405TIP3    H222173   2.173   3.760   5.520
 7406TIP3   OH222174   2.817   7.496   0.524
 7406TIP3    H122175   2.901   7.539   0.509
 7406TIP3    H222176   2.759   7.565   0.555
 7407TIP3   OH222177   2.994   1.394   6.262
 7407TIP3    H122178   3.085   1.396   6.234
 7407TIP3    H222179   2.991   1.323   6.326
 7408TIP3   OH222180   7.261   1.769   1.398
 7408TIP3    H122181   7.353   1.788   1.375
 7408TIP3    H222182   7.248   1.812   1.482
 7409TIP3   OH222183   7.257   7.242   1.345
 7409TIP3    H122184   7.302   7.284   1.271
 7409TIP3    H222185   7.321   7.181   1.382
 7410TIP3   OH222186   4.875   3.520   1.825
 7410TIP3    H122187   4.811   3.554   1.762
 7410TIP3    H222188   4.872   3.581   1.898
 7411TIP3   OH222189   1.623   2.748   4.467
 7411TIP3    H122190   1.534   2.782   4.476
 7411TIP3    H222191   1.661   2.798   4.395
 7412TIP3   OH222192   0.974   2.418   6.637
 7412TIP3    H122193   0.944   2.508   6.649
 7412TIP3    H222194   0.973   2.405   6.542
 7413TIP3   OH222195   1.004   4.481   1.454
 7413TIP3    H122196   0.976   4.429   1.529
 7413TIP3    H222197   0.949   4.451   1.382
 7414TIP3   OH222198   0.510   0.997   1.601
 7414TIP3    H122199   0.434   0.939   1.607
 7414TIP3    H222200   0.498   1.061   1.670
 7415TIP3   OH222201   0.831   6.893   3.228
 7415TIP3    H122202   0.769   6.921   3.296
 7415TIP3    H222203   0.779   6.840   3.168
 7416TIP3   OH222204   7.937   5.876   6.751
 7416TIP3    H122205   7.901   5.810   6.810
 7416TIP3    H222206   7.881   5.872   6.673
 7417TIP3   OH222207   6.704   3.274   0.689
 7417TIP3    H122208   6.658   3.207   0.739
 7417TIP3    H222209   6.651   3.287   0.610
 7418TIP3   OH222210   1.258   3.319   1.050
 7418TIP3    H122211   1.181   3.367   1.081
 7418TIP3    H222212   1.259   3.239   1.102
 7419TIP3   OH222213   6.831   0.090   6.170
 7419TIP3    H122214   6.811   0.083   6.263
 7419TIP3    H222215   6.811   0.181   6.148
 7420TIP3   OH222216   5.751   1.282   0.741
 7420TIP3    H122217   5.794   1.260   0.824
 7420TIP3    H222218   5.679   1.341   0.766
 7421TIP3   OH222219   6.964   4.874   1.030
 7421TIP3    H122220   6.956   4.789   0.988
 7421TIP3    H222221   6.879   4.890   1.070
 7422TIP3   OH222222   5.423   7.490   4.371
 7422TIP3    H122223   5.388   7.518   4.287
 7422TIP3    H222224   5.410   7.565   4.429
 7423TIP3   OH222225   3.760   2.730   4.448
 7423TIP3    H122226   3.789   2.713   4.358
 7423TIP3    H222227   3.680   2.782   4.437
 7424TIP3   OH222228   7.334   7.778   1.310
 7424TIP3    H122229   7.408   7.774   1.250
 7424TIP3    H222230   7.351   7.708   1.373
 7425TIP3   OH222231   6.363   7.630   2.831
 7425TIP3    H122232   6.342   7.559   2.769
 7425TIP3    H222233   6.369   7.708   2.776
 7426TIP3   OH222234   3.223   1.802   0.998
 7426TIP3    H122235   3.191   1.790   0.909
 7426TIP3    H222236   3.145   1.817   1.051
 7427TIP3   OH222237   7.528   1.033   2.690
 7427TIP3    H122238   7.473   1.073   2.758
 7427TIP3    H222239   7.604   0.999   2.738
 7428TIP3   OH222240   0.230   6.316   1.268
 7428TIP3    H122241   0.136   6.296   1.262
 7428TIP3    H222242   0.269   6.270   1.194
 7429TIP3   OH222243   4.021   0.932   5.714
 7429TIP3    H122244   4.107   0.972   5.703
 7429TIP3    H222245   3.996   0.956   5.804
 7430TIP3   OH222246   1.801   4.436   1.024
 7430TIP3    H122247   1.855   4.460   1.099
 7430TIP3    H222248   1.761   4.518   0.995
 7431TIP3   OH222249   3.081   0.575   6.804
 7431TIP3    H122250   3.046   0.631   6.734
 7431TIP3    H222251   3.028   0.496   6.801
 7432TIP3   OH222252   6.164   2.410   4.346
 7432TIP3    H122253   6.201   2.329   4.312
 7432TIP3    H222254   6.238   2.456   4.386
 7433TIP3   OH222255   0.319   2.542   1.835
 7433TIP3    H122256   0.399   2.523   1.786
 7433TIP3    H222257   0.349   2.554   1.925
 7434TIP3   OH222258   8.294   1.502   0.826
 7434TIP3    H122259   8.386   1.512   0.853
 7434TIP3    H222260   8.291   1.417   0.782
 7435TIP3   OH222261   6.293   0.857   1.019
 7435TIP3    H122262   6.372   0.806   1.034
 7435TIP3    H222263   6.289   0.918   1.092
 7436TIP3   OH222264   3.175   7.407   0.748
 7436TIP3    H122265   3.090   7.441   0.777
 7436TIP3    H222266   3.239   7.461   0.794
 7437TIP3   OH222267   2.471   2.714   6.061
 7437TIP3    H122268   2.394   2.752   6.102
 7437TIP3    H222269   2.453   2.620   6.058
 7438TIP3   OH222270   8.130   5.130   1.556
 7438TIP3    H122271   8.167   5.106   1.640
 7438TIP3    H222272   8.048   5.174   1.577
 7439TIP3   OH222273   5.075   3.700   5.713
 7439TIP3    H122274   5.005   3.746   5.760
 7439TIP3    H222275   5.058   3.607   5.729
 7440TIP3   OH222276   8.313   0.784   4.064
 7440TIP3    H122277   8.238   0.825   4.020
 7440TIP3    H222278   8.305   0.691   4.044
 7441TIP3   OH222279   0.479   6.306   2.927
 7441TIP3    H122280   0.398   6.355   2.912
 7441TIP3    H222281   0.482   6.242   2.855
 7442TIP3   OH222282   5.525   5.559   2.818
 7442TIP3    H122283   5.560   5.493   2.758
 7442TIP3    H222284   5.450   5.596   2.770
 7443TIP3   OH222285   7.414   0.820   6.607
 7443TIP3    H122286   7.361   0.869   6.670
 7443TIP3    H222287   7.444   0.887   6.545
 7444TIP3   OH222288   3.977   5.942   3.545
 7444TIP3    H122289   3.908   5.882   3.516
 7444TIP3    H222290   3.938   6.029   3.533
 7445TIP3   OH222291   1.266   1.125   2.683
 7445TIP3    H122292   1.180   1.086   2.666
 7445TIP3    H222293   1.249   1.193   2.748
 7446TIP3   OH222294   0.934   1.562   2.785
 7446TIP3    H122295   0.842   1.560   2.809
 7446TIP3    H222296   0.981   1.562   2.869
 7447TIP3   OH222297   7.656   6.622   1.496
 7447TIP3    H122298   7.738   6.576   1.512
 7447TIP3    H222299   7.659   6.645   1.404
 7448TIP3   OH222300   3.453   0.191   6.735
 7448TIP3    H122301   3.378   0.250   6.737
 7448TIP3    H222302   3.417   0.106   6.760
 7449TIP3   OH222303   2.520   6.507   3.253
 7449TIP3    H122304   2.449   6.488   3.315
 7449TIP3    H222305   2.496   6.591   3.215
 7450TIP3   OH222306   1.081   3.249   5.949
 7450TIP3    H122307   1.029   3.257   6.028
 7450TIP3    H222308   1.123   3.335   5.939
 7451TIP3   OH222309   0.807   0.484   0.699
 7451TIP3    H122310   0.741   0.476   0.630
 7451TIP3    H222311   0.797   0.405   0.751
 7452TIP3   OH222312   0.039   2.775   4.720
 7452TIP3    H122313   0.102   2.729   4.776
 7452TIP3    H222314   0.063   2.867   4.728
 7453TIP3   OH222315   3.464   2.216   1.339
 7453TIP3    H122316   3.504   2.246   1.421
 7453TIP3    H222317   3.537   2.181   1.288
 7454TIP3   OH222318   3.684   7.348   4.970
 7454TIP3    H122319   3.727   7.323   4.888
 7454TIP3    H222320   3.746   7.409   5.011
 7455TIP3   OH222321   5.072   4.305   6.621
 7455TIP3    H122322   5.022   4.226   6.601
 7455TIP3    H222323   5.031   4.373   6.567
 7456TIP3   OH222324   3.436   5.346   5.309
 7456TIP3    H122325   3.369   5.414   5.320
 7456TIP3    H222326   3.468   5.330   5.398
 7457TIP3   OH222327   2.619   2.161   4.748
 7457TIP3    H122328   2.594   2.246   4.712
 7457TIP3    H222329   2.689   2.130   4.690
 7458TIP3   OH222330   2.083   5.805   0.302
 7458TIP3    H122331   2.164   5.836   0.263
 7458TIP3    H222332   2.049   5.879   0.351
 7459TIP3   OH222333   7.056   7.176   1.542
 7459TIP3    H122334   7.105   7.159   1.622
 7459TIP3    H222335   7.120   7.169   1.472
 7460TIP3   OH222336   4.338   7.542   5.825
 7460TIP3    H122337   4.378   7.610   5.880
 7460TIP3    H222338   4.249   7.534   5.859
 7461TIP3   OH222339   2.916   6.791   4.566
 7461TIP3    H122340   2.979   6.823   4.632
 7461TIP3    H222341   2.843   6.756   4.618
 7462TIP3   OH222342   1.122   1.278   1.850
 7462TIP3    H122343   1.057   1.279   1.920
 7462TIP3    H222344   1.144   1.370   1.837
 7463TIP3   OH222345   4.496   3.097   5.885
 7463TIP3    H122346   4.561   3.078   5.953
 7463TIP3    H222347   4.412   3.094   5.931
 7464TIP3   OH222348   3.576   1.031   4.601
 7464TIP3    H122349   3.622   0.990   4.674
 7464TIP3    H222350   3.537   1.110   4.639
 7465TIP3   OH222351   1.180   4.719   1.472
 7465TIP3    H122352   1.237   4.645   1.493
 7465TIP3    H222353   1.099   4.678   1.440
 7466TIP3   OH222354   3.548   0.227   1.244
 7466TIP3    H122355   3.570   0.206   1.153
 7466TIP3    H222356   3.594   0.160   1.295
 7467TIP3   OH222357   6.820   4.348   0.142
 7467TIP3    H122358   6.734   4.385   0.118
 7467TIP3    H222359   6.799   4.276   0.202
 7468TIP3   OH222360   6.823   5.412   5.759
 7468TIP3    H122361   6.834   5.503   5.733
 7468TIP3    H222362   6.764   5.375   5.693
 7469TIP3   OH222363   0.044   2.352   4.444
 7469TIP3    H122364   0.121   2.397   4.477
 7469TIP3    H222365   0.059   2.260   4.464
 7470TIP3   OH222366   5.322   0.262   4.567
 7470TIP3    H122367   5.341   0.327   4.499
 7470TIP3    H222368   5.283   0.313   4.638
 7471TIP3   OH222369   3.383   2.581   6.625
 7471TIP3    H122370   3.324   2.542   6.689
 7471TIP3    H222371   3.327   2.599   6.549
 7472TIP3   OH222372   7.049   1.354   1.872
 7472TIP3    H122373   7.086   1.278   1.827
 7472TIP3    H222374   6.955   1.343   1.866
 7473TIP3   OH222375   7.381   1.604   4.702
 7473TIP3    H122376   7.391   1.689   4.744
 7473TIP3    H222377   7.295   1.573   4.729
 7474TIP3   OH222378   0.825   7.100   2.181
 7474TIP3    H122379   0.858   7.180   2.139
 7474TIP3    H222380   0.789   7.048   2.109
 7475TIP3   OH222381   1.107   4.210   2.993
 7475TIP3    H122382   1.178   4.247   2.941
 7475TIP3    H222383   1.031   4.264   2.972
 7476TIP3   OH222384   5.072   7.812   0.976
 7476TIP3    H122385   5.019   7.767   1.042
 7476TIP3    H222386   5.007   7.858   0.922
 7477TIP3   OH222387   1.548   1.017   4.937
 7477TIP3    H122388   1.518   0.957   4.869
 7477TIP3    H222389   1.616   0.969   4.984
 7478TIP3   OH222390   6.999   5.749   1.933
 7478TIP3    H122391   7.006   5.705   1.849
 7478TIP3    H222392   7.041   5.834   1.919
 7479TIP3   OH222393   6.097   7.551   3.476
 7479TIP3    H122394   6.134   7.589   3.396
 7479TIP3    H222395   6.116   7.458   3.469
 7480TIP3   OH222396   0.114   6.669   0.621
 7480TIP3    H122397   0.174   6.715   0.562
 7480TIP3    H222398   0.168   6.601   0.662
 7481TIP3   OH222399   4.268   6.175   2.925
 7481TIP3    H122400   4.197   6.112   2.916
 7481TIP3    H222401   4.335   6.128   2.976
 7482TIP3   OH222402   4.170   0.130   1.959
 7482TIP3    H122403   4.095   0.189   1.950
 7482TIP3    H222404   4.244   0.182   1.928
 7483TIP3   OH222405   3.722   0.270   4.222
 7483TIP3    H122406   3.701   0.183   4.190
 7483TIP3    H222407   3.802   0.294   4.176
 7484TIP3   OH222408   7.075   3.878   1.820
 7484TIP3    H122409   7.140   3.946   1.801
 7484TIP3    H222410   7.124   3.796   1.814
 7485TIP3   OH222411   7.514   0.649   2.984
 7485TIP3    H122412   7.454   0.720   3.003
 7485TIP3    H222413   7.543   0.665   2.894
 7486TIP3   OH222414   4.336   7.074   0.258
 7486TIP3    H122415   4.294   7.043   0.177
 7486TIP3    H222416   4.400   7.006   0.279
 7487TIP3   OH222417   3.775   3.996   2.033
 7487TIP3    H122418   3.787   4.085   2.064
 7487TIP3    H222419   3.685   3.993   2.000
 7488TIP3   OH222420   6.956   2.274   4.569
 7488TIP3    H122421   7.005   2.344   4.612
 7488TIP3    H222422   7.022   2.224   4.521
 7489TIP3   OH222423   2.987   2.174   0.616
 7489TIP3    H122424   2.942   2.212   0.541
 7489TIP3    H222425   3.011   2.249   0.671
 7490TIP3   OH222426   4.706   2.605   4.608
 7490TIP3    H122427   4.764   2.631   4.680
 7490TIP3    H222428   4.622   2.646   4.629
 7491TIP3   OH222429   1.812   4.186   5.286
 7491TIP3    H122430   1.774   4.270   5.260
 7491TIP3    H222431   1.803   4.186   5.382
 7492TIP3   OH222432   4.887   3.569   0.093
 7492TIP3    H122433   4.825   3.544   0.024
 7492TIP3    H222434   4.832   3.610   0.160
 7493TIP3   OH222435   5.917   2.503   1.319
 7493TIP3    H122436   5.966   2.584   1.305
 7493TIP3    H222437   5.837   2.513   1.267
 7494TIP3   OH222438   4.105   6.551   1.951
 7494TIP3    H122439   4.163   6.480   1.925
 7494TIP3    H222440   4.100   6.607   1.873
 7495TIP3   OH222441   8.242   6.001   3.312
 7495TIP3    H122442   8.272   5.975   3.399
 7495TIP3    H222443   8.319   5.988   3.256
 7496TIP3   OH222444   1.250   7.574   0.879
 7496TIP3    H122445   1.308   7.497   0.881
 7496TIP3    H222446   1.189   7.556   0.808
 7497TIP3   OH222447   3.848   0.580   2.175
 7497TIP3    H122448   3.915   0.515   2.152
 7497TIP3    H222449   3.861   0.651   2.112
 7498TIP3   OH222450   6.905   1.653   5.872
 7498TIP3    H122451   6.891   1.564   5.839
 7498TIP3    H222452   6.963   1.693   5.808
 7499TIP3   OH222453   3.092   6.170   4.446
 7499TIP3    H122454   3.060   6.092   4.491
 7499TIP3    H222455   3.016   6.204   4.399
 7500TIP3   OH222456   3.350   1.664   4.821
 7500TIP3    H122457   3.284   1.594   4.821
 7500TIP3    H222458   3.411   1.639   4.891
 7501TIP3   OH222459   2.516   0.777   0.535
 7501TIP3    H122460   2.460   0.729   0.595
 7501TIP3    H222461   2.482   0.757   0.448
 7502TIP3   OH222462   8.100   3.136   0.929
 7502TIP3    H122463   8.078   3.082   0.853
 7502TIP3    H222464   8.075   3.083   1.005
 7503TIP3   OH222465   6.016   6.669   4.912
 7503TIP3    H122466   5.945   6.625   4.958
 7503TIP3    H222467   6.094   6.619   4.937
 7504TIP3   OH222468   2.036   6.763   6.589
 7504TIP3    H122469   2.093   6.833   6.557
 7504TIP3    H222470   1.952   6.779   6.546
 7505TIP3   OH222471   4.936   4.759   3.327
 7505TIP3    H122472   4.911   4.740   3.237
 7505TIP3    H222473   5.004   4.695   3.348
 7506TIP3   OH222474   3.827   4.183   2.775
 7506TIP3    H122475   3.741   4.190   2.816
 7506TIP3    H222476   3.824   4.243   2.700
 7507TIP3   OH222477   6.228   3.168   4.044
 7507TIP3    H122478   6.181   3.225   4.105
 7507TIP3    H222479   6.319   3.197   4.050
 7508TIP3   OH222480   7.057   3.894   3.953
 7508TIP3    H122481   7.088   3.967   3.900
 7508TIP3    H222482   7.033   3.826   3.889
 7509TIP3   OH222483   2.868   4.534   4.416
 7509TIP3    H122484   2.801   4.466   4.406
 7509TIP3    H222485   2.929   4.519   4.344
 7510TIP3   OH222486   7.520   5.017   6.245
 7510TIP3    H122487   7.600   5.048   6.203
 7510TIP3    H222488   7.459   5.090   6.237
 7511TIP3   OH222489   3.564   3.035   1.787
 7511TIP3    H122490   3.479   3.009   1.753
 7511TIP3    H222491   3.625   2.968   1.756
 7512TIP3   OH222492   2.350   1.941   5.459
 7512TIP3    H122493   2.387   1.864   5.502
 7512TIP3    H222494   2.367   1.926   5.366
 7513TIP3   OH222495   3.647   1.008   4.887
 7513TIP3    H122496   3.574   0.991   4.947
 7513TIP3    H222497   3.713   0.943   4.911
 7514TIP3   OH222498   1.021   4.540   0.963
 7514TIP3    H122499   1.116   4.551   0.970
 7514TIP3    H222500   1.007   4.446   0.962
 7515TIP3   OH222501   4.303   6.337   4.265
 7515TIP3    H122502   4.228   6.348   4.323
 7515TIP3    H222503   4.304   6.243   4.244
 7516TIP3   OH222504   8.253   7.290   2.699
 7516TIP3    H122505   8.225   7.256   2.784
 7516TIP3    H222506   8.348   7.295   2.705
 7517TIP3   OH222507   2.685   6.983   1.484
 7517TIP3    H122508   2.670   6.966   1.391
 7517TIP3    H222509   2.601   7.014   1.517
 7518TIP3   OH222510   2.342   3.371   3.483
 7518TIP3    H122511   2.299   3.293   3.518
 7518TIP3    H222512   2.270   3.431   3.463
 7519TIP3   OH222513   3.063   1.815   0.388
 7519TIP3    H122514   3.027   1.889   0.438
 7519TIP3    H222515   3.078   1.850   0.300
 7520TIP3   OH222516   5.344   3.636   6.060
 7520TIP3    H122517   5.289   3.601   5.989
 7520TIP3    H222518   5.282   3.664   6.127
 7521TIP3   OH222519   4.600   5.669   2.846
 7521TIP3    H122520   4.601   5.764   2.833
 7521TIP3    H222521   4.692   5.644   2.842
 7522TIP3   OH222522   0.348   3.855   3.763
 7522TIP3    H122523   0.360   3.790   3.694
 7522TIP3    H222524   0.371   3.809   3.844
 7523TIP3   OH222525   6.935   3.731   2.631
 7523TIP3    H122526   6.883   3.801   2.591
 7523TIP3    H222527   6.878   3.654   2.629
 7524TIP3   OH222528   2.061   4.959   1.238
 7524TIP3    H122529   2.148   4.991   1.216
 7524TIP3    H222530   2.076   4.888   1.300
 7525TIP3   OH222531   4.729   6.049   2.183
 7525TIP3    H122532   4.713   6.143   2.175
 7525TIP3    H222533   4.809   6.033   2.134
 7526TIP3   OH222534   4.894   7.594   4.616
 7526TIP3    H122535   4.831   7.532   4.651
 7526TIP3    H222536   4.842   7.652   4.559
 7527TIP3   OH222537   3.320   3.830   4.102
 7527TIP3    H122538   3.357   3.801   4.018
 7527TIP3    H222539   3.306   3.924   4.091
 7528TIP3   OH222540   7.193   5.562   4.987
 7528TIP3    H122541   7.203   5.533   4.896
 7528TIP3    H222542   7.187   5.481   5.037
 7529TIP3   OH222543   7.403   2.411   6.775
 7529TIP3    H122544   7.415   2.504   6.792
 7529TIP3    H222545   7.473   2.388   6.714
 7530TIP3   OH222546   5.146   2.797   1.594
 7530TIP3    H122547   5.110   2.816   1.507
 7530TIP3    H222548   5.239   2.815   1.585
 7531TIP3   OH222549   2.866   7.111   5.833
 7531TIP3    H122550   2.782   7.090   5.792
 7531TIP3    H222551   2.888   7.198   5.800
 7532TIP3   OH222552   5.567   7.676   6.448
 7532TIP3    H122553   5.562   7.720   6.363
 7532TIP3    H222554   5.659   7.684   6.473
 7533TIP3   OH222555   0.192   3.340   5.361
 7533TIP3    H122556   0.214   3.396   5.435
 7533TIP3    H222557   0.263   3.276   5.357
 7534TIP3   OH222558   0.877   4.984   4.438
 7534TIP3    H122559   0.948   5.010   4.497
 7534TIP3    H222560   0.867   4.890   4.453
 7535TIP3   OH222561   6.687   5.905   2.177
 7535TIP3    H122562   6.667   5.872   2.089
 7535TIP3    H222563   6.778   5.934   2.172
 7536TIP3   OH222564   6.944   6.747   6.076
 7536TIP3    H122565   6.866   6.744   6.021
 7536TIP3    H222566   6.914   6.718   6.162
 7537TIP3   OH222567   2.111   6.124   2.294
 7537TIP3    H122568   2.085   6.189   2.229
 7537TIP3    H222569   2.095   6.165   2.378
 7538TIP3   OH222570   1.272   4.995   4.799
 7538TIP3    H122571   1.346   4.938   4.781
 7538TIP3    H222572   1.291   5.033   4.884
 7539TIP3   OH222573   6.470   3.304   1.600
 7539TIP3    H122574   6.514   3.239   1.653
 7539TIP3    H222575   6.534   3.374   1.589
 7540TIP3   OH222576   5.575   4.702   0.897
 7540TIP3    H122577   5.641   4.632   0.898
 7540TIP3    H222578   5.622   4.778   0.864
 7541TIP3   OH222579   4.300   1.899   2.166
 7541TIP3    H122580   4.230   1.927   2.224
 7541TIP3    H222581   4.346   1.831   2.215
 7542TIP3   OH222582   2.786   3.201   1.690
 7542TIP3    H122583   2.799   3.120   1.641
 7542TIP3    H222584   2.696   3.196   1.723
 7543TIP3   OH222585   4.486   4.401   3.260
 7543TIP3    H122586   4.471   4.493   3.282
 7543TIP3    H222587   4.452   4.352   3.334
 7544TIP3   OH222588   4.097   5.042   4.568
 7544TIP3    H122589   4.096   4.951   4.538
 7544TIP3    H222590   4.062   5.092   4.494
 7545TIP3   OH222591   3.086   3.331   1.515
 7545TIP3    H122592   3.177   3.346   1.539
 7545TIP3    H222593   3.077   3.236   1.508
 7546TIP3   OH222594   5.341   0.453   1.684
 7546TIP3    H122595   5.307   0.439   1.772
 7546TIP3    H222596   5.267   0.432   1.626
 7547TIP3   OH222597   8.343   2.397   2.031
 7547TIP3    H122598   8.293   2.320   2.057
 7547TIP3    H222599   8.280   2.452   1.985
 7548TIP3   OH222600   6.381   3.091   1.170
 7548TIP3    H122601   6.373   3.142   1.090
 7548TIP3    H222602   6.373   3.156   1.240
 7549TIP3   OH222603   7.676   4.926   5.844
 7549TIP3    H122604   7.651   4.934   5.752
 7549TIP3    H222605   7.716   4.839   5.851
 7550TIP3   OH222606   4.377   0.706   5.783
 7550TIP3    H122607   4.285   0.688   5.765
 7550TIP3    H222608   4.405   0.763   5.711
 7551TIP3   OH222609   7.908   3.427   3.937
 7551TIP3    H122610   7.944   3.439   4.025
 7551TIP3    H222611   7.823   3.472   3.939
 7552TIP3   OH222612   3.612   5.562   2.169
 7552TIP3    H122613   3.628   5.615   2.091
 7552TIP3    H222614   3.698   5.548   2.207
 7553TIP3   OH222615   2.037   4.178   5.707
 7553TIP3    H122616   2.127   4.147   5.700
 7553TIP3    H222617   2.008   4.149   5.794
 7554TIP3   OH222618   2.353   1.369   4.928
 7554TIP3    H122619   2.343   1.405   5.016
 7554TIP3    H222620   2.314   1.282   4.933
 7555TIP3   OH222621   3.199   2.125   1.198
 7555TIP3    H122622   3.139   2.161   1.133
 7555TIP3    H222623   3.266   2.193   1.210
 7556TIP3   OH222624   3.530   4.676   3.139
 7556TIP3    H122625   3.542   4.732   3.216
 7556TIP3    H222626   3.617   4.639   3.123
 7557TIP3   OH222627   2.407   1.952   3.571
 7557TIP3    H122628   2.362   1.881   3.525
 7557TIP3    H222629   2.447   1.911   3.647
 7558TIP3   OH222630   4.469   2.551   4.387
 7558TIP3    H122631   4.448   2.581   4.298
 7558TIP3    H222632   4.477   2.632   4.438
 7559TIP3   OH222633   4.719   2.207   4.193
 7559TIP3    H122634   4.673   2.226   4.274
 7559TIP3    H222635   4.761   2.122   4.208
 7560TIP3   OH222636   4.878   1.997   4.271
 7560TIP3    H122637   4.965   2.023   4.240
 7560TIP3    H222638   4.894   1.955   4.355
 7561TIP3   OH222639   3.282   2.494   5.391
 7561TIP3    H122640   3.297   2.538   5.308
 7561TIP3    H222641   3.288   2.563   5.457
 7562TIP3   OH222642   1.695   5.825   4.740
 7562TIP3    H122643   1.625   5.820   4.675
 7562TIP3    H222644   1.725   5.735   4.750
 7563TIP3   OH222645   6.505   5.796   3.418
 7563TIP3    H122646   6.496   5.878   3.370
 7563TIP3    H222647   6.459   5.732   3.363
 7564TIP3   OH222648   8.274   2.842   0.699
 7564TIP3    H122649   8.218   2.898   0.645
 7564TIP3    H222650   8.226   2.831   0.780
 7565TIP3   OH222651   4.526   3.380   4.805
 7565TIP3    H122652   4.551   3.435   4.880
 7565TIP3    H222653   4.605   3.378   4.750
 7566TIP3   OH222654   3.093   4.631   0.421
 7566TIP3    H122655   3.017   4.688   0.419
 7566TIP3    H222656   3.148   4.666   0.491
 7567TIP3   OH222657   3.581   7.149   3.161
 7567TIP3    H122658   3.591   7.206   3.084
 7567TIP3    H222659   3.644   7.182   3.224
 7568TIP3   OH222660   5.560   3.805   0.698
 7568TIP3    H122661   5.536   3.891   0.664
 7568TIP3    H222662   5.636   3.778   0.646
 7569TIP3   OH222663   7.784   3.396   2.513
 7569TIP3    H122664   7.789   3.405   2.418
 7569TIP3    H222665   7.731   3.318   2.528
 7570TIP3   OH222666   4.305   0.170   6.144
 7570TIP3    H122667   4.362   0.176   6.067
 7570TIP3    H222668   4.272   0.259   6.157
 7571TIP3   OH222669   3.248   5.300   4.298
 7571TIP3    H122670   3.259   5.392   4.323
 7571TIP3    H222671   3.319   5.254   4.343
 7572TIP3   OH222672   0.646   5.684   2.248
 7572TIP3    H122673   0.572   5.741   2.266
 7572TIP3    H222674   0.607   5.599   2.228
 7573TIP3   OH222675   6.404   5.635   1.569
 7573TIP3    H122676   6.325   5.636   1.622
 7573TIP3    H222677   6.472   5.601   1.627
 7574TIP3   OH222678   7.358   4.917   0.597
 7574TIP3    H122679   7.413   4.868   0.658
 7574TIP3    H222680   7.296   4.852   0.564
 7575TIP3   OH222681   6.894   3.352   0.105
 7575TIP3    H122682   6.961   3.309   0.051
 7575TIP3    H222683   6.830   3.283   0.123
 7576TIP3   OH222684   4.822   4.485   4.687
 7576TIP3    H122685   4.729   4.473   4.669
 7576TIP3    H222686   4.843   4.571   4.653
 7577TIP3   OH222687   6.033   6.951   4.888
 7577TIP3    H122688   5.972   6.990   4.950
 7577TIP3    H222689   6.036   6.858   4.910
 7578TIP3   OH222690   8.020   7.076   1.627
 7578TIP3    H122691   8.104   7.068   1.673
 7578TIP3    H222692   7.994   6.986   1.608
 7579TIP3   OH222693   2.855   0.516   4.628
 7579TIP3    H122694   2.762   0.536   4.633
 7579TIP3    H222695   2.897   0.602   4.621
 7580TIP3   OH222696   3.195   1.240   2.521
 7580TIP3    H122697   3.267   1.177   2.530
 7580TIP3    H222698   3.126   1.190   2.477
 7581TIP3   OH222699   4.831   3.668   3.203
 7581TIP3    H122700   4.893   3.637   3.136
 7581TIP3    H222701   4.762   3.601   3.204
 7582TIP3   OH222702   6.925   4.923   1.842
 7582TIP3    H122703   6.947   4.830   1.838
 7582TIP3    H222704   7.010   4.967   1.849
 7583TIP3   OH222705   3.142   4.029   3.388
 7583TIP3    H122706   3.094   4.044   3.307
 7583TIP3    H222707   3.232   4.009   3.360
 7584TIP3   OH222708   0.815   5.660   0.101
 7584TIP3    H122709   0.805   5.680   0.008
 7584TIP3    H222710   0.749   5.594   0.119
 7585TIP3   OH222711   6.412   3.029   2.863
 7585TIP3    H122712   6.400   3.022   2.958
 7585TIP3    H222713   6.489   2.975   2.845
 7586TIP3   OH222714   1.726   4.935   3.770
 7586TIP3    H122715   1.674   4.912   3.846
 7586TIP3    H222716   1.741   5.029   3.778
 7587TIP3   OH222717   5.035   0.154   5.567
 7587TIP3    H122718   5.074   0.100   5.636
 7587TIP3    H222719   5.004   0.232   5.613
 7588TIP3   OH222720   5.670   0.767   3.382
 7588TIP3    H122721   5.743   0.763   3.444
 7588TIP3    H222722   5.593   0.747   3.435
 7589TIP3   OH222723   1.887   2.195   5.681
 7589TIP3    H122724   1.970   2.157   5.652
 7589TIP3    H222725   1.820   2.142   5.638
 7590TIP3   OH222726   0.492   4.580   0.242
 7590TIP3    H122727   0.581   4.543   0.244
 7590TIP3    H222728   0.487   4.634   0.322
 7591TIP3   OH222729   6.386   7.055   5.064
 7591TIP3    H122730   6.298   7.057   5.103
 7591TIP3    H222731   6.400   6.963   5.042
 7592TIP3   OH222732   3.615   5.625   4.954
 7592TIP3    H122733   3.579   5.682   4.885
 7592TIP3    H222734   3.590   5.668   5.035
 7593TIP3   OH222735   4.462   1.627   0.722
 7593TIP3    H122736   4.522   1.604   0.794
 7593TIP3    H222737   4.420   1.708   0.751
 7594TIP3   OH222738   1.826   4.961   4.400
 7594TIP3    H122739   1.796   4.978   4.311
 7594TIP3    H222740   1.917   4.989   4.401
 7595TIP3   OH222741   4.498   1.347   2.434
 7595TIP3    H122742   4.541   1.365   2.350
 7595TIP3    H222743   4.538   1.409   2.495
 7596TIP3   OH222744   4.623   1.589   1.924
 7596TIP3    H122745   4.658   1.646   1.993
 7596TIP3    H222746   4.572   1.648   1.868
 7597TIP3   OH222747   4.271   6.434   6.735
 7597TIP3    H122748   4.195   6.376   6.737
 7597TIP3    H222749   4.278   6.470   6.823
 7598TIP3   OH222750   5.638   5.414   4.427
 7598TIP3    H122751   5.648   5.508   4.445
 7598TIP3    H222752   5.573   5.384   4.490
 7599TIP3   OH222753   7.363   4.831   4.466
 7599TIP3    H122754   7.451   4.868   4.477
 7599TIP3    H222755   7.312   4.904   4.430
 7600TIP3   OH222756   6.856   4.410   2.812
 7600TIP3    H122757   6.805   4.333   2.787
 7600TIP3    H222758   6.891   4.389   2.899
 7601TIP3   OH222759   8.224   1.262   3.841
 7601TIP3    H122760   8.225   1.194   3.774
 7601TIP3    H222761   8.223   1.344   3.792
 7602TIP3   OH222762   7.618   6.158   4.956
 7602TIP3    H122763   7.597   6.152   5.049
 7602TIP3    H222764   7.581   6.078   4.919
 7603TIP3   OH222765   2.396   3.356   3.094
 7603TIP3    H122766   2.335   3.389   3.160
 7603TIP3    H222767   2.459   3.304   3.143
 7604TIP3   OH222768   6.563   4.404   4.576
 7604TIP3    H122769   6.588   4.329   4.630
 7604TIP3    H222770   6.539   4.473   4.638
 7605TIP3   OH222771   3.745   3.963   3.656
 7605TIP3    H122772   3.766   3.872   3.680
 7605TIP3    H222773   3.761   3.967   3.562
 7606TIP3   OH222774   3.258   7.714   0.647
 7606TIP3    H122775   3.257   7.679   0.736
 7606TIP3    H222776   3.340   7.764   0.642
 7607TIP3   OH222777   5.237   2.330   1.610
 7607TIP3    H122778   5.240   2.414   1.657
 7607TIP3    H222779   5.280   2.348   1.526
 7608TIP3   OH222780   0.187   6.002   1.317
 7608TIP3    H122781   0.254   6.001   1.249
 7608TIP3    H222782   0.127   6.073   1.292
 7609TIP3   OH222783   5.805   3.048   3.449
 7609TIP3    H122784   5.851   3.076   3.528
 7609TIP3    H222785   5.712   3.063   3.468
 7610TIP3   OH222786   3.839   4.174   4.786
 7610TIP3    H122787   3.781   4.158   4.712
 7610TIP3    H222788   3.807   4.114   4.854
 7611TIP3   OH222789   6.194   2.485   2.298
 7611TIP3    H122790   6.289   2.475   2.291
 7611TIP3    H222791   6.176   2.571   2.261
 7612TIP3   OH222792   5.813   7.689   1.166
 7612TIP3    H122793   5.814   7.750   1.091
 7612TIP3    H222794   5.862   7.613   1.135
 7613TIP3   OH222795   1.669   5.350   6.016
 7613TIP3    H122796   1.633   5.350   5.927
 7613TIP3    H222797   1.675   5.258   6.040
 7614TIP3   OH222798   1.718   0.175   5.329
 7614TIP3    H122799   1.811   0.163   5.347
 7614TIP3    H222800   1.714   0.246   5.265
 7615TIP3   OH222801   5.055   4.227   0.405
 7615TIP3    H122802   4.984   4.271   0.452
 7615TIP3    H222803   5.013   4.152   0.363
 7616TIP3   OH222804   0.189   7.418   5.973
 7616TIP3    H122805   0.107   7.391   6.014
 7616TIP3    H222806   0.162   7.468   5.896
 7617TIP3   OH222807   5.042   5.999   5.360
 7617TIP3    H122808   5.029   6.065   5.292
 7617TIP3    H222809   5.127   6.021   5.399
 7618TIP3   OH222810   7.690   1.732   3.659
 7618TIP3    H122811   7.712   1.639   3.667
 7618TIP3    H222812   7.597   1.732   3.635
 7619TIP3   OH222813   1.972   0.072   4.073
 7619TIP3    H122814   1.880   0.083   4.048
 7619TIP3    H222815   2.018   0.058   3.990
 7620TIP3   OH222816   4.577   4.869   6.186
 7620TIP3    H122817   4.611   4.826   6.264
 7620TIP3    H222818   4.487   4.836   6.177
 7621TIP3   OH222819   8.064   3.817   5.115
 7621TIP3    H122820   8.106   3.875   5.051
 7621TIP3    H222821   8.106   3.837   5.198
 7622TIP3   OH222822   3.363   6.350   6.758
 7622TIP3    H122823   3.337   6.358   6.667
 7622TIP3    H222824   3.287   6.313   6.803
 7623TIP3   OH222825   2.917   6.598   2.140
 7623TIP3    H122826   3.003   6.590   2.098
 7623TIP3    H222827   2.936   6.601   2.233
 7624TIP3   OH222828   5.902   5.064   6.340
 7624TIP3    H122829   5.840   5.024   6.279
 7624TIP3    H222830   5.988   5.034   6.308
 7625TIP3   OH222831   6.257   5.943   2.509
 7625TIP3    H122832   6.326   5.915   2.449
 7625TIP3    H222833   6.223   6.023   2.470
 7626TIP3   OH222834   3.338   4.415   2.905
 7626TIP3    H122835   3.272   4.408   2.835
 7626TIP3    H222836   3.365   4.507   2.903
 7627TIP3   OH222837   7.880   6.925   1.276
 7627TIP3    H122838   7.853   7.016   1.265
 7627TIP3    H222839   7.923   6.902   1.194
 7628TIP3   OH222840   7.629   6.799   5.819
 7628TIP3    H122841   7.685   6.763   5.887
 7628TIP3    H222842   7.667   6.884   5.798
 7629TIP3   OH222843   1.916   3.676   0.332
 7629TIP3    H122844   2.009   3.689   0.352
 7629TIP3    H222845   1.916   3.642   0.242
 7630TIP3   OH222846   2.291   1.162   6.127
 7630TIP3    H122847   2.209   1.119   6.105
 7630TIP3    H222848   2.283   1.181   6.221
 7631TIP3   OH222849   6.138   2.549   0.836
 7631TIP3    H122850   6.179   2.587   0.759
 7631TIP3    H222851   6.149   2.454   0.826
 7632TIP3   OH222852   2.700   1.977   4.059
 7632TIP3    H122853   2.791   1.961   4.085
 7632TIP3    H222854   2.672   2.049   4.115
 7633TIP3   OH222855   0.432   0.309   5.912
 7633TIP3    H122856   0.473   0.270   5.989
 7633TIP3    H222857   0.338   0.306   5.932
 7634TIP3   OH222858   6.562   5.645   0.107
 7634TIP3    H122859   6.641   5.603   0.072
 7634TIP3    H222860   6.498   5.574   0.112
 7635TIP3   OH222861   2.562   6.990   3.181
 7635TIP3    H122862   2.507   7.066   3.195
 7635TIP3    H222863   2.594   6.967   3.269
 7636TIP3   OH222864   6.446   0.665   3.657
 7636TIP3    H122865   6.375   0.620   3.703
 7636TIP3    H222866   6.505   0.596   3.630
 7637TIP3   OH222867   6.279   0.790   1.717
 7637TIP3    H122868   6.186   0.813   1.716
 7637TIP3    H222869   6.281   0.695   1.708
 7638TIP3   OH222870   5.814   4.255   3.059
 7638TIP3    H122871   5.900   4.241   3.021
 7638TIP3    H222872   5.754   4.208   3.001
 7639TIP3   OH222873   3.369   3.774   6.529
 7639TIP3    H122874   3.447   3.765   6.475
 7639TIP3    H222875   3.313   3.702   6.503
 7640TIP3   OH222876   0.553   4.523   1.997
 7640TIP3    H122877   0.609   4.524   1.918
 7640TIP3    H222878   0.595   4.460   2.055
 7641TIP3   OH222879   7.433   3.766   6.248
 7641TIP3    H122880   7.507   3.750   6.190
 7641TIP3    H222881   7.469   3.818   6.319
 7642TIP3   OH222882   0.699   3.748   6.656
 7642TIP3    H122883   0.629   3.714   6.600
 7642TIP3    H222884   0.703   3.841   6.634
 7643TIP3   OH222885   2.183   2.121   4.861
 7643TIP3    H122886   2.088   2.128   4.858
 7643TIP3    H222887   2.213   2.205   4.895
 7644TIP3   OH222888   5.234   1.543   4.073
 7644TIP3    H122889   5.310   1.538   4.131
 7644TIP3    H222890   5.267   1.585   3.994
 7645TIP3   OH222891   6.550   4.352   0.100
 7645TIP3    H122892   6.515   4.296   0.169
 7645TIP3    H222893   6.544   4.299   0.020
 7646TIP3   OH222894   2.575   5.566   1.264
 7646TIP3    H122895   2.545   5.657   1.259
 7646TIP3    H222896   2.568   5.545   1.358
 7647TIP3   OH222897   2.990   2.372   6.685
 7647TIP3    H122898   2.947   2.359   6.600
 7647TIP3    H222899   2.959   2.457   6.715
 7648TIP3   OH222900   6.781   6.005   1.821
 7648TIP3    H122901   6.869   5.983   1.790
 7648TIP3    H222902   6.742   6.055   1.748
 7649TIP3   OH222903   6.357   4.808   5.178
 7649TIP3    H122904   6.388   4.731   5.227
 7649TIP3    H222905   6.368   4.881   5.239
 7650TIP3   OH222906   2.875   7.278   0.055
 7650TIP3    H122907   2.904   7.251   0.142
 7650TIP3    H222908   2.787   7.314   0.068
 7651TIP3   OH222909   1.489   6.313   0.076
 7651TIP3    H122910   1.508   6.394   0.124
 7651TIP3    H222911   1.448   6.343  -0.005
 7652TIP3   OH222912   0.806   6.717   0.082
 7652TIP3    H122913   0.718   6.685   0.062
 7652TIP3    H222914   0.851   6.641   0.120
 7653TIP3   OH222915   3.841   3.148   6.064
 7653TIP3    H122916   3.745   3.153   6.057
 7653TIP3    H222917   3.867   3.235   6.096
 7654TIP3   OH222918   1.309   0.249   0.453
 7654TIP3    H122919   1.326   0.173   0.398
 7654TIP3    H222920   1.319   0.324   0.393
 7655TIP3   OH222921   1.495   0.265   0.669
 7655TIP3    H122922   1.417   0.251   0.616
 7655TIP3    H222923   1.560   0.300   0.607
 7656TIP3   OH222924   2.411   1.063   0.355
 7656TIP3    H122925   2.367   1.013   0.286
 7656TIP3    H222926   2.365   1.148   0.356
 7657TIP3   OH222927   0.599   3.532   1.212
 7657TIP3    H122928   0.667   3.507   1.150
 7657TIP3    H222929   0.524   3.477   1.188
 7658TIP3   OH222930   6.835   2.394   3.892
 7658TIP3    H122931   6.900   2.388   3.822
 7658TIP3    H222932   6.887   2.399   3.972
 7659TIP3   OH222933   0.667   3.692   1.420
 7659TIP3    H122934   0.641   3.657   1.335
 7659TIP3    H222935   0.646   3.785   1.415
 7660TIP3   OH222936   5.184   4.783   2.183
 7660TIP3    H122937   5.169   4.841   2.108
 7660TIP3    H222938   5.198   4.697   2.144
 7661TIP3   OH222939   6.417   3.094   4.751
 7661TIP3    H122940   6.439   3.131   4.836
 7661TIP3    H222941   6.329   3.128   4.732
 7662TIP3   OH222942   2.358   7.304   4.511
 7662TIP3    H122943   2.438   7.257   4.536
 7662TIP3    H222944   2.290   7.237   4.511
 7663TIP3   OH222945   0.005   0.709   6.669
 7663TIP3    H122946   0.085   0.750   6.635
 7663TIP3    H222947  -0.066   0.749   6.620
 7664TIP3   OH222948   5.877   7.477   3.605
 7664TIP3    H122949   5.969   7.496   3.589
 7664TIP3    H222950   5.878   7.400   3.662
 7665TIP3   OH222951   3.075   4.999   0.633
 7665TIP3    H122952   3.076   4.994   0.538
 7665TIP3    H222953   2.982   5.009   0.655
 7666TIP3   OH222954   1.991   3.923   4.310
 7666TIP3    H122955   1.905   3.965   4.317
 7666TIP3    H222956   1.971   3.830   4.303
 7667TIP3   OH222957   1.590   5.085   0.765
 7667TIP3    H122958   1.603   4.991   0.749
 7667TIP3    H222959   1.672   5.113   0.807
 7668TIP3   OH222960   0.342   6.035   1.077
 7668TIP3    H122961   0.390   5.953   1.077
 7668TIP3    H222962   0.398   6.096   1.027
 7669TIP3   OH222963   8.080   4.350   5.060
 7669TIP3    H122964   8.032   4.279   5.017
 7669TIP3    H222965   8.043   4.430   5.022
 7670TIP3   OH222966   4.258   1.996   0.237
 7670TIP3    H122967   4.211   1.943   0.300
 7670TIP3    H222968   4.346   2.005   0.274
 7671TIP3   OH222969   4.216   6.961   2.702
 7671TIP3    H122970   4.291   6.961   2.762
 7671TIP3    H222971   4.168   7.042   2.724
 7672TIP3   OH222972   3.120   4.561   4.300
 7672TIP3    H122973   3.122   4.648   4.340
 7672TIP3    H222974   3.102   4.578   4.207
 7673TIP3   OH222975   5.288   4.338   3.572
 7673TIP3    H122976   5.272   4.405   3.639
 7673TIP3    H222977   5.376   4.357   3.541
 7674TIP3   OH222978   7.951   0.711   1.640
 7674TIP3    H122979   7.942   0.701   1.545
 7674TIP3    H222980   8.002   0.635   1.668
 7675TIP3   OH222981   7.980   2.188   1.433
 7675TIP3    H122982   8.010   2.244   1.361
 7675TIP3    H222983   7.905   2.141   1.396
 7676TIP3   OH222984   6.163   5.655   4.192
 7676TIP3    H122985   6.170   5.560   4.182
 7676TIP3    H222986   6.206   5.675   4.275
 7677TIP3   OH222987   1.864   4.359   4.335
 7677TIP3    H122988   1.838   4.449   4.317
 7677TIP3    H222989   1.810   4.334   4.410
 7678TIP3   OH222990   7.340   1.065   1.981
 7678TIP3    H122991   7.245   1.067   1.976
 7678TIP3    H222992   7.367   0.993   1.924
 7679TIP3   OH222993   1.904   0.976   0.561
 7679TIP3    H122994   1.834   0.962   0.624
 7679TIP3    H222995   1.973   0.915   0.587
 7680TIP3   OH222996   2.270   4.786   1.784
 7680TIP3    H122997   2.258   4.830   1.699
 7680TIP3    H222998   2.302   4.855   1.842
 7681TIP3   OH222999   2.373   2.718   1.340
 7681TIP3    H123000   2.457   2.683   1.309
 7681TIP3    H223001   2.341   2.770   1.267
 7682TIP3   OH223002   0.298   3.265   4.444
 7682TIP3    H123003   0.208   3.274   4.476
 7682TIP3    H223004   0.290   3.220   4.360
 7683TIP3   OH223005   5.799   7.857   2.348
 7683TIP3    H123006   5.819   7.769   2.318
 7683TIP3    H223007   5.739   7.844   2.421
 7684TIP3   OH223008   4.179   7.037   1.001
 7684TIP3    H123009   4.116   7.108   0.987
 7684TIP3    H223010   4.190   6.997   0.915
 7685TIP3   OH223011   4.132   3.268   1.633
 7685TIP3    H123012   4.189   3.237   1.562
 7685TIP3    H223013   4.182   3.251   1.712
 7686TIP3   OH223014   4.948   5.492   1.579
 7686TIP3    H123015   4.968   5.515   1.670
 7686TIP3    H223016   4.868   5.540   1.559
 7687TIP3   OH223017   4.331   4.778   4.754
 7687TIP3    H123018   4.390   4.806   4.824
 7687TIP3    H223019   4.372   4.699   4.718
 7688TIP3   OH223020   5.850   7.154   3.979
 7688TIP3    H123021   5.883   7.100   4.050
 7688TIP3    H223022   5.784   7.100   3.935
 7689TIP3   OH223023   6.261   2.981   6.492
 7689TIP3    H123024   6.224   2.893   6.488
 7689TIP3    H223025   6.290   2.998   6.402
 7690TIP3   OH223026   3.655   6.355   6.129
 7690TIP3    H123027   3.595   6.411   6.079
 7690TIP3    H223028   3.734   6.352   6.075
 7691TIP3   OH223029   3.809   5.263   0.141
 7691TIP3    H123030   3.794   5.188   0.199
 7691TIP3    H223031   3.767   5.238   0.059
 7692TIP3   OH223032   1.886   1.948   1.570
 7692TIP3    H123033   1.846   1.862   1.556
 7692TIP3    H223034   1.861   1.973   1.659
 7693TIP3   OH223035   7.166   2.976   1.206
 7693TIP3    H123036   7.098   3.000   1.268
 7693TIP3    H223037   7.164   3.046   1.140
 7694TIP3   OH223038   6.856   4.885   0.347
 7694TIP3    H123039   6.902   4.964   0.320
 7694TIP3    H223040   6.912   4.845   0.414
 7695TIP3   OH223041   2.881   1.854   3.009
 7695TIP3    H123042   2.788   1.861   2.987
 7695TIP3    H223043   2.925   1.913   2.947
 7696TIP3   OH223044   7.905   4.851   6.660
 7696TIP3    H123045   7.967   4.797   6.709
 7696TIP3    H223046   7.924   4.941   6.688
 7697TIP3   OH223047   6.270   3.874   3.598
 7697TIP3    H123048   6.300   3.813   3.666
 7697TIP3    H223049   6.200   3.924   3.640
 7698TIP3   OH223050   3.464   4.096   2.215
 7698TIP3    H123051   3.414   4.131   2.289
 7698TIP3    H223052   3.528   4.164   2.196
 7699TIP3   OH223053   6.432   1.177   3.930
 7699TIP3    H123054   6.399   1.090   3.954
 7699TIP3    H223055   6.400   1.191   3.841
 7700TIP3   OH223056   5.179   6.815   2.788
 7700TIP3    H123057   5.218   6.903   2.789
 7700TIP3    H223058   5.166   6.793   2.880
 7701TIP3   OH223059   6.214   6.726   2.977
 7701TIP3    H123060   6.205   6.631   2.968
 7701TIP3    H223061   6.273   6.751   2.906
 7702TIP3   OH223062   7.696   5.614   6.428
 7702TIP3    H123063   7.700   5.585   6.519
 7702TIP3    H223064   7.778   5.661   6.414
 7703TIP3   OH223065   1.477   2.948   0.529
 7703TIP3    H123066   1.508   3.032   0.494
 7703TIP3    H223067   1.473   2.962   0.624
 7704TIP3   OH223068   6.489   2.930   6.656
 7704TIP3    H123069   6.413   2.973   6.617
 7704TIP3    H223070   6.455   2.890   6.736
 7705TIP3   OH223071   2.546   5.297   2.124
 7705TIP3    H123072   2.479   5.345   2.173
 7705TIP3    H223073   2.598   5.366   2.082
 7706TIP3   OH223074   4.965   5.786   4.490
 7706TIP3    H123075   5.021   5.854   4.528
 7706TIP3    H223076   4.968   5.715   4.554
 7707TIP3   OH223077   6.839   0.795   3.888
 7707TIP3    H123078   6.886   0.717   3.858
 7707TIP3    H223079   6.796   0.768   3.969
 7708TIP3   OH223080   7.195   2.599   6.631
 7708TIP3    H123081   7.203   2.640   6.717
 7708TIP3    H223082   7.107   2.561   6.631
 7709TIP3   OH223083   0.263   3.454   2.175
 7709TIP3    H123084   0.269   3.364   2.142
 7709TIP3    H223085   0.226   3.445   2.263
 7710TIP3   OH223086   0.258   2.437   4.582
 7710TIP3    H123087   0.251   2.516   4.635
 7710TIP3    H223088   0.313   2.378   4.634
 7711TIP3   OH223089   7.263   2.138   0.932
 7711TIP3    H123090   7.208   2.216   0.937
 7711TIP3    H223091   7.336   2.164   0.876
 7712TIP3   OH223092   6.079   6.887   4.401
 7712TIP3    H123093   6.065   6.981   4.400
 7712TIP3    H223094   6.025   6.855   4.473
 7713TIP3   OH223095   5.605   3.429   4.727
 7713TIP3    H123096   5.561   3.475   4.656
 7713TIP3    H223097   5.549   3.442   4.804
 7714TIP3   OH223098   0.975   7.186   6.334
 7714TIP3    H123099   1.026   7.239   6.272
 7714TIP3    H223100   0.973   7.099   6.295
 7715TIP3   OH223101   4.168   1.305   2.197
 7715TIP3    H123102   4.165   1.287   2.291
 7715TIP3    H223103   4.222   1.234   2.161
 7716TIP3   OH223104   2.251   0.892   4.544
 7716TIP3    H123105   2.267   0.905   4.638
 7716TIP3    H223106   2.327   0.842   4.513
 7717TIP3   OH223107   8.140   4.912   5.259
 7717TIP3    H123108   8.150   4.980   5.192
 7717TIP3    H223109   8.173   4.952   5.339
 7718TIP3   OH223110   6.345   2.701   1.598
 7718TIP3    H123111   6.403   2.659   1.662
 7718TIP3    H223112   6.373   2.792   1.596
 7719TIP3   OH223113   3.945   3.460   1.531
 7719TIP3    H123114   3.954   3.535   1.589
 7719TIP3    H223115   4.009   3.397   1.564
 7720TIP3   OH223116   3.419   7.713   6.443
 7720TIP3    H123117   3.494   7.655   6.434
 7720TIP3    H223118   3.406   7.750   6.356
 7721TIP3   OH223119   2.244   2.415   0.281
 7721TIP3    H123120   2.182   2.444   0.214
 7721TIP3    H223121   2.330   2.437   0.245
 7722TIP3   OH223122   5.235   3.958   0.754
 7722TIP3    H123123   5.206   4.048   0.764
 7722TIP3    H223124   5.326   3.965   0.725
 7723TIP3   OH223125   1.210   5.186   3.447
 7723TIP3    H123126   1.286   5.240   3.426
 7723TIP3    H223127   1.242   5.125   3.515
 7724TIP3   OH223128   8.126   6.315   0.475
 7724TIP3    H123129   8.153   6.276   0.391
 7724TIP3    H223130   8.074   6.248   0.517
 7725TIP3   OH223131   3.243   3.649   2.447
 7725TIP3    H123132   3.206   3.561   2.436
 7725TIP3    H223133   3.325   3.636   2.494
 7726TIP3   OH223134   6.505   2.316   5.272
 7726TIP3    H123135   6.436   2.249   5.268
 7726TIP3    H223136   6.476   2.385   5.213
 7727TIP3   OH223137   6.189   0.345   0.316
 7727TIP3    H123138   6.168   0.260   0.356
 7727TIP3    H223139   6.240   0.391   0.382
 7728TIP3   OH223140   1.830   5.598   4.722
 7728TIP3    H123141   1.924   5.579   4.713
 7728TIP3    H223142   1.791   5.514   4.745
 7729TIP3   OH223143   0.684   2.324   2.545
 7729TIP3    H123144   0.659   2.352   2.633
 7729TIP3    H223145   0.602   2.295   2.505
 7730TIP3   OH223146   0.511   0.357   5.627
 7730TIP3    H123147   0.532   0.283   5.570
 7730TIP3    H223148   0.471   0.318   5.704
 7731TIP3   OH223149   5.668   0.763   0.616
 7731TIP3    H123150   5.761   0.745   0.608
 7731TIP3    H223151   5.657   0.852   0.582
 7732TIP3   OH223152   0.348   4.269   1.286
 7732TIP3    H123153   0.302   4.275   1.370
 7732TIP3    H223154   0.354   4.175   1.269
 7733TIP3   OH223155   5.556   5.458   1.934
 7733TIP3    H123156   5.513   5.381   1.971
 7733TIP3    H223157   5.587   5.429   1.848
 7734TIP3   OH223158   3.875   5.897   0.178
 7734TIP3    H123159   3.809   5.834   0.205
 7734TIP3    H223160   3.860   5.973   0.234
 7735TIP3   OH223161   5.116   2.164   6.547
 7735TIP3    H123162   5.107   2.079   6.506
 7735TIP3    H223163   5.194   2.156   6.602
 7736TIP3   OH223164   4.440   1.701   6.747
 7736TIP3    H123165   4.506   1.760   6.712
 7736TIP3    H223166   4.418   1.738   6.833
 7737TIP3   OH223167   1.772   2.197   3.854
 7737TIP3    H123168   1.795   2.247   3.932
 7737TIP3    H223169   1.810   2.110   3.868
 7738TIP3   OH223170   8.161   0.482   4.180
 7738TIP3    H123171   8.114   0.406   4.214
 7738TIP3    H223172   8.199   0.452   4.098
 7739TIP3   OH223173   3.910   2.766   2.857
 7739TIP3    H123174   3.923   2.708   2.932
 7739TIP3    H223175   3.866   2.711   2.792
 7740TIP3   OH223176   1.787   1.353   6.550
 7740TIP3    H123177   1.697   1.328   6.527
 7740TIP3    H223178   1.839   1.277   6.525
 7741TIP3   OH223179   2.053   7.205   2.046
 7741TIP3    H123180   2.045   7.113   2.072
 7741TIP3    H223181   1.966   7.242   2.060
 7742TIP3   OH223182   7.291   3.663   3.605
 7742TIP3    H123183   7.296   3.742   3.551
 7742TIP3    H223184   7.373   3.616   3.587
 7743TIP3   OH223185   6.756   0.119   0.708
 7743TIP3    H123186   6.770   0.152   0.796
 7743TIP3    H223187   6.777   0.193   0.651
 7744TIP3   OH223188   7.801   0.114   1.500
 7744TIP3    H123189   7.762   0.027   1.513
 7744TIP3    H223190   7.745   0.155   1.434
 7745TIP3   OH223191   7.483   6.154   0.926
 7745TIP3    H123192   7.494   6.230   0.985
 7745TIP3    H223193   7.567   6.108   0.931
 7746TIP3   OH223194   5.422   2.730   3.256
 7746TIP3    H123195   5.358   2.731   3.327
 7746TIP3    H223196   5.506   2.718   3.300
 7747TIP3   OH223197   7.184   1.920   6.166
 7747TIP3    H123198   7.107   1.878   6.208
 7747TIP3    H223199   7.251   1.852   6.168
 7748TIP3   OH223200   2.718   0.646   5.158
 7748TIP3    H123201   2.688   0.712   5.221
 7748TIP3    H223202   2.652   0.577   5.161
 7749TIP3   OH223203   5.790   2.670   1.663
 7749TIP3    H123204   5.799   2.693   1.570
 7749TIP3    H223205   5.856   2.723   1.708
 7750TIP3   OH223206   1.618   1.678   1.893
 7750TIP3    H123207   1.582   1.712   1.975
 7750TIP3    H223208   1.618   1.753   1.833
 7751TIP3   OH223209   2.257   0.331   5.260
 7751TIP3    H123210   2.306   0.407   5.291
 7751TIP3    H223211   2.307   0.299   5.185
 7752TIP3   OH223212   7.674   6.999   1.006
 7752TIP3    H123213   7.721   6.933   0.955
 7752TIP3    H223214   7.618   6.948   1.065
 7753TIP3   OH223215   4.080   1.808   3.476
 7753TIP3    H123216   4.004   1.759   3.507
 7753TIP3    H223217   4.049   1.855   3.398
 7754TIP3   OH223218   3.978   0.915   3.844
 7754TIP3    H123219   4.025   0.990   3.880
 7754TIP3    H223220   3.937   0.949   3.765
 7755TIP3   OH223221   5.749   5.691   6.149
 7755TIP3    H123222   5.765   5.675   6.056
 7755TIP3    H223223   5.832   5.670   6.192
 7756TIP3   OH223224   1.163   2.204   0.241
 7756TIP3    H123225   1.082   2.206   0.293
 7756TIP3    H223226   1.192   2.295   0.239
 7757TIP3   OH223227   1.210   5.603   2.585
 7757TIP3    H123228   1.155   5.560   2.651
 7757TIP3    H223229   1.245   5.530   2.533
 7758TIP3   OH223230   7.252   2.472   4.320
 7758TIP3    H123231   7.325   2.523   4.285
 7758TIP3    H223232   7.199   2.451   4.243
 7759TIP3   OH223233   1.340   1.849   1.843
 7759TIP3    H123234   1.311   1.836   1.752
 7759TIP3    H223235   1.436   1.853   1.837
 7760TIP3   OH223236   5.148   7.482   6.394
 7760TIP3    H123237   5.131   7.509   6.303
 7760TIP3    H223238   5.077   7.423   6.416
 7761TIP3   OH223239   5.493   4.845   2.470
 7761TIP3    H123240   5.542   4.839   2.388
 7761TIP3    H223241   5.405   4.816   2.448
 7762TIP3   OH223242   6.822   3.592   3.991
 7762TIP3    H123243   6.903   3.613   3.944
 7762TIP3    H223244   6.795   3.676   4.029
 7763TIP3   OH223245   6.318   6.508   1.092
 7763TIP3    H123246   6.354   6.448   1.157
 7763TIP3    H223247   6.238   6.465   1.062
 7764TIP3   OH223248   1.583   1.805   3.741
 7764TIP3    H123249   1.675   1.780   3.731
 7764TIP3    H223250   1.576   1.834   3.832
 7765TIP3   OH223251   7.626   0.795   0.605
 7765TIP3    H123252   7.645   0.887   0.628
 7765TIP3    H223253   7.593   0.757   0.687
 7766TIP3   OH223254   0.934   7.306   1.462
 7766TIP3    H123255   0.912   7.269   1.547
 7766TIP3    H223256   0.870   7.376   1.449
 7767TIP3   OH223257   1.744   0.195   4.235
 7767TIP3    H123258   1.776   0.109   4.208
 7767TIP3    H223259   1.687   0.177   4.310
 7768TIP3   OH223260   2.597   5.373   6.021
 7768TIP3    H123261   2.654   5.436   6.065
 7768TIP3    H223262   2.534   5.427   5.974
 7769TIP3   OH223263   7.502   3.315   6.108
 7769TIP3    H123264   7.557   3.381   6.066
 7769TIP3    H223265   7.559   3.239   6.117
 7770TIP3   OH223266   5.164   0.428   5.459
 7770TIP3    H123267   5.078   0.426   5.418
 7770TIP3    H223268   5.149   0.394   5.547
 7771TIP3   OH223269   2.928   1.017   0.159
 7771TIP3    H123270   2.953   1.091   0.216
 7771TIP3    H223271   2.838   0.996   0.185
 7772TIP3   OH223272   3.995   1.669   5.680
 7772TIP3    H123273   4.066   1.633   5.627
 7772TIP3    H223274   4.012   1.763   5.682
 7773TIP3   OH223275   3.184   2.268   5.725
 7773TIP3    H123276   3.136   2.280   5.807
 7773TIP3    H223277   3.264   2.320   5.736
 7774TIP3   OH223278   1.696   5.422   1.190
 7774TIP3    H123279   1.617   5.370   1.179
 7774TIP3    H223280   1.722   5.408   1.281
 7775TIP3   OH223281   2.073   7.382   0.659
 7775TIP3    H123282   2.079   7.341   0.745
 7775TIP3    H223283   2.161   7.416   0.642
 7776TIP3   OH223284   2.907   5.027   3.099
 7776TIP3    H123285   2.828   5.052   3.147
 7776TIP3    H223286   2.933   5.106   3.053
 7777TIP3   OH223287   3.736   4.451   4.198
 7777TIP3    H123288   3.715   4.404   4.279
 7777TIP3    H223289   3.709   4.391   4.128
 7778TIP3   OH223290   4.185   1.342   3.625
 7778TIP3    H123291   4.095   1.338   3.655
 7778TIP3    H223292   4.201   1.436   3.611
 7779TIP3   OH223293   4.783   3.778   3.563
 7779TIP3    H123294   4.752   3.698   3.606
 7779TIP3    H223295   4.793   3.841   3.634
 7780TIP3   OH223296   6.277   3.195   3.544
 7780TIP3    H123297   6.282   3.139   3.621
 7780TIP3    H223298   6.236   3.275   3.575
 7781TIP3   OH223299   4.513   7.284   5.116
 7781TIP3    H123300   4.561   7.347   5.063
 7781TIP3    H223301   4.487   7.333   5.195
 7782TIP3   OH223302   6.186   7.578   0.293
 7782TIP3    H123303   6.278   7.564   0.313
 7782TIP3    H223304   6.150   7.617   0.373
 7783TIP3   OH223305   0.671   0.122   5.725
 7783TIP3    H123306   0.696   0.146   5.636
 7783TIP3    H223307   0.725   0.046   5.746
 7784TIP3   OH223308   2.858   0.233   2.261
 7784TIP3    H123309   2.942   0.186   2.256
 7784TIP3    H223310   2.794   0.164   2.280
 7785TIP3   OH223311   5.703   0.171   0.797
 7785TIP3    H123312   5.730   0.243   0.855
 7785TIP3    H223313   5.686   0.214   0.713
 7786TIP3   OH223314   1.017   0.195   4.755
 7786TIP3    H123315   1.092   0.187   4.813
 7786TIP3    H223316   0.960   0.121   4.779
 7787TIP3   OH223317   6.274   7.336   1.679
 7787TIP3    H123318   6.217   7.281   1.733
 7787TIP3    H223319   6.219   7.410   1.654
 7788TIP3   OH223320   7.530   4.621   6.673
 7788TIP3    H123321   7.520   4.707   6.713
 7788TIP3    H223322   7.615   4.624   6.628
 7789TIP3   OH223323   1.253   0.776   3.515
 7789TIP3    H123324   1.174   0.736   3.552
 7789TIP3    H223325   1.228   0.867   3.500
 7790TIP3   OH223326   1.456   0.721   1.185
 7790TIP3    H123327   1.406   0.726   1.104
 7790TIP3    H223328   1.498   0.634   1.182
 7791TIP3   OH223329   7.444   3.147   0.810
 7791TIP3    H123330   7.459   3.227   0.759
 7791TIP3    H223331   7.350   3.149   0.831
 7792TIP3   OH223332   6.233   7.813   2.369
 7792TIP3    H123333   6.323   7.800   2.340
 7792TIP3    H223334   6.201   7.725   2.389
 7793TIP3   OH223335   0.661   1.533   6.618
 7793TIP3    H123336   0.579   1.582   6.621
 7793TIP3    H223337   0.727   1.594   6.651
 7794TIP3   OH223338   5.561   6.001   5.488
 7794TIP3    H123339   5.609   6.071   5.443
 7794TIP3    H223340   5.601   5.995   5.574
 7795TIP3   OH223341   7.492   1.639   1.213
 7795TIP3    H123342   7.554   1.653   1.141
 7795TIP3    H223343   7.468   1.546   1.206
 7796TIP3   OH223344   7.866   2.300   0.273
 7796TIP3    H123345   7.907   2.265   0.352
 7796TIP3    H223346   7.896   2.391   0.269
 7797TIP3   OH223347   5.829   1.756   2.015
 7797TIP3    H123348   5.796   1.846   2.012
 7797TIP3    H223349   5.792   1.719   2.095
 7798TIP3   OH223350   6.021   0.577   5.919
 7798TIP3    H123351   5.925   0.575   5.927
 7798TIP3    H223352   6.052   0.591   6.008
 7799TIP3   OH223353   8.072   6.321   2.433
 7799TIP3    H123354   8.124   6.356   2.361
 7799TIP3    H223355   8.110   6.361   2.512
 7800TIP3   OH223356   6.124   7.469   6.363
 7800TIP3    H123357   6.218   7.477   6.376
 7800TIP3    H223358   6.110   7.487   6.270
 7801TIP3   OH223359   0.041   7.694   4.010
 7801TIP3    H123360   0.105   7.680   3.940
 7801TIP3    H223361   0.050   7.617   4.066
 7802TIP3   OH223362   2.536   7.393   3.647
 7802TIP3    H123363   2.451   7.353   3.666
 7802TIP3    H223364   2.545   7.387   3.552
 7803TIP3   OH223365   6.173   3.076   1.406
 7803TIP3    H123366   6.137   3.059   1.319
 7803TIP3    H223367   6.232   3.150   1.393
 7804TIP3   OH223368   1.633   5.812   5.777
 7804TIP3    H123369   1.671   5.758   5.847
 7804TIP3    H223370   1.596   5.888   5.823
 7805TIP3   OH223371   0.063   2.056   4.477
 7805TIP3    H123372  -0.016   2.004   4.492
 7805TIP3    H223373   0.098   2.072   4.565
 7806TIP3   OH223374   4.702   2.081   2.828
 7806TIP3    H123375   4.664   2.168   2.822
 7806TIP3    H223376   4.634   2.023   2.795
 7807TIP3   OH223377   1.670   4.868   6.463
 7807TIP3    H123378   1.758   4.853   6.496
 7807TIP3    H223379   1.615   4.870   6.541
 7808TIP3   OH223380   4.819   0.573   3.124
 7808TIP3    H123381   4.800   0.595   3.032
 7808TIP3    H223382   4.796   0.481   3.132
 7809TIP3   OH223383   3.123   0.346   2.945
 7809TIP3    H123384   3.075   0.296   2.880
 7809TIP3    H223385   3.212   0.349   2.912
 7810TIP3   OH223386   6.668   1.852   6.428
 7810TIP3    H123387   6.709   1.924   6.380
 7810TIP3    H223388   6.668   1.779   6.366
 7811TIP3   OH223389   6.032   3.223   3.008
 7811TIP3    H123390   5.977   3.301   3.000
 7811TIP3    H223391   5.970   3.151   3.012
 7812TIP3   OH223392   3.679   2.802   1.728
 7812TIP3    H123393   3.605   2.745   1.748
 7812TIP3    H223394   3.743   2.784   1.797
 7813TIP3   OH223395   0.612   6.766   5.625
 7813TIP3    H123396   0.596   6.694   5.686
 7813TIP3    H223397   0.534   6.769   5.570
 7814TIP3   OH223398   7.471   4.808   0.834
 7814TIP3    H123399   7.521   4.889   0.845
 7814TIP3    H223400   7.410   4.807   0.908
 7815TIP3   OH223401   7.741   3.183   1.857
 7815TIP3    H123402   7.824   3.136   1.858
 7815TIP3    H223403   7.765   3.274   1.874
 7816TIP3   OH223404   4.131   0.798   1.823
 7816TIP3    H123405   4.055   0.833   1.870
 7816TIP3    H223406   4.104   0.709   1.798
 7817TIP3   OH223407   7.084   7.010   1.766
 7817TIP3    H123408   7.089   7.058   1.848
 7817TIP3    H223409   6.995   6.975   1.763
 7818TIP3   OH223410   0.936   6.990   0.576
 7818TIP3    H123411   0.861   6.947   0.535
 7818TIP3    H223412   0.980   6.919   0.623
 7819TIP3   OH223413   2.107   5.534   4.333
 7819TIP3    H123414   2.182   5.527   4.274
 7819TIP3    H223415   2.032   5.546   4.274
 7820TIP3   OH223416   0.794   7.446   4.683
 7820TIP3    H123417   0.759   7.534   4.700
 7820TIP3    H223418   0.842   7.424   4.762
 7821TIP3   OH223419   2.358   7.194   3.229
 7821TIP3    H123420   2.265   7.217   3.227
 7821TIP3    H223421   2.384   7.205   3.320
 7822TIP3   OH223422   1.067   6.743   0.751
 7822TIP3    H123423   1.091   6.734   0.843
 7822TIP3    H223424   0.991   6.686   0.740
 7823TIP3   OH223425   4.806   0.141   5.400
 7823TIP3    H123426   4.875   0.125   5.464
 7823TIP3    H223427   4.844   0.204   5.339
 7824TIP3   OH223428   7.694   0.411   4.661
 7824TIP3    H123429   7.674   0.481   4.599
 7824TIP3    H223430   7.744   0.455   4.730
 7825TIP3   OH223431   2.735   5.150   2.760
 7825TIP3    H123432   2.732   5.168   2.666
 7825TIP3    H223433   2.663   5.089   2.775
 7826TIP3   OH223434   0.003   7.458   4.843
 7826TIP3    H123435   0.052   7.460   4.761
 7826TIP3    H223436  -0.044   7.541   4.846
 7827TIP3   OH223437   6.796   5.236   0.304
 7827TIP3    H123438   6.835   5.323   0.292
 7827TIP3    H223439   6.869   5.180   0.331
 7828TIP3   OH223440   3.841   2.951   3.894
 7828TIP3    H123441   3.927   2.938   3.934
 7828TIP3    H223442   3.804   2.863   3.888
 7829TIP3   OH223443   2.743   1.723   1.819
 7829TIP3    H123444   2.699   1.638   1.822
 7829TIP3    H223445   2.836   1.702   1.815
 7830TIP3   OH223446   2.709   5.909   0.326
 7830TIP3    H123447   2.739   5.874   0.411
 7830TIP3    H223448   2.620   5.940   0.343
 7831TIP3   OH223449   3.871   3.904   0.290
 7831TIP3    H123450   3.890   3.827   0.344
 7831TIP3    H223451   3.778   3.897   0.271
 7832TIP3   OH223452   5.978   6.870   5.869
 7832TIP3    H123453   6.056   6.912   5.906
 7832TIP3    H223454   5.913   6.873   5.939
 7833TIP3   OH223455   5.077   2.727   3.957
 7833TIP3    H123456   5.042   2.673   4.028
 7833TIP3    H223457   5.148   2.676   3.920
 7834TIP3   OH223458   0.065   2.846   5.047
 7834TIP3    H123459   0.031   2.928   5.083
 7834TIP3    H223460  -0.004   2.814   4.989
 7835TIP3   OH223461   0.037   5.449   6.630
 7835TIP3    H123462  -0.031   5.516   6.627
 7835TIP3    H223463   0.114   5.494   6.664
 7836TIP3   OH223464   8.055   4.339   5.727
 7836TIP3    H123465   7.965   4.354   5.754
 7836TIP3    H223466   8.108   4.388   5.791
 7837TIP3   OH223467   2.328   5.631   2.333
 7837TIP3    H123468   2.253   5.683   2.362
 7837TIP3    H223469   2.383   5.693   2.285
 7838TIP3   OH223470   7.343   0.009   2.176
 7838TIP3    H123471   7.250  -0.014   2.171
 7838TIP3    H223472   7.344   0.093   2.222
 7839TIP3   OH223473   7.976   0.299   6.513
 7839TIP3    H123474   7.889   0.274   6.545
 7839TIP3    H223475   8.025   0.217   6.511
 7840TIP3   OH223476   7.746   4.715   0.338
 7840TIP3    H123477   7.749   4.619   0.347
 7840TIP3    H223478   7.835   4.740   0.315
 7841TIP3   OH223479   7.197   6.188   4.254
 7841TIP3    H123480   7.102   6.196   4.249
 7841TIP3    H223481   7.219   6.219   4.341
 7842TIP3   OH223482   2.606   2.988   0.770
 7842TIP3    H123483   2.565   3.055   0.824
 7842TIP3    H223484   2.539   2.964   0.706
 7843TIP3   OH223485   0.721   3.893   0.848
 7843TIP3    H123486   0.707   3.800   0.862
 7843TIP3    H223487   0.805   3.912   0.890
 7844TIP3   OH223488   5.902   2.581   4.523
 7844TIP3    H123489   5.971   2.626   4.474
 7844TIP3    H223490   5.822   2.627   4.499
 7845TIP3   OH223491   6.960   0.669   4.861
 7845TIP3    H123492   6.920   0.624   4.787
 7845TIP3    H223493   6.945   0.762   4.844
 7846TIP3   OH223494   1.386   2.189   5.534
 7846TIP3    H123495   1.427   2.103   5.547
 7846TIP3    H223496   1.295   2.169   5.512
 7847TIP3   OH223497   7.338   0.044   0.799
 7847TIP3    H123498   7.288  -0.032   0.771
 7847TIP3    H223499   7.334   0.104   0.724
 7848TIP3   OH223500   2.758   4.860   2.279
 7848TIP3    H123501   2.733   4.822   2.363
 7848TIP3    H223502   2.709   4.942   2.275
 7849TIP3   OH223503   6.304   4.083   4.274
 7849TIP3    H123504   6.389   4.113   4.244
 7849TIP3    H223505   6.241   4.127   4.216
 7850TIP3   OH223506   0.204   2.855   1.625
 7850TIP3    H123507   0.156   2.776   1.649
 7850TIP3    H223508   0.250   2.881   1.705
 7851TIP3   OH223509   1.987   6.784   3.352
 7851TIP3    H123510   2.067   6.734   3.337
 7851TIP3    H223511   2.003   6.831   3.434
 7852TIP3   OH223512   3.344   5.597   5.774
 7852TIP3    H123513   3.346   5.693   5.769
 7852TIP3    H223514   3.434   5.572   5.795
 7853TIP3   OH223515   1.450   6.402   3.718
 7853TIP3    H123516   1.491   6.353   3.790
 7853TIP3    H223517   1.360   6.417   3.749
 7854TIP3   OH223518   3.740   2.503   1.871
 7854TIP3    H123519   3.684   2.433   1.904
 7854TIP3    H223520   3.722   2.506   1.777
 7855TIP3   OH223521   0.947   5.497   3.016
 7855TIP3    H123522   0.953   5.554   3.093
 7855TIP3    H223523   0.853   5.484   3.003
 7856TIP3   OH223524   4.899   4.107   1.684
 7856TIP3    H123525   4.810   4.079   1.704
 7856TIP3    H223526   4.901   4.118   1.589
 7857TIP3   OH223527   3.743   6.689   1.981
 7857TIP3    H123528   3.810   6.621   1.990
 7857TIP3    H223529   3.661   6.641   1.975
 7858TIP3   OH223530   2.766   5.272   6.293
 7858TIP3    H123531   2.784   5.240   6.205
 7858TIP3    H223532   2.673   5.291   6.294
 7859TIP3   OH223533   7.417   4.241   5.157
 7859TIP3    H123534   7.494   4.187   5.140
 7859TIP3    H223535   7.347   4.199   5.106
 7860TIP3   OH223536   7.544   6.064   1.784
 7860TIP3    H123537   7.604   6.108   1.845
 7860TIP3    H223538   7.591   5.985   1.757
 7861TIP3   OH223539   5.837   3.772   4.625
 7861TIP3    H123540   5.785   3.838   4.672
 7861TIP3    H223541   5.893   3.823   4.567
 7862TIP3   OH223542   1.828   3.569   1.381
 7862TIP3    H123543   1.894   3.501   1.364
 7862TIP3    H223544   1.878   3.650   1.390
 7863TIP3   OH223545   6.967   2.521   6.002
 7863TIP3    H123546   6.945   2.470   5.925
 7863TIP3    H223547   6.885   2.529   6.050
 7864TIP3   OH223548   4.429   7.734   1.348
 7864TIP3    H123549   4.513   7.689   1.345
 7864TIP3    H223550   4.416   7.754   1.441
 7865TIP3   OH223551   4.476   2.034  -0.032
 7865TIP3    H123552   4.476   2.026   0.063
 7865TIP3    H223553   4.385   2.056  -0.054
 7866TIP3   OH223554   2.325   6.721   4.809
 7866TIP3    H123555   2.343   6.791   4.746
 7866TIP3    H223556   2.411   6.694   4.840
 7867TIP3   OH223557   1.981   0.770   1.623
 7867TIP3    H123558   1.903   0.714   1.631
 7867TIP3    H223559   2.040   0.739   1.692
 7868TIP3   OH223560   1.246   0.443   2.883
 7868TIP3    H123561   1.260   0.503   2.809
 7868TIP3    H223562   1.152   0.444   2.897
 7869TIP3   OH223563   5.126   5.010   3.376
 7869TIP3    H123564   5.174   5.054   3.446
 7869TIP3    H223565   5.194   4.969   3.322
 7870TIP3   OH223566   8.236   1.523   6.595
 7870TIP3    H123567   8.172   1.535   6.666
 7870TIP3    H223568   8.311   1.576   6.623
 7871TIP3   OH223569   4.648   7.634   5.455
 7871TIP3    H123570   4.659   7.651   5.549
 7871TIP3    H223571   4.619   7.543   5.450
 7872TIP3   OH223572   5.652   2.489   3.629
 7872TIP3    H123573   5.686   2.403   3.602
 7872TIP3    H223574   5.711   2.517   3.699
 7873TIP3   OH223575   1.621   6.025   1.993
 7873TIP3    H123576   1.537   5.994   1.958
 7873TIP3    H223577   1.601   6.109   2.034
 7874TIP3   OH223578   0.770   2.780   1.092
 7874TIP3    H123579   0.710   2.753   1.161
 7874TIP3    H223580   0.819   2.853   1.130
 7875TIP3   OH223581   1.470   1.752   6.208
 7875TIP3    H123582   1.394   1.698   6.187
 7875TIP3    H223583   1.478   1.812   6.135
 7876TIP3   OH223584   4.064   4.288   5.127
 7876TIP3    H123585   4.031   4.377   5.139
 7876TIP3    H223586   4.087   4.284   5.034
 7877TIP3   OH223587   3.397   6.834   4.113
 7877TIP3    H123588   3.310   6.874   4.112
 7877TIP3    H223589   3.386   6.753   4.162
 7878TIP3   OH223590   0.456   4.957   3.818
 7878TIP3    H123591   0.370   4.978   3.854
 7878TIP3    H223592   0.514   5.024   3.855
 7879TIP3   OH223593   6.204   5.800   3.901
 7879TIP3    H123594   6.123   5.848   3.886
 7879TIP3    H223595   6.257   5.817   3.823
 7880TIP3   OH223596   6.012   6.503   4.636
 7880TIP3    H123597   6.068   6.510   4.559
 7880TIP3    H223598   6.071   6.474   4.706
 7881TIP3   OH223599   2.050   0.107   0.268
 7881TIP3    H123600   2.073   0.141   0.181
 7881TIP3    H223601   2.032   0.015   0.253
 7882TIP3   OH223602   6.275   0.000   0.554
 7882TIP3    H123603   6.330  -0.078   0.563
 7882TIP3    H223604   6.311   0.045   0.478
 7883TIP3   OH223605   7.123   0.906   5.153
 7883TIP3    H123606   7.180   0.844   5.197
 7883TIP3    H223607   7.163   0.920   5.067
 7884TIP3   OH223608   0.266   3.237   3.180
 7884TIP3    H123609   0.260   3.296   3.105
 7884TIP3    H223610   0.342   3.182   3.161
 7885TIP3   OH223611   8.168   5.087   6.402
 7885TIP3    H123612   8.087   5.139   6.404
 7885TIP3    H223613   8.203   5.094   6.491
 7886TIP3   OH223614   5.351   1.472   0.775
 7886TIP3    H123615   5.435   1.447   0.813
 7886TIP3    H223616   5.360   1.566   0.756
 7887TIP3   OH223617   6.936   7.306   6.682
 7887TIP3    H123618   6.854   7.353   6.664
 7887TIP3    H223619   6.921   7.219   6.645
 7888TIP3   OH223620   0.118   5.999   2.666
 7888TIP3    H123621   0.168   5.984   2.746
 7888TIP3    H223622   0.148   5.931   2.606
 7889TIP3   OH223623   7.543   5.203   1.644
 7889TIP3    H123624   7.608   5.250   1.592
 7889TIP3    H223625   7.593   5.140   1.695
 7890TIP3   OH223626   3.946   1.827   0.870
 7890TIP3    H123627   3.868   1.860   0.825
 7890TIP3    H223628   3.930   1.734   0.879
 7891TIP3   OH223629   2.895   3.244   6.057
 7891TIP3    H123630   2.945   3.195   5.991
 7891TIP3    H223631   2.951   3.244   6.134
 7892TIP3   OH223632   5.783   1.610   1.745
 7892TIP3    H123633   5.859   1.552   1.739
 7892TIP3    H223634   5.816   1.690   1.786
 7893TIP3   OH223635   5.866   4.174   1.809
 7893TIP3    H123636   5.788   4.123   1.792
 7893TIP3    H223637   5.836   4.247   1.863
 7894TIP3   OH223638   5.134   2.480   0.490
 7894TIP3    H123639   5.091   2.445   0.413
 7894TIP3    H223640   5.069   2.541   0.528
 7895TIP3   OH223641   1.381   0.329   4.466
 7895TIP3    H123642   1.386   0.401   4.402
 7895TIP3    H223643   1.290   0.302   4.464
 7896TIP3   OH223644   7.173   4.058   2.968
 7896TIP3    H123645   7.195   4.127   2.905
 7896TIP3    H223646   7.084   4.079   2.996
 7897TIP3   OH223647   4.595   0.290   3.033
 7897TIP3    H123648   4.614   0.198   3.016
 7897TIP3    H223649   4.638   0.309   3.116
 7898TIP3   OH223650   3.706   1.860   6.672
 7898TIP3    H123651   3.747   1.801   6.735
 7898TIP3    H223652   3.701   1.808   6.591
 7899TIP3   OH223653   4.206   2.761   1.587
 7899TIP3    H123654   4.129   2.712   1.615
 7899TIP3    H223655   4.280   2.707   1.615
 7900TIP3   OH223656   7.608   2.653   1.513
 7900TIP3    H123657   7.568   2.696   1.589
 7900TIP3    H223658   7.647   2.725   1.463
 7901TIP3   OH223659   0.840   3.169   0.380
 7901TIP3    H123660   0.848   3.120   0.298
 7901TIP3    H223661   0.849   3.103   0.449
 7902TIP3   OH223662   2.669   3.856   0.273
 7902TIP3    H123663   2.706   3.781   0.226
 7902TIP3    H223664   2.745   3.902   0.308
 7903TIP3   OH223665   7.471   5.268   5.279
 7903TIP3    H123666   7.398   5.212   5.251
 7903TIP3    H223667   7.429   5.338   5.328
 7904TIP3   OH223668   2.879   4.376   2.219
 7904TIP3    H123669   2.854   4.426   2.142
 7904TIP3    H223670   2.954   4.324   2.191
 7905TIP3   OH223671   6.459   6.990   6.476
 7905TIP3    H123672   6.444   7.072   6.428
 7905TIP3    H223673   6.372   6.955   6.492
 7906TIP3   OH223674   4.257   4.288   1.242
 7906TIP3    H123675   4.338   4.238   1.233
 7906TIP3    H223676   4.191   4.236   1.196
 7907TIP3   OH223677   6.755   0.501   2.272
 7907TIP3    H123678   6.680   0.510   2.213
 7907TIP3    H223679   6.790   0.414   2.253
 7908TIP3   OH223680   5.501   3.822   1.387
 7908TIP3    H123681   5.542   3.903   1.360
 7908TIP3    H223682   5.451   3.793   1.311
 7909TIP3   OH223683   7.515   4.534   3.113
 7909TIP3    H123684   7.575   4.518   3.185
 7909TIP3    H223685   7.432   4.556   3.155
 7910TIP3   OH223686   2.286   6.583   0.859
 7910TIP3    H123687   2.320   6.629   0.936
 7910TIP3    H223688   2.338   6.503   0.854
 7911TIP3   OH223689   3.967   7.740   5.356
 7911TIP3    H123690   3.882   7.718   5.394
 7911TIP3    H223691   3.989   7.824   5.395
 7912TIP3   OH223692   3.357   3.185   0.631
 7912TIP3    H123693   3.392   3.098   0.653
 7912TIP3    H223694   3.393   3.243   0.698
 7913TIP3   OH223695   5.012   6.660   5.233
 7913TIP3    H123696   4.924   6.670   5.199
 7913TIP3    H223697   5.001   6.639   5.326
 7914TIP3   OH223698   7.443   5.736   6.417
 7914TIP3    H123699   7.404   5.738   6.329
 7914TIP3    H223700   7.531   5.700   6.404
 7915TIP3   OH223701   0.818   6.750   5.183
 7915TIP3    H123702   0.914   6.757   5.183
 7915TIP3    H223703   0.796   6.723   5.094
 7916TIP3   OH223704   4.520   7.497   3.193
 7916TIP3    H123705   4.503   7.419   3.140
 7916TIP3    H223706   4.437   7.514   3.238
 7917TIP3   OH223707   6.641   0.236   4.803
 7917TIP3    H123708   6.727   0.239   4.761
 7917TIP3    H223709   6.624   0.328   4.826
 7918TIP3   OH223710   2.837   1.925   0.092
 7918TIP3    H123711   2.845   2.011   0.135
 7918TIP3    H223712   2.768   1.937   0.027
 7919TIP3   OH223713   8.081   5.884   2.167
 7919TIP3    H123714   8.023   5.915   2.097
 7919TIP3    H223715   8.086   5.958   2.228
 7920TIP3   OH223716   3.251   1.353   6.208
 7920TIP3    H123717   3.244   1.297   6.286
 7920TIP3    H223718   3.320   1.313   6.156
 7921TIP3   OH223719   2.994   1.387   0.030
 7921TIP3    H123720   3.020   1.350  -0.054
 7921TIP3    H223721   2.953   1.471   0.009
 7922TIP3   OH223722   5.384   2.473   1.388
 7922TIP3    H123723   5.464   2.492   1.437
 7922TIP3    H223724   5.366   2.554   1.339
 7923TIP3   OH223725   0.757   0.689   4.324
 7923TIP3    H123726   0.703   0.768   4.325
 7923TIP3    H223727   0.806   0.694   4.242
 7924TIP3   OH223728   3.437   0.658   2.429
 7924TIP3    H123729   3.427   0.614   2.344
 7924TIP3    H223730   3.499   0.604   2.477
 7925TIP3   OH223731   1.011   7.208   0.963
 7925TIP3    H123732   0.956   7.218   1.041
 7925TIP3    H223733   1.098   7.237   0.991
 7926TIP3   OH223734   5.810   1.531   3.390
 7926TIP3    H123735   5.842   1.600   3.331
 7926TIP3    H223736   5.784   1.460   3.332
 7927TIP3   OH223737   1.171   6.133   6.718
 7927TIP3    H123738   1.230   6.109   6.790
 7927TIP3    H223739   1.110   6.196   6.757
 7928TIP3   OH223740   5.574   5.721   2.451
 7928TIP3    H123741   5.505   5.786   2.465
 7928TIP3    H223742   5.639   5.741   2.520
 7929TIP3   OH223743   2.183   6.922   4.158
 7929TIP3    H123744   2.274   6.911   4.128
 7929TIP3    H223745   2.180   6.878   4.243
 7930TIP3   OH223746   3.742   1.941   4.607
 7930TIP3    H123747   3.657   1.983   4.591
 7930TIP3    H223748   3.790   1.952   4.524
 7931TIP3   OH223749   3.771   7.058   2.233
 7931TIP3    H123750   3.760   7.148   2.202
 7931TIP3    H223751   3.745   7.061   2.325
 7932TIP3   OH223752   3.888   7.789   5.632
 7932TIP3    H123753   3.793   7.783   5.643
 7932TIP3    H223754   3.921   7.701   5.651
 7933TIP3   OH223755   5.758   2.904   0.476
 7933TIP3    H123756   5.796   2.975   0.527
 7933TIP3    H223757   5.825   2.882   0.411
 7934TIP3   OH223758   1.145   1.522   1.725
 7934TIP3    H123759   1.191   1.551   1.646
 7934TIP3    H223760   1.053   1.544   1.710
 7935TIP3   OH223761   1.990   1.610   5.138
 7935TIP3    H123762   1.948   1.563   5.209
 7935TIP3    H223763   1.972   1.702   5.156
 7936TIP3   OH223764   6.234   1.914   3.721
 7936TIP3    H123765   6.280   1.962   3.790
 7936TIP3    H223766   6.246   1.968   3.642
 7937TIP3   OH223767   4.188   3.406   2.032
 7937TIP3    H123768   4.214   3.495   2.009
 7937TIP3    H223769   4.235   3.388   2.114
 7938TIP3   OH223770   5.846   6.637   5.707
 7938TIP3    H123771   5.887   6.586   5.778
 7938TIP3    H223772   5.866   6.728   5.729
 7939TIP3   OH223773   0.931   3.000   0.566
 7939TIP3    H123774   0.970   2.936   0.626
 7939TIP3    H223775   1.000   3.065   0.552
 7940TIP3   OH223776   3.796   3.901   2.361
 7940TIP3    H123777   3.718   3.907   2.306
 7940TIP3    H223778   3.820   3.808   2.359
 7941TIP3   OH223779   2.925   0.154   0.872
 7941TIP3    H123780   2.980   0.224   0.837
 7941TIP3    H223781   2.980   0.111   0.938
 7942TIP3   OH223782   5.540   3.946   5.024
 7942TIP3    H123783   5.521   3.903   4.940
 7942TIP3    H223784   5.580   4.029   4.999
 7943TIP3   OH223785   1.717   5.068   1.347
 7943TIP3    H123786   1.728   4.973   1.352
 7943TIP3    H223787   1.656   5.081   1.275
 7944TIP3   OH223788   4.838   4.440   6.588
 7944TIP3    H123789   4.790   4.403   6.514
 7944TIP3    H223790   4.791   4.409   6.666
 7945TIP3   OH223791   1.049   2.722   0.700
 7945TIP3    H123792   0.975   2.760   0.747
 7945TIP3    H223793   1.081   2.653   0.757
 7946TIP3   OH223794   3.809   2.574   2.680
 7946TIP3    H123795   3.789   2.500   2.737
 7946TIP3    H223796   3.848   2.535   2.602
 7947TIP3   OH223797   5.831   0.628   4.420
 7947TIP3    H123798   5.868   0.696   4.476
 7947TIP3    H223799   5.784   0.676   4.352
 7948TIP3   OH223800   8.253   3.107   2.631
 7948TIP3    H123801   8.168   3.144   2.604
 7948TIP3    H223802   8.246   3.099   2.726
 7949TIP3   OH223803   7.096   1.648   4.030
 7949TIP3    H123804   7.105   1.560   3.992
 7949TIP3    H223805   7.145   1.705   3.971
 7950TIP3   OH223806   5.857   3.044   3.112
 7950TIP3    H123807   5.784   3.072   3.167
 7950TIP3    H223808   5.884   2.960   3.149
 7951TIP3   OH223809   2.956   3.115   2.178
 7951TIP3    H123810   3.048   3.101   2.155
 7951TIP3    H223811   2.914   3.141   2.095
 7952TIP3   OH223812   0.970   7.250   4.768
 7952TIP3    H123813   1.058   7.270   4.733
 7952TIP3    H223814   0.985   7.236   4.861
 7953TIP3   OH223815   2.204   3.568   4.125
 7953TIP3    H123816   2.274   3.503   4.133
 7953TIP3    H223817   2.203   3.613   4.209
 7954TIP3   OH223818   4.118   4.397   6.653
 7954TIP3    H123819   4.022   4.404   6.650
 7954TIP3    H223820   4.135   4.345   6.731
 7955TIP3   OH223821   5.450   0.860   2.897
 7955TIP3    H123822   5.512   0.933   2.902
 7955TIP3    H223823   5.445   0.827   2.986
 7956TIP3   OH223824   6.687   1.025   0.962
 7956TIP3    H123825   6.691   1.088   1.034
 7956TIP3    H223826   6.737   1.066   0.891
 7957TIP3   OH223827   6.099   4.018   2.337
 7957TIP3    H123828   6.039   3.944   2.320
 7957TIP3    H223829   6.115   4.056   2.251
 7958TIP3   OH223830   3.035   3.944   1.630
 7958TIP3    H123831   2.943   3.917   1.634
 7958TIP3    H223832   3.032   4.039   1.628
 7959TIP3   OH223833   7.714   0.685   3.225
 7959TIP3    H123834   7.772   0.707   3.152
 7959TIP3    H223835   7.770   0.690   3.302
 7960TIP3   OH223836   8.104   5.271   0.661
 7960TIP3    H123837   8.040   5.222   0.713
 7960TIP3    H223838   8.139   5.207   0.600
 7961TIP3   OH223839   0.676   7.180   2.410
 7961TIP3    H123840   0.740   7.152   2.344
 7961TIP3    H223841   0.690   7.121   2.484
 7962TIP3   OH223842   1.688   0.483   1.313
 7962TIP3    H123843   1.612   0.456   1.262
 7962TIP3    H223844   1.741   0.536   1.253
 7963TIP3   OH223845   2.097   5.324   0.297
 7963TIP3    H123846   2.168   5.354   0.240
 7963TIP3    H223847   2.054   5.404   0.325
 7964TIP3   OH223848   5.167   3.496   4.603
 7964TIP3    H123849   5.192   3.482   4.511
 7964TIP3    H223850   5.139   3.588   4.606
 7965TIP3   OH223851   4.826   7.621   1.469
 7965TIP3    H123852   4.812   7.693   1.531
 7965TIP3    H223853   4.921   7.612   1.464
 7966TIP3   OH223854   3.719   6.872   3.797
 7966TIP3    H123855   3.635   6.841   3.763
 7966TIP3    H223856   3.703   6.887   3.890
 7967TIP3   OH223857   6.828   4.768   5.338
 7967TIP3    H123858   6.764   4.697   5.346
 7967TIP3    H223859   6.912   4.724   5.329
 7968TIP3   OH223860   0.627   5.184   2.374
 7968TIP3    H123861   0.611   5.148   2.461
 7968TIP3    H223862   0.699   5.246   2.387
 7969TIP3   OH223863   3.490   5.526   0.195
 7969TIP3    H123864   3.417   5.482   0.238
 7969TIP3    H223865   3.537   5.455   0.151
 7970TIP3   OH223866   3.226   0.981   6.074
 7970TIP3    H123867   3.237   0.966   6.168
 7970TIP3    H223868   3.298   1.039   6.050
 7971TIP3   OH223869   6.129   4.613   1.982
 7971TIP3    H123870   6.073   4.552   2.029
 7971TIP3    H223871   6.215   4.604   2.023
 7972TIP3   OH223872   7.955   1.533   0.032
 7972TIP3    H123873   7.866   1.518   0.064
 7972TIP3    H223874   7.992   1.598   0.093
 7973TIP3   OH223875   1.638   4.623   3.456
 7973TIP3    H123876   1.672   4.647   3.542
 7973TIP3    H223877   1.546   4.646   3.458
 7974TIP3   OH223878   0.576   0.785   3.484
 7974TIP3    H123879   0.561   0.755   3.574
 7974TIP3    H223880   0.526   0.866   3.477
 7975TIP3   OH223881   0.386   3.609   0.652
 7975TIP3    H123882   0.349   3.566   0.575
 7975TIP3    H223883   0.317   3.668   0.683
 7976TIP3   OH223884   1.374   6.113   3.207
 7976TIP3    H123885   1.281   6.135   3.201
 7976TIP3    H223886   1.418   6.198   3.219
 7977TIP3   OH223887   6.962   7.496   3.416
 7977TIP3    H123888   6.974   7.439   3.492
 7977TIP3    H223889   7.041   7.482   3.363
 7978TIP3   OH223890   4.500   4.923   0.092
 7978TIP3    H123891   4.502   5.018   0.102
 7978TIP3    H223892   4.476   4.890   0.179
 7979TIP3   OH223893   7.763   2.479   3.706
 7979TIP3    H123894   7.717   2.425   3.770
 7979TIP3    H223895   7.840   2.427   3.682
 7980TIP3   OH223896   7.451   3.049   1.724
 7980TIP3    H123897   7.518   3.112   1.700
 7980TIP3    H223898   7.387   3.101   1.774
 7981TIP3   OH223899   0.795   6.972   3.647
 7981TIP3    H123900   0.741   6.931   3.579
 7981TIP3    H223901   0.861   7.022   3.599
 7982TIP3   OH223902   4.506   6.641   0.296
 7982TIP3    H123903   4.412   6.647   0.277
 7982TIP3    H223904   4.511   6.574   0.364
 7983TIP3   OH223905   0.346   6.735   1.675
 7983TIP3    H123906   0.284   6.681   1.625
 7983TIP3    H223907   0.432   6.705   1.647
 7984TIP3   OH223908   5.103   1.445   1.442
 7984TIP3    H123909   5.031   1.399   1.400
 7984TIP3    H223910   5.181   1.415   1.395
 7985TIP3   OH223911   1.550   5.459   1.834
 7985TIP3    H123912   1.505   5.542   1.844
 7985TIP3    H223913   1.584   5.460   1.744
 7986TIP3   OH223914   0.160   1.585   5.373
 7986TIP3    H123915   0.208   1.653   5.328
 7986TIP3    H223916   0.221   1.512   5.380
 7987TIP3   OH223917   2.498   5.108   2.599
 7987TIP3    H123918   2.466   5.197   2.618
 7987TIP3    H223919   2.461   5.054   2.668
 7988TIP3   OH223920   5.437   1.985   1.265
 7988TIP3    H123921   5.350   1.949   1.281
 7988TIP3    H223922   5.447   2.055   1.330
 7989TIP3   OH223923   0.301   6.598   2.522
 7989TIP3    H123924   0.361   6.673   2.528
 7989TIP3    H223925   0.335   6.546   2.449
 7990TIP3   OH223926   7.309   0.364   5.856
 7990TIP3    H123927   7.253   0.288   5.839
 7990TIP3    H223928   7.258   0.418   5.917
 7991TIP3   OH223929   1.082   1.455   5.084
 7991TIP3    H123930   1.158   1.508   5.107
 7991TIP3    H223931   1.083   1.383   5.147
 7992TIP3   OH223932   7.101   6.319   5.423
 7992TIP3    H123933   7.182   6.283   5.461
 7992TIP3    H223934   7.043   6.332   5.498
 7993TIP3   OH223935   2.102   7.061   5.446
 7993TIP3    H123936   2.111   6.991   5.510
 7993TIP3    H223937   2.066   7.019   5.368
 7994TIP3   OH223938   0.452   6.205   0.905
 7994TIP3    H123939   0.382   6.194   0.841
 7994TIP3    H223940   0.523   6.149   0.873
 7995TIP3   OH223941   5.986   5.112   1.363
 7995TIP3    H123942   5.948   5.025   1.354
 7995TIP3    H223943   6.056   5.101   1.428
 7996TIP3   OH223944   1.136   4.368   5.138
 7996TIP3    H123945   1.127   4.320   5.220
 7996TIP3    H223946   1.071   4.437   5.144
 7997TIP3   OH223947   4.139   2.699   1.931
 7997TIP3    H123948   4.075   2.696   2.001
 7997TIP3    H223949   4.087   2.703   1.850
 7998TIP3   OH223950   2.710   0.849   5.693
 7998TIP3    H123951   2.642   0.788   5.665
 7998TIP3    H223952   2.745   0.885   5.612
 7999TIP3   OH223953   7.537   0.782   3.403
 7999TIP3    H123954   7.580   0.759   3.320
 7999TIP3    H223955   7.466   0.841   3.377
 8000TIP3   OH223956   7.904   3.203   5.516
 8000TIP3    H123957   7.959   3.150   5.458
 8000TIP3    H223958   7.906   3.291   5.478
 8001TIP3   OH223959   7.184   5.365   3.278
 8001TIP3    H123960   7.190   5.436   3.341
 8001TIP3    H223961   7.134   5.401   3.205
 8002TIP3   OH223962   4.052   3.808   5.502
 8002TIP3    H123963   4.038   3.796   5.408
 8002TIP3    H223964   4.000   3.885   5.525
 8003TIP3   OH223965   7.215   5.130   6.223
 8003TIP3    H123966   7.171   5.186   6.158
 8003TIP3    H223967   7.165   5.049   6.223
 8004TIP3   OH223968   7.519   7.718   4.276
 8004TIP3    H123969   7.508   7.792   4.216
 8004TIP3    H223970   7.598   7.673   4.245
 8005TIP3   OH223971   6.550   6.375   5.661
 8005TIP3    H123972   6.578   6.351   5.573
 8005TIP3    H223973   6.532   6.469   5.656
 8006TIP3   OH223974   2.223   7.274   6.769
 8006TIP3    H123975   2.136   7.246   6.741
 8006TIP3    H223976   2.278   7.196   6.757
 8007TIP3   OH223977   8.292   5.040   3.371
 8007TIP3    H123978   8.367   5.088   3.406
 8007TIP3    H223979   8.238   5.022   3.448
 8008TIP3   OH223980   0.012   7.033   1.146
 8008TIP3    H123981   0.060   7.110   1.177
 8008TIP3    H223982   0.073   6.987   1.089
 8009TIP3   OH223983   5.379   0.149   5.975
 8009TIP3    H123984   5.313   0.188   6.032
 8009TIP3    H223985   5.422   0.083   6.029
 8010TIP3   OH223986   4.807   4.624   6.304
 8010TIP3    H123987   4.886   4.576   6.327
 8010TIP3    H223988   4.785   4.674   6.382
 8011TIP3   OH223989   8.036   2.020   3.465
 8011TIP3    H123990   8.043   2.103   3.512
 8011TIP3    H223991   8.058   2.042   3.375
 8012TIP3   OH223992   7.444   6.457   1.586
 8012TIP3    H123993   7.487   6.519   1.527
 8012TIP3    H223994   7.437   6.503   1.670
 8013TIP3   OH223995   7.065   2.023   5.386
 8013TIP3    H123996   7.003   2.005   5.457
 8013TIP3    H223997   7.032   1.971   5.312
 8014TIP3   OH223998   2.931   2.290   1.787
 8014TIP3    H123999   2.946   2.374   1.831
 8014TIP3    H224000   2.941   2.309   1.694
 8015TIP3   OH224001   5.999   7.279   2.958
 8015TIP3    H124002   5.998   7.368   2.922
 8015TIP3    H224003   6.035   7.225   2.888
 8016TIP3   OH224004   6.807   3.963   2.580
 8016TIP3    H124005   6.826   4.043   2.530
 8016TIP3    H224006   6.715   3.944   2.560
 8017TIP3   OH224007   0.844   1.608   4.370
 8017TIP3    H124008   0.749   1.615   4.380
 8017TIP3    H224009   0.857   1.592   4.276
 8018TIP3   OH224010   4.620   5.908   1.180
 8018TIP3    H124011   4.584   5.819   1.184
 8018TIP3    H224012   4.714   5.896   1.193
 8019TIP3   OH224013   4.734   7.591   0.897
 8019TIP3    H124014   4.703   7.642   0.971
 8019TIP3    H224015   4.665   7.599   0.831
 8020TIP3   OH224016   4.225   1.661   1.940
 8020TIP3    H124017   4.305   1.683   1.893
 8020TIP3    H224018   4.157   1.658   1.873
 8021TIP3   OH224019   5.835   3.879   2.284
 8021TIP3    H124020   5.798   3.793   2.265
 8021TIP3    H224021   5.797   3.937   2.218
 8022TIP3   OH224022   4.468   3.815   2.501
 8022TIP3    H124023   4.559   3.795   2.521
 8022TIP3    H224024   4.418   3.742   2.537
 8023TIP3   OH224025   6.208   0.447   5.337
 8023TIP3    H124026   6.252   0.407   5.412
 8023TIP3    H224027   6.200   0.376   5.273
 8024TIP3   OH224028   6.293   0.468   6.642
 8024TIP3    H124029   6.261   0.378   6.632
 8024TIP3    H224030   6.337   0.486   6.559
 8025TIP3   OH224031   0.146   7.504   1.353
 8025TIP3    H124032   0.120   7.578   1.298
 8025TIP3    H224033   0.167   7.434   1.291
 8026TIP3   OH224034   2.407   6.387   3.037
 8026TIP3    H124035   2.413   6.294   3.056
 8026TIP3    H224036   2.451   6.430   3.110
 8027TIP3   OH224037   2.107   4.689   6.663
 8027TIP3    H124038   2.014   4.684   6.642
 8027TIP3    H224039   2.114   4.653   6.752
 8028TIP3   OH224040   6.510   6.302   3.531
 8028TIP3    H124041   6.595   6.341   3.550
 8028TIP3    H224042   6.512   6.287   3.436
 8029TIP3   OH224043   7.905   3.670   0.752
 8029TIP3    H124044   7.985   3.644   0.797
 8029TIP3    H224045   7.837   3.667   0.820
 8030TIP3   OH224046   5.086   6.983   1.192
 8030TIP3    H124047   5.084   6.985   1.287
 8030TIP3    H224048   5.165   6.933   1.170
 8031TIP3   OH224049   5.039   2.379   0.266
 8031TIP3    H124050   4.953   2.416   0.247
 8031TIP3    H224051   5.091   2.398   0.188
 8032TIP3   OH224052   3.223   5.286   0.072
 8032TIP3    H124053   3.314   5.277   0.045
 8032TIP3    H224054   3.179   5.209   0.038
 8033TIP3   OH224055   8.051   1.207   5.129
 8033TIP3    H124056   8.025   1.137   5.069
 8033TIP3    H224057   8.147   1.207   5.126
 8034TIP3   OH224058   4.811   0.582   2.827
 8034TIP3    H124059   4.800   0.540   2.742
 8034TIP3    H224060   4.824   0.675   2.806
 8035TIP3   OH224061   2.848   4.717   0.537
 8035TIP3    H124062   2.838   4.811   0.554
 8035TIP3    H224063   2.808   4.675   0.613
 8036TIP3   OH224064   7.491   3.472   1.936
 8036TIP3    H124065   7.493   3.418   2.016
 8036TIP3    H224066   7.400   3.467   1.907
 8037TIP3   OH224067   7.411   3.429   6.376
 8037TIP3    H124068   7.442   3.399   6.290
 8037TIP3    H224069   7.335   3.373   6.394
 8038TIP3   OH224070   2.562   1.713   1.037
 8038TIP3    H124071   2.570   1.808   1.024
 8038TIP3    H224072   2.543   1.703   1.130
 8039TIP3   OH224073   2.989   3.088   3.455
 8039TIP3    H124074   3.083   3.092   3.474
 8039TIP3    H224075   2.984   3.059   3.364
 8040TIP3   OH224076   4.069   5.428   2.919
 8040TIP3    H124077   3.982   5.463   2.902
 8040TIP3    H224078   4.129   5.496   2.890
 8041TIP3   OH224079   6.947   5.198   2.785
 8041TIP3    H124080   6.948   5.159   2.697
 8041TIP3    H224081   7.023   5.257   2.786
 8042TIP3   OH224082   1.429   6.806   1.841
 8042TIP3    H124083   1.520   6.784   1.820
 8042TIP3    H224084   1.403   6.868   1.773
 8043TIP3   OH224085   1.022   1.537   0.337
 8043TIP3    H124086   0.958   1.602   0.367
 8043TIP3    H224087   1.078   1.586   0.277
 8044TIP3   OH224088   2.883   5.185   1.604
 8044TIP3    H124089   2.978   5.190   1.605
 8044TIP3    H224090   2.855   5.234   1.681
 8045TIP3   OH224091   7.565   6.194   1.552
 8045TIP3    H124092   7.552   6.148   1.635
 8045TIP3    H224093   7.507   6.270   1.558
 8046TIP3   OH224094   5.922   6.657   5.240
 8046TIP3    H124095   6.006   6.702   5.234
 8046TIP3    H224096   5.863   6.708   5.185
 8047TIP3   OH224097   3.480   4.354   4.814
 8047TIP3    H124098   3.527   4.413   4.755
 8047TIP3    H224099   3.437   4.291   4.756
 8048TIP3   OH224100   3.259   5.971   5.297
 8048TIP3    H124101   3.205   6.028   5.351
 8048TIP3    H224102   3.199   5.903   5.267
 8049TIP3   OH224103   8.214   7.140   6.696
 8049TIP3    H124104   8.167   7.178   6.622
 8049TIP3    H224105   8.183   7.050   6.701
 8050TIP3   OH224106   1.266   6.678   4.476
 8050TIP3    H124107   1.204   6.742   4.440
 8050TIP3    H224108   1.294   6.627   4.399
 8051TIP3   OH224109   6.668   7.233   4.742
 8051TIP3    H124110   6.733   7.163   4.740
 8051TIP3    H224111   6.596   7.200   4.688
 8052TIP3   OH224112   5.877   3.390   6.602
 8052TIP3    H124113   5.842   3.444   6.674
 8052TIP3    H224114   5.970   3.382   6.621
 8053TIP3   OH224115   7.388   6.056   4.726
 8053TIP3    H124116   7.375   5.967   4.759
 8053TIP3    H224117   7.360   6.113   4.798
 8054TIP3   OH224118   1.158   6.263   6.410
 8054TIP3    H124119   1.177   6.185   6.462
 8054TIP3    H224120   1.221   6.328   6.439
 8055TIP3   OH224121   4.430   2.049   5.255
 8055TIP3    H124122   4.448   1.997   5.177
 8055TIP3    H224123   4.371   2.118   5.225
 8056TIP3   OH224124   6.490   0.174   4.561
 8056TIP3    H124125   6.578   0.145   4.536
 8056TIP3    H224126   6.442   0.092   4.576
 8057TIP3   OH224127   3.800   7.412   6.061
 8057TIP3    H124128   3.768   7.479   6.001
 8057TIP3    H224129   3.752   7.333   6.038
 8058TIP3   OH224130   3.279   0.530   1.928
 8058TIP3    H124131   3.269   0.465   1.858
 8058TIP3    H224132   3.194   0.533   1.971
 8059TIP3   OH224133   1.329   2.678   0.627
 8059TIP3    H124134   1.239   2.683   0.658
 8059TIP3    H224135   1.378   2.737   0.684
 8060TIP3   OH224136   5.361   4.964   1.236
 8060TIP3    H124137   5.317   5.030   1.183
 8060TIP3    H224138   5.452   4.993   1.239
 8061TIP3   OH224139   2.721   4.018   1.523
 8061TIP3    H124140   2.639   4.037   1.568
 8061TIP3    H224141   2.767   3.957   1.580
 8062TIP3   OH224142   3.033   0.785   6.505
 8062TIP3    H124143   3.045   0.697   6.471
 8062TIP3    H224144   3.073   0.842   6.439
 8063TIP3   OH224145   5.300   5.717   0.522
 8063TIP3    H124146   5.225   5.727   0.581
 8063TIP3    H224147   5.374   5.755   0.571
 8064TIP3   OH224148   2.959   6.707   0.342
 8064TIP3    H124149   2.982   6.779   0.401
 8064TIP3    H224150   3.027   6.708   0.275
 8065TIP3   OH224151   3.819   1.626   6.021
 8065TIP3    H124152   3.904   1.588   6.046
 8065TIP3    H224153   3.827   1.718   6.044
 8066TIP3   OH224154   1.216   4.300   4.228
 8066TIP3    H124155   1.234   4.340   4.143
 8066TIP3    H224156   1.294   4.318   4.281
 8067TIP3   OH224157   5.650   2.815   1.355
 8067TIP3    H124158   5.618   2.906   1.355
 8067TIP3    H224159   5.741   2.823   1.326
 8068TIP3   OH224160   6.709   0.146   6.428
 8068TIP3    H124161   6.783   0.206   6.441
 8068TIP3    H224162   6.633   0.203   6.429
 8069TIP3   OH224163   1.763   1.444   4.591
 8069TIP3    H124164   1.851   1.424   4.622
 8069TIP3    H224165   1.750   1.385   4.516
 8070TIP3   OH224166   6.172   0.166   3.268
 8070TIP3    H124167   6.249   0.125   3.308
 8070TIP3    H224168   6.206   0.247   3.229
 8071TIP3   OH224169   3.214   1.514   0.221
 8071TIP3    H124170   3.121   1.491   0.233
 8071TIP3    H224171   3.228   1.503   0.127
 8072TIP3   OH224172   7.769   1.913   2.225
 8072TIP3    H124173   7.823   1.839   2.198
 8072TIP3    H224174   7.783   1.921   2.319
 8073TIP3   OH224175   2.178   7.551   6.744
 8073TIP3    H124176   2.240   7.623   6.731
 8073TIP3    H224177   2.232   7.479   6.777
 8074TIP3   OH224178   5.515   4.719   0.160
 8074TIP3    H124179   5.609   4.736   0.168
 8074TIP3    H224180   5.485   4.777   0.091
 8075TIP3   OH224181   1.006   4.457   2.213
 8075TIP3    H124182   1.033   4.383   2.268
 8075TIP3    H224183   1.009   4.532   2.272
 8076TIP3   OH224184   4.024   7.423   0.459
 8076TIP3    H124185   4.012   7.509   0.419
 8076TIP3    H224186   4.114   7.423   0.492
 8077TIP3   OH224187   5.962   6.072   4.189
 8077TIP3    H124188   5.916   6.124   4.123
 8077TIP3    H224189   6.039   6.038   4.144
 8078TIP3   OH224190   3.383   4.963   1.770
 8078TIP3    H124191   3.358   4.909   1.694
 8078TIP3    H224192   3.301   5.006   1.797
 8079TIP3   OH224193   4.828   6.184   1.488
 8079TIP3    H124194   4.825   6.204   1.581
 8079TIP3    H224195   4.914   6.214   1.459
 8080TIP3   OH224196   0.875   5.854   2.208
 8080TIP3    H124197   0.947   5.809   2.253
 8080TIP3    H224198   0.809   5.787   2.195
 8081TIP3   OH224199   5.091   3.234   1.792
 8081TIP3    H124200   5.098   3.246   1.887
 8081TIP3    H224201   5.037   3.156   1.782
 8082TIP3   OH224202   1.393   2.033   1.448
 8082TIP3    H124203   1.438   1.993   1.374
 8082TIP3    H224204   1.346   1.961   1.490
 8083TIP3   OH224205   2.951   1.825   6.075
 8083TIP3    H124206   2.885   1.890   6.097
 8083TIP3    H224207   2.903   1.743   6.064
 8084TIP3   OH224208   7.299   2.627   5.615
 8084TIP3    H124209   7.297   2.555   5.552
 8084TIP3    H224210   7.264   2.589   5.696
 8085TIP3   OH224211   5.829   6.808   2.726
 8085TIP3    H124212   5.909   6.834   2.771
 8085TIP3    H224213   5.760   6.816   2.792
 8086TIP3   OH224214   1.042   4.636   6.466
 8086TIP3    H124215   0.989   4.593   6.398
 8086TIP3    H224216   0.978   4.669   6.529
 8087TIP3   OH224217   1.779   1.231   3.047
 8087TIP3    H124218   1.693   1.241   3.005
 8087TIP3    H224219   1.767   1.267   3.134
 8088TIP3   OH224220   5.236   7.408   2.575
 8088TIP3    H124221   5.327   7.380   2.573
 8088TIP3    H224222   5.240   7.503   2.571
 8089TIP3   OH224223   0.604   6.572   5.268
 8089TIP3    H124224   0.679   6.609   5.314
 8089TIP3    H224225   0.559   6.647   5.231
 8090TIP3   OH224226   7.364   0.271   1.941
 8090TIP3    H124227   7.292   0.299   1.885
 8090TIP3    H224228   7.334   0.189   1.981
 8091TIP3   OH224229   7.042   3.263   6.416
 8091TIP3    H124230   6.967   3.322   6.409
 8091TIP3    H224231   7.006   3.182   6.452
 8092TIP3   OH224232   6.533   7.559   1.540
 8092TIP3    H124233   6.543   7.474   1.582
 8092TIP3    H224234   6.610   7.568   1.483
 8093TIP3   OH224235   2.770   2.569   0.397
 8093TIP3    H124236   2.798   2.659   0.410
 8093TIP3    H224237   2.796   2.548   0.307
 8094TIP3   OH224238   8.198   2.040   6.580
 8094TIP3    H124239   8.195   2.119   6.527
 8094TIP3    H224240   8.153   2.063   6.661
 8095TIP3   OH224241   2.137   2.890   2.647
 8095TIP3    H124242   2.053   2.845   2.646
 8095TIP3    H224243   2.176   2.866   2.732
 8096TIP3   OH224244   0.409   4.033   0.901
 8096TIP3    H124245   0.433   3.956   0.952
 8096TIP3    H224246   0.319   4.017   0.874
 8097TIP3   OH224247   5.293   5.613   1.732
 8097TIP3    H124248   5.300   5.518   1.742
 8097TIP3    H224249   5.292   5.646   1.822
 8098TIP3   OH224250   1.132   6.491   6.759
 8098TIP3    H124251   1.217   6.451   6.777
 8098TIP3    H224252   1.116   6.471   6.666
 8099TIP3   OH224253   7.711   0.791   2.594
 8099TIP3    H124254   7.719   0.860   2.660
 8099TIP3    H224255   7.797   0.788   2.553
 8100TIP3   OH224256   7.270   1.415   0.603
 8100TIP3    H124257   7.353   1.379   0.569
 8100TIP3    H224258   7.270   1.391   0.695
 8101TIP3   OH224259   6.708   3.163   0.168
 8101TIP3    H124260   6.755   3.079   0.173
 8101TIP3    H224261   6.622   3.144   0.205
 8102TIP3   OH224262   1.356   5.960   1.913
 8102TIP3    H124263   1.277   5.951   1.966
 8102TIP3    H224264   1.338   6.034   1.855
 8103TIP3   OH224265   4.471   6.133   4.562
 8103TIP3    H124266   4.380   6.102   4.571
 8103TIP3    H224267   4.472   6.217   4.607
 8104TIP3   OH224268   6.759   6.850   0.696
 8104TIP3    H124269   6.803   6.764   0.694
 8104TIP3    H224270   6.757   6.877   0.604
 8105TIP3   OH224271   6.241   1.720   1.619
 8105TIP3    H124272   6.217   1.735   1.710
 8105TIP3    H224273   6.336   1.721   1.618
 8106TIP3   OH224274   0.954   2.203   5.255
 8106TIP3    H124275   1.031   2.169   5.303
 8106TIP3    H224276   0.902   2.246   5.322
 8107TIP3   OH224277   2.975   1.487   3.992
 8107TIP3    H124278   3.057   1.455   3.954
 8107TIP3    H224279   2.907   1.436   3.948
 8108TIP3   OH224280   0.373   3.991   1.335
 8108TIP3    H124281   0.433   3.922   1.307
 8108TIP3    H224282   0.324   3.953   1.407
 8109TIP3   OH224283   6.986   0.437   0.835
 8109TIP3    H124284   6.901   0.481   0.845
 8109TIP3    H224285   7.005   0.443   0.741
 8110TIP3   OH224286   7.435   2.735   2.145
 8110TIP3    H124287   7.501   2.797   2.175
 8110TIP3    H224288   7.480   2.650   2.146
 8111TIP3   OH224289   4.872   2.077   2.546
 8111TIP3    H124290   4.898   2.160   2.505
 8111TIP3    H224291   4.815   2.103   2.618
 8112TIP3   OH224292   4.701   1.277   4.692
 8112TIP3    H124293   4.651   1.353   4.722
 8112TIP3    H224294   4.791   1.295   4.720
 8113TIP3   OH224295   2.904   0.558   3.743
 8113TIP3    H124296   2.896   0.468   3.711
 8113TIP3    H224297   2.991   0.561   3.783
 8114TIP3   OH224298   2.906   2.537   4.450
 8114TIP3    H124299   2.990   2.577   4.429
 8114TIP3    H224300   2.845   2.574   4.386
 8115TIP3   OH224301   5.127   7.176   5.790
 8115TIP3    H124302   5.033   7.172   5.775
 8115TIP3    H224303   5.153   7.084   5.800
 8116TIP3   OH224304   7.805   4.436   0.697
 8116TIP3    H124305   7.720   4.461   0.734
 8116TIP3    H224306   7.794   4.345   0.670
 8117TIP3   OH224307   0.045   3.212   0.109
 8117TIP3    H124308   0.004   3.196   0.024
 8117TIP3    H224309  -0.022   3.259   0.159
 8118TIP3   OH224310   4.441   7.705   4.055
 8118TIP3    H124311   4.462   7.662   4.138
 8118TIP3    H224312   4.351   7.735   4.065
 8119TIP3   OH224313   8.069   0.711   5.072
 8119TIP3    H124314   8.144   0.742   5.123
 8119TIP3    H224315   8.024   0.791   5.045
 8120TIP3   OH224316   2.358   3.737   3.610
 8120TIP3    H124317   2.273   3.702   3.585
 8120TIP3    H224318   2.379   3.695   3.693
 8121TIP3   OH224319   3.931   4.068   6.381
 8121TIP3    H124320   3.912   4.084   6.473
 8121TIP3    H224321   3.997   4.134   6.358
 8122TIP3   OH224322   2.442   1.559   3.789
 8122TIP3    H124323   2.481   1.646   3.793
 8122TIP3    H224324   2.367   1.569   3.730
 8123TIP3   OH224325   4.703   7.189   5.356
 8123TIP3    H124326   4.691   7.099   5.387
 8123TIP3    H224327   4.676   7.243   5.430
 8124TIP3   OH224328   1.373   4.915   0.485
 8124TIP3    H124329   1.344   5.005   0.468
 8124TIP3    H224330   1.341   4.896   0.573
 8125TIP3   OH224331   1.834   5.432   0.926
 8125TIP3    H124332   1.783   5.460   1.002
 8125TIP3    H224333   1.921   5.468   0.941
 8126TIP3   OH224334   7.245   1.298   0.134
 8126TIP3    H124335   7.199   1.218   0.159
 8126TIP3    H224336   7.317   1.268   0.078
 8127TIP3   OH224337   7.349   3.490   0.392
 8127TIP3    H124338   7.429   3.489   0.339
 8127TIP3    H224339   7.278   3.488   0.328
 8128TIP3   OH224340   6.081   0.028   5.148
 8128TIP3    H124341   6.000   0.050   5.101
 8128TIP3    H224342   6.121  -0.040   5.094
 8129TIP3   OH224343   5.183   7.791   0.254
 8129TIP3    H124344   5.276   7.767   0.248
 8129TIP3    H224345   5.138   7.708   0.267
 8130TIP3   OH224346   4.328   2.455   3.439
 8130TIP3    H124347   4.371   2.384   3.488
 8130TIP3    H224348   4.285   2.410   3.366
 8131TIP3   OH224349   2.366   0.900   1.661
 8131TIP3    H124350   2.432   0.840   1.627
 8131TIP3    H224351   2.377   0.979   1.610
 8132TIP3   OH224352   2.147   0.492   0.110
 8132TIP3    H124353   2.196   0.498   0.028
 8132TIP3    H224354   2.058   0.470   0.083
 8133TIP3   OH224355   7.847   4.621   3.055
 8133TIP3    H124356   7.939   4.607   3.075
 8133TIP3    H224357   7.805   4.624   3.141
 8134TIP3   OH224358   5.712   3.923   3.673
 8134TIP3    H124359   5.662   3.984   3.728
 8134TIP3    H224360   5.781   3.890   3.731
 8135TIP3   OH224361   5.993   4.934   4.365
 8135TIP3    H124362   5.899   4.947   4.378
 8135TIP3    H224363   6.028   4.926   4.454
 8136TIP3   OH224364   5.346   7.088   1.009
 8136TIP3    H124365   5.350   6.999   1.045
 8136TIP3    H224366   5.321   7.076   0.918
 8137TIP3   OH224367   2.920   5.645   2.773
 8137TIP3    H124368   2.960   5.664   2.858
 8137TIP3    H224369   2.869   5.723   2.751
 8138TIP3   OH224370   8.196   5.776   0.241
 8138TIP3    H124371   8.227   5.706   0.297
 8138TIP3    H224372   8.181   5.850   0.300
 8139TIP3   OH224373   5.452   3.709   2.402
 8139TIP3    H124374   5.512   3.697   2.476
 8139TIP3    H224375   5.496   3.668   2.328
 8140TIP3   OH224376   0.675   1.033   5.875
 8140TIP3    H124377   0.703   1.115   5.834
 8140TIP3    H224378   0.579   1.035   5.869
 8141TIP3   OH224379   1.868   1.199   5.154
 8141TIP3    H124380   1.814   1.198   5.074
 8141TIP3    H224381   1.947   1.150   5.130
 8142TIP3   OH224382   4.412   3.786   3.581
 8142TIP3    H124383   4.340   3.724   3.564
 8142TIP3    H224384   4.462   3.788   3.499
 8143TIP3   OH224385   1.868  -0.008   2.979
 8143TIP3    H124386   1.802  -0.063   2.936
 8143TIP3    H224387   1.835   0.081   2.967
 8144TIP3   OH224388   3.469   4.932   4.916
 8144TIP3    H124389   3.531   4.978   4.860
 8144TIP3    H224390   3.507   4.845   4.926
 8145TIP3   OH224391   1.356   4.405   2.194
 8145TIP3    H124392   1.396   4.491   2.198
 8145TIP3    H224393   1.265   4.419   2.223
 8146TIP3   OH224394   5.189   4.603   4.223
 8146TIP3    H124395   5.271   4.653   4.220
 8146TIP3    H224396   5.214   4.519   4.261
 8147TIP3   OH224397   1.016   4.065   2.219
 8147TIP3    H124398   0.954   4.005   2.177
 8147TIP3    H224399   0.972   4.094   2.299
 8148TIP3   OH224400   4.984   3.691   5.444
 8148TIP3    H124401   5.019   3.711   5.531
 8148TIP3    H224402   5.060   3.698   5.385
 8149TIP3   OH224403   6.085   5.478   6.508
 8149TIP3    H124404   6.026   5.553   6.500
 8149TIP3    H224405   6.059   5.419   6.437
 8150TIP3   OH224406   7.801   3.111   4.389
 8150TIP3    H124407   7.758   3.196   4.383
 8150TIP3    H224408   7.757   3.067   4.461
 8151TIP3   OH224409   2.447   6.363   0.890
 8151TIP3    H124410   2.529   6.361   0.939
 8151TIP3    H224411   2.393   6.296   0.931
 8152TIP3   OH224412   5.244   6.567   2.650
 8152TIP3    H124413   5.339   6.576   2.647
 8152TIP3    H224414   5.213   6.654   2.675
 8153TIP3   OH224415   4.356   3.718   1.948
 8153TIP3    H124416   4.284   3.696   1.889
 8153TIP3    H224417   4.427   3.745   1.890
 8154TIP3   OH224418   4.391   3.293   3.074
 8154TIP3    H124419   4.351   3.217   3.031
 8154TIP3    H224420   4.452   3.255   3.138
 8155TIP3   OH224421   3.659   6.899   0.424
 8155TIP3    H124422   3.737   6.928   0.471
 8155TIP3    H224423   3.618   6.981   0.394
 8156TIP3   OH224424   0.728   0.755   1.330
 8156TIP3    H124425   0.810   0.779   1.374
 8156TIP3    H224426   0.718   0.661   1.347
 8157TIP3   OH224427   0.966   0.394   0.433
 8157TIP3    H124428   0.984   0.341   0.356
 8157TIP3    H224429   0.876   0.423   0.422
 8158TIP3   OH224430   7.290   6.479   6.555
 8158TIP3    H124431   7.342   6.399   6.558
 8158TIP3    H224432   7.220   6.465   6.619
 8159TIP3   OH224433   7.934   0.685   4.115
 8159TIP3    H124434   7.867   0.640   4.166
 8159TIP3    H224435   7.999   0.712   4.180
 8160TIP3   OH224436   2.918   5.066   4.573
 8160TIP3    H124437   2.929   5.079   4.479
 8160TIP3    H224438   2.825   5.084   4.589
 8161TIP3   OH224439   4.965   7.775   6.374
 8161TIP3    H124440   4.942   7.725   6.453
 8161TIP3    H224441   5.014   7.713   6.320
 8162TIP3   OH224442   4.050   4.814   6.444
 8162TIP3    H124443   4.099   4.877   6.390
 8162TIP3    H224444   4.117   4.768   6.494
 8163TIP3   OH224445   6.200   5.666   1.795
 8163TIP3    H124446   6.205   5.572   1.814
 8163TIP3    H224447   6.257   5.707   1.859
 8164TIP3   OH224448   1.136   6.289   2.009
 8164TIP3    H124449   1.186   6.297   2.090
 8164TIP3    H224450   1.176   6.214   1.964
 8165TIP3   OH224451   4.116   2.970   6.406
 8165TIP3    H124452   4.035   2.951   6.454
 8165TIP3    H224453   4.181   2.914   6.448
 8166TIP3   OH224454   7.845   6.121   5.417
 8166TIP3    H124455   7.752   6.096   5.409
 8166TIP3    H224456   7.843   6.201   5.471
 8167TIP3   OH224457   6.015   6.573   1.202
 8167TIP3    H124458   5.951   6.553   1.271
 8167TIP3    H224459   5.970   6.551   1.121
 8168TIP3   OH224460   6.548   0.679   4.580
 8168TIP3    H124461   6.504   0.594   4.582
 8168TIP3    H224462   6.512   0.726   4.655
 8169TIP3   OH224463   2.545   6.262   2.002
 8169TIP3    H124464   2.512   6.351   2.011
 8169TIP3    H224465   2.466   6.207   1.999
 8170TIP3   OH224466   5.036   3.704   1.335
 8170TIP3    H124467   4.974   3.664   1.397
 8170TIP3    H224468   5.109   3.642   1.330
 8171TIP3   OH224469   5.656   4.072   3.463
 8171TIP3    H124470   5.638   4.001   3.402
 8171TIP3    H224471   5.661   4.030   3.549
 8172TIP3   OH224472   2.990   1.737   4.855
 8172TIP3    H124473   3.073   1.782   4.841
 8172TIP3    H224474   2.987   1.668   4.790
 8173TIP3   OH224475   4.403   7.391   6.469
 8173TIP3    H124476   4.320   7.345   6.481
 8173TIP3    H224477   4.470   7.324   6.487
 8174TIP3   OH224478   6.749   4.991   1.161
 8174TIP3    H124479   6.706   4.983   1.246
 8174TIP3    H224480   6.681   5.025   1.103
 8175TIP3   OH224481   3.309   1.718   3.978
 8175TIP3    H124482   3.354   1.639   3.948
 8175TIP3    H224483   3.224   1.715   3.936
 8176TIP3   OH224484   8.139   4.717   4.242
 8176TIP3    H124485   8.165   4.706   4.334
 8176TIP3    H224486   8.044   4.709   4.243
 8177TIP3   OH224487   5.410   0.806   5.450
 8177TIP3    H124488   5.333   0.804   5.507
 8177TIP3    H224489   5.416   0.718   5.414
 8178TIP3   OH224490   2.513   2.447   0.212
 8178TIP3    H124491   2.557   2.447   0.127
 8178TIP3    H224492   2.557   2.378   0.262
 8179TIP3   OH224493   5.815   1.458   4.468
 8179TIP3    H124494   5.782   1.543   4.439
 8179TIP3    H224495   5.876   1.431   4.399
 8180TIP3   OH224496   0.490   5.644   6.015
 8180TIP3    H124497   0.501   5.675   6.105
 8180TIP3    H224498   0.521   5.716   5.960
 8181TIP3   OH224499   3.046   0.937   4.995
 8181TIP3    H124500   3.091   0.950   4.912
 8181TIP3    H224501   2.984   0.866   4.978
 8182TIP3   OH224502   6.037   0.054   0.082
 8182TIP3    H124503   6.001   0.071  -0.005
 8182TIP3    H224504   6.125   0.093   0.081
 8183TIP3   OH224505   1.143   4.078   4.887
 8183TIP3    H124506   1.221   4.077   4.943
 8183TIP3    H224507   1.070   4.066   4.948
 8184TIP3   OH224508   7.141   1.123   0.715
 8184TIP3    H124509   7.062   1.152   0.761
 8184TIP3    H224510   7.213   1.169   0.758
 8185TIP3   OH224511   5.675   3.633   2.222
 8185TIP3    H124512   5.697   3.554   2.271
 8185TIP3    H224513   5.613   3.603   2.156
 8186TIP3   OH224514   6.910   4.276   0.615
 8186TIP3    H124515   6.969   4.216   0.568
 8186TIP3    H224516   6.867   4.222   0.680
 8187TIP3   OH224517   7.105   5.431   1.269
 8187TIP3    H124518   7.179   5.450   1.211
 8187TIP3    H224519   7.038   5.393   1.212
 8188TIP3   OH224520   1.014   5.531   4.814
 8188TIP3    H124521   0.950   5.590   4.853
 8188TIP3    H224522   1.037   5.571   4.731
 8189TIP3   OH224523   3.565   3.167   5.996
 8189TIP3    H124524   3.484   3.211   6.023
 8189TIP3    H224525   3.536   3.085   5.957
 8190TIP3   OH224526   5.014   1.285   3.521
 8190TIP3    H124527   4.990   1.220   3.455
 8190TIP3    H224528   5.088   1.246   3.567
 8191TIP3   OH224529   6.278   0.482   3.768
 8191TIP3    H124530   6.297   0.428   3.845
 8191TIP3    H224531   6.185   0.502   3.775
 8192TIP3   OH224532   7.991   6.697   2.439
 8192TIP3    H124533   8.077   6.676   2.476
 8192TIP3    H224534   7.928   6.656   2.498
 8193TIP3   OH224535   0.388   6.193   6.248
 8193TIP3    H124536   0.337   6.161   6.173
 8193TIP3    H224537   0.447   6.122   6.269
 8194TIP3   OH224538   4.398   3.589   5.780
 8194TIP3    H124539   4.377   3.534   5.704
 8194TIP3    H224540   4.412   3.527   5.852
 8195TIP3   OH224541   7.316   2.081   5.714
 8195TIP3    H124542   7.386   2.146   5.716
 8195TIP3    H224543   7.327   2.037   5.630
 8196TIP3   OH224544   5.115   3.429   0.154
 8196TIP3    H124545   5.148   3.400   0.069
 8196TIP3    H224546   5.028   3.465   0.135
 8197TIP3   OH224547   7.200   0.468   5.053
 8197TIP3    H124548   7.242   0.545   5.092
 8197TIP3    H224549   7.259   0.395   5.073
 8198TIP3   OH224550   0.612   6.654   3.277
 8198TIP3    H124551   0.552   6.594   3.322
 8198TIP3    H224552   0.699   6.616   3.291
 8199TIP3   OH224553   7.756   3.644   5.645
 8199TIP3    H124554   7.690   3.678   5.705
 8199TIP3    H224555   7.709   3.634   5.562
 8200TIP3   OH224556   6.110   1.506   0.745
 8200TIP3    H124557   6.193   1.517   0.699
 8200TIP3    H224558   6.098   1.411   0.751
 8201TIP3   OH224559   5.271   5.701   0.004
 8201TIP3    H124560   5.243   5.774  -0.050
 8201TIP3    H224561   5.218   5.707   0.084
 8202TIP3   OH224562   5.021   7.066   1.767
 8202TIP3    H124563   5.002   7.005   1.838
 8202TIP3    H224564   4.993   7.151   1.800
 8203TIP3   OH224565   2.347   0.689   3.528
 8203TIP3    H124566   2.312   0.633   3.459
 8203TIP3    H224567   2.348   0.634   3.606
 8204TIP3   OH224568   6.866   4.694   4.480
 8204TIP3    H124569   6.957   4.705   4.454
 8204TIP3    H224570   6.870   4.676   4.574
 8205TIP3   OH224571   4.324   3.385   5.602
 8205TIP3    H124572   4.342   3.302   5.556
 8205TIP3    H224573   4.286   3.441   5.535
 8206TIP3   OH224574   5.029   6.059   2.673
 8206TIP3    H124575   4.990   5.974   2.696
 8206TIP3    H224576   4.975   6.124   2.718
 8207TIP3   OH224577   0.652   6.408   5.026
 8207TIP3    H124578   0.627   6.500   5.034
 8207TIP3    H224579   0.681   6.383   5.114
 8208TIP3   OH224580   4.513   4.581   4.404
 8208TIP3    H124581   4.595   4.537   4.381
 8208TIP3    H224582   4.531   4.674   4.388
 8209TIP3   OH224583   1.515   3.997   4.446
 8209TIP3    H124584   1.529   3.950   4.364
 8209TIP3    H224585   1.572   3.953   4.509
 8210TIP3   OH224586   2.927   1.989   6.456
 8210TIP3    H124587   2.904   1.967   6.546
 8210TIP3    H224588   3.019   2.013   6.459
 8211TIP3   OH224589   5.493   4.704   6.345
 8211TIP3    H124590   5.446   4.646   6.285
 8211TIP3    H224591   5.536   4.646   6.407
 8212TIP3   OH224592   2.201   4.426   1.133
 8212TIP3    H124593   2.185   4.332   1.127
 8212TIP3    H224594   2.220   4.454   1.043
 8213TIP3   OH224595   5.013   0.393   6.006
 8213TIP3    H124596   5.092   0.395   6.060
 8213TIP3    H224597   4.965   0.472   6.030
 8214TIP3   OH224598   5.655   5.123   1.629
 8214TIP3    H124599   5.747   5.097   1.624
 8214TIP3    H224600   5.625   5.091   1.714
 8215TIP3   OH224601   0.503   5.413   2.188
 8215TIP3    H124602   0.463   5.338   2.231
 8215TIP3    H224603   0.439   5.441   2.123
 8216TIP3   OH224604   1.709   3.549   6.434
 8216TIP3    H124605   1.791   3.503   6.417
 8216TIP3    H224606   1.735   3.628   6.480
 8217TIP3   OH224607   0.394   3.994   4.573
 8217TIP3    H124608   0.442   3.936   4.514
 8217TIP3    H224609   0.424   3.970   4.661
 8218TIP3   OH224610   7.274   4.963   3.396
 8218TIP3    H124611   7.278   5.047   3.350
 8218TIP3    H224612   7.322   4.978   3.477
 8219TIP3   OH224613   4.837   1.715   1.174
 8219TIP3    H124614   4.925   1.676   1.166
 8219TIP3    H224615   4.854   1.806   1.196
 8220TIP3   OH224616   3.162   5.154   1.414
 8220TIP3    H124617   3.199   5.198   1.491
 8220TIP3    H224618   3.238   5.136   1.358
 8221TIP3   OH224619   3.364   5.134   3.742
 8221TIP3    H124620   3.315   5.213   3.718
 8221TIP3    H224621   3.310   5.094   3.811
 8222TIP3   OH224622   5.238   6.062   5.167
 8222TIP3    H124623   5.178   6.109   5.108
 8222TIP3    H224624   5.325   6.089   5.139
 8223TIP3   OH224625   3.003   0.056   5.219
 8223TIP3    H124626   3.093   0.026   5.209
 8223TIP3    H224627   2.950  -0.014   5.180
 8224TIP3   OH224628   0.679   7.392   1.403
 8224TIP3    H124629   0.709   7.421   1.317
 8224TIP3    H224630   0.609   7.330   1.384
 8225TIP3   OH224631   2.057   5.935   3.643
 8225TIP3    H124632   1.969   5.935   3.605
 8225TIP3    H224633   2.062   5.853   3.692
 8226TIP3   OH224634   6.203   7.565   4.744
 8226TIP3    H124635   6.142   7.539   4.674
 8226TIP3    H224636   6.270   7.496   4.745
 8227TIP3   OH224637   7.628   4.663   5.020
 8227TIP3    H124638   7.663   4.584   4.978
 8227TIP3    H224639   7.537   4.667   4.991
 8228TIP3   OH224640   2.806   0.141   4.737
 8228TIP3    H124641   2.898   0.138   4.765
 8228TIP3    H224642   2.809   0.179   4.649
 8229TIP3   OH224643   1.243   0.043   1.454
 8229TIP3    H124644   1.149   0.026   1.456
 8229TIP3    H224645   1.282  -0.042   1.432
 8230TIP3   OH224646   7.006   3.816   1.111
 8230TIP3    H124647   6.939   3.881   1.095
 8230TIP3    H224648   7.073   3.832   1.044
 8231TIP3   OH224649   0.264   6.006   2.890
 8231TIP3    H124650   0.326   6.060   2.841
 8231TIP3    H224651   0.308   5.990   2.974
 8232TIP3   OH224652   5.311   0.125   1.696
 8232TIP3    H124653   5.292   0.060   1.629
 8232TIP3    H224654   5.231   0.178   1.702
 8233TIP3   OH224655   3.623   1.889   1.343
 8233TIP3    H124656   3.563   1.833   1.293
 8233TIP3    H224657   3.645   1.960   1.282
 8234TIP3   OH224658   2.780   6.525   0.946
 8234TIP3    H124659   2.749   6.612   0.923
 8234TIP3    H224660   2.707   6.484   0.991
 8235TIP3   OH224661   7.212   1.429   6.439
 8235TIP3    H124662   7.256   1.433   6.354
 8235TIP3    H224663   7.159   1.508   6.443
 8236TIP3   OH224664   8.079   1.244   5.772
 8236TIP3    H124665   7.998   1.280   5.736
 8236TIP3    H224666   8.108   1.309   5.836
 8237TIP3   OH224667   7.180   2.614   1.702
 8237TIP3    H124668   7.185   2.684   1.637
 8237TIP3    H224669   7.219   2.652   1.781
 8238TIP3   OH224670   5.492   7.120   1.846
 8238TIP3    H124671   5.406   7.137   1.810
 8238TIP3    H224672   5.552   7.167   1.789
 8239TIP3   OH224673   2.323   6.439   5.268
 8239TIP3    H124674   2.245   6.403   5.226
 8239TIP3    H224675   2.396   6.393   5.227
 8240TIP3   OH224676   6.027   5.753   1.170
 8240TIP3    H124677   5.997   5.708   1.091
 8240TIP3    H224678   5.955   5.744   1.231
 8241TIP3   OH224679   6.717   4.520   1.118
 8241TIP3    H124680   6.694   4.590   1.058
 8241TIP3    H224681   6.776   4.464   1.069
 8242TIP3   OH224682   1.410   3.943   2.181
 8242TIP3    H124683   1.462   4.017   2.213
 8242TIP3    H224684   1.332   3.943   2.236
 8243TIP3   OH224685   3.906   6.687   2.780
 8243TIP3    H124686   3.839   6.653   2.721
 8243TIP3    H224687   3.897   6.633   2.859
 8244TIP3   OH224688   0.423   6.740   2.874
 8244TIP3    H124689   0.358   6.670   2.883
 8244TIP3    H224690   0.463   6.747   2.960
 8245TIP3   OH224691   0.888   1.021   4.309
 8245TIP3    H124692   0.794   1.004   4.314
 8245TIP3    H224693   0.894   1.115   4.288
 8246TIP3   OH224694   3.093   6.718   6.372
 8246TIP3    H124695   3.004   6.683   6.380
 8246TIP3    H224696   3.086   6.808   6.405
 8247TIP3   OH224697   3.373   3.482   1.359
 8247TIP3    H124698   3.426   3.543   1.308
 8247TIP3    H224699   3.408   3.486   1.447
 8248TIP3   OH224700   5.392   7.020   3.909
 8248TIP3    H124701   5.381   7.108   3.945
 8248TIP3    H224702   5.400   7.032   3.815
 8249TIP3   OH224703   4.377   7.061   6.214
 8249TIP3    H124704   4.467   7.093   6.216
 8249TIP3    H224705   4.341   7.096   6.133
 8250TIP3   OH224706   1.996   0.418   3.423
 8250TIP3    H124707   2.017   0.366   3.345
 8250TIP3    H224708   2.010   0.509   3.396
 8251TIP3   OH224709   4.821   1.741   5.546
 8251TIP3    H124710   4.901   1.707   5.507
 8251TIP3    H224711   4.778   1.665   5.585
 8252TIP3   OH224712   0.166   0.303   5.909
 8252TIP3    H124713   0.112   0.275   5.983
 8252TIP3    H224714   0.138   0.393   5.891
 8253TIP3   OH224715   2.215   2.373   6.763
 8253TIP3    H124716   2.249   2.388   6.675
 8253TIP3    H224717   2.288   2.393   6.822
 8254TIP3   OH224718   8.246   4.137   5.674
 8254TIP3    H124719   8.188   4.075   5.632
 8254TIP3    H224720   8.188   4.206   5.707
 8255TIP3   OH224721   7.025   0.706   2.862
 8255TIP3    H124722   7.024   0.687   2.956
 8255TIP3    H224723   7.102   0.660   2.829
 8256TIP3   OH224724   0.383   4.845   4.803
 8256TIP3    H124725   0.350   4.814   4.887
 8256TIP3    H224726   0.412   4.935   4.820
 8257TIP3   OH224727   3.447   4.116   1.067
 8257TIP3    H124728   3.436   4.193   1.010
 8257TIP3    H224729   3.539   4.118   1.091
 8258TIP3   OH224730   1.393   0.533   3.596
 8258TIP3    H124731   1.303   0.552   3.569
 8258TIP3    H224732   1.444   0.606   3.559
 8259TIP3   OH224733   3.634   2.753   5.226
 8259TIP3    H124734   3.663   2.741   5.316
 8259TIP3    H224735   3.556   2.698   5.218
 8260TIP3   OH224736   4.536   6.266   0.349
 8260TIP3    H124737   4.501   6.335   0.405
 8260TIP3    H224738   4.508   6.184   0.391
 8261TIP3   OH224739   2.589   4.290   3.372
 8261TIP3    H124740   2.599   4.224   3.302
 8261TIP3    H224741   2.514   4.343   3.344
 8262TIP3   OH224742   0.193   2.315   3.356
 8262TIP3    H124743   0.139   2.249   3.398
 8262TIP3    H224744   0.152   2.398   3.381
 8263TIP3   OH224745   6.627   0.949   3.752
 8263TIP3    H124746   6.662   1.037   3.743
 8263TIP3    H224747   6.697   0.899   3.795
 8264TIP3   OH224748   7.473   0.340   3.936
 8264TIP3    H124749   7.423   0.320   4.014
 8264TIP3    H224750   7.470   0.259   3.884
 8265TIP3   OH224751   2.726   0.282   2.689
 8265TIP3    H124752   2.706   0.195   2.654
 8265TIP3    H224753   2.699   0.342   2.620
 8266TIP3   OH224754   7.185   2.255   5.281
 8266TIP3    H124755   7.156   2.176   5.326
 8266TIP3    H224756   7.183   2.233   5.188
 8267TIP3   OH224757   5.663   1.563   0.562
 8267TIP3    H124758   5.751   1.591   0.587
 8267TIP3    H224759   5.643   1.491   0.623
 8268TIP3   OH224760   3.803   7.818   2.090
 8268TIP3    H124761   3.873   7.813   2.024
 8268TIP3    H224762   3.849   7.812   2.174
 8269TIP3   OH224763   0.078   4.683   5.061
 8269TIP3    H124764   0.090   4.778   5.058
 8269TIP3    H224765  -0.007   4.669   5.020
 8270TIP3   OH224766   7.071   5.809   4.972
 8270TIP3    H124767   7.010   5.829   5.043
 8270TIP3    H224768   7.104   5.722   4.993
 8271TIP3   OH224769   1.530   6.692   2.182
 8271TIP3    H124770   1.503   6.776   2.146
 8271TIP3    H224771   1.448   6.650   2.209
 8272TIP3   OH224772   1.300   5.744   6.443
 8272TIP3    H124773   1.295   5.744   6.347
 8272TIP3    H224774   1.306   5.837   6.467
 8273TIP3   OH224775   6.513   7.249   5.199
 8273TIP3    H124776   6.483   7.277   5.285
 8273TIP3    H224777   6.474   7.162   5.187
 8274TIP3   OH224778   7.350   7.259   4.517
 8274TIP3    H124779   7.280   7.205   4.554
 8274TIP3    H224780   7.431   7.219   4.548
 8275TIP3   OH224781   1.460   1.837   5.228
 8275TIP3    H124782   1.373   1.867   5.201
 8275TIP3    H224783   1.443   1.782   5.304
 8276TIP3   OH224784   5.123   2.541   2.014
 8276TIP3    H124785   5.108   2.473   1.949
 8276TIP3    H224786   5.219   2.549   2.020
 8277TIP3   OH224787   3.855   1.882   4.364
 8277TIP3    H124788   3.930   1.939   4.354
 8277TIP3    H224789   3.863   1.818   4.293
 8278TIP3   OH224790   1.596   5.721   2.687
 8278TIP3    H124791   1.620   5.813   2.703
 8278TIP3    H224792   1.644   5.672   2.754
 8279TIP3   OH224793   2.025   7.215   2.381
 8279TIP3    H124794   2.108   7.243   2.343
 8279TIP3    H224795   2.015   7.268   2.460
 8280TIP3   OH224796   2.139   5.030   2.791
 8280TIP3    H124797   2.145   5.066   2.879
 8280TIP3    H224798   2.222   4.983   2.779
 8281TIP3   OH224799   1.758   0.873   3.389
 8281TIP3    H124800   1.773   0.866   3.294
 8281TIP3    H224801   1.735   0.965   3.402
 8282TIP3   OH224802   4.916   4.756   5.409
 8282TIP3    H124803   4.938   4.755   5.316
 8282TIP3    H224804   4.949   4.673   5.443
 8283TIP3   OH224805   7.817   1.077   2.450
 8283TIP3    H124806   7.886   1.088   2.515
 8283TIP3    H224807   7.742   1.123   2.486
 8284TIP3   OH224808   0.208   3.493   0.931
 8284TIP3    H124809   0.189   3.564   0.869
 8284TIP3    H224810   0.124   3.447   0.941
 8285TIP3   OH224811   6.666   2.277   0.510
 8285TIP3    H124812   6.727   2.255   0.581
 8285TIP3    H224813   6.600   2.332   0.553
 8286TIP3   OH224814   0.939   2.301   4.764
 8286TIP3    H124815   0.933   2.208   4.742
 8286TIP3    H224816   0.984   2.303   4.849
 8287TIP3   OH224817   5.085   5.009   2.496
 8287TIP3    H124818   5.050   5.086   2.541
 8287TIP3    H224819   5.010   4.949   2.491
 8288TIP3   OH224820   7.676   6.527   4.449
 8288TIP3    H124821   7.646   6.568   4.369
 8288TIP3    H224822   7.627   6.444   4.454
 8289TIP3   OH224823   0.750   2.704   2.279
 8289TIP3    H124824   0.825   2.645   2.284
 8289TIP3    H224825   0.676   2.650   2.305
 8290TIP3   OH224826   2.327   4.877   4.288
 8290TIP3    H124827   2.402   4.875   4.347
 8290TIP3    H224828   2.345   4.808   4.224
 8291TIP3   OH224829   1.999   2.163   0.323
 8291TIP3    H124830   2.053   2.176   0.245
 8291TIP3    H224831   1.918   2.125   0.290
 8292TIP3   OH224832   0.081   4.247   2.173
 8292TIP3    H124833  -0.014   4.244   2.160
 8292TIP3    H224834   0.101   4.340   2.188
 8293TIP3   OH224835   0.565   7.325   4.585
 8293TIP3    H124836   0.622   7.360   4.654
 8293TIP3    H224837   0.548   7.400   4.528
 8294TIP3   OH224838   6.672   7.037   6.182
 8294TIP3    H124839   6.625   6.957   6.155
 8294TIP3    H224840   6.686   7.026   6.276
 8295TIP3   OH224841   0.730   2.604   1.985
 8295TIP3    H124842   0.789   2.673   1.954
 8295TIP3    H224843   0.786   2.544   2.034
 8296TIP3   OH224844   7.565   7.627   3.067
 8296TIP3    H124845   7.516   7.699   3.026
 8296TIP3    H224846   7.655   7.642   3.039
 8297TIP3   OH224847   6.613   4.900   3.264
 8297TIP3    H124848   6.685   4.923   3.323
 8297TIP3    H224849   6.653   4.847   3.195
 8298TIP3   OH224850   4.417   0.792   6.045
 8298TIP3    H124851   4.421   0.764   5.954
 8298TIP3    H224852   4.382   0.882   6.041
 8299TIP3   OH224853   6.484   4.270   0.584
 8299TIP3    H124854   6.500   4.363   0.594
 8299TIP3    H224855   6.563   4.227   0.616
 8300TIP3   OH224856   0.364   0.062   6.198
 8300TIP3    H124857   0.293   0.104   6.246
 8300TIP3    H224858   0.398  -0.004   6.259
 8301TIP3   OH224859   2.809  -0.003   0.671
 8301TIP3    H124860   2.881  -0.062   0.650
 8301TIP3    H224861   2.846   0.060   0.733
 8302TIP3   OH224862   4.279   5.051   4.006
 8302TIP3    H124863   4.184   5.049   4.002
 8302TIP3    H224864   4.308   4.983   3.946
 8303TIP3   OH224865   5.133   0.707   2.550
 8303TIP3    H124866   5.101   0.660   2.627
 8303TIP3    H224867   5.221   0.733   2.574
 8304TIP3   OH224868   4.376   6.851   0.453
 8304TIP3    H124869   4.471   6.842   0.462
 8304TIP3    H224870   4.342   6.766   0.480
 8305TIP3   OH224871   1.571   7.826   6.409
 8305TIP3    H124872   1.499   7.846   6.469
 8305TIP3    H224873   1.624   7.761   6.455
 8306TIP3   OH224874   5.859   7.297   1.870
 8306TIP3    H124875   5.795   7.327   1.807
 8306TIP3    H224876   5.829   7.209   1.896
 8307TIP3   OH224877   4.325   6.886   4.816
 8307TIP3    H124878   4.270   6.964   4.823
 8307TIP3    H224879   4.412   6.920   4.797
 8308TIP3   OH224880   5.508   0.511   6.155
 8308TIP3    H124881   5.516   0.516   6.059
 8308TIP3    H224882   5.499   0.418   6.173
 8309TIP3   OH224883   1.239   3.626   6.292
 8309TIP3    H124884   1.260   3.703   6.344
 8309TIP3    H224885   1.290   3.555   6.331
 8310TIP3   OH224886   5.692   5.836   1.794
 8310TIP3    H124887   5.674   5.879   1.710
 8310TIP3    H224888   5.744   5.759   1.771
 8311TIP3   OH224889   0.926   7.661   4.512
 8311TIP3    H124890   0.861   7.600   4.547
 8311TIP3    H224891   0.964   7.703   4.589
 8312TIP3   OH224892   1.490   4.295   3.325
 8312TIP3    H124893   1.435   4.230   3.281
 8312TIP3    H224894   1.440   4.376   3.320
 8313TIP3   OH224895   2.445   0.870   4.320
 8313TIP3    H124896   2.368   0.816   4.303
 8313TIP3    H224897   2.462   0.915   4.237
 8314TIP3   OH224898   0.320   7.022   3.732
 8314TIP3    H124899   0.226   7.040   3.736
 8314TIP3    H224900   0.352   7.039   3.821
 8315TIP3   OH224901   6.120   6.769   0.371
 8315TIP3    H124902   6.050   6.798   0.429
 8315TIP3    H224903   6.074   6.725   0.299
 8316TIP3   OH224904   8.127   2.261   4.302
 8316TIP3    H124905   8.198   2.313   4.340
 8316TIP3    H224906   8.134   2.277   4.207
 8317TIP3   OH224907   7.076   5.703   2.583
 8317TIP3    H124908   7.087   5.783   2.532
 8317TIP3    H224909   7.147   5.645   2.553
 8318TIP3   OH224910   5.867   7.612   4.800
 8318TIP3    H124911   5.853   7.568   4.716
 8318TIP3    H224912   5.781   7.646   4.824
 8319TIP3   OH224913   3.137   0.853   5.594
 8319TIP3    H124914   3.182   0.937   5.581
 8319TIP3    H224915   3.165   0.825   5.682
 8320TIP3   OH224916   1.024   3.972   0.983
 8320TIP3    H124917   1.120   3.973   0.986
 8320TIP3    H224918   1.001   4.047   0.928
 8321TIP3   OH224919   7.611   7.353   3.028
 8321TIP3    H124920   7.598   7.443   3.058
 8321TIP3    H224921   7.673   7.360   2.955
 8322TIP3   OH224922   1.570   3.923   1.246
 8322TIP3    H124923   1.616   3.850   1.204
 8322TIP3    H224924   1.480   3.916   1.214
 8323TIP3   OH224925   3.686   2.496   1.589
 8323TIP3    H124926   3.715   2.428   1.527
 8323TIP3    H224927   3.703   2.578   1.543
 8324TIP3   OH224928   5.602   1.279   6.153
 8324TIP3    H124929   5.661   1.264   6.227
 8324TIP3    H224930   5.598   1.374   6.143
 8325TIP3   OH224931   0.159   6.912   6.662
 8325TIP3    H124932   0.248   6.913   6.696
 8325TIP3    H224933   0.114   6.983   6.709
 8326TIP3   OH224934   0.654   4.102   6.224
 8326TIP3    H124935   0.628   4.058   6.142
 8326TIP3    H224936   0.617   4.047   6.293
 8327TIP3   OH224937   5.173   3.377   6.621
 8327TIP3    H124938   5.247   3.335   6.665
 8327TIP3    H224939   5.211   3.418   6.544
 8328TIP3   OH224940   6.474   1.528   5.971
 8328TIP3    H124941   6.429   1.529   5.886
 8328TIP3    H224942   6.413   1.483   6.029
 8329TIP3   OH224943   3.286   4.427   3.902
 8329TIP3    H124944   3.207   4.384   3.868
 8329TIP3    H224945   3.254   4.487   3.969
 8330TIP3   OH224946   5.095   6.549   3.736
 8330TIP3    H124947   5.189   6.560   3.754
 8330TIP3    H224948   5.092   6.504   3.652
 8331TIP3   OH224949   7.063   5.639   2.169
 8331TIP3    H124950   7.055   5.698   2.244
 8331TIP3    H224951   7.018   5.685   2.098
 8332TIP3   OH224952   7.964   0.765   5.451
 8332TIP3    H124953   8.040   0.749   5.396
 8332TIP3    H224954   7.974   0.855   5.481
 8333TIP3   OH224955   8.130   3.693   6.590
 8333TIP3    H124956   8.198   3.711   6.654
 8333TIP3    H224957   8.177   3.661   6.513
 8334TIP3   OH224958   7.805   2.089   4.201
 8334TIP3    H124959   7.799   2.183   4.184
 8334TIP3    H224960   7.868   2.081   4.272
 8335TIP3   OH224961   0.438   4.829   0.958
 8335TIP3    H124962   0.461   4.911   1.002
 8335TIP3    H224963   0.368   4.792   1.011
 8336TIP3   OH224964   2.698   7.564   2.393
 8336TIP3    H124965   2.754   7.625   2.345
 8336TIP3    H224966   2.686   7.606   2.479
 8337TIP3   OH224967   7.042   7.258   1.139
 8337TIP3    H124968   6.990   7.185   1.173
 8337TIP3    H224969   7.101   7.281   1.210
 8338TIP3   OH224970   1.687   3.723   4.926
 8338TIP3    H124971   1.697   3.818   4.927
 8338TIP3    H224972   1.658   3.701   5.015
 8339TIP3   OH224973   7.741   1.048   0.672
 8339TIP3    H124974   7.764   1.133   0.709
 8339TIP3    H224975   7.806   1.033   0.603
 8340TIP3   OH224976   2.041   7.007   0.656
 8340TIP3    H124977   2.132   7.027   0.636
 8340TIP3    H224978   2.022   7.056   0.736
 8341TIP3   OH224979   0.946   2.193   3.155
 8341TIP3    H124980   0.877   2.246   3.195
 8341TIP3    H224981   0.915   2.103   3.166
 8342TIP3   OH224982   5.464   7.343   5.072
 8342TIP3    H124983   5.440   7.435   5.082
 8342TIP3    H224984   5.393   7.295   5.115
 8343TIP3   OH224985   0.976   0.116   0.555
 8343TIP3    H124986   0.945   0.206   0.546
 8343TIP3    H224987   1.015   0.114   0.643
 8344TIP3   OH224988   1.747   3.898   0.907
 8344TIP3    H124989   1.831   3.892   0.862
 8344TIP3    H224990   1.682   3.877   0.840
 8345TIP3   OH224991   6.939   7.553   6.414
 8345TIP3    H124992   6.904   7.642   6.406
 8345TIP3    H224993   6.885   7.513   6.483
 8346TIP3   OH224994   2.447   1.250   2.859
 8346TIP3    H124995   2.519   1.188   2.864
 8346TIP3    H224996   2.368   1.197   2.873
 8347TIP3   OH224997   0.636   6.050   0.797
 8347TIP3    H124998   0.698   5.991   0.840
 8347TIP3    H224999   0.687   6.093   0.728
 8348TIP3   OH225000   3.639   2.655   5.999
 8348TIP3    H125001   3.671   2.699   6.078
 8348TIP3    H225002   3.718   2.621   5.957
 8349TIP3   OH225003   5.834   3.981   2.597
 8349TIP3    H125004   5.778   4.028   2.660
 8349TIP3    H225005   5.780   3.971   2.519
 8350TIP3   OH225006   6.527   6.750   1.313
 8350TIP3    H125007   6.463   6.769   1.244
 8350TIP3    H225008   6.531   6.654   1.316
 8351TIP3   OH225009   3.498   0.970   5.126
 8351TIP3    H125010   3.482   0.877   5.142
 8351TIP3    H225011   3.442   1.015   5.189
 8352TIP3   OH225012   4.934   4.088   6.488
 8352TIP3    H125013   4.852   4.122   6.454
 8352TIP3    H225014   4.983   4.061   6.410
 8353TIP3   OH225015   4.842   3.912   2.810
 8353TIP3    H125016   4.936   3.925   2.821
 8353TIP3    H225017   4.832   3.881   2.720
 8354TIP3   OH225018   2.596   3.051   4.346
 8354TIP3    H125019   2.620   3.027   4.257
 8354TIP3    H225020   2.588   2.968   4.392
 8355TIP3   OH225021   0.847   0.355   4.605
 8355TIP3    H125022   0.914   0.328   4.668
 8355TIP3    H225023   0.774   0.384   4.658
 8356TIP3   OH225024   4.366   6.273   3.471
 8356TIP3    H125025   4.350   6.261   3.378
 8356TIP3    H225026   4.422   6.200   3.496
 8357TIP3   OH225027   8.007   7.413   4.473
 8357TIP3    H125028   7.922   7.441   4.439
 8357TIP3    H225029   8.067   7.423   4.400
 8358TIP3   OH225030   4.303   0.951   6.577
 8358TIP3    H125031   4.260   0.948   6.663
 8358TIP3    H225032   4.308   1.045   6.556
 8359TIP3   OH225033   2.144   7.416   2.587
 8359TIP3    H125034   2.068   7.462   2.551
 8359TIP3    H225035   2.190   7.483   2.638
 8360TIP3   OH225036   6.019   3.677   0.636
 8360TIP3    H125037   6.024   3.703   0.544
 8360TIP3    H225038   6.043   3.756   0.685
 8361TIP3   OH225039   6.085   2.098   3.215
 8361TIP3    H125040   6.094   2.191   3.236
 8361TIP3    H225041   6.030   2.062   3.284
 8362TIP3   OH225042   0.109   7.421   1.611
 8362TIP3    H125043   0.136   7.329   1.607
 8362TIP3    H225044   0.087   7.443   1.520
 8363TIP3   OH225045   5.445   7.096   5.889
 8363TIP3    H125046   5.373   7.048   5.849
 8363TIP3    H225047   5.470   7.044   5.965
 8364TIP3   OH225048   6.936   7.150   3.274
 8364TIP3    H125049   6.986   7.068   3.275
 8364TIP3    H225050   6.999   7.216   3.246
 8365TIP3   OH225051   0.285   5.382   5.018
 8365TIP3    H125052   0.276   5.333   4.936
 8365TIP3    H225053   0.246   5.325   5.085
 8366TIP3   OH225054   5.605   1.799   0.450
 8366TIP3    H125055   5.514   1.817   0.471
 8366TIP3    H225056   5.628   1.723   0.504
 8367TIP3   OH225057   8.150   5.488   5.474
 8367TIP3    H125058   8.098   5.454   5.401
 8367TIP3    H225059   8.188   5.569   5.441
 8368TIP3   OH225060   2.854   6.866   6.420
 8368TIP3    H125061   2.823   6.780   6.392
 8368TIP3    H225062   2.798   6.889   6.494
 8369TIP3   OH225063   1.170   1.988   3.712
 8369TIP3    H125064   1.146   2.075   3.744
 8369TIP3    H225065   1.260   1.998   3.682
 8370TIP3   OH225066   1.638   1.619   2.687
 8370TIP3    H125067   1.673   1.680   2.751
 8370TIP3    H225068   1.710   1.605   2.625
 8371TIP3   OH225069   7.087   7.276   0.138
 8371TIP3    H125070   7.147   7.324   0.195
 8371TIP3    H225071   7.072   7.335   0.064
 8372TIP3   OH225072   3.247   4.682   5.389
 8372TIP3    H125073   3.186   4.623   5.345
 8372TIP3    H225074   3.311   4.705   5.321
 8373TIP3   OH225075   0.562   2.615   5.855
 8373TIP3    H125076   0.632   2.551   5.866
 8373TIP3    H225077   0.484   2.563   5.835
 8374TIP3   OH225078   3.062   0.755   2.489
 8374TIP3    H125079   3.155   0.763   2.508
 8374TIP3    H225080   3.018   0.797   2.562
 8375TIP3   OH225081   6.844   4.040   1.086
 8375TIP3    H125082   6.883   4.065   1.170
 8375TIP3    H225083   6.871   4.109   1.026
 8376TIP3   OH225084   1.141   2.429   1.556
 8376TIP3    H125085   1.065   2.373   1.544
 8376TIP3    H225086   1.107   2.518   1.546
 8377TIP3   OH225087   1.145   2.261   2.382
 8377TIP3    H125088   1.222   2.241   2.435
 8377TIP3    H225089   1.072   2.222   2.430
 8378TIP3   OH225090   6.999   4.916   2.132
 8378TIP3    H125091   6.955   4.949   2.054
 8378TIP3    H225092   7.045   4.993   2.168
 8379TIP3   OH225093   6.078   2.842   4.612
 8379TIP3    H125094   6.126   2.885   4.541
 8379TIP3    H225095   5.988   2.870   4.601
 8380TIP3   OH225096   5.138   3.817   6.501
 8380TIP3    H125097   5.192   3.777   6.569
 8380TIP3    H225098   5.053   3.832   6.544
 8381TIP3   OH225099   4.068   5.462   5.686
 8381TIP3    H125100   3.973   5.471   5.679
 8381TIP3    H225101   4.103   5.528   5.625
 8382TIP3   OH225102   3.228   2.931   6.336
 8382TIP3    H125103   3.239   2.889   6.251
 8382TIP3    H225104   3.305   2.906   6.386
 8383TIP3   OH225105   0.620   7.579   2.362
 8383TIP3    H125106   0.702   7.594   2.315
 8383TIP3    H225107   0.568   7.526   2.302
 8384TIP3   OH225108   5.940   6.148   2.647
 8384TIP3    H125109   5.995   6.095   2.589
 8384TIP3    H225110   5.996   6.222   2.671
 8385TIP3   OH225111   4.530   7.548   4.270
 8385TIP3    H125112   4.537   7.506   4.356
 8385TIP3    H225113   4.618   7.583   4.253
 8386TIP3   OH225114   4.871   0.144   3.758
 8386TIP3    H125115   4.870   0.222   3.704
 8386TIP3    H225116   4.963   0.132   3.781
 8387TIP3   OH225117   4.263   1.967   4.899
 8387TIP3    H125118   4.187   1.910   4.896
 8387TIP3    H225119   4.265   2.002   4.988
 8388TIP3   OH225120   0.289   7.001   4.561
 8388TIP3    H125121   0.269   6.932   4.624
 8388TIP3    H225122   0.242   7.078   4.592
 8389TIP3   OH225123   6.284   5.196   2.346
 8389TIP3    H125124   6.285   5.212   2.440
 8389TIP3    H225125   6.198   5.229   2.318
 8390TIP3   OH225126   6.685   3.693   1.009
 8390TIP3    H125127   6.707   3.601   0.994
 8390TIP3    H225128   6.626   3.692   1.084
 8391TIP3   OH225129   6.883   4.706   2.518
 8391TIP3    H125130   6.941   4.746   2.452
 8391TIP3    H225131   6.925   4.623   2.539
 8392TIP3   OH225132   6.649   7.574   5.791
 8392TIP3    H125133   6.576   7.565   5.730
 8392TIP3    H225134   6.709   7.502   5.767
 8393TIP3   OH225135   6.348   4.943   0.185
 8393TIP3    H125136   6.255   4.955   0.162
 8393TIP3    H225137   6.395   4.965   0.105
 8394TIP3   OH225138   3.445   6.856   5.559
 8394TIP3    H125139   3.354   6.826   5.551
 8394TIP3    H225140   3.456   6.919   5.488
 8395TIP3   OH225141   6.894   2.356   2.626
 8395TIP3    H125142   6.918   2.268   2.598
 8395TIP3    H225143   6.962   2.413   2.589
 8396TIP3   OH225144   3.480   5.988   1.676
 8396TIP3    H125145   3.435   5.928   1.617
 8396TIP3    H225146   3.544   6.033   1.621
 8397TIP3   OH225147   5.489   2.804   6.461
 8397TIP3    H125148   5.447   2.881   6.497
 8397TIP3    H225149   5.423   2.735   6.467
 8398TIP3   OH225150   4.018   7.515   3.507
 8398TIP3    H125151   4.075   7.473   3.443
 8398TIP3    H225152   3.996   7.446   3.570
 8399TIP3   OH225153   7.499   6.409   6.139
 8399TIP3    H125154   7.566   6.353   6.100
 8399TIP3    H225155   7.450   6.351   6.197
 8400TIP3   OH225156   6.708   7.654   4.380
 8400TIP3    H125157   6.696   7.576   4.434
 8400TIP3    H225158   6.635   7.711   4.404
 8401TIP3   OH225159   7.367   5.504   4.185
 8401TIP3    H125160   7.315   5.498   4.265
 8401TIP3    H225161   7.366   5.598   4.163
 8402TIP3   OH225162   2.627   1.984   2.972
 8402TIP3    H125163   2.577   2.046   3.025
 8402TIP3    H225164   2.588   1.990   2.885
 8403TIP3   OH225165   4.542   0.885   2.745
 8403TIP3    H125166   4.636   0.884   2.761
 8403TIP3    H225167   4.533   0.925   2.658
 8404TIP3   OH225168   4.592   0.488   6.770
 8404TIP3    H125169   4.548   0.529   6.696
 8404TIP3    H225170   4.523   0.442   6.818
 8405TIP3   OH225171   5.709   2.537   6.299
 8405TIP3    H125172   5.783   2.591   6.327
 8405TIP3    H225173   5.748   2.473   6.239
 8406TIP3   OH225174   0.416   7.128   2.859
 8406TIP3    H125175   0.397   7.222   2.859
 8406TIP3    H225176   0.485   7.117   2.924
 8407TIP3   OH225177   8.222   5.886   6.049
 8407TIP3    H125178   8.199   5.975   6.024
 8407TIP3    H225179   8.198   5.880   6.142
 8408TIP3   OH225180   7.377   2.467   4.555
 8408TIP3    H125181   7.316   2.467   4.481
 8408TIP3    H225182   7.461   2.493   4.517
 8409TIP3   OH225183   3.921   2.346   2.070
 8409TIP3    H125184   3.861   2.362   2.143
 8409TIP3    H225185   3.883   2.393   1.997
 8410TIP3   OH225186   0.372   5.762   1.606
 8410TIP3    H125187   0.307   5.784   1.673
 8410TIP3    H225188   0.410   5.846   1.582
 8411TIP3   OH225189   0.640   3.438   3.872
 8411TIP3    H125190   0.606   3.348   3.871
 8411TIP3    H225191   0.562   3.493   3.882
 8412TIP3   OH225192   0.216   3.394   1.526
 8412TIP3    H125193   0.177   3.472   1.486
 8412TIP3    H225194   0.169   3.321   1.486
 8413TIP3   OH225195   7.475   5.858   0.772
 8413TIP3    H125196   7.445   5.917   0.841
 8413TIP3    H225197   7.529   5.912   0.714
 8414TIP3   OH225198   1.209   3.943   0.253
 8414TIP3    H125199   1.117   3.951   0.226
 8414TIP3    H225200   1.226   4.023   0.304
 8415TIP3   OH225201   4.006   4.558   5.120
 8415TIP3    H125202   4.081   4.594   5.072
 8415TIP3    H225203   4.030   4.566   5.212
 8416TIP3   OH225204   7.562   5.087   2.815
 8416TIP3    H125205   7.474   5.083   2.778
 8416TIP3    H225206   7.562   5.165   2.870
 8417TIP3   OH225207   6.622   5.470   2.324
 8417TIP3    H125208   6.591   5.513   2.245
 8417TIP3    H225209   6.591   5.379   2.316
 8418TIP3   OH225210   5.541   0.299   0.365
 8418TIP3    H125211   5.541   0.283   0.270
 8418TIP3    H225212   5.492   0.381   0.375
 8419TIP3   OH225213   2.375   5.136   0.936
 8419TIP3    H125214   2.322   5.081   0.878
 8419TIP3    H225215   2.340   5.224   0.925
 8420TIP3   OH225216   1.891   1.203   1.742
 8420TIP3    H125217   1.889   1.173   1.832
 8420TIP3    H225218   1.926   1.292   1.746
 8421TIP3   OH225219   3.044   0.417   2.597
 8421TIP3    H125220   2.971   0.468   2.631
 8421TIP3    H225221   3.018   0.326   2.609
 8422TIP3   OH225222   7.018   4.978   3.483
 8422TIP3    H125223   7.041   5.063   3.520
 8422TIP3    H225224   7.096   4.951   3.435
 8423TIP3   OH225225   4.852   6.711   0.386
 8423TIP3    H125226   4.846   6.642   0.320
 8423TIP3    H225227   4.942   6.743   0.379
 8424TIP3   OH225228   3.002   1.056   4.517
 8424TIP3    H125229   2.999   1.151   4.502
 8424TIP3    H225230   3.037   1.020   4.436
 8425TIP3   OH225231   1.282   6.533   1.131
 8425TIP3    H125232   1.286   6.571   1.219
 8425TIP3    H225233   1.290   6.608   1.072
 8426TIP3   OH225234   7.287   5.772   4.055
 8426TIP3    H125235   7.344   5.811   3.988
 8426TIP3    H225236   7.298   5.828   4.132
 8427TIP3   OH225237   4.334   5.310   2.684
 8427TIP3    H125238   4.335   5.247   2.756
 8427TIP3    H225239   4.412   5.287   2.632
 8428TIP3   OH225240   5.300   4.910   6.522
 8428TIP3    H125241   5.332   4.862   6.599
 8428TIP3    H225242   5.376   4.914   6.464
 8429TIP3   OH225243   1.979   1.990   6.245
 8429TIP3    H125244   2.060   2.035   6.267
 8429TIP3    H225245   2.007   1.912   6.197
 8430TIP3   OH225246   7.433   5.317   3.481
 8430TIP3    H125247   7.428   5.257   3.407
 8430TIP3    H225248   7.510   5.288   3.530
 8431TIP3   OH225249   7.328   5.509   6.577
 8431TIP3    H125250   7.296   5.443   6.515
 8431TIP3    H225251   7.357   5.581   6.521
 8432TIP3   OH225252   2.933   3.701   0.976
 8432TIP3    H125253   2.922   3.638   1.047
 8432TIP3    H225254   2.992   3.657   0.914
 8433TIP3   OH225255   3.622   6.085   4.321
 8433TIP3    H125256   3.528   6.075   4.337
 8433TIP3    H225257   3.660   6.093   4.409
 8434TIP3   OH225258   3.077   0.141   4.804
 8434TIP3    H125259   3.088   0.213   4.867
 8434TIP3    H225260   3.165   0.120   4.775
 8435TIP3   OH225261   8.118   3.595   0.911
 8435TIP3    H125262   8.161   3.509   0.907
 8435TIP3    H225263   8.190   3.658   0.913
 8436TIP3   OH225264   7.073   1.473   4.344
 8436TIP3    H125265   7.123   1.402   4.304
 8436TIP3    H225266   7.139   1.531   4.381
 8437TIP3   OH225267   6.282   4.291   1.919
 8437TIP3    H125268   6.263   4.358   1.853
 8437TIP3    H225269   6.355   4.241   1.882
 8438TIP3   OH225270   5.417   1.586   5.419
 8438TIP3    H125271   5.343   1.530   5.446
 8438TIP3    H225272   5.460   1.536   5.350
 8439TIP3   OH225273   2.811   2.342   2.938
 8439TIP3    H125274   2.902   2.359   2.914
 8439TIP3    H225275   2.812   2.253   2.972
 8440TIP3   OH225276   3.275   3.156   1.278
 8440TIP3    H125277   3.269   3.206   1.360
 8440TIP3    H225278   3.200   3.096   1.281
 8441TIP3   OH225279   1.292   1.983   0.865
 8441TIP3    H125280   1.251   2.037   0.798
 8441TIP3    H225281   1.363   1.937   0.819
 8442TIP3   OH225282   0.625   6.940   3.392
 8442TIP3    H125283   0.556   6.991   3.434
 8442TIP3    H225284   0.588   6.851   3.386
 8443TIP3   OH225285   4.996   2.422   0.887
 8443TIP3    H125286   4.900   2.423   0.885
 8443TIP3    H225287   5.021   2.376   0.806
 8444TIP3   OH225288   2.848   1.053   2.024
 8444TIP3    H125289   2.824   1.145   2.031
 8444TIP3    H225290   2.917   1.052   1.958
 8445TIP3   OH225291   2.457   6.214   5.274
 8445TIP3    H125292   2.545   6.178   5.270
 8445TIP3    H225293   2.404   6.144   5.313
 8446TIP3   OH225294   5.562   5.285   4.893
 8446TIP3    H125295   5.637   5.323   4.938
 8446TIP3    H225296   5.494   5.352   4.898
 8447TIP3   OH225297   2.768   1.491   3.578
 8447TIP3    H125298   2.714   1.449   3.645
 8447TIP3    H225299   2.719   1.479   3.497
 8448TIP3   OH225300   1.633   2.370   6.769
 8448TIP3    H125301   1.542   2.385   6.747
 8448TIP3    H225302   1.666   2.313   6.698
 8449TIP3   OH225303   8.018   2.924   4.367
 8449TIP3    H125304   8.023   2.892   4.457
 8449TIP3    H225305   7.948   2.989   4.369
 8450TIP3   OH225306   5.090   6.465   4.459
 8450TIP3    H125307   5.033   6.395   4.491
 8450TIP3    H225308   5.179   6.432   4.471
 8451TIP3   OH225309   2.185   4.023   0.820
 8451TIP3    H125310   2.204   4.083   0.747
 8451TIP3    H225311   2.223   4.065   0.897
 8452TIP3   OH225312   7.446   2.751   4.682
 8452TIP3    H125313   7.495   2.706   4.614
 8452TIP3    H225314   7.363   2.774   4.641
 8453TIP3   OH225315   0.110   5.109   4.648
 8453TIP3    H125316   0.163   5.058   4.587
 8453TIP3    H225317   0.134   5.077   4.734
 8454TIP3   OH225318   4.322   5.248   3.347
 8454TIP3    H125319   4.310   5.169   3.295
 8454TIP3    H225320   4.271   5.315   3.301
 8455TIP3   OH225321   2.053   2.409   0.033
 8455TIP3    H125322   2.069   2.500   0.059
 8455TIP3    H225323   1.978   2.414  -0.026
 8456TIP3   OH225324   8.070   1.556   1.876
 8456TIP3    H125325   8.058   1.463   1.854
 8456TIP3    H225326   8.035   1.603   1.800
 8457TIP3   OH225327   0.064   2.031   5.787
 8457TIP3    H125328   0.042   2.101   5.725
 8457TIP3    H225329   0.155   2.008   5.766
 8458TIP3   OH225330   8.308   5.337   6.242
 8458TIP3    H125331   8.244   5.365   6.176
 8458TIP3    H225332   8.255   5.305   6.315
 8459TIP3   OH225333   7.745   7.443   6.466
 8459TIP3    H125334   7.768   7.403   6.383
 8459TIP3    H225335   7.654   7.418   6.481
 8460TIP3   OH225336   3.617   6.158   1.872
 8460TIP3    H125337   3.557   6.090   1.842
 8460TIP3    H225338   3.587   6.180   1.960
 8461TIP3   OH225339   2.024   7.147   6.449
 8461TIP3    H125340   2.071   7.225   6.417
 8461TIP3    H225341   2.026   7.086   6.375
 8462TIP3   OH225342   3.309   2.506   1.031
 8462TIP3    H125343   3.227   2.478   0.990
 8462TIP3    H225344   3.281   2.562   1.103
 8463TIP3   OH225345   2.240   5.919   2.547
 8463TIP3    H125346   2.296   5.948   2.475
 8463TIP3    H225347   2.236   5.995   2.606
 8464TIP3   OH225348   5.071   6.550   6.079
 8464TIP3    H125349   4.996   6.525   6.133
 8464TIP3    H225350   5.112   6.467   6.054
 8465TIP3   OH225351   4.579   6.000   5.701
 8465TIP3    H125352   4.574   6.081   5.650
 8465TIP3    H225353   4.499   5.952   5.678
 8466TIP3   OH225354   7.892   1.302   6.347
 8466TIP3    H125355   7.924   1.278   6.434
 8466TIP3    H225356   7.941   1.381   6.324
 8467TIP3   OH225357   2.293   0.582   4.247
 8467TIP3    H125358   2.243   0.511   4.208
 8467TIP3    H225359   2.235   0.658   4.240
 8468TIP3   OH225360   3.816   6.768   1.126
 8468TIP3    H125361   3.731   6.803   1.153
 8468TIP3    H225362   3.817   6.779   1.031
 8469TIP3   OH225363   6.157   6.607   5.526
 8469TIP3    H125364   6.095   6.681   5.530
 8469TIP3    H225365   6.222   6.626   5.593
 8470TIP3   OH225366   4.403   2.061   3.246
 8470TIP3    H125367   4.487   2.014   3.244
 8470TIP3    H225368   4.377   2.068   3.154
 8471TIP3   OH225369   5.185   5.949   6.725
 8471TIP3    H125370   5.272   5.911   6.712
 8471TIP3    H225371   5.177   5.958   6.820
 8472TIP3   OH225372   1.713   3.822   0.270
 8472TIP3    H125373   1.661   3.750   0.235
 8472TIP3    H225374   1.791   3.779   0.305
 8473TIP3   OH225375   4.514   0.159   6.658
 8473TIP3    H125376   4.606   0.131   6.657
 8473TIP3    H225377   4.501   0.197   6.745
 8474TIP3   OH225378   4.288   2.595   5.646
 8474TIP3    H125379   4.339   2.648   5.708
 8474TIP3    H225380   4.197   2.609   5.672
 8475TIP3   OH225381   3.205   5.286   1.653
 8475TIP3    H125382   3.287   5.310   1.697
 8475TIP3    H225383   3.138   5.294   1.721
 8476TIP3   OH225384   7.284   1.901   2.069
 8476TIP3    H125385   7.241   1.857   2.142
 8476TIP3    H225386   7.359   1.946   2.109
 8477TIP3   OH225387   5.427   7.053   1.354
 8477TIP3    H125388   5.336   7.025   1.369
 8477TIP3    H225389   5.418   7.133   1.302
 8478TIP3   OH225390   3.089   6.802   1.299
 8478TIP3    H125391   3.163   6.743   1.315
 8478TIP3    H225392   3.053   6.774   1.215
 8479TIP3   OH225393   6.458   2.946   5.038
 8479TIP3    H125394   6.533   2.979   4.989
 8479TIP3    H225395   6.459   2.997   5.119
 8480TIP3   OH225396   1.652   0.912   1.534
 8480TIP3    H125397   1.610   0.884   1.616
 8480TIP3    H225398   1.745   0.922   1.557
 8481TIP3   OH225399   4.296   3.989   0.688
 8481TIP3    H125400   4.379   3.941   0.690
 8481TIP3    H225401   4.241   3.945   0.753
 8482TIP3   OH225402   1.395   6.546   5.103
 8482TIP3    H125403   1.392   6.561   5.197
 8482TIP3    H225404   1.464   6.604   5.071
 8483TIP3   OH225405   0.028   7.452   6.454
 8483TIP3    H125406   0.064   7.525   6.403
 8483TIP3    H225407  -0.009   7.393   6.388
 8484TIP3   OH225408   0.387   1.610   3.484
 8484TIP3    H125409   0.417   1.523   3.510
 8484TIP3    H225410   0.467   1.662   3.479
 8485TIP3   OH225411   2.540   0.236   4.742
 8485TIP3    H125412   2.507   0.178   4.674
 8485TIP3    H225413   2.632   0.212   4.752
 8486TIP3   OH225414   7.554   4.114   4.805
 8486TIP3    H125415   7.555   4.079   4.894
 8486TIP3    H225416   7.506   4.197   4.812
 8487TIP3   OH225417   3.553   7.595   4.157
 8487TIP3    H125418   3.498   7.646   4.098
 8487TIP3    H225419   3.492   7.554   4.218
 8488TIP3   OH225420   6.960   1.963   4.338
 8488TIP3    H125421   7.004   2.016   4.271
 8488TIP3    H225422   6.954   1.876   4.299
 8489TIP3   OH225423   1.142   6.401   2.797
 8489TIP3    H125424   1.226   6.356   2.805
 8489TIP3    H225425   1.159   6.474   2.738
 8490TIP3   OH225426   8.200   6.837   2.770
 8490TIP3    H125427   8.274   6.885   2.806
 8490TIP3    H225428   8.238   6.784   2.700
 8491TIP3   OH225429   1.961   5.774   6.277
 8491TIP3    H125430   2.016   5.781   6.199
 8491TIP3    H225431   1.876   5.745   6.244
 8492TIP3   OH225432   6.779   7.441   3.230
 8492TIP3    H125433   6.849   7.467   3.290
 8492TIP3    H225434   6.731   7.522   3.214
 8493TIP3   OH225435   4.917   6.987   2.784
 8493TIP3    H125436   4.863   7.047   2.732
 8493TIP3    H225437   4.941   6.917   2.723
 8494TIP3   OH225438   8.291   6.371   3.841
 8494TIP3    H125439   8.339   6.334   3.915
 8494TIP3    H225440   8.277   6.297   3.782
 8495TIP3   OH225441   7.041   0.197   2.741
 8495TIP3    H125442   7.111   0.161   2.794
 8495TIP3    H225443   7.085   0.229   2.662
 8496TIP3   OH225444   7.310   5.782   2.293
 8496TIP3    H125445   7.366   5.719   2.248
 8496TIP3    H225446   7.363   5.811   2.368
 8497TIP3   OH225447   8.263   6.522   2.886
 8497TIP3    H125448   8.323   6.576   2.834
 8497TIP3    H225449   8.213   6.585   2.937
 8498TIP3   OH225450   6.829   6.324   4.757
 8498TIP3    H125451   6.863   6.411   4.737
 8498TIP3    H225452   6.751   6.315   4.702
 8499TIP3   OH225453   4.753   5.569   3.577
 8499TIP3    H125454   4.804   5.650   3.575
 8499TIP3    H225455   4.675   5.591   3.627
 8500TIP3   OH225456   7.586   5.343   2.948
 8500TIP3    H125457   7.665   5.343   3.003
 8500TIP3    H225458   7.608   5.400   2.874
 8501TIP3   OH225459   7.494   7.680   0.243
 8501TIP3    H125460   7.472   7.635   0.162
 8501TIP3    H225461   7.524   7.611   0.302
 8502TIP3   OH225462   2.981   5.992   1.276
 8502TIP3    H125463   3.011   5.901   1.270
 8502TIP3    H225464   2.917   5.991   1.347
 8503TIP3   OH225465   1.444   1.168   0.681
 8503TIP3    H125466   1.471   1.107   0.750
 8503TIP3    H225467   1.369   1.125   0.640
 8504TIP3   OH225468   7.966   2.157   0.519
 8504TIP3    H125469   8.030   2.122   0.582
 8504TIP3    H225470   7.930   2.234   0.562
 8505TIP3   OH225471   7.382   5.249   6.401
 8505TIP3    H125472   7.434   5.279   6.326
 8505TIP3    H225473   7.308   5.204   6.363
 8506TIP3   OH225474   7.237   1.282   1.411
 8506TIP3    H125475   7.193   1.360   1.445
 8506TIP3    H225476   7.204   1.274   1.321
 8507TIP3   OH225477   2.652   0.625   3.051
 8507TIP3    H125478   2.655   0.537   3.015
 8507TIP3    H225479   2.562   0.654   3.038
 8508TIP3   OH225480   6.118   2.149   6.014
 8508TIP3    H125481   6.052   2.093   6.055
 8508TIP3    H225482   6.068   2.224   5.980
 8509TIP3   OH225483   4.962   6.000   1.982
 8509TIP3    H125484   4.975   6.093   2.000
 8509TIP3    H225485   5.051   5.965   1.977
 8510TIP3   OH225486   6.256   2.421   6.203
 8510TIP3    H125487   6.343   2.408   6.239
 8510TIP3    H225488   6.268   2.488   6.135
 8511TIP3   OH225489   8.119   5.712   1.087
 8511TIP3    H125490   8.164   5.791   1.116
 8511TIP3    H225491   8.169   5.641   1.126
 8512TIP3   OH225492   7.845   2.176   5.814
 8512TIP3    H125493   7.896   2.256   5.803
 8512TIP3    H225494   7.834   2.142   5.726
 8513TIP3   OH225495   2.053   6.552   1.378
 8513TIP3    H125496   2.075   6.554   1.285
 8513TIP3    H225497   2.123   6.500   1.418
 8514TIP3   OH225498   5.377   2.257   0.732
 8514TIP3    H125499   5.368   2.221   0.820
 8514TIP3    H225500   5.414   2.344   0.745
 8515TIP3   OH225501   0.554   2.432   1.757
 8515TIP3    H125502   0.625   2.461   1.814
 8515TIP3    H225503   0.555   2.337   1.763
 8516TIP3   OH225504   3.473   0.938   1.873
 8516TIP3    H125505   3.403   0.983   1.920
 8516TIP3    H225506   3.488   0.992   1.795
 8517TIP3   OH225507   6.772   0.566   0.950
 8517TIP3    H125508   6.743   0.631   0.886
 8517TIP3    H225509   6.691   0.532   0.988
 8518TIP3   OH225510   1.433   3.949   0.079
 8518TIP3    H125511   1.471   4.029   0.116
 8518TIP3    H225512   1.348   3.940   0.123
 8519TIP3   OH225513   4.501   0.535   3.005
 8519TIP3    H125514   4.568   0.467   2.997
 8519TIP3    H225515   4.487   0.544   3.099
 8520TIP3   OH225516   0.229   0.842   1.620
 8520TIP3    H125517   0.234   0.758   1.665
 8520TIP3    H225518   0.171   0.825   1.545
 8521TIP3   OH225519   8.230   4.863   0.398
 8521TIP3    H125520   8.244   4.828   0.485
 8521TIP3    H225521   8.318   4.876   0.362
 8522TIP3   OH225522   2.448   6.511   2.082
 8522TIP3    H125523   2.425   6.438   2.140
 8522TIP3    H225524   2.422   6.589   2.131
 8523TIP3   OH225525   2.385   4.251   1.334
 8523TIP3    H125526   2.430   4.332   1.310
 8523TIP3    H225527   2.392   4.247   1.430
 8524TIP3   OH225528   3.259   0.277   3.582
 8524TIP3    H125529   3.309   0.266   3.501
 8524TIP3    H225530   3.322   0.313   3.644
 8525TIP3   OH225531   5.619   3.712   6.341
 8525TIP3    H125532   5.710   3.686   6.355
 8525TIP3    H225533   5.602   3.777   6.409
 8526TIP3   OH225534   6.564   3.815   1.765
 8526TIP3    H125535   6.554   3.720   1.766
 8526TIP3    H225536   6.489   3.847   1.814
 8527TIP3   OH225537   6.394   4.748   2.593
 8527TIP3    H125538   6.488   4.761   2.600
 8527TIP3    H225539   6.380   4.655   2.610
 8528TIP3   OH225540   1.318   6.850   1.043
 8528TIP3    H125541   1.344   6.925   0.988
 8528TIP3    H225542   1.373   6.778   1.012
 8529TIP3   OH225543   2.507   5.072   5.648
 8529TIP3    H125544   2.573   5.008   5.624
 8529TIP3    H225545   2.550   5.156   5.638
 8530TIP3   OH225546   5.749   0.850   0.258
 8530TIP3    H125547   5.702   0.792   0.198
 8530TIP3    H225548   5.832   0.806   0.274
 8531TIP3   OH225549   3.276   7.424   1.533
 8531TIP3    H125550   3.240   7.484   1.467
 8531TIP3    H225551   3.323   7.481   1.594
 8532TIP3   OH225552   7.908   5.900   1.732
 8532TIP3    H125553   7.938   5.811   1.754
 8532TIP3    H225554   7.817   5.888   1.706
 8533TIP3   OH225555   1.806   3.071   0.231
 8533TIP3    H125556   1.863   2.997   0.210
 8533TIP3    H225557   1.739   3.068   0.163
 8534TIP3   OH225558   4.969   2.094   4.792
 8534TIP3    H125559   4.882   2.064   4.766
 8534TIP3    H225560   4.993   2.158   4.725
 8535TIP3   OH225561   2.796   5.363   4.638
 8535TIP3    H125562   2.810   5.440   4.693
 8535TIP3    H225563   2.826   5.289   4.692
 8536TIP3   OH225564   5.794   7.077   4.753
 8536TIP3    H125565   5.752   7.136   4.691
 8536TIP3    H225566   5.887   7.081   4.731
 8537TIP3   OH225567   6.227   2.874   4.869
 8537TIP3    H125568   6.288   2.886   4.942
 8537TIP3    H225569   6.206   2.962   4.840
 8538TIP3   OH225570   2.420   5.740   6.024
 8538TIP3    H125571   2.462   5.751   6.109
 8538TIP3    H225572   2.441   5.820   5.976
 8539TIP3   OH225573   3.394   2.622   2.062
 8539TIP3    H125574   3.308   2.656   2.039
 8539TIP3    H225575   3.376   2.543   2.113
 8540TIP3   OH225576   2.803   6.807   0.805
 8540TIP3    H125577   2.851   6.739   0.758
 8540TIP3    H225578   2.865   6.880   0.811
 8541TIP3   OH225579   0.510   2.139   1.661
 8541TIP3    H125580   0.476   2.141   1.571
 8541TIP3    H225581   0.435   2.115   1.714
 8542TIP3   OH225582   6.830   6.161   1.163
 8542TIP3    H125583   6.801   6.094   1.225
 8542TIP3    H225584   6.783   6.141   1.082
 8543TIP3   OH225585   3.122   1.258   0.864
 8543TIP3    H125586   3.134   1.219   0.951
 8543TIP3    H225587   3.191   1.221   0.810
 8544TIP3   OH225588   0.841   2.509   5.042
 8544TIP3    H125589   0.748   2.490   5.055
 8544TIP3    H225590   0.880   2.426   5.015
 8545TIP3   OH225591   4.316   3.984   3.262
 8545TIP3    H125592   4.397   4.031   3.245
 8545TIP3    H225593   4.249   4.052   3.269
 8546TIP3   OH225594   0.085   4.201   2.965
 8546TIP3    H125595   0.085   4.146   2.888
 8546TIP3    H225596   0.018   4.164   3.022
 8547TIP3   OH225597   3.868   4.808   4.589
 8547TIP3    H125598   3.831   4.895   4.573
 8547TIP3    H225599   3.842   4.787   4.679
 8548TIP3   OH225600   7.869   4.371   1.453
 8548TIP3    H125601   7.942   4.424   1.422
 8548TIP3    H225602   7.910   4.299   1.501
 8549TIP3   OH225603   2.288   2.393   2.375
 8549TIP3    H125604   2.285   2.488   2.382
 8549TIP3    H225605   2.328   2.376   2.289
 8550TIP3   OH225606   6.216   3.062   3.110
 8550TIP3    H125607   6.186   3.073   3.200
 8550TIP3    H225608   6.150   3.105   3.056
 8551TIP3   OH225609   4.285   2.838   4.869
 8551TIP3    H125610   4.274   2.744   4.878
 8551TIP3    H225611   4.196   2.873   4.874
 8552TIP3   OH225612   3.493   2.887   4.479
 8552TIP3    H125613   3.492   2.960   4.542
 8552TIP3    H225614   3.494   2.929   4.393
 8553TIP3   OH225615   4.216   5.040   6.565
 8553TIP3    H125616   4.240   4.994   6.484
 8553TIP3    H225617   4.274   5.116   6.567
 8554TIP3   OH225618   2.071   6.889   5.652
 8554TIP3    H125619   1.997   6.945   5.676
 8554TIP3    H225620   2.030   6.805   5.629
 8555TIP3   OH225621   1.832   0.461   2.772
 8555TIP3    H125622   1.894   0.449   2.700
 8555TIP3    H225623   1.761   0.513   2.734
 8556TIP3   OH225624   1.716   4.155   3.599
 8556TIP3    H125625   1.797   4.180   3.555
 8556TIP3    H225626   1.743   4.134   3.689
 8557TIP3   OH225627   2.654   6.977   4.330
 8557TIP3    H125628   2.636   6.907   4.267
 8557TIP3    H225629   2.589   6.964   4.399
 8558TIP3   OH225630   1.168   0.117   1.198
 8558TIP3    H125631   1.217   0.096   1.277
 8558TIP3    H225632   1.159   0.034   1.152
 8559TIP3   OH225633   6.158   6.988   2.493
 8559TIP3    H125634   6.109   6.911   2.465
 8559TIP3    H225635   6.103   7.028   2.560
 8560TIP3   OH225636   1.872   4.363   2.033
 8560TIP3    H125637   1.953   4.374   2.084
 8560TIP3    H225638   1.809   4.421   2.077
 8561TIP3   OH225639   5.918   4.050   0.814
 8561TIP3    H125640   5.855   4.102   0.764
 8561TIP3    H225641   5.952   4.110   0.880
 8562TIP3   OH225642   7.048   4.096   5.297
 8562TIP3    H125643   6.952   4.088   5.290
 8562TIP3    H225644   7.079   4.084   5.207
 8563TIP3   OH225645   5.669   1.703   3.027
 8563TIP3    H125646   5.636   1.649   3.098
 8563TIP3    H225647   5.763   1.711   3.044
 8564TIP3   OH225648   7.234   7.283   1.763
 8564TIP3    H125649   7.177   7.251   1.832
 8564TIP3    H225650   7.312   7.228   1.768
 8565TIP3   OH225651   0.890   4.375   2.940
 8565TIP3    H125652   0.833   4.373   3.017
 8565TIP3    H225653   0.851   4.442   2.884
 8566TIP3   OH225654   0.828   7.652   5.503
 8566TIP3    H125655   0.789   7.570   5.533
 8566TIP3    H225656   0.913   7.656   5.548
 8567TIP3   OH225657   4.837   2.823   2.567
 8567TIP3    H125658   4.885   2.901   2.540
 8567TIP3    H225659   4.785   2.799   2.491
 8568TIP3   OH225660   7.270   7.741   6.015
 8568TIP3    H125661   7.306   7.712   6.099
 8568TIP3    H225662   7.265   7.661   5.962
 8569TIP3   OH225663   1.471   7.082   4.351
 8569TIP3    H125664   1.522   7.157   4.321
 8569TIP3    H225665   1.382   7.114   4.359
 8570TIP3   OH225666   0.072   3.688   1.711
 8570TIP3    H125667   0.066   3.729   1.625
 8570TIP3    H225668   0.014   3.740   1.767
 8571TIP3   OH225669   7.540   4.393   1.048
 8571TIP3    H125670   7.548   4.325   0.981
 8571TIP3    H225671   7.450   4.423   1.041
 8572TIP3   OH225672   6.492   5.151   1.327
 8572TIP3    H125673   6.561   5.208   1.295
 8572TIP3    H225674   6.424   5.211   1.359
 8573TIP3   OH225675   3.671   6.864   4.056
 8573TIP3    H125676   3.576   6.869   4.069
 8573TIP3    H225677   3.696   6.784   4.103
 8574TIP3   OH225678   7.829   4.386   4.373
 8574TIP3    H125679   7.760   4.351   4.428
 8574TIP3    H225680   7.825   4.480   4.385
 8575TIP3   OH225681   3.521   1.898   5.335
 8575TIP3    H125682   3.583   1.904   5.262
 8575TIP3    H225683   3.434   1.899   5.293
 8576TIP3   OH225684   2.438   5.238   3.249
 8576TIP3    H125685   2.410   5.260   3.161
 8576TIP3    H225686   2.477   5.318   3.284
 8577TIP3   OH225687   4.726   1.533   2.237
 8577TIP3    H125688   4.743   1.610   2.290
 8577TIP3    H225689   4.698   1.568   2.152
 8578TIP3   OH225690   2.742   2.938   4.074
 8578TIP3    H125691   2.742   3.020   4.024
 8578TIP3    H225692   2.677   2.883   4.029
 8579TIP3   OH225693   4.791   1.830   4.959
 8579TIP3    H125694   4.719   1.816   4.898
 8579TIP3    H225695   4.870   1.811   4.908
 8580TIP3   OH225696   0.526   7.437   5.785
 8580TIP3    H125697   0.525   7.533   5.778
 8580TIP3    H225698   0.437   7.414   5.813
 8581TIP3   OH225699   7.319   4.896   1.560
 8581TIP3    H125700   7.385   4.901   1.629
 8581TIP3    H225701   7.334   4.811   1.519
 8582TIP3   OH225702   1.019   6.065   2.465
 8582TIP3    H125703   0.992   6.000   2.529
 8582TIP3    H225704   1.062   6.015   2.395
 8583TIP3   OH225705   0.471   3.098   3.097
 8583TIP3    H125706   0.478   3.138   3.010
 8583TIP3    H225707   0.559   3.106   3.134
 8584TIP3   OH225708   0.172   4.955   5.186
 8584TIP3    H125709   0.245   4.998   5.230
 8584TIP3    H225710   0.158   4.875   5.236
 8585TIP3   OH225711   7.144   2.091   5.064
 8585TIP3    H125712   7.197   2.031   5.011
 8585TIP3    H225713   7.121   2.162   5.005
 8586TIP3   OH225714   5.239   3.214   3.136
 8586TIP3    H125715   5.324   3.232   3.177
 8586TIP3    H225716   5.233   3.118   3.135
 8587TIP3   OH225717   1.910   2.685   0.570
 8587TIP3    H125718   1.840   2.637   0.525
 8587TIP3    H225719   1.991   2.654   0.528
 8588TIP3   OH225720   0.655   7.630   6.581
 8588TIP3    H125721   0.645   7.661   6.671
 8588TIP3    H225722   0.632   7.537   6.585
 8589TIP3   OH225723   0.525   3.886   3.076
 8589TIP3    H125724   0.533   3.953   3.009
 8589TIP3    H225725   0.567   3.924   3.154
 8590TIP3   OH225726   7.961   1.217   3.427
 8590TIP3    H125727   7.874   1.228   3.387
 8590TIP3    H225728   7.944   1.163   3.504
 8591TIP3   OH225729   0.748   0.140   3.615
 8591TIP3    H125730   0.794   0.136   3.699
 8591TIP3    H225731   0.691   0.063   3.615
 8592TIP3   OH225732   4.928   3.176   5.493
 8592TIP3    H125733   5.023   3.173   5.490
 8592TIP3    H225734   4.901   3.084   5.501
 8593TIP3   OH225735   6.784   0.179   5.384
 8593TIP3    H125736   6.772   0.272   5.366
 8593TIP3    H225737   6.868   0.157   5.344
 8594TIP3   OH225738   3.783   0.956   1.529
 8594TIP3    H125739   3.730   1.035   1.516
 8594TIP3    H225740   3.760   0.900   1.455
 8595TIP3   OH225741   6.906   6.730   3.586
 8595TIP3    H125742   6.900   6.697   3.676
 8595TIP3    H225743   6.815   6.741   3.558
 8596TIP3   OH225744   7.848   2.943   2.435
 8596TIP3    H125745   7.944   2.953   2.439
 8596TIP3    H225746   7.815   3.033   2.437
 8597TIP3   OH225747   5.664   6.574   1.161
 8597TIP3    H125748   5.636   6.661   1.189
 8597TIP3    H225749   5.595   6.516   1.192
 8598TIP3   OH225750   1.308   7.171   0.486
 8598TIP3    H125751   1.241   7.140   0.547
 8598TIP3    H225752   1.389   7.132   0.518
 8599TIP3   OH225753   2.452   3.499   2.247
 8599TIP3    H125754   2.429   3.421   2.196
 8599TIP3    H225755   2.524   3.470   2.303
 8600TIP3   OH225756   5.716   2.533   0.266
 8600TIP3    H125757   5.811   2.537   0.266
 8600TIP3    H225758   5.690   2.567   0.352
 8601TIP3   OH225759   5.628   3.298   1.164
 8601TIP3    H125760   5.583   3.217   1.141
 8601TIP3    H225761   5.671   3.278   1.247
 8602TIP3   OH225762   7.977   0.783   2.516
 8602TIP3    H125763   7.985   0.696   2.477
 8602TIP3    H225764   8.063   0.823   2.504
 8603TIP3   OH225765   2.995   2.083   5.377
 8603TIP3    H125766   3.062   2.043   5.433
 8603TIP3    H225767   3.004   2.177   5.392
 8604TIP3   OH225768   6.766   6.265   6.820
 8604TIP3    H125769   6.679   6.241   6.789
 8604TIP3    H225770   6.790   6.342   6.769
 8605TIP3   OH225771   1.135   3.709   3.383
 8605TIP3    H125772   1.158   3.639   3.445
 8605TIP3    H225773   1.147   3.790   3.432
 8606TIP3   OH225774   1.157   1.668   6.029
 8606TIP3    H125775   1.240   1.685   5.983
 8606TIP3    H225776   1.137   1.751   6.072
 8607TIP3   OH225777   3.566   4.252   2.905
 8607TIP3    H125778   3.586   4.270   2.997
 8607TIP3    H225779   3.516   4.327   2.876
 8608TIP3   OH225780   1.014   1.377   4.409
 8608TIP3    H125781   0.973   1.330   4.336
 8608TIP3    H225782   0.948   1.442   4.435
 8609TIP3   OH225783   6.850   7.376   4.085
 8609TIP3    H125784   6.885   7.465   4.095
 8609TIP3    H225785   6.807   7.376   4.000
 8610TIP3   OH225786   5.560   2.232   5.063
 8610TIP3    H125787   5.585   2.254   5.153
 8610TIP3    H225788   5.639   2.192   5.025
 8611TIP3   OH225789   5.659   0.753   4.238
 8611TIP3    H125790   5.703   0.784   4.159
 8611TIP3    H225791   5.570   0.786   4.231
 8612TIP3   OH225792   7.308   3.112   2.694
 8612TIP3    H125793   7.217   3.142   2.701
 8612TIP3    H225794   7.346   3.167   2.625
 8613TIP3   OH225795   6.305   1.516   4.615
 8613TIP3    H125796   6.249   1.478   4.683
 8613TIP3    H225797   6.259   1.594   4.587
 8614TIP3   OH225798   6.559   2.056   5.115
 8614TIP3    H125799   6.583   2.116   5.186
 8614TIP3    H225800   6.519   1.981   5.158
 8615TIP3   OH225801   4.885   0.770   2.420
 8615TIP3    H125802   4.957   0.741   2.475
 8615TIP3    H225803   4.874   0.863   2.440
 8616TIP3   OH225804   0.543   7.427   4.270
 8616TIP3    H125805   0.490   7.350   4.251
 8616TIP3    H225806   0.633   7.400   4.250
 8617TIP3   OH225807   4.770   1.773   3.453
 8617TIP3    H125808   4.858   1.800   3.478
 8617TIP3    H225809   4.746   1.706   3.517
 8618TIP3   OH225810   0.162   1.646   6.699
 8618TIP3    H125811   0.146   1.739   6.712
 8618TIP3    H225812   0.211   1.619   6.776
 8619TIP3   OH225813   2.224   1.141   4.356
 8619TIP3    H125814   2.193   1.164   4.444
 8619TIP3    H225815   2.284   1.068   4.370
 8620TIP3   OH225816   1.917   5.698   0.667
 8620TIP3    H125817   2.005   5.662   0.662
 8620TIP3    H225818   1.923   5.782   0.622
 8621TIP3   OH225819   4.808   5.913   0.033
 8621TIP3    H125820   4.863   5.977   0.078
 8621TIP3    H225821   4.720   5.928   0.067
 8622TIP3   OH225822   1.521   0.225   3.241
 8622TIP3    H125823   1.561   0.152   3.193
 8622TIP3    H225824   1.594   0.264   3.289
 8623TIP3   OH225825   6.279   6.144   4.743
 8623TIP3    H125826   6.315   6.224   4.780
 8623TIP3    H225827   6.189   6.165   4.719
 8624TIP3   OH225828   0.782   3.884   2.867
 8624TIP3    H125829   0.825   3.921   2.945
 8624TIP3    H225830   0.826   3.800   2.853
 8625TIP3   OH225831   6.394   5.569   4.922
 8625TIP3    H125832   6.379   5.526   4.838
 8625TIP3    H225833   6.344   5.650   4.917
 8626TIP3   OH225834   2.204   6.640   3.278
 8626TIP3    H125835   2.278   6.691   3.244
 8626TIP3    H225836   2.246   6.568   3.326
 8627TIP3   OH225837   4.096   5.961   1.684
 8627TIP3    H125838   4.001   5.974   1.685
 8627TIP3    H225839   4.132   6.046   1.711
 8628TIP3   OH225840   4.279   7.157   5.054
 8628TIP3    H125841   4.360   7.200   5.080
 8628TIP3    H225842   4.290   7.066   5.079
 8629TIP3   OH225843   1.284   3.416   3.169
 8629TIP3    H125844   1.193   3.445   3.169
 8629TIP3    H225845   1.335   3.495   3.187
 8630TIP3   OH225846   3.568   5.558   3.086
 8630TIP3    H125847   3.512   5.614   3.139
 8630TIP3    H225848   3.553   5.469   3.120
 8631TIP3   OH225849   0.567   1.439   5.557
 8631TIP3    H125850   0.623   1.361   5.550
 8631TIP3    H225851   0.553   1.451   5.651
 8632TIP3   OH225852   0.472   4.321   0.614
 8632TIP3    H125853   0.391   4.272   0.596
 8632TIP3    H225854   0.445   4.413   0.617
 8633TIP3   OH225855   7.205   7.663   4.100
 8633TIP3    H125856   7.215   7.573   4.130
 8633TIP3    H225857   7.288   7.683   4.056
 8634TIP3   OH225858   4.022   2.388   1.698
 8634TIP3    H125859   4.071   2.352   1.772
 8634TIP3    H225860   3.960   2.319   1.674
 8635TIP3   OH225861   1.259   5.727   2.945
 8635TIP3    H125862   1.263   5.638   2.982
 8635TIP3    H225863   1.341   5.767   2.971
 8636TIP3   OH225864   2.601   2.812   4.467
 8636TIP3    H125865   2.626   2.741   4.408
 8636TIP3    H225866   2.644   2.790   4.550
 8637TIP3   OH225867   5.497   6.436   3.019
 8637TIP3    H125868   5.462   6.396   3.099
 8637TIP3    H225869   5.584   6.397   3.009
 8638TIP3   OH225870   6.841   2.807   0.583
 8638TIP3    H125871   6.893   2.815   0.503
 8638TIP3    H225872   6.891   2.748   0.639
 8639TIP3   OH225873   3.460   3.869   1.623
 8639TIP3    H125874   3.383   3.813   1.621
 8639TIP3    H225875   3.426   3.957   1.639
 8640TIP3   OH225876   0.928   2.286   1.279
 8640TIP3    H125877   0.924   2.251   1.190
 8640TIP3    H225878   1.000   2.237   1.320
 8641TIP3   OH225879   0.409   2.058   2.985
 8641TIP3    H125880   0.334   2.096   2.940
 8641TIP3    H225881   0.413   2.106   3.068
 8642TIP3   OH225882   2.242   4.760   6.208
 8642TIP3    H125883   2.163   4.707   6.201
 8642TIP3    H225884   2.232   4.826   6.139
 8643TIP3   OH225885   7.716   7.513   4.451
 8643TIP3    H125886   7.728   7.604   4.479
 8643TIP3    H225887   7.668   7.472   4.523
 8644TIP3   OH225888   1.613   6.757   2.431
 8644TIP3    H125889   1.603   6.739   2.338
 8644TIP3    H225890   1.616   6.852   2.437
 8645TIP3   OH225891   0.352   2.633   4.780
 8645TIP3    H125892   0.416   2.628   4.851
 8645TIP3    H225893   0.363   2.722   4.745
 8646TIP3   OH225894   0.847   3.180   4.562
 8646TIP3    H125895   0.859   3.222   4.647
 8646TIP3    H225896   0.753   3.163   4.557
 8647TIP3   OH225897   7.376   0.288   0.093
 8647TIP3    H125898   7.382   0.211   0.036
 8647TIP3    H225899   7.325   0.257   0.168
 8648TIP3   OH225900   2.186   0.827   4.182
 8648TIP3    H125901   2.176   0.823   4.087
 8648TIP3    H225902   2.104   0.864   4.214
 8649TIP3   OH225903   4.425   4.071   3.645
 8649TIP3    H125904   4.451   3.979   3.641
 8649TIP3    H225905   4.330   4.070   3.628
 8650TIP3   OH225906   5.830   5.870   0.328
 8650TIP3    H125907   5.773   5.940   0.299
 8650TIP3    H225908   5.867   5.833   0.248
 8651TIP3   OH225909   2.670   6.036   1.234
 8651TIP3    H125910   2.606   5.991   1.288
 8651TIP3    H225911   2.625   6.116   1.206
 8652TIP3   OH225912   3.066   6.378   2.963
 8652TIP3    H125913   2.977   6.407   2.983
 8652TIP3    H225914   3.093   6.435   2.891
 8653TIP3   OH225915   3.739   6.668   4.672
 8653TIP3    H125916   3.684   6.741   4.643
 8653TIP3    H225917   3.743   6.609   4.596
 8654TIP3   OH225918   7.337   2.102   2.896
 8654TIP3    H125919   7.315   2.118   2.804
 8654TIP3    H225920   7.427   2.070   2.894
 8655TIP3   OH225921   1.323   2.579   6.472
 8655TIP3    H125922   1.269   2.635   6.416
 8655TIP3    H225923   1.373   2.525   6.411
 8656TIP3   OH225924   1.716   0.605   1.559
 8656TIP3    H125925   1.623   0.628   1.562
 8656TIP3    H225926   1.723   0.545   1.484
 8657TIP3   OH225927   0.051   5.223   0.840
 8657TIP3    H125928   0.133   5.186   0.871
 8657TIP3    H225929   0.054   5.211   0.745
 8658TIP3   OH225930   6.497   3.593   5.755
 8658TIP3    H125931   6.467   3.511   5.796
 8658TIP3    H225932   6.576   3.617   5.804
 8659TIP3   OH225933   3.853   4.909   2.664
 8659TIP3    H125934   3.898   4.826   2.645
 8659TIP3    H225935   3.870   4.924   2.757
 8660TIP3   OH225936   4.651   7.522   2.209
 8660TIP3    H125937   4.628   7.606   2.247
 8660TIP3    H225938   4.597   7.516   2.130
 8661TIP3   OH225939   5.092   1.953   6.767
 8661TIP3    H125940   5.173   1.981   6.724
 8661TIP3    H225941   5.116   1.872   6.812
 8662TIP3   OH225942   0.776   4.948   6.335
 8662TIP3    H125943   0.866   4.978   6.343
 8662TIP3    H225944   0.723   5.028   6.343
 8663TIP3   OH225945   3.443   7.181   4.913
 8663TIP3    H125946   3.381   7.236   4.866
 8663TIP3    H225947   3.524   7.232   4.914
 8664TIP3   OH225948   4.385   2.084   2.964
 8664TIP3    H125949   4.358   2.010   2.908
 8664TIP3    H225950   4.466   2.116   2.923
 8665TIP3   OH225951   6.853   1.052   6.410
 8665TIP3    H125952   6.873   1.042   6.317
 8665TIP3    H225953   6.769   1.099   6.412
 8666TIP3   OH225954   7.278   5.387   5.908
 8666TIP3    H125955   7.252   5.442   5.983
 8666TIP3    H225956   7.200   5.336   5.888
 8667TIP3   OH225957   5.703   3.333   1.446
 8667TIP3    H125958   5.735   3.291   1.526
 8667TIP3    H225959   5.620   3.290   1.428
 8668TIP3   OH225960   3.041   0.328   1.093
 8668TIP3    H125961   3.104   0.295   1.156
 8668TIP3    H225962   3.086   0.321   1.008
 8669TIP3   OH225963   6.944   0.546   2.478
 8669TIP3    H125964   6.920   0.639   2.486
 8669TIP3    H225965   6.889   0.513   2.406
 8670TIP3   OH225966   2.870   6.479   6.637
 8670TIP3    H125967   2.798   6.542   6.639
 8670TIP3    H225968   2.843   6.415   6.571
 8671TIP3   OH225969   6.447   0.347   5.561
 8671TIP3    H125970   6.538   0.378   5.572
 8671TIP3    H225971   6.456   0.254   5.544
 8672TIP3   OH225972   4.282   2.437   5.401
 8672TIP3    H125973   4.191   2.408   5.394
 8672TIP3    H225974   4.277   2.515   5.456
 8673TIP3   OH225975   2.896   0.091   0.031
 8673TIP3    H125976   2.879   0.148   0.106
 8673TIP3    H225977   2.902   0.150  -0.044
 8674TIP3   OH225978   0.764   1.521   0.775
 8674TIP3    H125979   0.859   1.512   0.773
 8674TIP3    H225980   0.747   1.593   0.836
 8675TIP3   OH225981   4.470   0.946   1.249
 8675TIP3    H125982   4.457   0.861   1.206
 8675TIP3    H225983   4.487   1.006   1.176
 8676TIP3   OH225984   1.076   5.635   0.631
 8676TIP3    H125985   1.116   5.553   0.601
 8676TIP3    H225986   1.072   5.626   0.726
 8677TIP3   OH225987   2.307   4.673   2.528
 8677TIP3    H125988   2.353   4.729   2.591
 8677TIP3    H225989   2.367   4.667   2.454
 8678TIP3   OH225990   4.484   4.144   1.335
 8678TIP3    H125991   4.532   4.160   1.254
 8678TIP3    H225992   4.541   4.087   1.386
 8679TIP3   OH225993   2.244   3.151   3.615
 8679TIP3    H125994   2.306   3.083   3.589
 8679TIP3    H225995   2.180   3.106   3.669
 8680TIP3   OH225996   2.812   3.311   5.736
 8680TIP3    H125997   2.756   3.369   5.686
 8680TIP3    H225998   2.771   3.225   5.729
 8681TIP3   OH225999   1.236   6.730   4.877
 8681TIP3    H126000   1.315   6.774   4.847
 8681TIP3    H226001   1.248   6.639   4.851
 8682TIP3   OH226002   8.206   3.672   2.483
 8682TIP3    H126003   8.169   3.584   2.471
 8682TIP3    H226004   8.301   3.658   2.485
 8683TIP3   OH226005   2.117   3.812   1.770
 8683TIP3    H126006   2.168   3.866   1.831
 8683TIP3    H226007   2.036   3.860   1.758
 8684TIP3   OH226008   1.234   2.613   3.576
 8684TIP3    H126009   1.306   2.675   3.585
 8684TIP3    H226010   1.158   2.667   3.555
 8685TIP3   OH226011   2.655   6.658   6.000
 8685TIP3    H126012   2.613   6.683   5.917
 8685TIP3    H226013   2.701   6.737   6.028
 8686TIP3   OH226014   3.497   1.477   0.573
 8686TIP3    H126015   3.573   1.419   0.574
 8686TIP3    H226016   3.529   1.558   0.531
 8687TIP3   OH226017   0.139   6.022   2.364
 8687TIP3    H126018   0.095   5.940   2.339
 8687TIP3    H226019   0.112   6.038   2.454
 8688TIP3   OH226020   5.755   3.838   0.913
 8688TIP3    H126021   5.677   3.821   0.859
 8688TIP3    H226022   5.811   3.892   0.858
 8689TIP3   OH226023   6.030   6.131   6.532
 8689TIP3    H126024   6.108   6.110   6.583
 8689TIP3    H226025   6.037   6.076   6.454
 8690TIP3   OH226026   4.166   7.513   1.651
 8690TIP3    H126027   4.074   7.537   1.662
 8690TIP3    H226028   4.177   7.500   1.557
 8691TIP3   OH226029   6.187   0.729   0.815
 8691TIP3    H126030   6.212   0.752   0.905
 8691TIP3    H226031   6.091   0.736   0.815
 8692TIP3   OH226032   3.765   0.073   1.028
 8692TIP3    H126033   3.773   0.168   1.025
 8692TIP3    H226034   3.847   0.043   1.067
 8693TIP3   OH226035   5.554   6.443   5.159
 8693TIP3    H126036   5.546   6.450   5.254
 8693TIP3    H226037   5.520   6.526   5.125
 8694TIP3   OH226038   2.887   5.981   0.107
 8694TIP3    H126039   2.903   6.076   0.109
 8694TIP3    H226040   2.808   5.969   0.158
 8695TIP3   OH226041   7.669   1.440   4.256
 8695TIP3    H126042   7.727   1.364   4.256
 8695TIP3    H226043   7.586   1.407   4.223
 8696TIP3   OH226044   0.537   0.321   0.282
 8696TIP3    H126045   0.447   0.291   0.266
 8696TIP3    H226046   0.572   0.341   0.195
 8697TIP3   OH226047   1.685   4.441   1.566
 8697TIP3    H126048   1.651   4.481   1.486
 8697TIP3    H226049   1.698   4.515   1.626
 8698TIP3   OH226050   2.695   3.902   0.973
 8698TIP3    H126051   2.640   3.975   1.002
 8698TIP3    H226052   2.779   3.917   1.015
 8699TIP3   OH226053   0.745   0.478   0.997
 8699TIP3    H126054   0.738   0.387   0.969
 8699TIP3    H226055   0.836   0.488   1.024
 8700TIP3   OH226056   3.891   6.637   5.735
 8700TIP3    H126057   3.874   6.624   5.642
 8700TIP3    H226058   3.803   6.637   5.775
 8701TIP3   OH226059   7.435   7.728   0.578
 8701TIP3    H126060   7.402   7.812   0.608
 8701TIP3    H226061   7.447   7.739   0.484
 8702TIP3   OH226062   3.258   6.851   3.437
 8702TIP3    H126063   3.202   6.891   3.504
 8702TIP3    H226064   3.242   6.902   3.358
 8703TIP3   OH226065   3.428   2.154   3.716
 8703TIP3    H126066   3.454   2.096   3.644
 8703TIP3    H226067   3.426   2.097   3.793
 8704TIP3   OH226068   0.780   3.376   3.494
 8704TIP3    H126069   0.692   3.406   3.516
 8704TIP3    H226070   0.839   3.435   3.540
 8705TIP3   OH226071   7.002   6.903   5.779
 8705TIP3    H126072   7.085   6.863   5.803
 8705TIP3    H226073   6.967   6.936   5.861
 8706TIP3   OH226074   4.286   2.203   5.949
 8706TIP3    H126075   4.331   2.152   6.016
 8706TIP3    H226076   4.295   2.150   5.869
 8707TIP3   OH226077   5.514   6.844   1.840
 8707TIP3    H126078   5.609   6.850   1.832
 8707TIP3    H226079   5.484   6.934   1.828
 8708TIP3   OH226080   8.043   1.977   0.313
 8708TIP3    H126081   8.132   2.010   0.330
 8708TIP3    H226082   7.991   2.009   0.386
 8709TIP3   OH226083   5.708   3.398   2.365
 8709TIP3    H126084   5.627   3.347   2.363
 8709TIP3    H226085   5.769   3.345   2.416
 8710TIP3   OH226086   3.367   7.105   3.854
 8710TIP3    H126087   3.278   7.080   3.880
 8710TIP3    H226088   3.424   7.060   3.916
 8711TIP3   OH226089   3.711   1.683   1.532
 8711TIP3    H126090   3.677   1.624   1.465
 8711TIP3    H226091   3.713   1.769   1.490
 8712TIP3   OH226092   3.525   7.751   4.549
 8712TIP3    H126093   3.505   7.735   4.641
 8712TIP3    H226094   3.440   7.759   4.507
 8713TIP3   OH226095   7.266   7.637   4.934
 8713TIP3    H126096   7.264   7.658   5.027
 8713TIP3    H226097   7.184   7.590   4.918
 8714TIP3   OH226098   1.201   6.636   6.205
 8714TIP3    H126099   1.186   6.727   6.230
 8714TIP3    H226100   1.186   6.587   6.286
 8715TIP3   OH226101   5.886   5.480   0.590
 8715TIP3    H126102   5.918   5.446   0.674
 8715TIP3    H226103   5.960   5.470   0.530
 8716TIP3   OH226104   0.992   0.825   5.566
 8716TIP3    H126105   0.914   0.835   5.620
 8716TIP3    H226106   1.060   0.796   5.627
 8717TIP3   OH226107   1.592   4.209   2.145
 8717TIP3    H126108   1.672   4.184   2.099
 8717TIP3    H226109   1.614   4.291   2.188
 8718TIP3   OH226110   4.619   1.636   0.970
 8718TIP3    H126111   4.552   1.702   0.986
 8718TIP3    H226112   4.699   1.673   1.007
 8719TIP3   OH226113   5.194   4.430   2.911
 8719TIP3    H126114   5.194   4.493   2.839
 8719TIP3    H226115   5.102   4.408   2.924
 8720TIP3   OH226116   3.410   0.911   0.409
 8720TIP3    H126117   3.437   0.821   0.426
 8720TIP3    H226118   3.488   0.953   0.373
 8721TIP3   OH226119   6.965   3.014   6.541
 8721TIP3    H126120   6.908   2.994   6.615
 8721TIP3    H226121   6.978   2.930   6.497
 8722TIP3   OH226122   3.097   1.263   1.159
 8722TIP3    H126123   3.019   1.317   1.171
 8722TIP3    H226124   3.164   1.326   1.132
 8723TIP3   OH226125   6.467   4.472   1.228
 8723TIP3    H126126   6.558   4.486   1.202
 8723TIP3    H226127   6.417   4.534   1.175
 8724TIP3   OH226128   6.851   6.001   6.123
 8724TIP3    H126129   6.815   5.928   6.174
 8724TIP3    H226130   6.865   6.071   6.186
 8725TIP3   OH226131   7.181   3.483   3.390
 8725TIP3    H126132   7.223   3.473   3.476
 8725TIP3    H226133   7.123   3.407   3.383
 8726TIP3   OH226134   5.805   5.566   3.684
 8726TIP3    H126135   5.840   5.493   3.634
 8726TIP3    H226136   5.858   5.569   3.763
 8727TIP3   OH226137   5.233   3.134   1.355
 8727TIP3    H126138   5.199   3.055   1.313
 8727TIP3    H226139   5.159   3.168   1.405
 8728TIP3   OH226140   4.996   1.752   4.770
 8728TIP3    H126141   5.070   1.796   4.811
 8728TIP3    H226142   4.998   1.663   4.806
 8729TIP3   OH226143   2.094   0.985   2.651
 8729TIP3    H126144   2.051   0.899   2.658
 8729TIP3    H226145   2.032   1.038   2.600
 8730TIP3   OH226146   2.415   3.191   6.331
 8730TIP3    H126147   2.492   3.203   6.387
 8730TIP3    H226148   2.384   3.103   6.352
 8731TIP3   OH226149   5.814   4.280   5.155
 8731TIP3    H126150   5.728   4.245   5.177
 8731TIP3    H226151   5.834   4.243   5.070
 8732TIP3   OH226152   5.252   5.175   4.420
 8732TIP3    H126153   5.198   5.255   4.418
 8732TIP3    H226154   5.280   5.168   4.512
 8733TIP3   OH226155   2.336   7.454   0.606
 8733TIP3    H126156   2.343   7.525   0.670
 8733TIP3    H226157   2.414   7.463   0.552
 8734TIP3   OH226158   7.615   7.173   4.539
 8734TIP3    H126159   7.631   7.096   4.593
 8734TIP3    H226160   7.671   7.161   4.463
 8735TIP3   OH226161   2.593   2.314   4.013
 8735TIP3    H126162   2.518   2.271   3.972
 8735TIP3    H226163   2.598   2.274   4.100
 8736TIP3   OH226164   0.317   0.842   6.269
 8736TIP3    H126165   0.230   0.827   6.233
 8736TIP3    H226166   0.325   0.937   6.277
 8737TIP3   OH226167   7.474   0.953   0.210
 8737TIP3    H126168   7.546   0.907   0.253
 8737TIP3    H226169   7.453   1.026   0.269
 8738TIP3   OH226170   7.328   4.316   3.325
 8738TIP3    H126171   7.329   4.224   3.298
 8738TIP3    H226172   7.419   4.343   3.322
 8739TIP3   OH226173   4.455   6.702   3.495
 8739TIP3    H126174   4.373   6.695   3.544
 8739TIP3    H226175   4.478   6.611   3.475
 8740TIP3   OH226176   2.366   0.975   3.546
 8740TIP3    H126177   2.358   0.880   3.541
 8740TIP3    H226178   2.455   0.994   3.516
 8741TIP3   OH226179   3.974   3.818   1.966
 8741TIP3    H126180   3.893   3.865   1.984
 8741TIP3    H226181   4.041   3.865   2.017
 8742TIP3   OH226182   5.998   4.633   5.256
 8742TIP3    H126183   5.914   4.609   5.217
 8742TIP3    H226184   6.058   4.638   5.182
 8743TIP3   OH226185   0.352   4.425   1.820
 8743TIP3    H126186   0.271   4.476   1.833
 8743TIP3    H226187   0.406   4.445   1.896
 8744TIP3   OH226188   8.135   4.778   1.107
 8744TIP3    H126189   8.121   4.873   1.112
 8744TIP3    H226190   8.180   4.757   1.189
 8745TIP3   OH226191   7.334   1.508   2.221
 8745TIP3    H126192   7.323   1.487   2.129
 8745TIP3    H226193   7.397   1.444   2.254
 8746TIP3   OH226194   0.056   1.667   2.941
 8746TIP3    H126195   0.033   1.634   3.028
 8746TIP3    H226196   0.142   1.707   2.952
 8747TIP3   OH226197   4.627   6.007   5.062
 8747TIP3    H126198   4.550   6.055   5.033
 8747TIP3    H226199   4.650   5.951   4.989
 8748TIP3   OH226200   2.918   1.462   0.284
 8748TIP3    H126201   2.876   1.547   0.280
 8748TIP3    H226202   2.923   1.432   0.193
 8749TIP3   OH226203   8.190   0.373   3.918
 8749TIP3    H126204   8.148   0.289   3.938
 8749TIP3    H226205   8.119   0.426   3.882
 8750TIP3   OH226206   4.610   4.973   6.617
 8750TIP3    H126207   4.531   5.015   6.585
 8750TIP3    H226208   4.621   5.005   6.707
 8751TIP3   OH226209   5.884   5.747   4.880
 8751TIP3    H126210   5.876   5.683   4.809
 8751TIP3    H226211   5.814   5.810   4.862
 8752TIP3   OH226212   5.559   2.781   4.716
 8752TIP3    H126213   5.472   2.817   4.698
 8752TIP3    H226214   5.545   2.721   4.790
 8753TIP3   OH226215   1.453   4.141   3.567
 8753TIP3    H126216   1.542   4.157   3.601
 8753TIP3    H226217   1.450   4.190   3.485
 8754TIP3   OH226218   5.214   1.368   2.421
 8754TIP3    H126219   5.213   1.353   2.515
 8754TIP3    H226220   5.175   1.290   2.383
 8755TIP3   OH226221   5.526   2.060   2.548
 8755TIP3    H126222   5.601   2.098   2.501
 8755TIP3    H226223   5.465   2.133   2.559
 8756TIP3   OH226224   4.338   0.022   5.384
 8756TIP3    H126225   4.373   0.081   5.451
 8756TIP3    H226226   4.411   0.006   5.325
 8757TIP3   OH226227   4.861   6.041   0.615
 8757TIP3    H126228   4.921   6.115   0.612
 8757TIP3    H226229   4.835   6.028   0.524
 8758TIP3   OH226230   1.296   4.189   1.424
 8758TIP3    H126231   1.374   4.189   1.479
 8758TIP3    H226232   1.314   4.125   1.356
 8759TIP3   OH226233   1.129   6.464   1.781
 8759TIP3    H126234   1.224   6.462   1.784
 8759TIP3    H226235   1.101   6.429   1.866
 8760TIP3   OH226236   3.069   4.079   2.459
 8760TIP3    H126237   3.052   4.034   2.542
 8760TIP3    H226238   2.993   4.136   2.447
 8761TIP3   OH226239   2.375   0.209   6.155
 8761TIP3    H126240   2.405   0.120   6.174
 8761TIP3    H226241   2.365   0.211   6.060
 8762TIP3   OH226242   6.998   2.127   0.424
 8762TIP3    H126243   6.952   2.211   0.417
 8762TIP3    H226244   7.032   2.125   0.514
 8763TIP3   OH226245   0.063   6.823   0.120
 8763TIP3    H126246  -0.017   6.826   0.173
 8763TIP3    H226247   0.037   6.781   0.039
 8764TIP3   OH226248   1.435   7.326   0.311
 8764TIP3    H126249   1.381   7.266   0.364
 8764TIP3    H226250   1.437   7.407   0.361
 8765TIP3   OH226251   1.343   4.486   4.048
 8765TIP3    H126252   1.270   4.526   4.095
 8765TIP3    H226253   1.348   4.535   3.965
 8766TIP3   OH226254   7.771   5.209   1.488
 8766TIP3    H126255   7.813   5.137   1.535
 8766TIP3    H226256   7.843   5.270   1.470
 8767TIP3   OH226257   0.995   6.175   3.246
 8767TIP3    H126258   0.950   6.255   3.215
 8767TIP3    H226259   0.925   6.122   3.284
 8768TIP3   OH226260   4.983   3.321   3.532
 8768TIP3    H126261   4.970   3.401   3.482
 8768TIP3    H226262   4.909   3.318   3.592
 8769TIP3   OH226263   8.077   3.896   3.976
 8769TIP3    H126264   8.123   3.910   4.059
 8769TIP3    H226265   8.101   3.971   3.922
 8770TIP3   OH226266   1.745   4.887   0.026
 8770TIP3    H126267   1.656   4.852   0.031
 8770TIP3    H226268   1.735   4.972  -0.016
 8771TIP3   OH226269   5.630   0.025   0.289
 8771TIP3    H126270   5.563   0.050   0.352
 8771TIP3    H226271   5.631  -0.070   0.290
 8772TIP3   OH226272   4.542   0.992   6.349
 8772TIP3    H126273   4.474   1.054   6.373
 8772TIP3    H226274   4.608   0.999   6.419
 8773TIP3   OH226275   8.178   5.128   2.719
 8773TIP3    H126276   8.133   5.210   2.741
 8773TIP3    H226277   8.126   5.091   2.648
 8774TIP3   OH226278   2.394   6.824   1.672
 8774TIP3    H126279   2.399   6.920   1.677
 8774TIP3    H226280   2.484   6.797   1.655
 8775TIP3   OH226281   5.598   6.348   0.891
 8775TIP3    H126282   5.575   6.320   0.980
 8775TIP3    H226283   5.685   6.313   0.876
 8776TIP3   OH226284   3.254   0.528   2.767
 8776TIP3    H126285   3.182   0.516   2.705
 8776TIP3    H226286   3.220   0.591   2.831
 8777TIP3   OH226287   4.435   3.854   2.858
 8777TIP3    H126288   4.360   3.903   2.825
 8777TIP3    H226289   4.416   3.763   2.836
 8778TIP3   OH226290   7.667   0.172   5.520
 8778TIP3    H126291   7.577   0.204   5.516
 8778TIP3    H226292   7.681   0.129   5.436
 8779TIP3   OH226293   5.868   5.702   1.422
 8779TIP3    H126294   5.890   5.609   1.427
 8779TIP3    H226295   5.933   5.745   1.477
 8780TIP3   OH226296   2.636   3.885   6.714
 8780TIP3    H126297   2.693   3.883   6.637
 8780TIP3    H226298   2.551   3.913   6.680
 8781TIP3   OH226299   4.376   1.230   0.875
 8781TIP3    H126300   4.294   1.241   0.827
 8781TIP3    H226301   4.441   1.207   0.809
 8782TIP3   OH226302   6.362   7.692   4.170
 8782TIP3    H126303   6.336   7.784   4.179
 8782TIP3    H226304   6.457   7.695   4.165
 8783TIP3   OH226305   0.423   1.868   4.037
 8783TIP3    H126306   0.342   1.817   4.039
 8783TIP3    H226307   0.402   1.945   3.983
 8784TIP3   OH226308   5.385   5.314   6.100
 8784TIP3    H126309   5.378   5.297   6.194
 8784TIP3    H226310   5.358   5.231   6.059
 8785TIP3   OH226311   2.737   4.443   6.417
 8785TIP3    H126312   2.783   4.439   6.501
 8785TIP3    H226313   2.666   4.506   6.432
 8786TIP3   OH226314   7.959   3.838   3.750
 8786TIP3    H126315   8.000   3.850   3.835
 8786TIP3    H226316   8.026   3.796   3.697
 8787TIP3   OH226317   4.346   1.173   6.434
 8787TIP3    H126318   4.370   1.252   6.483
 8787TIP3    H226319   4.281   1.203   6.371
 8788TIP3   OH226320   5.772   2.046   0.024
 8788TIP3    H126321   5.721   2.047  -0.058
 8788TIP3    H226322   5.707   2.052   0.093
 8789TIP3   OH226323   4.309   7.186   5.939
 8789TIP3    H126324   4.304   7.244   5.864
 8789TIP3    H226325   4.400   7.159   5.943
 8790TIP3   OH226326   7.232   2.238   2.669
 8790TIP3    H126327   7.303   2.295   2.640
 8790TIP3    H226328   7.168   2.241   2.598
 8791TIP3   OH226329   7.224   4.397   4.671
 8791TIP3    H126330   7.200   4.384   4.762
 8791TIP3    H226331   7.149   4.362   4.622
 8792TIP3   OH226332   2.843   7.775   4.176
 8792TIP3    H126333   2.908   7.727   4.226
 8792TIP3    H226334   2.876   7.774   4.086
 8793TIP3   OH226335   0.472   6.785   4.456
 8793TIP3    H126336   0.447   6.866   4.501
 8793TIP3    H226337   0.564   6.798   4.434
 8794TIP3   OH226338   1.998   4.934   0.886
 8794TIP3    H126339   1.948   4.904   0.809
 8794TIP3    H226340   2.029   4.854   0.928
 8795TIP3   OH226341   0.239   1.827   4.365
 8795TIP3    H126342   0.231   1.880   4.286
 8795TIP3    H226343   0.225   1.888   4.437
 8796TIP3   OH226344   2.496   6.769   3.517
 8796TIP3    H126345   2.560   6.830   3.480
 8796TIP3    H226346   2.419   6.778   3.460
 8797TIP3   OH226347   2.819   1.280   4.780
 8797TIP3    H126348   2.723   1.285   4.770
 8797TIP3    H226349   2.848   1.235   4.700
 8798TIP3   OH226350   0.082   6.116   6.295
 8798TIP3    H126351   0.133   6.104   6.215
 8798TIP3    H226352   0.146   6.109   6.366
 8799TIP3   OH226353   8.044   7.048   3.735
 8799TIP3    H126354   7.973   7.007   3.784
 8799TIP3    H226355   8.080   6.978   3.681
 8800TIP3   OH226356   0.665   1.035   2.850
 8800TIP3    H126357   0.671   1.074   2.762
 8800TIP3    H226358   0.701   0.947   2.839
 8801TIP3   OH226359   8.225   1.130   4.078
 8801TIP3    H126360   8.159   1.068   4.050
 8801TIP3    H226361   8.245   1.182   4.000
 8802TIP3   OH226362   7.534   5.931   0.342
 8802TIP3    H126363   7.590   5.929   0.420
 8802TIP3    H226364   7.596   5.937   0.269
 8803TIP3   OH226365   7.081   3.159   0.040
 8803TIP3    H126366   7.167   3.191   0.010
 8803TIP3    H226367   7.098   3.120   0.125
 8804TIP3   OH226368   8.088   4.366   5.453
 8804TIP3    H126369   8.067   4.348   5.545
 8804TIP3    H226370   8.112   4.281   5.416
 8805TIP3   OH226371   4.072   6.180   0.280
 8805TIP3    H126372   3.992   6.187   0.332
 8805TIP3    H226373   4.042   6.191   0.189
 8806TIP3   OH226374   8.151   2.201   2.130
 8806TIP3    H126375   8.100   2.237   2.202
 8806TIP3    H226376   8.148   2.106   2.142
 8807TIP3   OH226377   2.295   6.737   3.793
 8807TIP3    H126378   2.207   6.712   3.767
 8807TIP3    H226379   2.311   6.821   3.750
 8808TIP3   OH226380   4.239   0.683   2.149
 8808TIP3    H126381   4.302   0.616   2.175
 8808TIP3    H226382   4.213   0.725   2.231
 8809TIP3   OH226383   3.562   4.823   3.367
 8809TIP3    H126384   3.479   4.842   3.410
 8809TIP3    H226385   3.623   4.889   3.400
 8810TIP3   OH226386   3.447   7.576   5.933
 8810TIP3    H126387   3.358   7.556   5.963
 8810TIP3    H226388   3.459   7.521   5.856
 8811TIP3   OH226389   2.591   6.305   1.552
 8811TIP3    H126390   2.667   6.355   1.581
 8811TIP3    H226391   2.618   6.213   1.561
 8812TIP3   OH226392   6.929   6.411   6.038
 8812TIP3    H126393   6.884   6.432   5.956
 8812TIP3    H226394   7.014   6.455   6.031
 8813TIP3   OH226395   6.800   0.542   4.670
 8813TIP3    H126396   6.803   0.569   4.578
 8813TIP3    H226397   6.729   0.593   4.708
 8814TIP3   OH226398   7.316   2.374   3.569
 8814TIP3    H126399   7.285   2.348   3.483
 8814TIP3    H226400   7.411   2.376   3.561
 8815TIP3   OH226401   1.230   3.676   0.327
 8815TIP3    H126402   1.145   3.640   0.352
 8815TIP3    H226403   1.210   3.764   0.296
 8816TIP3   OH226404   4.040   4.817   2.030
 8816TIP3    H126405   3.958   4.768   2.025
 8816TIP3    H226406   4.089   4.789   1.954
 8817TIP3   OH226407   0.407   7.748   0.226
 8817TIP3    H126408   0.501   7.766   0.214
 8817TIP3    H226409   0.377   7.817   0.286
 8818TIP3   OH226410   1.997   5.344   6.151
 8818TIP3    H126411   2.080   5.297   6.144
 8818TIP3    H226412   1.933   5.276   6.171
 8819TIP3   OH226413   3.808   3.462   0.689
 8819TIP3    H126414   3.714   3.480   0.689
 8819TIP3    H226415   3.835   3.472   0.780
 8820TIP3   OH226416   0.079   6.154   0.095
 8820TIP3    H126417   0.017   6.125   0.162
 8820TIP3    H226418   0.100   6.074   0.046
 8821TIP3   OH226419   3.409   6.531   3.970
 8821TIP3    H126420   3.327   6.551   4.014
 8821TIP3    H226421   3.468   6.603   3.995
 8822TIP3   OH226422   1.034   1.862   5.555
 8822TIP3    H126423   0.958   1.805   5.540
 8822TIP3    H226424   1.035   1.876   5.649
 8823TIP3   OH226425   3.619   5.544   6.571
 8823TIP3    H126426   3.530   5.547   6.606
 8823TIP3    H226427   3.662   5.621   6.608
 8824TIP3   OH226428   5.620   4.340   2.875
 8824TIP3    H126429   5.697   4.393   2.898
 8824TIP3    H226430   5.598   4.368   2.786
 8825TIP3   OH226431   5.143   5.334   4.010
 8825TIP3    H126432   5.112   5.324   3.920
 8825TIP3    H226433   5.063   5.352   4.061
 8826TIP3   OH226434   3.179   1.771   2.868
 8826TIP3    H126435   3.259   1.719   2.881
 8826TIP3    H226436   3.113   1.727   2.921
 8827TIP3   OH226437   0.983   6.532   1.440
 8827TIP3    H126438   0.920   6.575   1.382
 8827TIP3    H226439   1.017   6.458   1.390
 8828TIP3   OH226440   7.431   0.162   3.736
 8828TIP3    H126441   7.428   0.088   3.796
 8828TIP3    H226442   7.492   0.135   3.668
 8829TIP3   OH226443   7.954   7.196   1.909
 8829TIP3    H126444   7.915   7.182   1.823
 8829TIP3    H226445   8.039   7.237   1.890
 8830TIP3   OH226446   4.705   3.766   2.276
 8830TIP3    H126447   4.754   3.810   2.207
 8830TIP3    H226448   4.616   3.800   2.267
 8831TIP3   OH226449   6.485   4.359   4.901
 8831TIP3    H126450   6.428   4.285   4.922
 8831TIP3    H226451   6.426   4.427   4.868
 8832TIP3   OH226452   7.905   5.557   4.454
 8832TIP3    H126453   7.835   5.592   4.509
 8832TIP3    H226454   7.977   5.619   4.465
 8833TIP3   OH226455   8.078   4.729   3.735
 8833TIP3    H126456   8.096   4.687   3.651
 8833TIP3    H226457   7.987   4.705   3.755
 8834TIP3   OH226458   4.552   6.266   4.329
 8834TIP3    H126459   4.474   6.320   4.315
 8834TIP3    H226460   4.537   6.223   4.413
 8835TIP3   OH226461   4.207   1.545   5.509
 8835TIP3    H126462   4.198   1.449   5.510
 8835TIP3    H226463   4.265   1.564   5.583
 8836TIP3   OH226464   2.514   2.745   6.348
 8836TIP3    H126465   2.610   2.744   6.346
 8836TIP3    H226466   2.488   2.685   6.279
 8837TIP3   OH226467   2.317   6.352   6.343
 8837TIP3    H126468   2.402   6.396   6.336
 8837TIP3    H226469   2.277   6.361   6.257
 8838TIP3   OH226470   7.029   6.461   3.828
 8838TIP3    H126471   7.060   6.426   3.912
 8838TIP3    H226472   7.058   6.397   3.764
 8839TIP3   OH226473   2.796   2.506   4.016
 8839TIP3    H126474   2.785   2.527   3.923
 8839TIP3    H226475   2.758   2.418   4.025
 8840TIP3   OH226476   1.673   0.257   5.860
 8840TIP3    H126477   1.757   0.230   5.898
 8840TIP3    H226478   1.646   0.331   5.914
 8841TIP3   OH226479   5.293   0.453   4.794
 8841TIP3    H126480   5.336   0.517   4.737
 8841TIP3    H226481   5.253   0.505   4.863
 8842TIP3   OH226482   4.607   6.969   1.306
 8842TIP3    H126483   4.537   6.930   1.254
 8842TIP3    H226484   4.637   7.043   1.254
 8843TIP3   OH226485   0.680   5.841   0.509
 8843TIP3    H126486   0.749   5.779   0.484
 8843TIP3    H226487   0.601   5.806   0.467
 8844TIP3   OH226488   5.498   5.251   4.629
 8844TIP3    H126489   5.515   5.245   4.723
 8844TIP3    H226490   5.534   5.170   4.592
 8845TIP3   OH226491   4.871   4.035   1.160
 8845TIP3    H126492   4.847   3.956   1.111
 8845TIP3    H226493   4.966   4.032   1.164
 8846TIP3   OH226494   5.259   4.033   6.379
 8846TIP3    H126495   5.219   3.946   6.384
 8846TIP3    H226496   5.307   4.042   6.461
 8847TIP3   OH226497   0.903   5.246   4.955
 8847TIP3    H126498   0.882   5.203   4.872
 8847TIP3    H226499   0.892   5.177   5.021
 8848TIP3   OH226500   2.967   2.463   3.495
 8848TIP3    H126501   2.925   2.460   3.581
 8848TIP3    H226502   2.920   2.532   3.449
 8849TIP3   OH226503   5.849   7.114   0.506
 8849TIP3    H126504   5.881   7.130   0.417
 8849TIP3    H226505   5.923   7.072   0.550
 8850TIP3   OH226506   1.816   3.433   2.136
 8850TIP3    H126507   1.793   3.450   2.227
 8850TIP3    H226508   1.862   3.350   2.137
 8851TIP3   OH226509   4.413   0.863   2.339
 8851TIP3    H126510   4.469   0.911   2.277
 8851TIP3    H226511   4.474   0.810   2.391
 8852TIP3   OH226512   8.139   6.820   6.365
 8852TIP3    H126513   8.117   6.881   6.436
 8852TIP3    H226514   8.210   6.767   6.400
 8853TIP3   OH226515   7.434   0.302   5.086
 8853TIP3    H126516   7.436   0.208   5.106
 8853TIP3    H226517   7.526   0.328   5.083
 8854TIP3   OH226518   5.748   5.725   2.935
 8854TIP3    H126519   5.680   5.696   2.875
 8854TIP3    H226520   5.708   5.719   3.022
 8855TIP3   OH226521   7.960   5.868   3.553
 8855TIP3    H126522   7.987   5.780   3.578
 8855TIP3    H226523   8.021   5.925   3.601
 8856TIP3   OH226524   2.461   2.243   5.020
 8856TIP3    H126525   2.535   2.190   4.989
 8856TIP3    H226526   2.470   2.326   4.974
 8857TIP3   OH226527   2.705   4.565   0.349
 8857TIP3    H126528   2.755   4.620   0.409
 8857TIP3    H226529   2.769   4.533   0.286
 8858TIP3   OH226530   7.829   0.534   2.647
 8858TIP3    H126531   7.877   0.507   2.725
 8858TIP3    H226532   7.836   0.630   2.647
 8859TIP3   OH226533   0.515   6.332   3.369
 8859TIP3    H126534   0.563   6.380   3.437
 8859TIP3    H226535   0.577   6.326   3.296
 8860TIP3   OH226536   0.554   6.735   2.623
 8860TIP3    H126537   0.538   6.738   2.717
 8860TIP3    H226538   0.635   6.685   2.614
 8861TIP3   OH226539   0.969   1.308   4.868
 8861TIP3    H126540   1.034   1.324   4.800
 8861TIP3    H226541   1.010   1.339   4.948
 8862TIP3   OH226542   0.412   5.240   1.932
 8862TIP3    H126543   0.385   5.329   1.910
 8862TIP3    H226544   0.452   5.206   1.852
 8863TIP3   OH226545   2.087   6.623   1.108
 8863TIP3    H126546   2.014   6.664   1.063
 8863TIP3    H226547   2.165   6.667   1.073
 8864TIP3   OH226548   5.075   4.322   3.345
 8864TIP3    H126549   5.085   4.414   3.323
 8864TIP3    H226550   5.118   4.313   3.431
 8865TIP3   OH226551   3.261   4.097   3.751
 8865TIP3    H126552   3.176   4.139   3.759
 8865TIP3    H226553   3.304   4.114   3.835
 8866TIP3   OH226554   6.739   2.266   2.334
 8866TIP3    H126555   6.767   2.187   2.381
 8866TIP3    H226556   6.820   2.308   2.307
 8867TIP3   OH226557   3.447   0.914   2.286
 8867TIP3    H126558   3.435   0.821   2.307
 8867TIP3    H226559   3.402   0.927   2.203
 8868TIP3   OH226560   5.656   2.676   3.419
 8868TIP3    H126561   5.748   2.701   3.432
 8868TIP3    H226562   5.642   2.604   3.481
 8869TIP3   OH226563   2.667   2.444   5.137
 8869TIP3    H126564   2.725   2.516   5.113
 8869TIP3    H226565   2.591   2.455   5.080
 8870TIP3   OH226566   7.922   3.583   3.492
 8870TIP3    H126567   7.852   3.638   3.456
 8870TIP3    H226568   7.902   3.495   3.459
 8871TIP3   OH226569   7.769   1.711   3.338
 8871TIP3    H126570   7.863   1.694   3.337
 8871TIP3    H226571   7.760   1.790   3.392
 8872TIP3   OH226572   0.699   7.146   6.328
 8872TIP3    H126573   0.717   7.058   6.296
 8872TIP3    H226574   0.781   7.175   6.367
 8873TIP3   OH226575   6.890   1.657   4.786
 8873TIP3    H126576   6.891   1.706   4.703
 8873TIP3    H226577   6.809   1.684   4.828
 8874TIP3   OH226578   3.916   7.758   0.538
 8874TIP3    H126579   3.955   7.821   0.599
 8874TIP3    H226580   3.982   7.746   0.470
 8875TIP3   OH226581   2.584   1.550   5.994
 8875TIP3    H126582   2.543   1.627   6.034
 8875TIP3    H226583   2.671   1.546   6.032
 8876TIP3   OH226584   0.105   6.507   3.391
 8876TIP3    H126585   0.014   6.514   3.421
 8876TIP3    H226586   0.125   6.593   3.355
 8877TIP3   OH226587   1.359   5.330   4.065
 8877TIP3    H126588   1.359   5.235   4.076
 8877TIP3    H226589   1.317   5.364   4.145
 8878TIP3   OH226590   7.295   3.176   5.871
 8878TIP3    H126591   7.351   3.107   5.906
 8878TIP3    H226592   7.284   3.238   5.943
 8879TIP3   OH226593   1.535   1.662   6.733
 8879TIP3    H126594   1.554   1.739   6.679
 8879TIP3    H226595   1.498   1.599   6.671
 8880TIP3   OH226596   7.590   3.293   4.343
 8880TIP3    H126597   7.496   3.282   4.357
 8880TIP3    H226598   7.603   3.279   4.249
 8881TIP3   OH226599   1.301   1.751   2.429
 8881TIP3    H126600   1.212   1.765   2.460
 8881TIP3    H226601   1.320   1.828   2.376
 8882TIP3   OH226602   2.659   5.260   6.677
 8882TIP3    H126603   2.668   5.343   6.630
 8882TIP3    H226604   2.641   5.285   6.767
 8883TIP3   OH226605   5.722   7.327   1.647
 8883TIP3    H126606   5.769   7.395   1.599
 8883TIP3    H226607   5.638   7.318   1.601
 8884TIP3   OH226608   3.554   7.751   2.971
 8884TIP3    H126609   3.512   7.833   2.945
 8884TIP3    H226610   3.625   7.777   3.029
 8885TIP3   OH226611   0.787   5.594   3.741
 8885TIP3    H126612   0.868   5.548   3.762
 8885TIP3    H226613   0.742   5.601   3.825
 8886TIP3   OH226614   3.191   5.790   1.994
 8886TIP3    H126615   3.187   5.716   1.934
 8886TIP3    H226616   3.152   5.758   2.075
 8887TIP3   OH226617   1.779   0.406   3.687
 8887TIP3    H126618   1.729   0.446   3.759
 8887TIP3    H226619   1.869   0.404   3.719
 8888TIP3   OH226620   7.042   0.389   3.798
 8888TIP3    H126621   7.033   0.360   3.889
 8888TIP3    H226622   7.101   0.326   3.758
 8889TIP3   OH226623   0.281   2.791   4.011
 8889TIP3    H126624   0.317   2.875   3.982
 8889TIP3    H226625   0.249   2.750   3.931
 8890TIP3   OH226626   2.823   3.927   6.501
 8890TIP3    H126627   2.832   3.867   6.427
 8890TIP3    H226628   2.787   4.007   6.462
 8891TIP3   OH226629   2.810   2.750   3.654
 8891TIP3    H126630   2.733   2.799   3.681
 8891TIP3    H226631   2.791   2.721   3.565
 8892TIP3   OH226632   5.904   7.708   4.078
 8892TIP3    H126633   5.919   7.620   4.042
 8892TIP3    H226634   5.882   7.761   4.001
 8893TIP3   OH226635   1.454   6.173   4.582
 8893TIP3    H126636   1.441   6.173   4.676
 8893TIP3    H226637   1.389   6.111   4.548
 8894TIP3   OH226638   1.090   5.305   2.729
 8894TIP3    H126639   1.088   5.210   2.715
 8894TIP3    H226640   1.000   5.327   2.753
 8895TIP3   OH226641   3.158   4.247   5.827
 8895TIP3    H126642   3.132   4.157   5.806
 8895TIP3    H226643   3.204   4.278   5.749
 8896TIP3   OH226644   3.860   3.771   6.319
 8896TIP3    H126645   3.932   3.812   6.271
 8896TIP3    H226646   3.866   3.808   6.407
 8897TIP3   OH226647   2.409   4.853   3.322
 8897TIP3    H126648   2.441   4.799   3.249
 8897TIP3    H226649   2.489   4.890   3.360
 8898TIP3   OH226650   2.828   7.759   6.727
 8898TIP3    H126651   2.917   7.739   6.755
 8898TIP3    H226652   2.786   7.673   6.718
 8899TIP3   OH226653   1.408   3.802   6.122
 8899TIP3    H126654   1.354   3.824   6.198
 8899TIP3    H226655   1.345   3.788   6.051
 8900TIP3   OH226656   4.099   5.259   1.391
 8900TIP3    H126657   4.080   5.213   1.309
 8900TIP3    H226658   4.191   5.283   1.384
 8901TIP3   OH226659   6.970   3.579   1.235
 8901TIP3    H126660   6.980   3.656   1.179
 8901TIP3    H226661   6.995   3.608   1.322
 8902TIP3   OH226662   5.606   7.535   1.863
 8902TIP3    H126663   5.641   7.484   1.791
 8902TIP3    H226664   5.679   7.590   1.892
 8903TIP3   OH226665   5.955   5.605   5.093
 8903TIP3    H126666   5.879   5.645   5.136
 8903TIP3    H226667   5.964   5.652   5.010
 8904TIP3   OH226668   7.732   5.163   0.644
 8904TIP3    H126669   7.807   5.131   0.695
 8904TIP3    H226670   7.704   5.087   0.593
 8905TIP3   OH226671   5.193   7.454   0.301
 8905TIP3    H126672   5.269   7.411   0.261
 8905TIP3    H226673   5.162   7.392   0.366
 8906TIP3   OH226674   4.784   5.372   3.855
 8906TIP3    H126675   4.778   5.289   3.901
 8906TIP3    H226676   4.864   5.366   3.803
 8907TIP3   OH226677   2.764   5.865   4.682
 8907TIP3    H126678   2.680   5.833   4.716
 8907TIP3    H226679   2.755   5.860   4.586
 8908TIP3   OH226680   7.332   7.617   1.012
 8908TIP3    H126681   7.401   7.661   1.061
 8908TIP3    H226682   7.317   7.673   0.936
 8909TIP3   OH226683   5.925   4.987   5.900
 8909TIP3    H126684   5.988   4.932   5.947
 8909TIP3    H226685   5.980   5.047   5.849
 8910TIP3   OH226686   1.866   3.781   2.461
 8910TIP3    H126687   1.900   3.735   2.538
 8910TIP3    H226688   1.855   3.713   2.395
 8911TIP3   OH226689   4.511   0.014   2.614
 8911TIP3    H126690   4.438   0.076   2.619
 8911TIP3    H226691   4.527  -0.011   2.705
 8912TIP3   OH226692   2.918   7.379   2.804
 8912TIP3    H126693   2.886   7.418   2.885
 8912TIP3    H226694   2.841   7.376   2.747
 8913TIP3   OH226695   5.860   1.196   0.995
 8913TIP3    H126696   5.803   1.176   1.069
 8913TIP3    H226697   5.886   1.287   1.009
 8914TIP3   OH226698   3.617   6.510   6.351
 8914TIP3    H126699   3.588   6.586   6.301
 8914TIP3    H226700   3.633   6.443   6.284
 8915TIP3   OH226701   0.831   0.919   0.007
 8915TIP3    H126702   0.811   1.010   0.027
 8915TIP3    H226703   0.838   0.916  -0.088
 8916TIP3   OH226704   2.635   5.401   1.034
 8916TIP3    H126705   2.608   5.426   1.122
 8916TIP3    H226706   2.695   5.327   1.047
 8917TIP3   OH226707   4.827   7.817   1.644
 8917TIP3    H126708   4.846   7.884   1.709
 8917TIP3    H226709   4.788   7.745   1.694
 8918TIP3   OH226710   6.914   2.925   3.451
 8918TIP3    H126711   6.922   3.008   3.406
 8918TIP3    H226712   6.851   2.941   3.522
 8919TIP3   OH226713   2.996   3.010   3.175
 8919TIP3    H126714   2.905   3.016   3.148
 8919TIP3    H226715   3.047   3.034   3.098
 8920TIP3   OH226716   0.753   2.466   1.392
 8920TIP3    H126717   0.794   2.399   1.338
 8920TIP3    H226718   0.803   2.466   1.474
 8921TIP3   OH226719   3.174   5.501   2.694
 8921TIP3    H126720   3.082   5.483   2.676
 8921TIP3    H226721   3.173   5.555   2.773
 8922TIP3   OH226722   7.639   6.964   4.715
 8922TIP3    H126723   7.593   6.882   4.734
 8922TIP3    H226724   7.719   6.960   4.767
 8923TIP3   OH226725   7.514   5.855   2.469
 8923TIP3    H126726   7.527   5.829   2.560
 8923TIP3    H226727   7.479   5.944   2.473
 8924TIP3   OH226728   7.942   4.569   0.907
 8924TIP3    H126729   7.891   4.511   0.851
 8924TIP3    H226730   7.882   4.592   0.978
 8925TIP3   OH226731   0.872   2.945   2.400
 8925TIP3    H126732   0.946   2.907   2.447
 8925TIP3    H226733   0.837   2.873   2.349
 8926TIP3   OH226734   4.007   2.246   6.059
 8926TIP3    H126735   4.011   2.332   6.102
 8926TIP3    H226736   4.095   2.234   6.023
 8927TIP3   OH226737   1.831   1.263   3.616
 8927TIP3    H126738   1.893   1.244   3.546
 8927TIP3    H226739   1.796   1.349   3.594
 8928TIP3   OH226740   6.161   2.402   5.770
 8928TIP3    H126741   6.235   2.345   5.790
 8928TIP3    H226742   6.155   2.402   5.675
 8929TIP3   OH226743   2.557   3.764   4.710
 8929TIP3    H126744   2.652   3.759   4.699
 8929TIP3    H226745   2.530   3.674   4.730
 8930TIP3   OH226746   6.895   0.626   4.434
 8930TIP3    H126747   6.911   0.581   4.351
 8930TIP3    H226748   6.980   0.630   4.477
 8931TIP3   OH226749   7.660   1.747   0.149
 8931TIP3    H126750   7.663   1.834   0.108
 8931TIP3    H226751   7.640   1.687   0.077
 8932TIP3   OH226752   4.045   5.431   1.123
 8932TIP3    H126753   4.106   5.501   1.098
 8932TIP3    H226754   4.038   5.439   1.218
 8933TIP3   OH226755   4.137   3.316   4.637
 8933TIP3    H126756   4.188   3.313   4.718
 8933TIP3    H226757   4.048   3.295   4.664
 8934TIP3   OH226758   0.247   0.958   2.693
 8934TIP3    H126759   0.201   0.940   2.774
 8934TIP3    H226760   0.324   0.902   2.695
 8935TIP3   OH226761   7.978   6.844   3.505
 8935TIP3    H126762   8.052   6.784   3.490
 8935TIP3    H226763   8.003   6.924   3.458
 8936TIP3   OH226764   5.899   3.588   4.803
 8936TIP3    H126765   5.826   3.590   4.865
 8936TIP3    H226766   5.897   3.674   4.761
 8937TIP3   OH226767   7.293   5.117   0.762
 8937TIP3    H126768   7.322   5.038   0.716
 8937TIP3    H226769   7.231   5.158   0.702
 8938TIP3   OH226770   6.079   3.286   6.219
 8938TIP3    H126771   6.063   3.193   6.202
 8938TIP3    H226772   5.995   3.321   6.248
 8939TIP3   OH226773   0.030   2.490   3.505
 8939TIP3    H126774  -0.021   2.412   3.527
 8939TIP3    H226775  -0.002   2.557   3.565
 8940TIP3   OH226776   1.713   0.173   2.448
 8940TIP3    H126777   1.704   0.222   2.366
 8940TIP3    H226778   1.807   0.155   2.455
 8941TIP3   OH226779   5.976   1.710   6.119
 8941TIP3    H126780   6.065   1.729   6.091
 8941TIP3    H226781   5.979   1.619   6.150
 8942TIP3   OH226782   4.075   5.718   5.184
 8942TIP3    H126783   4.005   5.660   5.212
 8942TIP3    H226784   4.084   5.782   5.254
 8943TIP3   OH226785   1.764   4.371   6.162
 8943TIP3    H126786   1.755   4.461   6.133
 8943TIP3    H226787   1.770   4.377   6.257
 8944TIP3   OH226788   4.044   0.030   1.594
 8944TIP3    H126789   4.066   0.122   1.602
 8944TIP3    H226790   4.031   0.016   1.500
 8945TIP3   OH226791   6.958   3.216   5.484
 8945TIP3    H126792   7.016   3.140   5.478
 8945TIP3    H226793   6.970   3.249   5.573
 8946TIP3   OH226794   5.642   4.911   4.210
 8946TIP3    H126795   5.684   4.990   4.175
 8946TIP3    H226796   5.602   4.870   4.133
 8947TIP3   OH226797   6.424   5.637   5.913
 8947TIP3    H126798   6.461   5.726   5.914
 8947TIP3    H226799   6.418   5.612   6.005
 8948TIP3   OH226800   4.875   1.058   4.574
 8948TIP3    H126801   4.953   1.040   4.626
 8948TIP3    H226802   4.827   1.124   4.624
 8949TIP3   OH226803   4.937   3.746   6.119
 8949TIP3    H126804   4.901   3.659   6.100
 8949TIP3    H226805   4.944   3.789   6.034
 8950TIP3   OH226806   8.112   0.698   4.350
 8950TIP3    H126807   8.063   0.642   4.412
 8950TIP3    H226808   8.140   0.638   4.281
 8951TIP3   OH226809   0.040   0.207   0.040
 8951TIP3    H126810   0.025   0.123  -0.002
 8951TIP3    H226811  -0.047   0.245   0.050
 8952TIP3   OH226812   6.503   5.866   6.531
 8952TIP3    H126813   6.415   5.877   6.568
 8952TIP3    H226814   6.491   5.880   6.437
 8953TIP3   OH226815   2.596   2.602   0.778
 8953TIP3    H126816   2.681   2.646   0.778
 8953TIP3    H226817   2.559   2.620   0.865
 8954TIP3   OH226818   4.962   1.998   1.289
 8954TIP3    H126819   4.941   2.030   1.201
 8954TIP3    H226820   4.895   2.036   1.345
 8955TIP3   OH226821   3.689   2.792   5.526
 8955TIP3    H126822   3.623   2.859   5.541
 8955TIP3    H226823   3.675   2.729   5.597
 8956TIP3   OH226824   5.535   1.737   3.272
 8956TIP3    H126825   5.623   1.767   3.295
 8956TIP3    H226826   5.477   1.781   3.334
 8957TIP3   OH226827   7.161   5.383   1.898
 8957TIP3    H126828   7.069   5.402   1.876
 8957TIP3    H226829   7.203   5.370   1.813
 8958TIP3   OH226830   3.905   5.539   0.159
 8958TIP3    H126831   3.999   5.533   0.181
 8958TIP3    H226832   3.874   5.449   0.165
 8959TIP3   OH226833   7.107   2.473   4.705
 8959TIP3    H126834   7.203   2.480   4.711
 8959TIP3    H226835   7.075   2.557   4.739
 8960TIP3   OH226836   4.883   7.136   3.010
 8960TIP3    H126837   4.948   7.090   3.062
 8960TIP3    H226838   4.897   7.104   2.920
 8961TIP3   OH226839   7.869  -0.037   3.010
 8961TIP3    H126840   7.822   0.003   3.084
 8961TIP3    H226841   7.955   0.005   3.012
 8962TIP3   OH226842   2.269   7.687   4.067
 8962TIP3    H126843   2.349   7.734   4.089
 8962TIP3    H226844   2.216   7.692   4.146
 8963TIP3   OH226845   4.296   2.873   2.184
 8963TIP3    H126846   4.205   2.877   2.214
 8963TIP3    H226847   4.319   2.964   2.165
 8964TIP3   OH226848   0.597   0.950   6.678
 8964TIP3    H126849   0.530   1.017   6.665
 8964TIP3    H226850   0.583   0.919   6.767
 8965TIP3   OH226851   4.669   4.720   6.515
 8965TIP3    H126852   4.664   4.810   6.548
 8965TIP3    H226853   4.581   4.701   6.483
 8966TIP3   OH226854   3.977   2.987   4.243
 8966TIP3    H126855   3.994   2.894   4.226
 8966TIP3    H226856   4.005   3.001   4.333
 8967TIP3   OH226857   3.238   6.047   2.764
 8967TIP3    H126858   3.204   6.072   2.850
 8967TIP3    H226859   3.273   5.959   2.777
 8968TIP3   OH226860   4.363   5.582   2.726
 8968TIP3    H126861   4.440   5.616   2.770
 8968TIP3    H226862   4.377   5.487   2.723
 8969TIP3   OH226863   4.827   6.318   6.486
 8969TIP3    H126864   4.811   6.241   6.540
 8969TIP3    H226865   4.911   6.302   6.444
 8970TIP3   OH226866   5.706   1.567   5.671
 8970TIP3    H126867   5.699   1.580   5.766
 8970TIP3    H226868   5.796   1.539   5.658
 8971TIP3   OH226869   8.100   0.292   2.828
 8971TIP3    H126870   8.007   0.267   2.826
 8971TIP3    H226871   8.147   0.214   2.801
 8972TIP3   OH226872   5.332   6.295   5.979
 8972TIP3    H126873   5.403   6.317   6.040
 8972TIP3    H226874   5.376   6.281   5.895
 8973TIP3   OH226875   6.771   4.114   5.283
 8973TIP3    H126876   6.767   4.022   5.256
 8973TIP3    H226877   6.743   4.113   5.375
 8974TIP3   OH226878   4.600   1.483   6.365
 8974TIP3    H126879   4.625   1.449   6.451
 8974TIP3    H226880   4.642   1.569   6.360
 8975TIP3   OH226881   2.511   0.509   1.873
 8975TIP3    H126882   2.454   0.436   1.849
 8975TIP3    H226883   2.599   0.478   1.855
 8976TIP3   OH226884   3.283   2.001   1.421
 8976TIP3    H126885   3.348   2.069   1.434
 8976TIP3    H226886   3.229   2.032   1.348
 8977TIP3   OH226887   5.907   4.196   6.300
 8977TIP3    H126888   5.873   4.279   6.267
 8977TIP3    H226889   5.983   4.220   6.353
 8978TIP3   OH226890   5.388   2.927   3.777
 8978TIP3    H126891   5.382   2.831   3.775
 8978TIP3    H226892   5.297   2.956   3.779
 8979TIP3   OH226893   0.339   6.235   0.121
 8979TIP3    H126894   0.248   6.208   0.132
 8979TIP3    H226895   0.388   6.152   0.121
 8980TIP3   OH226896   4.658   0.781   3.668
 8980TIP3    H126897   4.695   0.699   3.701
 8980TIP3    H226898   4.731   0.842   3.667
 8981TIP3   OH226899   5.773   1.099   2.120
 8981TIP3    H126900   5.861   1.112   2.155
 8981TIP3    H226901   5.724   1.060   2.192
 8982TIP3   OH226902   4.025   6.043   3.804
 8982TIP3    H126903   4.021   5.998   3.719
 8982TIP3    H226904   3.943   6.091   3.809
 8983TIP3   OH226905   6.805   1.547   1.149
 8983TIP3    H126906   6.811   1.452   1.143
 8983TIP3    H226907   6.879   1.573   1.203
 8984TIP3   OH226908   7.287   1.159   3.705
 8984TIP3    H126909   7.233   1.126   3.633
 8984TIP3    H226910   7.284   1.091   3.772
 8985TIP3   OH226911   6.300   3.844   6.700
 8985TIP3    H126912   6.389   3.866   6.675
 8985TIP3    H226913   6.249   3.923   6.681
 8986TIP3   OH226914   6.801   6.133   4.946
 8986TIP3    H126915   6.802   6.055   4.890
 8986TIP3    H226916   6.837   6.202   4.891
 8987TIP3   OH226917   0.312   5.066   2.746
 8987TIP3    H126918   0.265   5.135   2.793
 8987TIP3    H226919   0.248   5.030   2.686
 8988TIP3   OH226920   4.666   4.786   5.796
 8988TIP3    H126921   4.755   4.817   5.779
 8988TIP3    H226922   4.636   4.752   5.712
 8989TIP3   OH226923   0.850   4.637   4.280
 8989TIP3    H126924   0.846   4.672   4.369
 8989TIP3    H226925   0.788   4.691   4.230
 8990TIP3   OH226926   3.160   1.936   2.650
 8990TIP3    H126927   3.167   1.896   2.737
 8990TIP3    H226928   3.091   1.886   2.606
 8991TIP3   OH226929   6.221   5.889   5.707
 8991TIP3    H126930   6.241   5.913   5.616
 8991TIP3    H226931   6.306   5.889   5.751
 8992TIP3   OH226932   5.867   4.428   2.382
 8992TIP3    H126933   5.918   4.447   2.303
 8992TIP3    H226934   5.927   4.379   2.438
 8993TIP3   OH226935   7.025  -0.004   4.356
 8993TIP3    H126936   7.105   0.035   4.391
 8993TIP3    H226937   6.955   0.057   4.380
 8994TIP3   OH226938   6.096   7.313   2.620
 8994TIP3    H126939   6.160   7.333   2.688
 8994TIP3    H226940   6.061   7.227   2.644
 8995TIP3   OH226941   7.567   3.058   2.025
 8995TIP3    H126942   7.638   3.011   2.069
 8995TIP3    H226943   7.602   3.079   1.938
 8996TIP3   OH226944   6.147   4.351   5.734
 8996TIP3    H126945   6.147   4.261   5.767
 8996TIP3    H226946   6.142   4.406   5.813
 8997TIP3   OH226947   6.979   5.775   6.340
 8997TIP3    H126948   6.945   5.861   6.365
 8997TIP3    H226949   6.941   5.715   6.404
 8998TIP3   OH226950   5.120   1.259   1.973
 8998TIP3    H126951   5.166   1.244   2.056
 8998TIP3    H226952   5.032   1.287   2.000
 8999TIP3   OH226953   3.809   1.621   3.855
 8999TIP3    H126954   3.790   1.703   3.902
 8999TIP3    H226955   3.733   1.565   3.873
 9000TIP3   OH226956   4.349   2.483   3.002
 9000TIP3    H126957   4.443   2.497   3.009
 9000TIP3    H226958   4.336   2.393   3.033
 9001TIP3   OH226959   3.615   4.513   2.440
 9001TIP3    H126960   3.593   4.520   2.348
 9001TIP3    H226961   3.590   4.598   2.477
 9002TIP3   OH226962   2.543   5.733   4.208
 9002TIP3    H126963   2.629   5.711   4.172
 9002TIP3    H226964   2.493   5.652   4.201
 9003TIP3   OH226965   1.902   4.464   6.734
 9003TIP3    H126966   1.955   4.475   6.813
 9003TIP3    H226967   1.877   4.371   6.734
 9004TIP3   OH226968   4.431   2.518   4.918
 9004TIP3    H126969   4.345   2.508   4.878
 9004TIP3    H226970   4.430   2.460   4.993
 9005TIP3   OH226971   2.269   6.327   3.950
 9005TIP3    H126972   2.194   6.347   4.005
 9005TIP3    H226973   2.231   6.287   3.872
 9006TIP3   OH226974   6.448   2.639   1.096
 9006TIP3    H126975   6.531   2.635   1.143
 9006TIP3    H226976   6.472   2.660   1.006
 9007TIP3   OH226977   7.520   2.562   4.243
 9007TIP3    H126978   7.588   2.495   4.253
 9007TIP3    H226979   7.547   2.612   4.165
 9008TIP3   OH226980   6.542   7.711   0.092
 9008TIP3    H126981   6.536   7.617   0.109
 9008TIP3    H226982   6.543   7.751   0.179
 9009TIP3   OH226983   0.848   4.078   0.641
 9009TIP3    H126984   0.856   4.017   0.567
 9009TIP3    H226985   0.778   4.041   0.695
 9010TIP3   OH226986   3.841   0.256   3.802
 9010TIP3    H126987   3.769   0.194   3.818
 9010TIP3    H226988   3.875   0.276   3.889
 9011TIP3   OH226989   7.399   5.266   0.060
 9011TIP3    H126990   7.465   5.276   0.129
 9011TIP3    H226991   7.447   5.278  -0.021
 9012TIP3   OH226992   5.772   7.136   5.940
 9012TIP3    H126993   5.766   7.084   6.020
 9012TIP3    H226994   5.843   7.198   5.958
 9013TIP3   OH226995   3.712   4.513   1.961
 9013TIP3    H126996   3.764   4.433   1.964
 9013TIP3    H226997   3.688   4.522   1.868
 9014TIP3   OH226998   6.239   3.890   5.490
 9014TIP3    H126999   6.232   3.796   5.503
 9014TIP3    H227000   6.244   3.927   5.578
 9015TIP3   OH227001   4.696   2.381   5.180
 9015TIP3    H127002   4.775   2.367   5.128
 9015TIP3    H227003   4.683   2.299   5.227
 9016TIP3   OH227004   2.003   4.176   2.655
 9016TIP3    H127005   2.077   4.119   2.677
 9016TIP3    H227006   1.974   4.145   2.569
 9017TIP3   OH227007   4.437   1.415   6.641
 9017TIP3    H127008   4.521   1.398   6.685
 9017TIP3    H227009   4.431   1.510   6.637
 9018TIP3   OH227010   6.501   6.295   2.177
 9018TIP3    H127011   6.527   6.335   2.260
 9018TIP3    H227012   6.534   6.355   2.110
 9019TIP3   OH227013   5.371   1.975   3.116
 9019TIP3    H127014   5.390   2.068   3.108
 9019TIP3    H227015   5.454   1.932   3.097
 9020TIP3   OH227016   7.475   3.349   0.588
 9020TIP3    H127017   7.521   3.414   0.642
 9020TIP3    H227018   7.421   3.401   0.529
 9021TIP3   OH227019   7.165   2.844   4.608
 9021TIP3    H127020   7.183   2.937   4.624
 9021TIP3    H227021   7.130   2.812   4.691
 9022TIP3   OH227022   4.854   5.929   4.839
 9022TIP3    H127023   4.946   5.932   4.865
 9022TIP3    H227024   4.840   5.838   4.813
 9023TIP3   OH227025   4.323   2.700   6.166
 9023TIP3    H127026   4.237   2.687   6.207
 9023TIP3    H227027   4.319   2.646   6.086
 9024TIP3   OH227028   3.348   3.671   4.334
 9024TIP3    H127029   3.337   3.737   4.265
 9024TIP3    H227030   3.379   3.593   4.288
 9025TIP3   OH227031   5.107   7.434   3.063
 9025TIP3    H127032   5.193   7.412   3.029
 9025TIP3    H227033   5.064   7.350   3.078
 9026TIP3   OH227034   6.819   0.111   2.873
 9026TIP3    H127035   6.881   0.090   2.942
 9026TIP3    H227036   6.821   0.207   2.866
 9027TIP3   OH227037   6.970   5.094   2.527
 9027TIP3    H127038   7.000   5.008   2.498
 9027TIP3    H227039   7.008   5.155   2.464
 9028TIP3   OH227040   6.239   1.467   2.725
 9028TIP3    H127041   6.327   1.503   2.732
 9028TIP3    H227042   6.248   1.390   2.669
 9029TIP3   OH227043   4.309   4.998   3.197
 9029TIP3    H127044   4.357   5.003   3.114
 9029TIP3    H227045   4.335   4.914   3.235
 9030TIP3   OH227046   2.471   0.549   0.775
 9030TIP3    H127047   2.418   0.539   0.696
 9030TIP3    H227048   2.414   0.597   0.836
 9031TIP3   OH227049   7.285   3.799   2.986
 9031TIP3    H127050   7.277   3.892   3.008
 9031TIP3    H227051   7.259   3.794   2.894
 9032TIP3   OH227052   7.719   2.532   6.376
 9032TIP3    H127053   7.745   2.480   6.300
 9032TIP3    H227054   7.800   2.541   6.427
 9033TIP3   OH227055   3.940   5.054   6.584
 9033TIP3    H127056   3.951   4.974   6.533
 9033TIP3    H227057   4.029   5.080   6.607
 9034TIP3   OH227058   0.809   7.578   6.336
 9034TIP3    H127059   0.758   7.511   6.383
 9034TIP3    H227060   0.800   7.657   6.389
 9035TIP3   OH227061   2.803   3.061   6.370
 9035TIP3    H127062   2.730   3.090   6.424
 9035TIP3    H227063   2.871   3.037   6.432
 9036TIP3   OH227064   0.312   3.951   1.988
 9036TIP3    H127065   0.345   4.009   2.056
 9036TIP3    H227066   0.228   3.920   2.021
 9037TIP3   OH227067   5.072   5.708   0.693
 9037TIP3    H127068   4.981   5.737   0.691
 9037TIP3    H227069   5.100   5.726   0.783
 9038TIP3   OH227070   8.169   1.946   2.174
 9038TIP3    H127071   8.100   1.899   2.127
 9038TIP3    H227072   8.234   1.880   2.194
 9039TIP3   OH227073   6.128   7.017   1.587
 9039TIP3    H127074   6.068   6.943   1.579
 9039TIP3    H227075   6.215   6.980   1.575
 9040TIP3   OH227076   1.087   5.295   4.504
 9040TIP3    H127077   1.002   5.284   4.546
 9040TIP3    H227078   1.131   5.211   4.518
 9041TIP3   OH227079   1.315   2.648   4.472
 9041TIP3    H127080   1.309   2.655   4.568
 9041TIP3    H227081   1.338   2.556   4.456
 9042TIP3   OH227082   3.321   2.969   1.690
 9042TIP3    H127083   3.232   2.953   1.722
 9042TIP3    H227084   3.354   2.882   1.669
 9043TIP3   OH227085   2.570   1.222   5.564
 9043TIP3    H127086   2.489   1.260   5.527
 9043TIP3    H227087   2.637   1.287   5.544
 9044TIP3   OH227088   5.086   6.352   3.211
 9044TIP3    H127089   5.101   6.391   3.125
 9044TIP3    H227090   5.012   6.293   3.198
 9045TIP3   OH227091   7.141   0.935   6.311
 9045TIP3    H127092   7.051   0.912   6.335
 9045TIP3    H227093   7.164   1.007   6.369
 9046TIP3   OH227094   4.976   0.550   4.461
 9046TIP3    H127095   4.904   0.573   4.520
 9046TIP3    H227096   4.934   0.533   4.377
 9047TIP3   OH227097   6.664   1.730   4.297
 9047TIP3    H127098   6.650   1.810   4.246
 9047TIP3    H227099   6.752   1.700   4.271
 9048TIP3   OH227100   0.689   5.954   5.279
 9048TIP3    H127101   0.599   5.981   5.299
 9048TIP3    H227102   0.740   5.984   5.355
 9049TIP3   OH227103   0.146   3.469   5.795
 9049TIP3    H127104   0.105   3.385   5.817
 9049TIP3    H227105   0.077   3.533   5.806
 9050TIP3   OH227106   3.050   1.149   6.460
 9050TIP3    H127107   3.039   1.203   6.538
 9050TIP3    H227108   2.966   1.102   6.451
 9051TIP3   OH227109   1.185   5.612   1.961
 9051TIP3    H127110   1.205   5.598   1.869
 9051TIP3    H227111   1.218   5.700   1.979
 9052TIP3   OH227112   4.438   7.597   3.521
 9052TIP3    H127113   4.435   7.577   3.615
 9052TIP3    H227114   4.485   7.681   3.517
 9053TIP3   OH227115   4.139   4.350   0.542
 9053TIP3    H127116   4.055   4.395   0.535
 9053TIP3    H227117   4.193   4.390   0.473
 9054TIP3   OH227118   6.312   0.537   0.591
 9054TIP3    H127119   6.324   0.443   0.595
 9054TIP3    H227120   6.269   0.560   0.674
 9055TIP3   OH227121   2.134   4.274   4.330
 9055TIP3    H127122   2.142   4.183   4.303
 9055TIP3    H227123   2.040   4.292   4.328
 9056TIP3   OH227124   1.363   4.280   5.364
 9056TIP3    H127125   1.309   4.209   5.396
 9056TIP3    H227126   1.411   4.311   5.440
 9057TIP3   OH227127   8.173   5.221   1.087
 9057TIP3    H127128   8.232   5.240   1.013
 9057TIP3    H227129   8.089   5.258   1.060
 9058TIP3   OH227130   7.835   4.514   2.218
 9058TIP3    H127131   7.914   4.521   2.271
 9058TIP3    H227132   7.811   4.604   2.197
 9059TIP3   OH227133   2.474   3.930   0.089
 9059TIP3    H127134   2.546   3.965   0.036
 9059TIP3    H227135   2.517   3.894   0.167
 9060TIP3   OH227136   6.307   2.243   4.749
 9060TIP3    H127137   6.356   2.168   4.716
 9060TIP3    H227138   6.238   2.257   4.684
 9061TIP3   OH227139   5.854   1.211   6.730
 9061TIP3    H127140   5.925   1.198   6.792
 9061TIP3    H227141   5.856   1.132   6.675
 9062TIP3   OH227142   6.891   3.279   5.016
 9062TIP3    H127143   6.833   3.346   5.052
 9062TIP3    H227144   6.832   3.207   4.990
 9063TIP3   OH227145   5.102   3.101   0.428
 9063TIP3    H127146   5.073   3.172   0.371
 9063TIP3    H227147   5.132   3.032   0.367
 9064TIP3   OH227148   2.004   4.734   0.600
 9064TIP3    H127149   2.086   4.769   0.566
 9064TIP3    H227150   2.009   4.640   0.580
 9065TIP3   OH227151   3.050   3.995   4.176
 9065TIP3    H127152   2.992   4.055   4.223
 9065TIP3    H227153   3.129   4.046   4.158
 9066TIP3   OH227154   4.757   3.242   5.266
 9066TIP3    H127155   4.816   3.214   5.336
 9066TIP3    H227156   4.738   3.334   5.286
 9067TIP3   OH227157   3.706   4.249   3.993
 9067TIP3    H127158   3.795   4.225   3.968
 9067TIP3    H227159   3.652   4.223   3.919
 9068TIP3   OH227160   6.218   3.541   4.369
 9068TIP3    H127161   6.125   3.536   4.391
 9068TIP3    H227162   6.247   3.624   4.406
 9069TIP3   OH227163   0.055   1.876   2.689
 9069TIP3    H127164   0.021   1.913   2.771
 9069TIP3    H227165   0.103   1.798   2.717
 9070TIP3   OH227166   6.489   3.372   5.924
 9070TIP3    H127167   6.441   3.308   5.976
 9070TIP3    H227168   6.571   3.328   5.900
 9071TIP3   OH227169   3.903   7.524   1.773
 9071TIP3    H127170   3.898   7.559   1.862
 9071TIP3    H227171   3.846   7.448   1.773
 9072TIP3   OH227172   5.973   3.437   2.283
 9072TIP3    H127173   5.991   3.376   2.354
 9072TIP3    H227174   5.878   3.435   2.273
 9073TIP3   OH227175   4.806   2.417   0.425
 9073TIP3    H127176   4.798   2.448   0.335
 9073TIP3    H227177   4.823   2.496   0.476
 9074TIP3   OH227178   8.085   7.788   1.673
 9074TIP3    H127179   8.105   7.816   1.583
 9074TIP3    H227180   8.146   7.716   1.689
 9075TIP3   OH227181   3.713   1.554   4.316
 9075TIP3    H127182   3.723   1.475   4.370
 9075TIP3    H227183   3.802   1.576   4.288
 9076TIP3   OH227184   1.373   6.514   3.362
 9076TIP3    H127185   1.451   6.563   3.336
 9076TIP3    H227186   1.308   6.536   3.294
 9077TIP3   OH227187   1.296   3.984   1.244
 9077TIP3    H127188   1.276   3.976   1.150
 9077TIP3    H227189   1.261   3.903   1.283
 9078TIP3   OH227190   6.017   5.326   2.038
 9078TIP3    H127191   6.090   5.320   1.976
 9078TIP3    H227192   5.969   5.244   2.026
 9079TIP3   OH227193   3.336   3.328   6.040
 9079TIP3    H127194   3.294   3.248   6.009
 9079TIP3    H227195   3.301   3.397   5.985
 9080TIP3   OH227196   7.440   6.579   5.916
 9080TIP3    H127197   7.466   6.537   5.998
 9080TIP3    H227198   7.507   6.645   5.900
 9081TIP3   OH227199   2.238   1.251   4.008
 9081TIP3    H127200   2.211   1.284   4.094
 9081TIP3    H227201   2.157   1.246   3.957
 9082TIP3   OH227202   2.814   2.860   2.769
 9082TIP3    H127203   2.815   2.836   2.862
 9082TIP3    H227204   2.788   2.952   2.768
 9083TIP3   OH227205  -0.019   6.882   1.372
 9083TIP3    H127206   0.003   6.939   1.446
 9083TIP3    H227207  -0.016   6.939   1.296
 9084TIP3   OH227208   7.348   6.568   3.027
 9084TIP3    H127209   7.369   6.559   3.120
 9084TIP3    H227210   7.369   6.483   2.989
 9085TIP3   OH227211   3.675   7.588   5.299
 9085TIP3    H127212   3.634   7.537   5.370
 9085TIP3    H227213   3.626   7.670   5.298
 9086TIP3   OH227214   0.925   7.049   5.025
 9086TIP3    H127215   0.909   6.982   5.091
 9086TIP3    H227216   1.013   7.081   5.045
 9087TIP3   OH227217   8.184   7.432   5.694
 9087TIP3    H127218   8.205   7.346   5.730
 9087TIP3    H227219   8.209   7.427   5.602
 9088TIP3   OH227220   5.067   5.809   6.261
 9088TIP3    H127221   5.016   5.856   6.195
 9088TIP3    H227222   5.141   5.773   6.213
 9089TIP3   OH227223   7.319   2.340   0.061
 9089TIP3    H127224   7.292   2.353   0.152
 9089TIP3    H227225   7.383   2.269   0.064
 9090TIP3   OH227226   6.015   2.959   4.166
 9090TIP3    H127227   6.072   3.028   4.132
 9090TIP3    H227228   5.940   2.959   4.106
 9091TIP3   OH227229   6.977   2.530   0.067
 9091TIP3    H127230   6.959   2.623   0.049
 9091TIP3    H227231   6.942   2.484  -0.009
 9092TIP3   OH227232   0.975   4.013   6.161
 9092TIP3    H127233   0.944   4.090   6.114
 9092TIP3    H227234   0.908   3.998   6.228
 9093TIP3   OH227235   4.898   0.410   5.361
 9093TIP3    H127236   4.866   0.500   5.358
 9093TIP3    H227237   4.914   0.386   5.270
 9094TIP3   OH227238   0.478   4.496   2.894
 9094TIP3    H127239   0.478   4.410   2.852
 9094TIP3    H227240   0.534   4.485   2.971
 9095TIP3   OH227241   6.267   2.148   6.588
 9095TIP3    H127242   6.345   2.141   6.533
 9095TIP3    H227243   6.293   2.208   6.658
 9096TIP3   OH227244   3.467   1.891   0.411
 9096TIP3    H127245   3.552   1.852   0.391
 9096TIP3    H227246   3.419   1.822   0.456
 9097TIP3   OH227247   6.798   5.103   2.047
 9097TIP3    H127248   6.794   5.091   1.952
 9097TIP3    H227249   6.707   5.119   2.073
 9098TIP3   OH227250   2.260   7.811   4.776
 9098TIP3    H127251   2.224   7.724   4.758
 9098TIP3    H227252   2.355   7.800   4.764
 9099TIP3   OH227253   3.416   3.563   0.981
 9099TIP3    H127254   3.328   3.602   0.983
 9099TIP3    H227255   3.453   3.582   1.067
 9100TIP3   OH227256   2.389   0.307   4.354
 9100TIP3    H127257   2.390   0.305   4.258
 9100TIP3    H227258   2.296   0.313   4.376
 9101TIP3   OH227259   2.607   7.363   3.385
 9101TIP3    H127260   2.683   7.393   3.335
 9101TIP3    H227261   2.543   7.338   3.318
 9102TIP3   OH227262   7.789   4.583   5.391
 9102TIP3    H127263   7.700   4.562   5.360
 9102TIP3    H227264   7.805   4.522   5.462
 9103TIP3   OH227265   0.947   1.003   6.306
 9103TIP3    H127266   0.997   0.941   6.360
 9103TIP3    H227267   0.856   0.974   6.315
 9104TIP3   OH227268   6.984   2.752   1.938
 9104TIP3    H127269   6.946   2.822   1.991
 9104TIP3    H227270   7.075   2.780   1.924
 9105TIP3   OH227271   7.244   6.507   0.284
 9105TIP3    H127272   7.304   6.467   0.347
 9105TIP3    H227273   7.253   6.453   0.205
 9106TIP3   OH227274   4.187   5.396   4.214
 9106TIP3    H127275   4.267   5.410   4.162
 9106TIP3    H227276   4.117   5.389   4.149
 9107TIP3   OH227277   5.470   2.128   3.386
 9107TIP3    H127278   5.550   2.153   3.433
 9107TIP3    H227279   5.488   2.039   3.354
 9108TIP3   OH227280   2.273   4.320   6.234
 9108TIP3    H127281   2.314   4.404   6.215
 9108TIP3    H227282   2.294   4.303   6.326
 9109TIP3   OH227283   4.085   3.533   5.943
 9109TIP3    H127284   4.081   3.612   5.890
 9109TIP3    H227285   4.158   3.547   6.003
 9110TIP3   OH227286   7.569   2.987   2.801
 9110TIP3    H127287   7.660   3.011   2.820
 9110TIP3    H227288   7.521   3.015   2.879
 9111TIP3   OH227289   1.740   1.396   1.159
 9111TIP3    H127290   1.712   1.358   1.075
 9111TIP3    H227291   1.813   1.453   1.136
 9112TIP3   OH227292   8.077   0.056   6.473
 9112TIP3    H127293   8.139   0.013   6.413
 9112TIP3    H227294   8.019  -0.015   6.502
 9113TIP3   OH227295   6.581   3.807   3.591
 9113TIP3    H127296   6.563   3.826   3.684
 9113TIP3    H227297   6.518   3.738   3.569
 9114TIP3   OH227298   0.282   1.303   1.473
 9114TIP3    H127299   0.238   1.218   1.469
 9114TIP3    H227300   0.220   1.364   1.435
 9115TIP3   OH227301   1.980   3.822   0.787
 9115TIP3    H127302   1.950   3.853   0.702
 9115TIP3    H227303   2.054   3.879   0.808
 9116TIP3   OH227304   5.904   6.372   6.435
 9116TIP3    H127305   5.939   6.284   6.455
 9116TIP3    H227306   5.894   6.413   6.521
 9117TIP3   OH227307   4.776   0.754   5.590
 9117TIP3    H127308   4.817   0.703   5.520
 9117TIP3    H227309   4.785   0.845   5.562
 9118TIP3   OH227310   3.498   6.854   1.775
 9118TIP3    H127311   3.519   6.870   1.867
 9118TIP3    H227312   3.402   6.860   1.772
 9119TIP3   OH227313   0.636   6.598   1.798
 9119TIP3    H127314   0.704   6.615   1.863
 9119TIP3    H227315   0.554   6.616   1.843
 9120TIP3   OH227316   0.342   4.802   6.715
 9120TIP3    H127317   0.366   4.891   6.690
 9120TIP3    H227318   0.421   4.750   6.700
 9121TIP3   OH227319   5.204   1.775   3.176
 9121TIP3    H127320   5.158   1.783   3.093
 9121TIP3    H227321   5.279   1.834   3.168
 9122TIP3   OH227322   2.479   7.215   0.349
 9122TIP3    H127323   2.537   7.165   0.291
 9122TIP3    H227324   2.521   7.210   0.435
 9123TIP3   OH227325   5.043   1.635   5.402
 9123TIP3    H127326   5.105   1.577   5.446
 9123TIP3    H227327   5.082   1.650   5.316
 9124TIP3   OH227328   2.966   6.840   2.722
 9124TIP3    H127329   3.026   6.911   2.696
 9124TIP3    H227330   2.901   6.883   2.778
 9125TIP3   OH227331   4.925   4.693   3.018
 9125TIP3    H127332   4.928   4.726   2.929
 9125TIP3    H227333   4.853   4.741   3.060
 9126TIP3   OH227334   5.039   5.282   3.766
 9126TIP3    H127335   5.080   5.197   3.752
 9126TIP3    H227336   5.035   5.322   3.679
 9127TIP3   OH227337   3.363   2.212   4.068
 9127TIP3    H127338   3.431   2.255   4.017
 9127TIP3    H227339   3.366   2.120   4.040
 9128TIP3   OH227340   7.296   5.968   3.055
 9128TIP3    H127341   7.248   5.912   3.116
 9128TIP3    H227342   7.382   5.978   3.096
 9129TIP3   OH227343   2.766   3.882   3.127
 9129TIP3    H127344   2.841   3.823   3.135
 9129TIP3    H227345   2.705   3.836   3.070
 9130TIP3   OH227346   2.816   4.165   5.601
 9130TIP3    H127347   2.902   4.124   5.598
 9130TIP3    H227348   2.812   4.207   5.687
 9131TIP3   OH227349   0.389   2.064   5.454
 9131TIP3    H127350   0.383   2.029   5.543
 9131TIP3    H227351   0.308   2.112   5.441
 9132TIP3   OH227352   5.426   4.547   3.299
 9132TIP3    H127353   5.502   4.606   3.304
 9132TIP3    H227354   5.392   4.560   3.210
 9133TIP3   OH227355   6.303   5.969   2.790
 9133TIP3    H127356   6.269   5.881   2.804
 9133TIP3    H227357   6.303   5.981   2.694
 9134TIP3   OH227358   2.993   3.095   5.858
 9134TIP3    H127359   2.988   3.006   5.823
 9134TIP3    H227360   2.954   3.149   5.790
 9135TIP3   OH227361   6.220   7.289   3.499
 9135TIP3    H127362   6.220   7.198   3.528
 9135TIP3    H227363   6.183   7.286   3.411
 9136TIP3   OH227364   1.998   1.754   3.488
 9136TIP3    H127365   1.968   1.725   3.574
 9136TIP3    H227366   1.988   1.677   3.432
 9137TIP3   OH227367   0.744   5.773   2.539
 9137TIP3    H127368   0.812   5.832   2.572
 9137TIP3    H227369   0.749   5.780   2.444
 9138TIP3   OH227370   1.794   1.605   2.428
 9138TIP3    H127371   1.791   1.687   2.379
 9138TIP3    H227372   1.834   1.543   2.366
 9139TIP3   OH227373   3.760   7.737   4.243
 9139TIP3    H127374   3.746   7.717   4.336
 9139TIP3    H227375   3.683   7.700   4.199
 9140TIP3   OH227376   2.221   2.268   6.040
 9140TIP3    H127377   2.154   2.291   5.976
 9140TIP3    H227378   2.225   2.172   6.037
 9141TIP3   OH227379   6.689   7.128   1.852
 9141TIP3    H127380   6.703   7.107   1.944
 9141TIP3    H227381   6.668   7.044   1.811
 9142TIP3   OH227382   0.949   7.018   4.550
 9142TIP3    H127383   0.975   6.933   4.515
 9142TIP3    H227384   0.895   6.998   4.626
 9143TIP3   OH227385   6.706   4.668   5.078
 9143TIP3    H127386   6.683   4.645   5.168
 9143TIP3    H227387   6.676   4.758   5.068
 9144TIP3   OH227388   2.874   1.914   2.567
 9144TIP3    H127389   2.845   1.915   2.476
 9144TIP3    H227390   2.873   2.006   2.593
 9145TIP3   OH227391   1.203   6.134   5.289
 9145TIP3    H127392   1.113   6.153   5.261
 9145TIP3    H227393   1.258   6.174   5.222
 9146TIP3   OH227394   7.149   4.430   3.140
 9146TIP3    H127395   7.184   4.377   3.212
 9146TIP3    H227396   7.198   4.401   3.063
 9147TIP3   OH227397   6.573   5.071   6.425
 9147TIP3    H127398   6.652   5.089   6.375
 9147TIP3    H227399   6.600   5.011   6.494
 9148TIP3   OH227400   4.604   3.365   3.500
 9148TIP3    H127401   4.530   3.324   3.545
 9148TIP3    H227402   4.649   3.414   3.568
 9149TIP3   OH227403   7.472   0.711   4.831
 9149TIP3    H127404   7.509   0.692   4.918
 9149TIP3    H227405   7.470   0.626   4.788
 9150TIP3   OH227406   1.574   7.518   4.895
 9150TIP3    H127407   1.494   7.467   4.904
 9150TIP3    H227408   1.552   7.604   4.933
 9151TIP3   OH227409   5.123   2.670   0.978
 9151TIP3    H127410   5.180   2.706   0.910
 9151TIP3    H227411   5.123   2.575   0.961
 9152TIP3   OH227412   5.558   6.982   2.121
 9152TIP3    H127413   5.618   7.041   2.076
 9152TIP3    H227414   5.570   6.898   2.077
 9153TIP3   OH227415   3.633   1.364   2.039
 9153TIP3    H127416   3.633   1.459   2.045
 9153TIP3    H227417   3.692   1.345   1.966
 9154TIP3   OH227418   3.030   4.392   3.210
 9154TIP3    H127419   3.083   4.318   3.179
 9154TIP3    H227420   3.054   4.401   3.302
 9155TIP3   OH227421   8.118   0.548   4.828
 9155TIP3    H127422   8.154   0.636   4.812
 9155TIP3    H227423   8.057   0.561   4.901
 9156TIP3   OH227424   1.983   5.464   3.002
 9156TIP3    H127425   2.076   5.471   2.980
 9156TIP3    H227426   1.981   5.452   3.097
 9157TIP3   OH227427   6.470   4.204   3.822
 9157TIP3    H127428   6.465   4.183   3.729
 9157TIP3    H227429   6.400   4.268   3.836
 9158TIP3   OH227430   2.616   0.692   3.563
 9158TIP3    H127431   2.632   0.601   3.539
 9158TIP3    H227432   2.522   0.704   3.552
 9159TIP3   OH227433   7.394   3.503   2.718
 9159TIP3    H127434   7.325   3.568   2.711
 9159TIP3    H227435   7.380   3.461   2.803
 9160TIP3   OH227436   6.970   3.008   4.330
 9160TIP3    H127437   6.925   3.055   4.261
 9160TIP3    H227438   7.035   2.955   4.285
 9161TIP3   OH227439   0.319   0.488   5.195
 9161TIP3    H127440   0.392   0.428   5.207
 9161TIP3    H227441   0.241   0.438   5.221
 9162TIP3   OH227442   7.685   3.766   3.772
 9162TIP3    H127443   7.768   3.778   3.817
 9162TIP3    H227444   7.689   3.825   3.697
 9163TIP3   OH227445   0.089   4.113   1.924
 9163TIP3    H127446   0.107   4.159   2.006
 9163TIP3    H227447   0.171   4.118   1.875
 9164TIP3   OH227448   4.630   2.258   0.103
 9164TIP3    H127449   4.537   2.265   0.078
 9164TIP3    H227450   4.666   2.345   0.086
 9165TIP3   OH227451   1.097   5.303   1.928
 9165TIP3    H127452   1.098   5.266   2.016
 9165TIP3    H227453   1.127   5.393   1.940
 9166TIP3   OH227454   6.270   2.183   5.341
 9166TIP3    H127455   6.226   2.098   5.344
 9166TIP3    H227456   6.238   2.229   5.419
 9167TIP3   OH227457   7.639   3.339   6.495
 9167TIP3    H127458   7.559   3.384   6.470
 9167TIP3    H227459   7.709   3.401   6.476
 9168TIP3   OH227460   7.621   3.478   0.958
 9168TIP3    H127461   7.641   3.503   0.868
 9168TIP3    H227462   7.702   3.497   1.006
 9169TIP3   OH227463   7.088   7.215   1.982
 9169TIP3    H127464   7.119   7.268   2.055
 9169TIP3    H227465   7.037   7.145   2.023
 9170TIP3   OH227466   0.176   5.648   2.825
 9170TIP3    H127467   0.147   5.557   2.820
 9170TIP3    H227468   0.171   5.670   2.918
 9171TIP3   OH227469   6.653   3.664   6.392
 9171TIP3    H127470   6.619   3.593   6.337
 9171TIP3    H227471   6.739   3.684   6.356
 9172TIP3   OH227472   1.539   5.118   4.562
 9172TIP3    H127473   1.599   5.121   4.487
 9172TIP3    H227474   1.580   5.056   4.623
 9173TIP3   OH227475   1.844   1.730   0.573
 9173TIP3    H127476   1.791   1.784   0.631
 9173TIP3    H227477   1.888   1.792   0.515
 9174TIP3   OH227478   5.914   6.408   6.740
 9174TIP3    H127479   5.997   6.456   6.733
 9174TIP3    H227480   5.940   6.321   6.772
 9175TIP3   OH227481   1.750   5.627   0.344
 9175TIP3    H127482   1.716   5.688   0.279
 9175TIP3    H227483   1.717   5.660   0.428
 9176TIP3   OH227484   7.532   3.664   3.068
 9176TIP3    H127485   7.467   3.724   3.032
 9176TIP3    H227486   7.506   3.653   3.160
 9177TIP3   OH227487   1.592   6.694   1.266
 9177TIP3    H127488   1.655   6.759   1.236
 9177TIP3    H227489   1.593   6.626   1.199
 9178TIP3   OH227490   4.713   0.115   1.692
 9178TIP3    H127491   4.671   0.136   1.609
 9178TIP3    H227492   4.752   0.197   1.721
 9179TIP3   OH227493   2.778   0.858   2.935
 9179TIP3    H127494   2.739   0.777   2.968
 9179TIP3    H227495   2.784   0.915   3.011
 9180TIP3   OH227496   4.029   5.884   5.400
 9180TIP3    H127497   3.938   5.889   5.429
 9180TIP3    H227498   4.078   5.936   5.463
 9181TIP3   OH227499   4.891   5.424   6.647
 9181TIP3    H127500   4.816   5.428   6.588
 9181TIP3    H227501   4.886   5.505   6.698
 9182TIP3   OH227502   5.282   6.586   5.725
 9182TIP3    H127503   5.321   6.618   5.643
 9182TIP3    H227504   5.315   6.496   5.733
 9183TIP3   OH227505   0.021   7.186   2.392
 9183TIP3    H127506  -0.021   7.182   2.478
 9183TIP3    H227507   0.071   7.105   2.386
 9184TIP3   OH227508   6.901   0.009   5.931
 9184TIP3    H127509   6.879   0.080   5.869
 9184TIP3    H227510   6.874   0.043   6.016
 9185TIP3   OH227511   2.000   6.086   5.555
 9185TIP3    H127512   2.027   6.021   5.619
 9185TIP3    H227513   2.056   6.161   5.572
 9186TIP3   OH227514   2.236   6.847   4.419
 9186TIP3    H127515   2.299   6.870   4.487
 9186TIP3    H227516   2.247   6.753   4.406
 9187TIP3   OH227517   1.295   0.189   2.420
 9187TIP3    H127518   1.340   0.110   2.450
 9187TIP3    H227519   1.307   0.188   2.325
 9188TIP3   OH227520   6.166   2.024   0.318
 9188TIP3    H127521   6.152   1.930   0.303
 9188TIP3    H227522   6.185   2.060   0.231
 9189TIP3   OH227523   3.028   0.146   3.460
 9189TIP3    H127524   3.040   0.158   3.366
 9189TIP3    H227525   3.109   0.179   3.499
 9190TIP3   OH227526   2.996   2.068   2.898
 9190TIP3    H127527   3.088   2.065   2.923
 9190TIP3    H227528   2.997   2.084   2.804
 9191TIP3   OH227529   7.582   2.440   3.932
 9191TIP3    H127530   7.557   2.532   3.940
 9191TIP3    H227531   7.500   2.394   3.911
 9192TIP3   OH227532   1.418   0.654   0.190
 9192TIP3    H127533   1.431   0.722   0.256
 9192TIP3    H227534   1.370   0.698   0.120
 9193TIP3   OH227535   4.131   6.698   3.438
 9193TIP3    H127536   4.042   6.729   3.425
 9193TIP3    H227537   4.122   6.606   3.462
 9194TIP3   OH227538   4.984   6.457   2.606
 9194TIP3    H127539   5.073   6.474   2.635
 9194TIP3    H227540   4.929   6.480   2.681
 9195TIP3   OH227541   7.139   7.382   4.222
 9195TIP3    H127542   7.078   7.334   4.165
 9195TIP3    H227543   7.086   7.450   4.262
 9196TIP3   OH227544   0.513   6.036   3.419
 9196TIP3    H127545   0.427   6.077   3.430
 9196TIP3    H227546   0.499   5.945   3.444
 9197TIP3   OH227547   3.074   5.416   6.466
 9197TIP3    H127548   3.123   5.428   6.547
 9197TIP3    H227549   3.063   5.321   6.459
 9198TIP3   OH227550   5.695   5.653   0.450
 9198TIP3    H127551   5.749   5.731   0.441
 9198TIP3    H227552   5.750   5.590   0.497
 9199TIP3   OH227553   5.206   3.760   4.381
 9199TIP3    H127554   5.150   3.769   4.304
 9199TIP3    H227555   5.277   3.704   4.352
 9200TIP3   OH227556   3.417   4.313   0.601
 9200TIP3    H127557   3.428   4.267   0.517
 9200TIP3    H227558   3.323   4.328   0.607
 9201TIP3   OH227559   5.345   2.038   5.071
 9201TIP3    H127560   5.424   2.091   5.076
 9201TIP3    H227561   5.334   2.002   5.159
 9202TIP3   OH227562   7.138   7.122   0.905
 9202TIP3    H127563   7.186   7.048   0.943
 9202TIP3    H227564   7.089   7.159   0.978
 9203TIP3   OH227565   5.280   1.134   3.114
 9203TIP3    H127566   5.330   1.166   3.188
 9203TIP3    H227567   5.285   1.039   3.120
 9204TIP3   OH227568   7.439   5.931   5.047
 9204TIP3    H127569   7.479   5.866   5.104
 9204TIP3    H227570   7.368   5.968   5.100
 9205TIP3   OH227571   7.191   3.265   3.630
 9205TIP3    H127572   7.112   3.274   3.577
 9205TIP3    H227573   7.260   3.248   3.567
 9206TIP3   OH227574   7.319   5.031   0.332
 9206TIP3    H127575   7.303   5.025   0.426
 9206TIP3    H227576   7.398   4.978   0.318
 9207TIP3   OH227577   1.184   3.875   5.979
 9207TIP3    H127578   1.267   3.911   5.947
 9207TIP3    H227579   1.137   3.951   6.012
 9208TIP3   OH227580   4.694   2.970   0.861
 9208TIP3    H127581   4.735   2.890   0.827
 9208TIP3    H227582   4.672   2.949   0.952
 9209TIP3   OH227583   6.033   6.893   5.581
 9209TIP3    H127584   6.082   6.975   5.585
 9209TIP3    H227585   6.029   6.863   5.672
 9210TIP3   OH227586   0.413   4.552   5.812
 9210TIP3    H127587   0.494   4.575   5.856
 9210TIP3    H227588   0.422   4.590   5.724
 9211TIP3   OH227589   0.555   5.689   1.897
 9211TIP3    H127590   0.614   5.702   1.822
 9211TIP3    H227591   0.564   5.769   1.949
 9212TIP3   OH227592   7.666   0.525   2.410
 9212TIP3    H127593   7.693   0.557   2.496
 9212TIP3    H227594   7.676   0.600   2.352
 9213TIP3   OH227595   5.751   3.580   1.824
 9213TIP3    H127596   5.807   3.616   1.756
 9213TIP3    H227597   5.693   3.520   1.778
 9214TIP3   OH227598   3.767   7.428   0.835
 9214TIP3    H127599   3.780   7.338   0.806
 9214TIP3    H227600   3.851   7.471   0.817
 9215TIP3   OH227601   3.850   1.361   3.026
 9215TIP3    H127602   3.802   1.279   3.014
 9215TIP3    H227603   3.941   1.337   3.010
 9216TIP3   OH227604   4.610   5.028   2.549
 9216TIP3    H127605   4.589   5.121   2.545
 9216TIP3    H227606   4.535   4.984   2.508
 9217TIP3   OH227607   0.000   1.128   5.084
 9217TIP3    H127608   0.018   1.221   5.070
 9217TIP3    H227609   0.053   1.083   5.018
 9218TIP3   OH227610   0.842   6.415   6.047
 9218TIP3    H127611   0.815   6.329   6.016
 9218TIP3    H227612   0.922   6.434   5.998
 9219TIP3   OH227613   7.132   6.404   4.067
 9219TIP3    H127614   7.197   6.472   4.082
 9219TIP3    H227615   7.171   6.325   4.104
 9220TIP3   OH227616   3.131   1.676   6.420
 9220TIP3    H127617   3.144   1.695   6.512
 9220TIP3    H227618   3.047   1.630   6.416
 9221TIP3   OH227619   2.824   0.566   2.732
 9221TIP3    H127620   2.742   0.611   2.710
 9221TIP3    H227621   2.850   0.603   2.816
 9222TIP3   OH227622   5.153   1.272   4.113
 9222TIP3    H127623   5.058   1.285   4.109
 9222TIP3    H227624   5.190   1.354   4.082
 9223TIP3   OH227625   7.036   6.768   4.893
 9223TIP3    H127626   6.998   6.834   4.950
 9223TIP3    H227627   7.129   6.789   4.889
 9224TIP3   OH227628   4.550   3.677   4.733
 9224TIP3    H127629   4.637   3.647   4.707
 9224TIP3    H227630   4.540   3.646   4.823
 9225TIP3   OH227631   6.320   1.227   2.611
 9225TIP3    H127632   6.379   1.169   2.658
 9225TIP3    H227633   6.378   1.285   2.562
 9226TIP3   OH227634   2.083   2.149   1.723
 9226TIP3    H127635   2.001   2.109   1.753
 9226TIP3    H227636   2.059   2.191   1.640
 9227TIP3   OH227637   4.536   2.702   1.631
 9227TIP3    H127638   4.553   2.629   1.691
 9227TIP3    H227639   4.533   2.779   1.687
 9228TIP3   OH227640   0.811   3.443   4.448
 9228TIP3    H127641   0.725   3.401   4.440
 9228TIP3    H227642   0.867   3.394   4.387
 9229TIP3   OH227643   0.695   4.732   1.079
 9229TIP3    H127644   0.756   4.680   1.132
 9229TIP3    H227645   0.609   4.713   1.116
 9230TIP3   OH227646   1.824   5.100   4.066
 9230TIP3    H127647   1.832   5.006   4.048
 9230TIP3    H227648   1.840   5.142   3.982
 9231TIP3   OH227649   7.539   6.309   0.696
 9231TIP3    H127650   7.499   6.263   0.771
 9231TIP3    H227651   7.621   6.343   0.731
 9232TIP3   OH227652   3.093   2.554   6.479
 9232TIP3    H127653   3.049   2.612   6.541
 9232TIP3    H227654   3.028   2.488   6.457
 9233TIP3   OH227655   2.283   3.272   1.890
 9233TIP3    H127656   2.227   3.194   1.894
 9233TIP3    H227657   2.287   3.303   1.980
 9234TIP3   OH227658   1.675   7.097   5.065
 9234TIP3    H127659   1.689   7.179   5.019
 9234TIP3    H227660   1.671   7.031   4.996
 9235TIP3   OH227661   5.876   1.709   3.937
 9235TIP3    H127662   5.794   1.741   3.976
 9235TIP3    H227663   5.933   1.691   4.012
 9236TIP3   OH227664   2.597   6.840   2.454
 9236TIP3    H127665   2.673   6.790   2.484
 9236TIP3    H227666   2.537   6.839   2.529
 9237TIP3   OH227667   4.673   4.652   2.108
 9237TIP3    H127668   4.696   4.617   2.194
 9237TIP3    H227669   4.577   4.647   2.105
 9238TIP3   OH227670   1.559   6.284   5.361
 9238TIP3    H127671   1.471   6.280   5.398
 9238TIP3    H227672   1.611   6.224   5.414
 9239TIP3   OH227673   0.885   5.072   1.914
 9239TIP3    H127674   0.799   5.096   1.948
 9239TIP3    H227675   0.947   5.125   1.965
 9240TIP3   OH227676   4.185   0.577   1.452
 9240TIP3    H127677   4.233   0.496   1.468
 9240TIP3    H227678   4.253   0.645   1.447
 9241TIP3   OH227679   5.778   3.763   5.592
 9241TIP3    H127680   5.862   3.804   5.613
 9241TIP3    H227681   5.734   3.755   5.676
 9242TIP3   OH227682   1.119   6.407   0.124
 9242TIP3    H127683   1.151   6.348   0.056
 9242TIP3    H227684   1.117   6.354   0.203
 9243TIP3   OH227685   7.158   6.202   2.378
 9243TIP3    H127686   7.219   6.167   2.312
 9243TIP3    H227687   7.098   6.257   2.327
 9244TIP3   OH227688   5.370   0.739   4.216
 9244TIP3    H127689   5.291   0.690   4.192
 9244TIP3    H227690   5.337   0.819   4.256
 9245TIP3   OH227691   6.038   6.618   6.018
 9245TIP3    H127692   5.975   6.685   5.991
 9245TIP3    H227693   6.021   6.606   6.111
 9246TIP3   OH227694   3.469   5.003   5.430
 9246TIP3    H127695   3.530   4.996   5.504
 9246TIP3    H227696   3.437   5.094   5.434
 9247TIP3   OH227697   0.255   0.425   6.725
 9247TIP3    H127698   0.307   0.482   6.669
 9247TIP3    H227699   0.274   0.336   6.693
 9248TIP3   OH227700   3.609   1.202   3.592
 9248TIP3    H127701   3.560   1.282   3.607
 9248TIP3    H227702   3.567   1.136   3.648
 9249TIP3   OH227703   3.277   7.197   0.912
 9249TIP3    H127704   3.344   7.138   0.877
 9249TIP3    H227705   3.249   7.249   0.836
 9250TIP3   OH227706   4.402   3.375   5.289
 9250TIP3    H127707   4.467   3.305   5.298
 9250TIP3    H227708   4.452   3.455   5.300
 9251TIP3   OH227709   1.947   0.629   2.155
 9251TIP3    H127710   1.870   0.632   2.098
 9251TIP3    H227711   1.977   0.720   2.157
 9252TIP3   OH227712   7.454   5.008   1.350
 9252TIP3    H127713   7.417   5.080   1.298
 9252TIP3    H227714   7.391   4.996   1.421
 9253TIP3   OH227715   7.430   0.179   4.272
 9253TIP3    H127716   7.356   0.185   4.333
 9253TIP3    H227717   7.477   0.261   4.284
 9254TIP3   OH227718   0.495   7.374   6.284
 9254TIP3    H127719   0.584   7.343   6.264
 9254TIP3    H227720   0.439   7.330   6.220
 9255TIP3   OH227721   6.840   4.071   4.306
 9255TIP3    H127722   6.885   4.046   4.386
 9255TIP3    H227723   6.756   4.106   4.336
 9256TIP3   OH227724   7.955   0.183   1.118
 9256TIP3    H127725   8.029   0.175   1.057
 9256TIP3    H227726   7.883   0.139   1.073
 9257TIP3   OH227727   2.622   3.222   6.071
 9257TIP3    H127728   2.717   3.232   6.068
 9257TIP3    H227729   2.609   3.129   6.089
 9258TIP3   OH227730   3.116   6.291   2.319
 9258TIP3    H127731   3.176   6.279   2.393
 9258TIP3    H227732   3.061   6.213   2.319
 9259TIP3   OH227733   1.782   3.887   3.470
 9259TIP3    H127734   1.742   3.966   3.507
 9259TIP3    H227735   1.862   3.917   3.428
 9260TIP3   OH227736   2.250   1.162   5.321
 9260TIP3    H127737   2.311   1.230   5.350
 9260TIP3    H227738   2.190   1.151   5.395
 9261TIP3   OH227739   5.323   4.429   6.273
 9261TIP3    H127740   5.375   4.454   6.196
 9261TIP3    H227741   5.387   4.406   6.339
 9262TIP3   OH227742   0.116   3.732   4.878
 9262TIP3    H127743   0.124   3.799   4.946
 9262TIP3    H227744   0.032   3.690   4.896
 9263TIP3   OH227745   7.686   6.268   6.002
 9263TIP3    H127746   7.674   6.235   5.913
 9263TIP3    H227747   7.770   6.313   6.000
 9264TIP3   OH227748   4.089   3.730   5.220
 9264TIP3    H127749   4.009   3.678   5.233
 9264TIP3    H227750   4.088   3.754   5.128
 9265TIP3   OH227751   7.668   1.474   3.367
 9265TIP3    H127752   7.702   1.563   3.373
 9265TIP3    H227753   7.743   1.423   3.335
 9266TIP3   OH227754   6.010   2.107   1.810
 9266TIP3    H127755   6.041   2.097   1.900
 9266TIP3    H227756   5.961   2.189   1.810
 9267TIP3   OH227757   6.461   4.345   2.266
 9267TIP3    H127758   6.484   4.263   2.309
 9267TIP3    H227759   6.537   4.402   2.282
 9268TIP3   OH227760   7.306   7.487   2.372
 9268TIP3    H127761   7.312   7.525   2.284
 9268TIP3    H227762   7.377   7.422   2.375
 9269TIP3   OH227763   4.744   1.048   5.770
 9269TIP3    H127764   4.705   0.986   5.833
 9269TIP3    H227765   4.796   1.107   5.825
 9270TIP3   OH227766   2.697   5.768   0.563
 9270TIP3    H127767   2.786   5.735   0.575
 9270TIP3    H227768   2.664   5.782   0.652
 9271TIP3   OH227769   7.378   3.914   2.151
 9271TIP3    H127770   7.361   3.898   2.244
 9271TIP3    H227771   7.330   3.995   2.132
 9272TIP3   OH227772   5.802   6.826   6.099
 9272TIP3    H127773   5.811   6.880   6.177
 9272TIP3    H227774   5.774   6.741   6.131
 9273TIP3   OH227775   7.676   5.853   4.214
 9273TIP3    H127776   7.759   5.826   4.254
 9273TIP3    H227777   7.689   5.842   4.120
 9274TIP3   OH227778   5.142   1.492   2.181
 9274TIP3    H127779   5.224   1.494   2.133
 9274TIP3    H227780   5.167   1.480   2.272
 9275TIP3   OH227781   8.224   2.663   2.957
 9275TIP3    H127782   8.305   2.685   3.003
 9275TIP3    H227783   8.155   2.673   3.024
 9276TIP3   OH227784   6.872   7.238   3.526
 9276TIP3    H127785   6.779   7.246   3.545
 9276TIP3    H227786   6.877   7.229   3.431
 9277TIP3   OH227787   1.140   0.366   5.401
 9277TIP3    H127788   1.169   0.287   5.447
 9277TIP3    H227789   1.160   0.348   5.309
 9278TIP3   OH227790   4.941   1.737   6.444
 9278TIP3    H127791   4.900   1.688   6.373
 9278TIP3    H227792   4.879   1.731   6.517
 9279TIP3   OH227793   7.408   7.140   4.806
 9279TIP3    H127794   7.458   7.215   4.774
 9279TIP3    H227795   7.468   7.093   4.862
 9280TIP3   OH227796   1.635   2.455   1.373
 9280TIP3    H127797   1.678   2.444   1.288
 9280TIP3    H227798   1.706   2.449   1.437
 9281TIP3   OH227799   3.791   1.804   2.187
 9281TIP3    H127800   3.785   1.766   2.275
 9281TIP3    H227801   3.873   1.769   2.152
 9282TIP3   OH227802   1.676   6.231   0.697
 9282TIP3    H127803   1.702   6.236   0.605
 9282TIP3    H227804   1.661   6.322   0.723
 9283TIP3   OH227805   3.394   6.149   6.532
 9283TIP3    H127806   3.455   6.133   6.460
 9283TIP3    H227807   3.346   6.227   6.506
 9284TIP3   OH227808   5.827   4.873   4.686
 9284TIP3    H127809   5.828   4.875   4.782
 9284TIP3    H227810   5.917   4.853   4.661
 9285TIP3   OH227811   6.294  -0.030   2.370
 9285TIP3    H127812   6.362   0.037   2.364
 9285TIP3    H227813   6.220   0.008   2.321
 9286TIP3   OH227814   2.102   7.567   5.484
 9286TIP3    H127815   2.057   7.590   5.566
 9286TIP3    H227816   2.094   7.472   5.478
 9287TIP3   OH227817   3.605   1.730   2.852
 9287TIP3    H127818   3.599   1.663   2.919
 9287TIP3    H227819   3.546   1.700   2.782
 9288TIP3   OH227820   5.969   1.750   0.977
 9288TIP3    H127821   6.062   1.756   0.997
 9288TIP3    H227822   5.962   1.774   0.885
 9289TIP3   OH227823   6.238   6.066   0.153
 9289TIP3    H127824   6.172   6.000   0.135
 9289TIP3    H227825   6.194   6.129   0.210
 9290TIP3   OH227826   3.002   2.717   4.944
 9290TIP3    H127827   3.035   2.807   4.947
 9290TIP3    H227828   3.078   2.665   4.917
 9291TIP3   OH227829   4.929   4.713   1.993
 9291TIP3    H127830   4.859   4.684   2.051
 9291TIP3    H227831   4.900   4.799   1.961
 9292TIP3   OH227832   7.142   1.489   4.742
 9292TIP3    H127833   7.073   1.553   4.760
 9292TIP3    H227834   7.100   1.423   4.687
 9293TIP3   OH227835   2.146   5.837   2.991
 9293TIP3    H127836   2.087   5.855   3.064
 9293TIP3    H227837   2.199   5.916   2.983
 9294TIP3   OH227838   2.375   2.654   0.618
 9294TIP3    H127839   2.366   2.748   0.638
 9294TIP3    H227840   2.455   2.628   0.663
 9295TIP3   OH227841   5.936   7.298   1.182
 9295TIP3    H127842   5.852   7.268   1.215
 9295TIP3    H227843   5.997   7.282   1.254
 9296TIP3   OH227844   3.155   4.347   0.632
 9296TIP3    H127845   3.111   4.418   0.679
 9296TIP3    H227846   3.102   4.334   0.553
 9297TIP3   OH227847   3.317   5.289   4.616
 9297TIP3    H127848   3.241   5.234   4.634
 9297TIP3    H227849   3.284   5.378   4.619
 9298TIP3   OH227850   1.221   7.095   4.675
 9298TIP3    H127851   1.138   7.047   4.673
 9298TIP3    H227852   1.279   7.039   4.727
 9299TIP3   OH227853   1.575   2.531   1.759
 9299TIP3    H127854   1.580   2.455   1.701
 9299TIP3    H227855   1.524   2.595   1.709
 9300TIP3   OH227856   3.240   5.754   6.813
 9300TIP3    H127857   3.305   5.719   6.752
 9300TIP3    H227858   3.167   5.781   6.757
 9301TIP3   OH227859   3.995   2.910   3.197
 9301TIP3    H127860   3.937   2.946   3.265
 9301TIP3    H227861   4.083   2.938   3.223
 9302TIP3   OH227862   3.565   1.240   5.827
 9302TIP3    H127863   3.547   1.242   5.733
 9302TIP3    H227864   3.649   1.286   5.836
 9303TIP3   OH227865   3.798   1.063   1.950
 9303TIP3    H127866   3.763   1.088   1.864
 9303TIP3    H227867   3.725   1.076   2.010
 9304TIP3   OH227868   1.658   1.173   5.383
 9304TIP3    H127869   1.650   1.080   5.361
 9304TIP3    H227870   1.738   1.202   5.340
 9305TIP3   OH227871   7.735   2.803   1.895
 9305TIP3    H127872   7.656   2.763   1.859
 9305TIP3    H227873   7.794   2.729   1.912
 9306TIP3   OH227874   1.571   4.576   1.357
 9306TIP3    H127875   1.498   4.561   1.417
 9306TIP3    H227876   1.563   4.506   1.292
 9307TIP3   OH227877   7.541   0.478   6.186
 9307TIP3    H127878   7.616   0.524   6.223
 9307TIP3    H227879   7.498   0.437   6.261
 9308TIP3   OH227880   4.106   1.465   6.697
 9308TIP3    H127881   4.078   1.553   6.722
 9308TIP3    H227882   4.184   1.448   6.750
 9309TIP3   OH227883   2.300   6.128   1.449
 9309TIP3    H127884   2.355   6.102   1.375
 9309TIP3    H227885   2.216   6.085   1.433
 9310TIP3   OH227886   4.512   6.685   1.359
 9310TIP3    H127887   4.439   6.731   1.402
 9310TIP3    H227888   4.562   6.647   1.432
 9311TIP3   OH227889   3.063   3.075   2.912
 9311TIP3    H127890   3.127   3.139   2.945
 9311TIP3    H227891   3.112   3.023   2.848
 9312TIP3   OH227892   7.907   1.043   3.680
 9312TIP3    H127893   7.813   1.027   3.686
 9312TIP3    H227894   7.947   0.956   3.682
 9313TIP3   OH227895   2.121   5.836   2.255
 9313TIP3    H127896   2.143   5.929   2.249
 9313TIP3    H227897   2.058   5.822   2.184
 9314TIP3   OH227898   7.485   5.701   5.147
 9314TIP3    H127899   7.570   5.680   5.186
 9314TIP3    H227900   7.424   5.641   5.190
 9315TIP3   OH227901   6.912   6.052   0.258
 9315TIP3    H127902   6.858   6.072   0.182
 9315TIP3    H227903   6.854   6.002   0.316
 9316TIP3   OH227904   5.490   7.396   2.096
 9316TIP3    H127905   5.503   7.484   2.133
 9316TIP3    H227906   5.532   7.399   2.010
 9317TIP3   OH227907   1.664   1.490   0.762
 9317TIP3    H127908   1.705   1.480   0.676
 9317TIP3    H227909   1.697   1.417   0.813
 9318TIP3   OH227910   7.153   3.717   6.709
 9318TIP3    H127911   7.147   3.794   6.765
 9318TIP3    H227912   7.065   3.707   6.673
 9319TIP3   OH227913   1.872   4.537   5.324
 9319TIP3    H127914   1.947   4.494   5.366
 9319TIP3    H227915   1.846   4.477   5.254
 9320TIP3   OH227916   4.963   6.818   0.027
 9320TIP3    H127917   4.955   6.728   0.059
 9320TIP3    H227918   4.889   6.830  -0.032
 9321TIP3   OH227919   5.167   4.412   5.833
 9321TIP3    H127920   5.077   4.404   5.866
 9321TIP3    H227921   5.172   4.500   5.797
 9322TIP3   OH227922   0.343   3.091   0.584
 9322TIP3    H127923   0.430   3.125   0.563
 9322TIP3    H227924   0.358   3.004   0.621
 9323TIP3   OH227925   3.253   5.338   5.786
 9323TIP3    H127926   3.267   5.432   5.772
 9323TIP3    H227927   3.174   5.317   5.736
 9324TIP3   OH227928   2.273   3.226   2.882
 9324TIP3    H127929   2.308   3.287   2.947
 9324TIP3    H227930   2.286   3.139   2.920
 9325TIP3   OH227931   4.218   7.666   0.662
 9325TIP3    H127932   4.312   7.664   0.676
 9325TIP3    H227933   4.205   7.737   0.599
 9326TIP3   OH227934   1.267   2.940   6.690
 9326TIP3    H127935   1.223   2.909   6.769
 9326TIP3    H227936   1.349   2.978   6.722
 9327TIP3   OH227937   3.941   7.713   4.732
 9327TIP3    H127938   3.979   7.628   4.752
 9327TIP3    H227939   3.902   7.741   4.815
 9328TIP3   OH227940   3.761   1.758   6.408
 9328TIP3    H127941   3.838   1.791   6.362
 9328TIP3    H227942   3.788   1.674   6.444
 9329TIP3   OH227943   6.782   5.056   1.607
 9329TIP3    H127944   6.790   5.134   1.661
 9329TIP3    H227945   6.872   5.023   1.599
 9330TIP3   OH227946   1.896   7.181   0.280
 9330TIP3    H127947   1.983   7.189   0.320
 9330TIP3    H227948   1.878   7.087   0.281
 9331TIP3   OH227949   6.028   3.590   5.742
 9331TIP3    H127950   6.068   3.593   5.656
 9331TIP3    H227951   6.082   3.528   5.792
 9332TIP3   OH227952   2.480   4.819   0.793
 9332TIP3    H127953   2.401   4.864   0.823
 9332TIP3    H227954   2.534   4.888   0.755
 9333TIP3   OH227955   0.885   2.882   3.956
 9333TIP3    H127956   0.899   2.930   4.037
 9333TIP3    H227957   0.831   2.940   3.902
 9334TIP3   OH227958   8.214   4.085   5.115
 9334TIP3    H127959   8.227   4.120   5.027
 9334TIP3    H227960   8.181   4.159   5.166
 9335TIP3   OH227961   3.153   2.280   3.853
 9335TIP3    H127962   3.237   2.318   3.826
 9335TIP3    H227963   3.168   2.249   3.942
 9336TIP3   OH227964   3.740   0.099   4.950
 9336TIP3    H127965   3.828   0.126   4.976
 9336TIP3    H227966   3.688   0.105   5.031
 9337TIP3   OH227967   1.143   3.592   6.652
 9337TIP3    H127968   1.142   3.584   6.747
 9337TIP3    H227969   1.154   3.686   6.636
 9338TIP3   OH227970   0.686   1.850   0.380
 9338TIP3    H127971   0.728   1.816   0.300
 9338TIP3    H227972   0.739   1.814   0.451
 9339TIP3   OH227973   5.093   2.572   6.712
 9339TIP3    H127974   5.086   2.509   6.641
 9339TIP3    H227975   5.052   2.652   6.678
 9340TIP3   OH227976   2.291   5.174   6.325
 9340TIP3    H127977   2.298   5.150   6.233
 9340TIP3    H227978   2.369   5.136   6.366
 9341TIP3   OH227979   5.880   2.658   5.132
 9341TIP3    H127980   5.790   2.684   5.152
 9341TIP3    H227981   5.877   2.563   5.121
 9342TIP3   OH227982   1.310   1.073   1.850
 9342TIP3    H127983   1.266   1.152   1.820
 9342TIP3    H227984   1.403   1.090   1.834
 9343TIP3   OH227985   4.671   6.287   4.084
 9343TIP3    H127986   4.696   6.379   4.071
 9343TIP3    H227987   4.619   6.287   4.164
 9344TIP3   OH227988   3.574   0.187   4.751
 9344TIP3    H127989   3.616   0.270   4.727
 9344TIP3    H227990   3.625   0.155   4.825
 9345TIP3   OH227991   2.867   4.510   4.890
 9345TIP3    H127992   2.780   4.492   4.856
 9345TIP3    H227993   2.925   4.504   4.814
 9346TIP3   OH227994  -0.014   3.994   1.560
 9346TIP3    H127995   0.076   4.015   1.585
 9346TIP3    H227996  -0.048   3.941   1.632
 9347TIP3   OH227997   3.653   3.129   0.137
 9347TIP3    H127998   3.707   3.205   0.114
 9347TIP3    H227999   3.598   3.160   0.210
 9348TIP3   OH228000   7.063   1.967   2.934
 9348TIP3    H128001   7.146   2.014   2.941
 9348TIP3    H228002   7.012   1.997   3.009
 9349TIP3   OH228003   4.122   1.093   3.996
 9349TIP3    H128004   4.090   1.142   4.072
 9349TIP3    H228005   4.203   1.136   3.971
 9350TIP3   OH228006   2.300   1.148   5.736
 9350TIP3    H128007   2.321   1.213   5.802
 9350TIP3    H228008   2.246   1.195   5.672
 9351TIP3   OH228009   5.688   5.834   3.707
 9351TIP3    H128010   5.742   5.758   3.727
 9351TIP3    H228011   5.646   5.812   3.624
 9352TIP3   OH228012   8.122   5.989   1.567
 9352TIP3    H128013   8.090   6.070   1.526
 9352TIP3    H228014   8.064   5.975   1.641
 9353TIP3   OH228015   0.629   0.923   4.299
 9353TIP3    H128016   0.553   0.864   4.292
 9353TIP3    H228017   0.593   1.010   4.284
 9354TIP3   OH228018   0.382   2.824   4.392
 9354TIP3    H128019   0.430   2.867   4.322
 9354TIP3    H228020   0.290   2.829   4.365
 9355TIP3   OH228021   2.001   1.296   4.536
 9355TIP3    H128022   1.962   1.235   4.473
 9355TIP3    H228023   2.054   1.241   4.593
 9356TIP3   OH228024   4.709   3.251   2.684
 9356TIP3    H128025   4.727   3.291   2.769
 9356TIP3    H228026   4.625   3.205   2.697
 9357TIP3   OH228027   1.737   2.103   0.212
 9357TIP3    H128028   1.737   2.147   0.128
 9357TIP3    H228029   1.697   2.166   0.273
 9358TIP3   OH228030   3.335   5.945   3.505
 9358TIP3    H128031   3.414   5.960   3.453
 9358TIP3    H228032   3.267   5.922   3.441
 9359TIP3   OH228033   7.374   7.398   5.077
 9359TIP3    H128034   7.426   7.478   5.070
 9359TIP3    H228035   7.412   7.339   5.012
 9360TIP3   OH228036   2.222   5.484   6.274
 9360TIP3    H128037   2.204   5.397   6.311
 9360TIP3    H228038   2.169   5.488   6.195
 9361TIP3   OH228039   2.383   5.387   4.461
 9361TIP3    H128040   2.289   5.372   4.471
 9361TIP3    H228041   2.395   5.405   4.367
 9362TIP3   OH228042   4.738   3.359   1.016
 9362TIP3    H128043   4.829   3.328   1.018
 9362TIP3    H228044   4.711   3.347   0.925
 9363TIP3   OH228045   0.220   1.204   3.020
 9363TIP3    H128046   0.288   1.269   2.999
 9363TIP3    H228047   0.138   1.251   3.009
 9364TIP3   OH228048   7.754   7.121   0.744
 9364TIP3    H128049   7.746   7.138   0.838
 9364TIP3    H228050   7.765   7.026   0.738
 9365TIP3   OH228051   4.538   1.954   0.251
 9365TIP3    H128052   4.625   1.978   0.218
 9365TIP3    H228053   4.542   1.859   0.262
 9366TIP3   OH228054   3.767   0.018   2.925
 9366TIP3    H128055   3.812   0.053   2.848
 9366TIP3    H228056   3.723   0.094   2.963
 9367TIP3   OH228057   3.980   4.415   4.398
 9367TIP3    H128058   3.885   4.404   4.401
 9367TIP3    H228059   4.004   4.437   4.488
 9368TIP3   OH228060   7.107   4.631   4.392
 9368TIP3    H128061   7.078   4.614   4.302
 9368TIP3    H228062   7.168   4.704   4.384
 9369TIP3   OH228063   4.291   5.979   0.572
 9369TIP3    H128064   4.305   6.014   0.484
 9369TIP3    H228065   4.286   5.884   0.560
 9370TIP3   OH228066   4.792   1.424   5.303
 9370TIP3    H128067   4.811   1.514   5.279
 9370TIP3    H228068   4.747   1.430   5.387
 9371TIP3   OH228069   4.601   0.716   2.446
 9371TIP3    H128070   4.610   0.644   2.509
 9371TIP3    H228071   4.691   0.738   2.422
 9372TIP3   OH228072   6.916   2.170   1.901
 9372TIP3    H128073   6.871   2.241   1.945
 9372TIP3    H228074   7.009   2.193   1.906
 9373TIP3   OH228075   2.297   6.988   6.717
 9373TIP3    H128076   2.263   6.921   6.775
 9373TIP3    H228077   2.386   6.959   6.695
 9374TIP3   OH228078   7.144   7.432   6.775
 9374TIP3    H128079   7.057   7.402   6.750
 9374TIP3    H228080   7.186   7.453   6.691
 9375TIP3   OH228081   7.532   2.768   0.843
 9375TIP3    H128082   7.558   2.850   0.884
 9375TIP3    H228083   7.448   2.746   0.884
 9376TIP3   OH228084   1.778   7.465   3.016
 9376TIP3    H128085   1.758   7.457   3.109
 9376TIP3    H228086   1.698   7.501   2.978
 9377TIP3   OH228087   5.226   3.327   6.111
 9377TIP3    H128088   5.203   3.235   6.096
 9377TIP3    H228089   5.202   3.371   6.030
 9378TIP3   OH228090   1.466   0.797   3.270
 9378TIP3    H128091   1.501   0.792   3.359
 9378TIP3    H228092   1.374   0.821   3.282
 9379TIP3   OH228093   7.822   4.493   0.152
 9379TIP3    H128094   7.910   4.528   0.169
 9379TIP3    H228095   7.803   4.438   0.228
 9380TIP3   OH228096   3.635   0.915   5.797
 9380TIP3    H128097   3.688   0.921   5.717
 9380TIP3    H228098   3.620   1.006   5.823
 9381TIP3   OH228099   7.387   4.009   4.116
 9381TIP3    H128100   7.463   3.980   4.065
 9381TIP3    H228101   7.424   4.037   4.200
 9382TIP3   OH228102   0.960   1.883   5.086
 9382TIP3    H128103   0.987   1.812   5.029
 9382TIP3    H228104   0.892   1.930   5.037
 9383TIP3   OH228105   5.102   4.793   0.835
 9383TIP3    H128106   5.055   4.713   0.812
 9383TIP3    H228107   5.172   4.764   0.894
 9384TIP3   OH228108   6.798   2.396   1.407
 9384TIP3    H128109   6.727   2.439   1.456
 9384TIP3    H228110   6.793   2.304   1.432
 9385TIP3   OH228111   4.636   7.132   4.721
 9385TIP3    H128112   4.557   7.181   4.698
 9385TIP3    H228113   4.643   7.064   4.653
 9386TIP3   OH228114   6.529   2.976   2.323
 9386TIP3    H128115   6.437   3.000   2.312
 9386TIP3    H228116   6.526   2.887   2.359
 9387TIP3   OH228117   8.023   1.206   3.072
 9387TIP3    H128118   8.096   1.223   3.012
 9387TIP3    H228119   8.049   1.126   3.118
 9388TIP3   OH228120   5.837   0.514   2.793
 9388TIP3    H128121   5.805   0.603   2.781
 9388TIP3    H228122   5.925   0.524   2.830
 9389TIP3   OH228123   4.600   3.928   5.982
 9389TIP3    H128124   4.577   3.854   5.926
 9389TIP3    H228125   4.517   3.961   6.015
 9390TIP3   OH228126   6.905   1.264   4.963
 9390TIP3    H128127   6.912   1.338   5.023
 9390TIP3    H228128   6.994   1.232   4.953
 9391TIP3   OH228129   2.861   2.309   0.392
 9391TIP3    H128130   2.857   2.404   0.406
 9391TIP3    H228131   2.771   2.279   0.409
 9392TIP3   OH228132   4.260   0.236   3.936
 9392TIP3    H128133   4.323   0.215   3.867
 9392TIP3    H228134   4.309   0.292   3.997
 9393TIP3   OH228135   6.153   3.856   2.695
 9393TIP3    H128136   6.072   3.849   2.744
 9393TIP3    H228137   6.159   3.773   2.647
 9394TIP3   OH228138   4.407   2.807   0.242
 9394TIP3    H128139   4.326   2.851   0.216
 9394TIP3    H228140   4.399   2.795   0.336
 9395TIP3   OH228141   5.397   0.488   1.045
 9395TIP3    H128142   5.403   0.504   0.951
 9395TIP3    H228143   5.485   0.506   1.078
 9396TIP3   OH228144   0.951   4.585   3.705
 9396TIP3    H128145   0.879   4.522   3.707
 9396TIP3    H228146   1.024   4.536   3.669
 9397TIP3   OH228147   8.054   3.794   3.038
 9397TIP3    H128148   7.961   3.785   3.061
 9397TIP3    H228149   8.089   3.705   3.045
 9398TIP3   OH228150   7.586   2.077   6.749
 9398TIP3    H128151   7.552   1.993   6.780
 9398TIP3    H228152   7.545   2.090   6.663
 9399TIP3   OH228153   7.867   4.868   5.433
 9399TIP3    H128154   7.886   4.894   5.523
 9399TIP3    H228155   7.888   4.946   5.381
 9400TIP3   OH228156   5.486   3.488   4.996
 9400TIP3    H128157   5.536   3.570   4.995
 9400TIP3    H228158   5.404   3.509   4.951
 9401TIP3   OH228159   5.402   5.179   1.593
 9401TIP3    H128160   5.495   5.163   1.579
 9401TIP3    H228161   5.359   5.102   1.554
 9402TIP3   OH228162   0.253   7.326   4.480
 9402TIP3    H128163   0.286   7.281   4.402
 9402TIP3    H228164   0.158   7.313   4.477
 9403TIP3   OH228165   5.167   5.534   3.275
 9403TIP3    H128166   5.120   5.512   3.194
 9403TIP3    H228167   5.246   5.481   3.273
 9404TIP3   OH228168   6.814   7.634   5.320
 9404TIP3    H128169   6.753   7.588   5.262
 9404TIP3    H228170   6.854   7.701   5.265
 9405TIP3   OH228171   3.905   6.447   6.742
 9405TIP3    H128172   3.897   6.353   6.757
 9405TIP3    H228173   3.861   6.462   6.659
 9406TIP3   OH228174   4.463   3.831   2.178
 9406TIP3    H128175   4.429   3.870   2.258
 9406TIP3    H228176   4.387   3.787   2.139
 9407TIP3   OH228177   7.361   0.783   4.420
 9407TIP3    H128178   7.310   0.861   4.398
 9407TIP3    H228179   7.306   0.735   4.482
 9408TIP3   OH228180   7.675   0.355   3.293
 9408TIP3    H128181   7.596   0.401   3.265
 9408TIP3    H228182   7.718   0.331   3.211
 9409TIP3   OH228183   7.069   2.703   4.838
 9409TIP3    H128184   7.007   2.750   4.894
 9409TIP3    H228185   7.148   2.693   4.891
 9410TIP3   OH228186   4.274   4.627   0.526
 9410TIP3    H128187   4.289   4.695   0.592
 9410TIP3    H228188   4.328   4.554   0.553
 9411TIP3   OH228189   4.723   2.539   1.326
 9411TIP3    H128190   4.746   2.522   1.417
 9411TIP3    H228191   4.734   2.454   1.283
 9412TIP3   OH228192   1.411   3.380   2.245
 9412TIP3    H128193   1.325   3.354   2.279
 9412TIP3    H228194   1.471   3.363   2.317
 9413TIP3   OH228195   5.567   5.680   0.194
 9413TIP3    H128196   5.507   5.615   0.231
 9413TIP3    H228197   5.641   5.681   0.254
 9414TIP3   OH228198   1.500   3.772   5.641
 9414TIP3    H128199   1.521   3.679   5.639
 9414TIP3    H228200   1.560   3.812   5.579
 9415TIP3   OH228201   1.274   0.252   5.801
 9415TIP3    H128202   1.344   0.277   5.740
 9415TIP3    H228203   1.244   0.167   5.769
 9416TIP3   OH228204   6.618   1.566   4.957
 9416TIP3    H128205   6.661   1.486   4.986
 9416TIP3    H228206   6.636   1.571   4.863
 9417TIP3   OH228207   0.960   0.286   4.258
 9417TIP3    H128208   1.011   0.293   4.177
 9417TIP3    H228209   0.947   0.377   4.286
 9418TIP3   OH228210   2.533   6.180   6.064
 9418TIP3    H128211   2.499   6.269   6.072
 9418TIP3    H228212   2.454   6.125   6.064
 9419TIP3   OH228213   2.155   5.606   4.607
 9419TIP3    H128214   2.108   5.527   4.579
 9419TIP3    H228215   2.227   5.573   4.660
 9420TIP3   OH228216   6.341   2.962   6.217
 9420TIP3    H128217   6.289   2.934   6.142
 9420TIP3    H228218   6.405   2.892   6.230
 9421TIP3   OH228219   7.348   5.703   0.572
 9421TIP3    H128220   7.389   5.752   0.643
 9421TIP3    H228221   7.256   5.728   0.575
 9422TIP3   OH228222   2.629   4.635   1.137
 9422TIP3    H128223   2.582   4.713   1.107
 9422TIP3    H228224   2.569   4.594   1.200
 9423TIP3   OH228225   3.297   3.822   3.620
 9423TIP3    H128226   3.316   3.792   3.709
 9423TIP3    H228227   3.276   3.915   3.630
 9424TIP3   OH228228   7.750   6.497   3.270
 9424TIP3    H128229   7.803   6.420   3.253
 9424TIP3    H228230   7.659   6.465   3.266
 9425TIP3   OH228231   7.331   5.283   4.528
 9425TIP3    H128232   7.408   5.330   4.495
 9425TIP3    H228233   7.352   5.191   4.513
 9426TIP3   OH228234   0.647   0.919   2.133
 9426TIP3    H128235   0.621   1.004   2.167
 9426TIP3    H228236   0.692   0.938   2.051
 9427TIP3   OH228237   6.971   3.349   4.681
 9427TIP3    H128238   7.026   3.286   4.728
 9427TIP3    H228239   7.004   3.434   4.708
 9428TIP3   OH228240   4.399   3.397   2.311
 9428TIP3    H128241   4.444   3.467   2.264
 9428TIP3    H228242   4.411   3.419   2.403
 9429TIP3   OH228243   2.869   0.589   6.244
 9429TIP3    H128244   2.897   0.678   6.224
 9429TIP3    H228245   2.929   0.533   6.194
 9430TIP3   OH228246   5.497   1.552   4.178
 9430TIP3    H128247   5.554   1.500   4.121
 9430TIP3    H228248   5.524   1.643   4.163
 9431TIP3   OH228249   7.929   3.573   5.884
 9431TIP3    H128250   7.872   3.627   5.829
 9431TIP3    H228251   7.965   3.507   5.825
 9432TIP3   OH228252   0.170   0.691   3.332
 9432TIP3    H128253   0.133   0.696   3.244
 9432TIP3    H228254   0.259   0.659   3.319
 9433TIP3   OH228255   6.661   2.645   2.942
 9433TIP3    H128256   6.704   2.559   2.949
 9433TIP3    H228257   6.583   2.638   2.997
 9434TIP3   OH228258   1.787   4.902   5.484
 9434TIP3    H128259   1.704   4.948   5.470
 9434TIP3    H228260   1.770   4.813   5.452
 9435TIP3   OH228261   5.136   4.096   3.601
 9435TIP3    H128262   5.207   4.160   3.600
 9435TIP3    H228263   5.165   4.027   3.541
 9436TIP3   OH228264   6.475   3.351   0.346
 9436TIP3    H128265   6.448   3.312   0.263
 9436TIP3    H228266   6.395   3.356   0.398
 9437TIP3   OH228267   4.154   0.407   6.211
 9437TIP3    H128268   4.124   0.490   6.174
 9437TIP3    H228269   4.144   0.418   6.305
 9438TIP3   OH228270   3.858   6.574   0.093
 9438TIP3    H128271   3.914   6.644   0.124
 9438TIP3    H228272   3.789   6.618   0.043
 9439TIP3   OH228273   2.632   5.691   2.577
 9439TIP3    H128274   2.694   5.746   2.625
 9439TIP3    H228275   2.546   5.728   2.596
 9440TIP3   OH228276   7.595   0.926   5.383
 9440TIP3    H128277   7.682   0.965   5.393
 9440TIP3    H228278   7.600   0.875   5.302
 9441TIP3   OH228279   1.873   2.453   3.338
 9441TIP3    H128280   1.876   2.510   3.415
 9441TIP3    H228281   1.836   2.371   3.370
 9442TIP3   OH228282   3.857   5.730   3.410
 9442TIP3    H128283   3.926   5.752   3.347
 9442TIP3    H228284   3.846   5.636   3.402
 9443TIP3   OH228285   0.235   6.339   6.677
 9443TIP3    H128286   0.216   6.404   6.609
 9443TIP3    H228287   0.199   6.377   6.757
 9444TIP3   OH228288   2.924   3.488   1.167
 9444TIP3    H128289   2.937   3.442   1.083
 9444TIP3    H228290   3.012   3.510   1.196
 9445TIP3   OH228291   5.489   2.483   2.353
 9445TIP3    H128292   5.458   2.396   2.379
 9445TIP3    H228293   5.571   2.494   2.401
 9446TIP3   OH228294   2.673   2.702   2.149
 9446TIP3    H128295   2.758   2.736   2.179
 9446TIP3    H228296   2.665   2.617   2.192
 9447TIP3   OH228297   6.221   4.546   0.776
 9447TIP3    H128298   6.306   4.555   0.732
 9447TIP3    H228299   6.237   4.481   0.845
 9448TIP3   OH228300   5.302   2.705   5.830
 9448TIP3    H128301   5.389   2.717   5.792
 9448TIP3    H228302   5.260   2.638   5.776
 9449TIP3   OH228303   6.387   7.454   5.993
 9449TIP3    H128304   6.471   7.463   6.038
 9449TIP3    H228305   6.409   7.415   5.908
 9450TIP3   OH228306   5.864   4.845   4.960
 9450TIP3    H128307   5.795   4.902   4.995
 9450TIP3    H228308   5.945   4.880   4.998
 9451TIP3   OH228309   7.067   6.221   2.677
 9451TIP3    H128310   7.013   6.173   2.614
 9451TIP3    H228311   7.073   6.309   2.641
 9452TIP3   OH228312   0.972   5.943   4.712
 9452TIP3    H128313   0.929   6.023   4.680
 9452TIP3    H228314   0.967   5.949   4.807
 9453TIP3   OH228315   7.374   7.500   2.650
 9453TIP3    H128316   7.465   7.528   2.637
 9453TIP3    H228317   7.336   7.498   2.562
 9454TIP3   OH228318   3.967   1.947   5.004
 9454TIP3    H128319   3.939   1.857   5.024
 9454TIP3    H228320   3.904   2.002   5.051
 9455TIP3   OH228321   6.966   0.427   3.354
 9455TIP3    H128322   7.013   0.464   3.428
 9455TIP3    H228323   7.008   0.342   3.339
 9456TIP3   OH228324   4.425   1.102   1.500
 9456TIP3    H128325   4.345   1.138   1.537
 9456TIP3    H228326   4.474   1.178   1.470
 9457TIP3   OH228327   6.077   3.734   5.161
 9457TIP3    H128328   6.020   3.801   5.199
 9457TIP3    H228329   6.017   3.665   5.132
 9458TIP3   OH228330   3.703   0.451   0.424
 9458TIP3    H128331   3.686   0.409   0.509
 9458TIP3    H228332   3.676   0.387   0.359
 9459TIP3   OH228333   1.567   0.909   2.930
 9459TIP3    H128334   1.484   0.930   2.971
 9459TIP3    H228335   1.617   0.864   2.998
 9460TIP3   OH228336   4.742   2.807   2.048
 9460TIP3    H128337   4.653   2.775   2.039
 9460TIP3    H228338   4.772   2.822   1.959
 9461TIP3   OH228339   2.252   4.287   3.654
 9461TIP3    H128340   2.343   4.314   3.643
 9461TIP3    H228341   2.251   4.236   3.735
 9462TIP3   OH228342   0.590   5.524   2.873
 9462TIP3    H128343   0.635   5.526   2.788
 9462TIP3    H228344   0.565   5.615   2.889
 9463TIP3   OH228345   6.693   3.048   4.440
 9463TIP3    H128346   6.671   3.033   4.532
 9463TIP3    H228347   6.786   3.027   4.435
 9464TIP3   OH228348   8.221   4.463   6.590
 9464TIP3    H128349   8.304   4.496   6.556
 9464TIP3    H228350   8.178   4.422   6.514
 9465TIP3   OH228351   4.577   2.869   3.311
 9465TIP3    H128352   4.494   2.832   3.281
 9465TIP3    H228353   4.595   2.824   3.393
 9466TIP3   OH228354   4.151   7.289   0.939
 9466TIP3    H128355   4.114   7.344   1.008
 9466TIP3    H228356   4.159   7.347   0.863
 9467TIP3   OH228357   6.217   6.425   4.786
 9467TIP3    H128358   6.233   6.511   4.747
 9467TIP3    H228359   6.229   6.439   4.880
 9468TIP3   OH228360   4.250   7.170   6.482
 9468TIP3    H128361   4.190   7.148   6.554
 9468TIP3    H228362   4.336   7.172   6.523
 9469TIP3   OH228363   1.602   3.685   5.183
 9469TIP3    H128364   1.676   3.649   5.231
 9469TIP3    H228365   1.558   3.743   5.245
 9470TIP3   OH228366   0.070   3.773   6.748
 9470TIP3    H128367   0.138   3.756   6.683
 9470TIP3    H228368   0.106   3.741   6.830
 9471TIP3   OH228369   2.832   0.367   4.955
 9471TIP3    H128370   2.898   0.364   5.025
 9471TIP3    H228371   2.881   0.397   4.878
 9472TIP3   OH228372   0.990   5.235   0.815
 9472TIP3    H128373   0.908   5.208   0.776
 9472TIP3    H228374   0.965   5.293   0.887
 9473TIP3   OH228375   8.091   3.905   3.381
 9473TIP3    H128376   8.135   3.895   3.466
 9473TIP3    H228377   8.003   3.935   3.404
 9474TIP3   OH228378   1.045   3.897   1.576
 9474TIP3    H128379   0.982   3.967   1.557
 9474TIP3    H228380   1.091   3.927   1.654
 9475TIP3   OH228381   3.280   6.004   3.770
 9475TIP3    H128382   3.187   6.028   3.768
 9475TIP3    H228383   3.292   5.951   3.691
 9476TIP3   OH228384   4.686   2.691   5.034
 9476TIP3    H128385   4.610   2.648   4.994
 9476TIP3    H228386   4.743   2.619   5.062
 9477TIP3   OH228387   5.356   7.653   2.500
 9477TIP3    H128388   5.273   7.700   2.512
 9477TIP3    H228389   5.370   7.654   2.406
 9478TIP3   OH228390   7.935   1.255   4.799
 9478TIP3    H128391   7.999   1.205   4.749
 9478TIP3    H228392   7.869   1.280   4.734
 9479TIP3   OH228393   7.258   3.085   5.358
 9479TIP3    H128394   7.320   3.013   5.341
 9479TIP3    H228395   7.287   3.122   5.441
 9480TIP3   OH228396   5.420   3.991   2.398
 9480TIP3    H128397   5.421   3.993   2.493
 9480TIP3    H228398   5.418   3.898   2.375
 9481TIP3   OH228399   6.556   1.137   0.354
 9481TIP3    H128400   6.533   1.044   0.349
 9481TIP3    H228401   6.478   1.179   0.390
 9482TIP3   OH228402   0.316   6.835   6.175
 9482TIP3    H128403   0.259   6.898   6.221
 9482TIP3    H228404   0.260   6.759   6.161
 9483TIP3   OH228405   4.019   7.511   2.370
 9483TIP3    H128406   3.969   7.518   2.452
 9483TIP3    H228407   4.017   7.417   2.349
 9484TIP3   OH228408   5.189   0.233   2.889
 9484TIP3    H128409   5.267   0.190   2.856
 9484TIP3    H228410   5.220   0.317   2.924
 9485TIP3   OH228411   5.994   7.097   6.763
 9485TIP3    H128412   6.086   7.121   6.772
 9485TIP3    H228413   5.982   7.022   6.821
 9486TIP3   OH228414   0.380   6.608   3.450
 9486TIP3    H128415   0.392   6.670   3.521
 9486TIP3    H228416   0.320   6.542   3.484
 9487TIP3   OH228417   2.620   1.543   0.066
 9487TIP3    H128418   2.567   1.552  -0.013
 9487TIP3    H228419   2.568   1.485   0.122
 9488TIP3   OH228420   6.023   0.608   3.780
 9488TIP3    H128421   5.932   0.594   3.755
 9488TIP3    H228422   6.050   0.684   3.728
 9489TIP3   OH228423   0.830   0.241   5.923
 9489TIP3    H128424   0.762   0.227   5.989
 9489TIP3    H228425   0.793   0.206   5.842
 9490TIP3   OH228426   5.251   6.343   4.874
 9490TIP3    H128427   5.268   6.427   4.832
 9490TIP3    H228428   5.211   6.366   4.958
 9491TIP3   OH228429   8.092   6.388   5.540
 9491TIP3    H128430   8.178   6.429   5.541
 9491TIP3    H228431   8.031   6.461   5.528
 9492TIP3   OH228432   7.081   6.717   1.440
 9492TIP3    H128433   7.002   6.672   1.472
 9492TIP3    H228434   7.048   6.784   1.380
 9493TIP3   OH228435   1.656   7.805   1.419
 9493TIP3    H128436   1.667   7.817   1.513
 9493TIP3    H228437   1.603   7.726   1.410
 9494TIP3   OH228438   3.409   3.243   5.677
 9494TIP3    H128439   3.338   3.299   5.647
 9494TIP3    H228440   3.472   3.304   5.717
 9495TIP3   OH228441   1.834   2.372   2.419
 9495TIP3    H128442   1.863   2.282   2.404
 9495TIP3    H228443   1.785   2.395   2.340
 9496TIP3   OH228444   4.291   3.187   1.839
 9496TIP3    H128445   4.269   3.238   1.917
 9496TIP3    H228446   4.260   3.099   1.858
 9497TIP3   OH228447   7.286   6.895   4.698
 9497TIP3    H128448   7.364   6.940   4.729
 9497TIP3    H228449   7.215   6.958   4.712
 9498TIP3   OH228450   0.706   2.094   6.744
 9498TIP3    H128451   0.775   2.081   6.679
 9498TIP3    H228452   0.706   2.013   6.795
 9499TIP3   OH228453   4.468   1.737   5.178
 9499TIP3    H128454   4.376   1.728   5.154
 9499TIP3    H228455   4.468   1.799   5.251
 9500TIP3   OH228456   6.401   4.212   6.285
 9500TIP3    H128457   6.384   4.262   6.206
 9500TIP3    H228458   6.377   4.122   6.263
 9501TIP3   OH228459   1.378   4.469   1.531
 9501TIP3    H128460   1.327   4.399   1.490
 9501TIP3    H228461   1.351   4.467   1.623
 9502TIP3   OH228462   4.708   4.238   5.607
 9502TIP3    H128463   4.614   4.252   5.593
 9502TIP3    H228464   4.714   4.193   5.691
 9503TIP3   OH228465   6.198   4.557   1.458
 9503TIP3    H128466   6.238   4.480   1.498
 9503TIP3    H228467   6.268   4.595   1.406
 9504TIP3   OH228468   5.815   2.027   2.760
 9504TIP3    H128469   5.798   2.104   2.706
 9504TIP3    H228470   5.863   2.061   2.835
 9505TIP3   OH228471   1.669   3.192   2.271
 9505TIP3    H128472   1.642   3.254   2.339
 9505TIP3    H228473   1.756   3.222   2.244
 9506TIP3   OH228474   3.148   7.364   0.272
 9506TIP3    H128475   3.117   7.440   0.223
 9506TIP3    H228476   3.067   7.324   0.306
 9507TIP3   OH228477   6.741   3.988   5.723
 9507TIP3    H128478   6.750   4.060   5.661
 9507TIP3    H228479   6.777   4.022   5.805
 9508TIP3   OH228480   6.650   3.239   5.560
 9508TIP3    H128481   6.583   3.294   5.522
 9508TIP3    H228482   6.707   3.216   5.487
 9509TIP3   OH228483   3.890   4.809   0.838
 9509TIP3    H128484   3.868   4.900   0.818
 9509TIP3    H228485   3.958   4.815   0.904
 9510TIP3   OH228486   4.143   3.864   0.360
 9510TIP3    H128487   4.092   3.945   0.370
 9510TIP3    H228488   4.148   3.850   0.266
 9511TIP3   OH228489   4.097   5.371   0.774
 9511TIP3    H128490   4.148   5.428   0.716
 9511TIP3    H228491   4.014   5.417   0.786
 9512TIP3   OH228492   6.221   0.045   4.804
 9512TIP3    H128493   6.182   0.105   4.869
 9512TIP3    H228494   6.177   0.067   4.722
 9513TIP3   OH228495   0.184   0.784   5.329
 9513TIP3    H128496   0.278   0.802   5.330
 9513TIP3    H228497   0.175   0.699   5.373
 9514TIP3   OH228498   8.293   1.259   6.757
 9514TIP3    H128499   8.279   1.286   6.666
 9514TIP3    H228500   8.249   1.326   6.809
 9515TIP3   OH228501   4.584   7.371   5.534
 9515TIP3    H128502   4.557   7.387   5.624
 9515TIP3    H228503   4.525   7.304   5.502
 9516TIP3   OH228504   4.589   0.226   4.065
 9516TIP3    H128505   4.548   0.173   4.133
 9516TIP3    H228506   4.659   0.170   4.030
 9517TIP3   OH228507   1.538   3.487   5.740
 9517TIP3    H128508   1.604   3.494   5.808
 9517TIP3    H228509   1.587   3.460   5.662
 9518TIP3   OH228510   7.640   1.906   4.104
 9518TIP3    H128511   7.675   1.819   4.082
 9518TIP3    H228512   7.711   1.950   4.150
 9519TIP3   OH228513   1.261   3.512   0.633
 9519TIP3    H128514   1.344   3.512   0.585
 9519TIP3    H228515   1.267   3.435   0.689
 9520TIP3   OH228516   7.017   7.198   2.334
 9520TIP3    H128517   7.098   7.215   2.287
 9520TIP3    H228518   7.042   7.137   2.403
 9521TIP3   OH228519   2.505   3.632   2.019
 9521TIP3    H128520   2.428   3.587   2.055
 9521TIP3    H228521   2.555   3.658   2.096
 9522TIP3   OH228522   2.873   7.591   0.227
 9522TIP3    H128523   2.939   7.596   0.297
 9522TIP3    H228524   2.854   7.498   0.219
 9523TIP3   OH228525   2.476   5.368   2.965
 9523TIP3    H128526   2.548   5.430   2.960
 9523TIP3    H228527   2.397   5.421   2.957
 9524TIP3   OH228528  -0.028   4.576   1.927
 9524TIP3    H128529   0.037   4.573   1.998
 9524TIP3    H228530   0.014   4.628   1.859
 9525TIP3   OH228531   3.976   3.712   0.882
 9525TIP3    H128532   3.896   3.748   0.921
 9525TIP3    H228533   3.964   3.722   0.788
 9526TIP3   OH228534   6.470   5.086   4.545
 9526TIP3    H128535   6.436   5.022   4.483
 9526TIP3    H228536   6.500   5.158   4.491
 9527TIP3   OH228537   3.330   5.844   1.494
 9527TIP3    H128538   3.238   5.824   1.478
 9527TIP3    H228539   3.378   5.770   1.455
 9528TIP3   OH228540   5.761   2.929   5.452
 9528TIP3    H128541   5.756   2.981   5.372
 9528TIP3    H228542   5.714   2.980   5.517
 9529TIP3   OH228543   5.307   3.495   6.405
 9529TIP3    H128544   5.232   3.523   6.352
 9529TIP3    H228545   5.369   3.458   6.342
 9530TIP3   OH228546   1.852   7.018   5.300
 9530TIP3    H128547   1.788   7.022   5.229
 9530TIP3    H228548   1.929   6.977   5.261
 9531TIP3   OH228549   0.580   2.645   4.945
 9531TIP3    H128550   0.629   2.565   4.927
 9531TIP3    H228551   0.579   2.651   5.041
 9532TIP3   OH228552   5.139   0.027   1.478
 9532TIP3    H128553   5.062   0.014   1.534
 9532TIP3    H228554   5.125   0.112   1.438
 9533TIP3   OH228555   5.479   4.500   2.695
 9533TIP3    H128556   5.513   4.514   2.607
 9533TIP3    H228557   5.390   4.534   2.692
 9534TIP3   OH228558   6.379   4.131   4.950
 9534TIP3    H128559   6.365   4.055   4.894
 9534TIP3    H228560   6.417   4.096   5.031
 9535TIP3   OH228561   7.259   3.830   4.812
 9535TIP3    H128562   7.234   3.909   4.859
 9535TIP3    H228563   7.190   3.818   4.746
 9536TIP3   OH228564   8.075   0.315   5.804
 9536TIP3    H128565   8.165   0.328   5.775
 9536TIP3    H228566   8.024   0.309   5.724
 9537TIP3   OH228567   6.481   2.772   5.529
 9537TIP3    H128568   6.454   2.858   5.559
 9537TIP3    H228569   6.432   2.711   5.584
 9538TIP3   OH228570   2.711   4.880   6.683
 9538TIP3    H128571   2.768   4.812   6.647
 9538TIP3    H228572   2.623   4.856   6.652
 9539TIP3   OH228573   8.294   5.164   3.756
 9539TIP3    H128574   8.240   5.127   3.686
 9539TIP3    H228575   8.270   5.112   3.833
 9540TIP3   OH228576   6.882   0.356   6.041
 9540TIP3    H128577   6.851   0.340   5.952
 9540TIP3    H228578   6.969   0.395   6.029
 9541TIP3   OH228579   7.187   3.235   0.690
 9541TIP3    H128580   7.226   3.313   0.653
 9541TIP3    H228581   7.092   3.249   0.683
 9542TIP3   OH228582   6.095   7.484   5.542
 9542TIP3    H128583   6.013   7.495   5.590
 9542TIP3    H228584   6.067   7.453   5.455
 9543TIP3   OH228585   4.269   0.753   4.802
 9543TIP3    H128586   4.346   0.756   4.859
 9543TIP3    H228587   4.292   0.690   4.734
 9544TIP3   OH228588   3.418   7.665   2.069
 9544TIP3    H128589   3.440   7.756   2.049
 9544TIP3    H228590   3.500   7.625   2.097
 9545TIP3   OH228591   6.743   3.723   5.868
 9545TIP3    H128592   6.759   3.812   5.835
 9545TIP3    H228593   6.830   3.688   5.887
 9546TIP3   OH228594   2.704   0.261   6.660
 9546TIP3    H128595   2.664   0.247   6.574
 9546TIP3    H228596   2.650   0.209   6.721
 9547TIP3   OH228597   0.243   2.648   6.531
 9547TIP3    H128598   0.222   2.740   6.513
 9547TIP3    H228599   0.272   2.613   6.446
 9548TIP3   OH228600   4.070   1.950   4.228
 9548TIP3    H128601   4.146   2.005   4.247
 9548TIP3    H228602   4.101   1.886   4.164
 9549TIP3   OH228603   6.857   5.631   4.625
 9549TIP3    H128604   6.793   5.592   4.684
 9549TIP3    H228605   6.836   5.594   4.539
 9550TIP3   OH228606   7.617   2.808   4.325
 9550TIP3    H128607   7.601   2.861   4.403
 9550TIP3    H228608   7.601   2.718   4.352
 9551TIP3   OH228609   4.169   5.211   1.031
 9551TIP3    H128610   4.122   5.282   1.076
 9551TIP3    H228611   4.145   5.222   0.939
 9552TIP3   OH228612   7.338   1.009   5.481
 9552TIP3    H128613   7.287   0.929   5.498
 9552TIP3    H228614   7.422   0.977   5.448
 9553TIP3   OH228615   3.687   2.209   0.909
 9553TIP3    H128616   3.753   2.218   0.840
 9553TIP3    H228617   3.653   2.297   0.921
 9554TIP3   OH228618   2.742   2.244   3.584
 9554TIP3    H128619   2.753   2.185   3.659
 9554TIP3    H228620   2.675   2.202   3.530
 9555TIP3   OH228621   5.424   3.505   2.114
 9555TIP3    H128622   5.386   3.418   2.100
 9555TIP3    H228623   5.406   3.552   2.032
 9556TIP3   OH228624   7.123   1.116   6.109
 9556TIP3    H128625   7.028   1.129   6.111
 9556TIP3    H228626   7.141   1.056   6.182
 9557TIP3   OH228627   7.682   5.734   3.680
 9557TIP3    H128628   7.647   5.683   3.608
 9557TIP3    H228629   7.767   5.766   3.648
 9558TIP3   OH228630   0.388   5.017   3.379
 9558TIP3    H128631   0.466   5.071   3.368
 9558TIP3    H228632   0.328   5.071   3.429
 9559TIP3   OH228633   6.058   4.805   1.591
 9559TIP3    H128634   6.021   4.797   1.502
 9559TIP3    H228635   6.077   4.715   1.616
 9560TIP3   OH228636   1.506   5.356   2.220
 9560TIP3    H128637   1.449   5.335   2.146
 9560TIP3    H228638   1.575   5.411   2.182
 9561TIP3   OH228639   6.977   3.408   0.551
 9561TIP3    H128640   6.962   3.471   0.480
 9561TIP3    H228641   6.900   3.417   0.607
 9562TIP3   OH228642   6.058   6.375   2.722
 9562TIP3    H128643   6.106   6.399   2.801
 9562TIP3    H228644   5.991   6.442   2.713
 9563TIP3   OH228645   5.533   6.217   1.150
 9563TIP3    H128646   5.460   6.228   1.212
 9563TIP3    H228647   5.589   6.151   1.190
 9564TIP3   OH228648   6.119   0.148   1.671
 9564TIP3    H128649   6.181   0.108   1.732
 9564TIP3    H228650   6.171   0.164   1.592
 9565TIP3   OH228651   4.734   4.579   2.381
 9565TIP3    H128652   4.792   4.532   2.441
 9565TIP3    H228653   4.669   4.619   2.439
 9566TIP3   OH228654   4.118   5.602   2.213
 9566TIP3    H128655   4.173   5.603   2.135
 9566TIP3    H228656   4.179   5.596   2.286
 9567TIP3   OH228657   7.174   3.226   1.049
 9567TIP3    H128658   7.258   3.272   1.048
 9567TIP3    H228659   7.116   3.281   0.995
 9568TIP3   OH228660   6.399   7.783   4.770
 9568TIP3    H128661   6.433   7.775   4.859
 9568TIP3    H228662   6.342   7.706   4.759
 9569TIP3   OH228663   7.984   0.754   3.694
 9569TIP3    H128664   8.072   0.783   3.719
 9569TIP3    H228665   7.976   0.666   3.731
 9570TIP3   OH228666   7.522   7.589   3.336
 9570TIP3    H128667   7.522   7.613   3.244
 9570TIP3    H228668   7.614   7.573   3.357
 9571TIP3   OH228669   1.484   7.053   0.209
 9571TIP3    H128670   1.410   7.038   0.150
 9571TIP3    H228671   1.477   7.145   0.234
 9572TIP3   OH228672   4.463   6.006   3.023
 9572TIP3    H128673   4.450   5.937   3.088
 9572TIP3    H228674   4.558   6.009   3.010
 9573TIP3   OH228675   5.535   7.144   5.396
 9573TIP3    H128676   5.452   7.157   5.442
 9573TIP3    H228677   5.518   7.072   5.334
 9574TIP3   OH228678   7.677   1.968   3.415
 9574TIP3    H128679   7.705   2.048   3.371
 9574TIP3    H228680   7.685   1.987   3.508
 9575TIP3   OH228681   5.319   0.140   0.253
 9575TIP3    H128682   5.372   0.138   0.173
 9575TIP3    H228683   5.252   0.205   0.236
 9576TIP3   OH228684   2.968   0.953   5.274
 9576TIP3    H128685   2.942   0.875   5.323
 9576TIP3    H228686   3.010   0.919   5.195
 9577TIP3   OH228687   5.913   2.637   0.562
 9577TIP3    H128688   5.835   2.611   0.610
 9577TIP3    H228689   5.923   2.570   0.494
 9578TIP3   OH228690   2.148   5.765   6.035
 9578TIP3    H128691   2.129   5.789   5.945
 9578TIP3    H228692   2.244   5.763   6.039
 9579TIP3   OH228693   5.636   2.238   0.926
 9579TIP3    H128694   5.604   2.318   0.885
 9579TIP3    H228695   5.559   2.198   0.966
 9580TIP3   OH228696   1.194   5.624   6.672
 9580TIP3    H128697   1.214   5.670   6.753
 9580TIP3    H228698   1.222   5.683   6.603
 9581TIP3   OH228699   4.498   0.515   3.292
 9581TIP3    H128700   4.543   0.457   3.354
 9581TIP3    H228701   4.505   0.602   3.330
 9582TIP3   OH228702   3.574   6.529   2.910
 9582TIP3    H128703   3.656   6.574   2.931
 9582TIP3    H228704   3.526   6.528   2.993
 9583TIP3   OH228705   4.733   3.543   3.683
 9583TIP3    H128706   4.786   3.498   3.749
 9583TIP3    H228707   4.653   3.568   3.730
 9584TIP3   OH228708   4.920   5.565   0.232
 9584TIP3    H128709   4.959   5.551   0.318
 9584TIP3    H228710   4.911   5.478   0.195
 9585TIP3   OH228711   0.535   0.772   2.351
 9585TIP3    H128712   0.513   0.690   2.307
 9585TIP3    H228713   0.552   0.834   2.280
 9586TIP3   OH228714   4.609   4.639   5.530
 9586TIP3    H128715   4.603   4.727   5.491
 9586TIP3    H228716   4.699   4.612   5.512
 9587TIP3   OH228717   1.064   5.613   3.665
 9587TIP3    H128718   1.136   5.567   3.707
 9587TIP3    H228719   1.045   5.687   3.723
 9588TIP3   OH228720   7.491   5.062   3.689
 9588TIP3    H128721   7.500   5.013   3.771
 9588TIP3    H228722   7.516   5.151   3.712
 9589TIP3   OH228723   8.311   1.696   2.021
 9589TIP3    H128724   8.286   1.632   1.955
 9589TIP3    H228725   8.252   1.679   2.095
 9590TIP3   OH228726   4.364   2.074   6.172
 9590TIP3    H128727   4.368   2.165   6.201
 9590TIP3    H228728   4.315   2.028   6.240
 9591TIP3   OH228729   2.398   6.888   2.619
 9591TIP3    H128730   2.347   6.848   2.689
 9591TIP3    H228731   2.469   6.934   2.664
 9592TIP3   OH228732   5.936   5.801   6.388
 9592TIP3    H128733   5.965   5.883   6.347
 9592TIP3    H228734   5.841   5.804   6.381
 9593TIP3   OH228735   6.064   4.988   5.074
 9593TIP3    H128736   6.038   5.010   5.164
 9593TIP3    H228737   6.142   5.042   5.058
 9594TIP3   OH228738   0.645   0.486   4.448
 9594TIP3    H128739   0.676   0.562   4.399
 9594TIP3    H228740   0.721   0.427   4.451
 9595TIP3   OH228741   2.877   3.524   5.922
 9595TIP3    H128742   2.926   3.560   5.848
 9595TIP3    H228743   2.846   3.439   5.890
 9596TIP3   OH228744   1.778   1.626   5.477
 9596TIP3    H128745   1.840   1.690   5.514
 9596TIP3    H228746   1.757   1.568   5.551
 9597TIP3   OH228747   0.006   0.209   4.489
 9597TIP3    H128748   0.064   0.268   4.538
 9597TIP3    H228749   0.025   0.122   4.524
 9598TIP3   OH228750   1.042   7.082   5.725
 9598TIP3    H128751   1.092   7.153   5.684
 9598TIP3    H228752   1.009   7.031   5.651
 9599TIP3   OH228753   3.454   5.735   3.674
 9599TIP3    H128754   3.497   5.733   3.760
 9599TIP3    H228755   3.496   5.807   3.628
 9600TIP3   OH228756   0.526   3.524   5.357
 9600TIP3    H128757   0.445   3.476   5.376
 9600TIP3    H228758   0.594   3.474   5.403
 9601TIP3   OH228759   1.204   2.458   3.938
 9601TIP3    H128760   1.278   2.411   3.977
 9601TIP3    H228761   1.175   2.518   4.006
 9602TIP3   OH228762   4.226   6.167   1.995
 9602TIP3    H128763   4.251   6.168   2.088
 9602TIP3    H228764   4.306   6.145   1.949
 9603TIP3   OH228765   6.158   6.192   1.153
 9603TIP3    H128766   6.067   6.201   1.181
 9603TIP3    H228767   6.153   6.142   1.071
 9604TIP3   OH228768   4.999   5.055   0.955
 9604TIP3    H128769   5.012   4.963   0.931
 9604TIP3    H228770   4.924   5.083   0.903
 9605TIP3   OH228771   4.948   7.466   2.692
 9605TIP3    H128772   4.864   7.468   2.646
 9605TIP3    H228773   4.974   7.558   2.699
 9606TIP3   OH228774   6.627   7.545   6.196
 9606TIP3    H128775   6.698   7.574   6.140
 9606TIP3    H228776   6.615   7.453   6.174
 9607TIP3   OH228777   5.969   0.805   4.559
 9607TIP3    H128778   6.064   0.803   4.551
 9607TIP3    H228779   5.952   0.857   4.637
 9608TIP3   OH228780   0.406   1.137   6.684
 9608TIP3    H128781   0.418   1.182   6.601
 9608TIP3    H228782   0.314   1.111   6.685
 9609TIP3   OH228783   6.308   6.900   5.536
 9609TIP3    H128784   6.297   6.920   5.629
 9609TIP3    H228785   6.225   6.858   5.511
 9610TIP3   OH228786   1.923   1.905   0.800
 9610TIP3    H128787   2.005   1.933   0.761
 9610TIP3    H228788   1.940   1.816   0.831
 9611TIP3   OH228789   8.084   3.171   1.956
 9611TIP3    H128790   8.012   3.166   1.893
 9611TIP3    H228791   8.145   3.103   1.928
 9612TIP3   OH228792   1.631   2.301   5.541
 9612TIP3    H128793   1.611   2.346   5.622
 9612TIP3    H228794   1.553   2.249   5.522
 9613TIP3   OH228795   7.255   0.737   3.241
 9613TIP3    H128796   7.277   0.785   3.161
 9613TIP3    H228797   7.194   0.669   3.212
 9614TIP3   OH228798   6.011   7.352   5.336
 9614TIP3    H128799   5.918   7.343   5.315
 9614TIP3    H228800   6.054   7.362   5.251
 9615TIP3   OH228801  -0.024   7.411   0.482
 9615TIP3    H128802   0.070   7.427   0.487
 9615TIP3    H228803  -0.061   7.497   0.461
 9616TIP3   OH228804   1.264   1.320  -0.016
 9616TIP3    H128805   1.283   1.297   0.074
 9616TIP3    H228806   1.181   1.275  -0.035
 9617TIP3   OH228807   5.023   7.375   3.717
 9617TIP3    H128808   5.098   7.326   3.683
 9617TIP3    H228809   5.055   7.416   3.797
 9618TIP3   OH228810   8.113   4.998   3.606
 9618TIP3    H128811   8.042   5.038   3.557
 9618TIP3    H228812   8.088   4.906   3.613
 9619TIP3   OH228813   5.827   7.714   6.576
 9619TIP3    H128814   5.824   7.647   6.644
 9619TIP3    H228815   5.898   7.685   6.518
 9620TIP3   OH228816   1.288   5.393   5.844
 9620TIP3    H128817   1.308   5.473   5.796
 9620TIP3    H228818   1.199   5.370   5.817
 9621TIP3   OH228819   7.377   3.113   0.129
 9621TIP3    H128820   7.435   3.126   0.204
 9621TIP3    H228821   7.434   3.125   0.053
 9622TIP3   OH228822   6.408   5.649   4.014
 9622TIP3    H128823   6.320   5.686   4.015
 9622TIP3    H228824   6.437   5.656   4.105
 9623TIP3   OH228825   3.234   1.247   3.318
 9623TIP3    H128826   3.310   1.198   3.350
 9623TIP3    H228827   3.221   1.215   3.228
 9624TIP3   OH228828   4.569   0.032   0.666
 9624TIP3    H128829   4.647   0.086   0.676
 9624TIP3    H228830   4.504   0.090   0.627
 9625TIP3   OH228831   7.291   5.528   2.505
 9625TIP3    H128832   7.236   5.487   2.439
 9625TIP3    H228833   7.381   5.507   2.478
 9626TIP3   OH228834   4.661   2.726   5.996
 9626TIP3    H128835   4.707   2.797   6.041
 9626TIP3    H228836   4.666   2.652   6.057
 9627TIP3   OH228837   6.479   2.092   1.478
 9627TIP3    H128838   6.434   2.012   1.450
 9627TIP3    H228839   6.429   2.123   1.553
 9628TIP3   OH228840  -0.005   7.118   6.244
 9628TIP3    H128841   0.018   7.101   6.153
 9628TIP3    H228842   0.062   7.073   6.295
 9629TIP3   OH228843   6.617   2.044   2.959
 9629TIP3    H128844   6.571   2.084   2.885
 9629TIP3    H228845   6.643   2.118   3.014
 9630TIP3   OH228846   4.809   4.825   4.063
 9630TIP3    H128847   4.886   4.785   4.024
 9630TIP3    H228848   4.831   4.836   4.155
 9631TIP3   OH228849   8.189   7.612   1.447
 9631TIP3    H128850   8.197   7.704   1.421
 9631TIP3    H228851   8.273   7.591   1.489
 9632TIP3   OH228852   2.382   5.702   4.449
 9632TIP3    H128853   2.376   5.693   4.354
 9632TIP3    H228854   2.305   5.657   4.482
 9633TIP3   OH228855   3.573   5.568   5.267
 9633TIP3    H128856   3.638   5.538   5.331
 9633TIP3    H228857   3.524   5.490   5.243
 9634TIP3   OH228858   2.909   0.884   2.681
 9634TIP3    H128859   2.833   0.925   2.639
 9634TIP3    H228860   2.873   0.843   2.760
 9635TIP3   OH228861   1.389   2.066   0.301
 9635TIP3    H128862   1.302   2.092   0.270
 9635TIP3    H228863   1.408   2.127   0.372
 9636TIP3   OH228864   4.367   4.547   4.619
 9636TIP3    H128865   4.426   4.571   4.548
 9636TIP3    H228866   4.350   4.454   4.606
 9637TIP3   OH228867   7.989   0.140   0.487
 9637TIP3    H128868   7.977   0.089   0.408
 9637TIP3    H228869   8.014   0.076   0.554
 9638TIP3   OH228870   1.372   6.772   2.797
 9638TIP3    H128871   1.446   6.800   2.743
 9638TIP3    H228872   1.322   6.712   2.741
 9639TIP3   OH228873   7.005   4.124   0.883
 9639TIP3    H128874   6.976   4.076   0.806
 9639TIP3    H228875   7.100   4.113   0.884
 9640TIP3   OH228876   7.912   7.020   2.867
 9640TIP3    H128877   7.923   6.929   2.839
 9640TIP3    H228878   7.842   7.054   2.812
 9641TIP3   OH228879   0.679   3.076   0.787
 9641TIP3    H128880   0.662   3.104   0.697
 9641TIP3    H228881   0.708   3.156   0.832
 9642TIP3   OH228882   5.972   4.965   2.379
 9642TIP3    H128883   5.927   4.926   2.303
 9642TIP3    H228884   6.058   4.923   2.379
 9643TIP3   OH228885   1.924   1.106   4.344
 9643TIP3    H128886   2.019   1.122   4.338
 9643TIP3    H228887   1.909   1.029   4.289
 9644TIP3   OH228888   3.017   6.981   2.027
 9644TIP3    H128889   3.073   6.910   1.993
 9644TIP3    H228890   2.962   7.005   1.953
 9645TIP3   OH228891   5.422   2.887   2.673
 9645TIP3    H128892   5.378   2.891   2.588
 9645TIP3    H228893   5.506   2.845   2.655
 9646TIP3   OH228894   4.231   1.238   1.668
 9646TIP3    H128895   4.190   1.215   1.752
 9646TIP3    H228896   4.257   1.329   1.678
 9647TIP3   OH228897   2.751   6.614   5.276
 9647TIP3    H128898   2.699   6.680   5.322
 9647TIP3    H228899   2.717   6.616   5.186
 9648TIP3   OH228900   7.147   5.385   0.211
 9648TIP3    H128901   7.192   5.364   0.129
 9648TIP3    H228902   7.217   5.391   0.276
 9649TIP3   OH228903   0.120   1.150   5.806
 9649TIP3    H128904   0.044   1.201   5.775
 9649TIP3    H228905   0.149   1.102   5.728
 9650TIP3   OH228906   6.059   2.241   2.307
 9650TIP3    H128907   5.971   2.237   2.345
 9650TIP3    H228908   6.082   2.334   2.309
 9651TIP3   OH228909   5.346   0.582   1.350
 9651TIP3    H128910   5.331   0.489   1.337
 9651TIP3    H228911   5.320   0.622   1.267
 9652TIP3   OH228912   0.685   1.188   2.193
 9652TIP3    H128913   0.748   1.230   2.134
 9652TIP3    H228914   0.606   1.241   2.187
 9653TIP3   OH228915   4.415   7.301   4.679
 9653TIP3    H128916   4.469   7.328   4.604
 9653TIP3    H228917   4.373   7.381   4.708
 9654TIP3   OH228918   3.833   3.593   2.091
 9654TIP3    H128919   3.904   3.654   2.070
 9654TIP3    H228920   3.859   3.511   2.049
 9655TIP3   OH228921   0.871   0.147   3.861
 9655TIP3    H128922   0.876   0.156   3.956
 9655TIP3    H228923   0.943   0.201   3.828
 9656TIP3   OH228924   5.080   7.656   1.377
 9656TIP3    H128925   5.021   7.708   1.323
 9656TIP3    H228926   5.119   7.592   1.317
 9657TIP3   OH228927   3.388   4.987   4.561
 9657TIP3    H128928   3.341   4.998   4.643
 9657TIP3    H228929   3.417   5.075   4.537
 9658TIP3   OH228930   1.804   5.096   6.623
 9658TIP3    H128931   1.894   5.122   6.604
 9658TIP3    H228932   1.750   5.166   6.585
 9659TIP3   OH228933   4.649   6.816   0.674
 9659TIP3    H128934   4.706   6.879   0.631
 9659TIP3    H228935   4.659   6.736   0.622
 9660TIP3   OH228936   6.000   1.259   4.680
 9660TIP3    H128937   6.003   1.321   4.607
 9660TIP3    H228938   6.068   1.289   4.740
 9661TIP3   OH228939   4.203   1.710   5.051
 9661TIP3    H128940   4.180   1.742   5.138
 9661TIP3    H228941   4.118   1.693   5.009
 9662TIP3   OH228942   0.955   5.632   1.589
 9662TIP3    H128943   1.001   5.563   1.543
 9662TIP3    H228944   1.014   5.708   1.586
 9663TIP3   OH228945   7.533   6.074   4.503
 9663TIP3    H128946   7.496   6.091   4.589
 9663TIP3    H228947   7.564   5.984   4.507
 9664TIP3   OH228948   4.128   3.717   3.995
 9664TIP3    H128949   4.062   3.649   4.009
 9664TIP3    H228950   4.134   3.763   4.079
 9665TIP3   OH228951   3.145   1.908   0.128
 9665TIP3    H128952   3.102   1.883   0.046
 9665TIP3    H228953   3.088   1.975   0.166
 9666TIP3   OH228954   3.909   1.709   0.459
 9666TIP3    H128955   3.984   1.750   0.502
 9666TIP3    H228956   3.906   1.621   0.496
 9667TIP3   OH228957   2.186   4.997   4.561
 9667TIP3    H128958   2.146   5.025   4.478
 9667TIP3    H228959   2.258   5.058   4.575
 9668TIP3   OH228960   2.325   5.188   1.450
 9668TIP3    H128961   2.291   5.275   1.427
 9668TIP3    H228962   2.402   5.206   1.504
 9669TIP3   OH228963   4.925   4.445   2.559
 9669TIP3    H128964   4.985   4.426   2.486
 9669TIP3    H228965   4.901   4.359   2.593
 9670TIP3   OH228966   6.967   7.855   0.326
 9670TIP3    H128967   7.045   7.830   0.276
 9670TIP3    H228968   6.975   7.808   0.409
 9671TIP3   OH228969   0.511   7.701   5.723
 9671TIP3    H128970   0.548   7.789   5.714
 9671TIP3    H228971   0.445   7.696   5.654
 9672TIP3   OH228972   6.974   4.151   2.390
 9672TIP3    H128973   6.944   4.210   2.322
 9672TIP3    H228974   6.992   4.069   2.345
 9673TIP3   OH228975   4.336   1.953   6.501
 9673TIP3    H128976   4.269   2.015   6.530
 9673TIP3    H228977   4.419   1.994   6.527
 9674TIP3   OH228978   5.724   6.587   6.164
 9674TIP3    H128979   5.699   6.585   6.072
 9674TIP3    H228980   5.686   6.507   6.201
 9675TIP3   OH228981   2.781   6.917   2.926
 9675TIP3    H128982   2.700   6.869   2.947
 9675TIP3    H228983   2.795   6.974   3.001
 9676TIP3   OH228984   5.369   5.678   5.191
 9676TIP3    H128985   5.428   5.753   5.192
 9676TIP3    H228986   5.329   5.678   5.278
 9677TIP3   OH228987   7.681   0.479   1.510
 9677TIP3    H128988   7.777   0.478   1.512
 9677TIP3    H228989   7.656   0.389   1.488
 9678TIP3   OH228990   8.040   3.241   3.765
 9678TIP3    H128991   8.127   3.200   3.771
 9678TIP3    H228992   8.025   3.279   3.851
 9679TIP3   OH228993   7.880   2.541   4.957
 9679TIP3    H128994   7.803   2.518   5.010
 9679TIP3    H228995   7.867   2.495   4.874
 9680TIP3   OH228996   2.069   7.205   6.131
 9680TIP3    H128997   2.011   7.262   6.079
 9680TIP3    H228998   2.009   7.157   6.188
 9681TIP3   OH228999   6.722   6.959   3.352
 9681TIP3    H129000   6.742   7.001   3.268
 9681TIP3    H229001   6.797   6.979   3.408
 9682TIP3   OH229002   3.071   6.964   0.766
 9682TIP3    H129003   3.158   6.928   0.747
 9682TIP3    H229004   3.062   6.957   0.861
 9683TIP3   OH229005   3.966   2.011   1.562
 9683TIP3    H129006   3.947   2.102   1.586
 9683TIP3    H229007   4.055   1.996   1.595
 9684TIP3   OH229008   7.505   0.813   4.201
 9684TIP3    H129009   7.488   0.792   4.293
 9684TIP3    H229010   7.496   0.908   4.196
 9685TIP3   OH229011   0.266   2.879   6.383
 9685TIP3    H129012   0.204   2.856   6.314
 9685TIP3    H229013   0.233   2.961   6.420
 9686TIP3   OH229014   5.101   5.835   1.662
 9686TIP3    H129015   5.119   5.894   1.735
 9686TIP3    H229016   5.149   5.755   1.683
 9687TIP3   OH229017   6.460   2.961   3.149
 9687TIP3    H129018   6.430   2.913   3.227
 9687TIP3    H229019   6.386   3.017   3.125
 9688TIP3   OH229020   2.020   1.398   6.103
 9688TIP3    H129021   2.075   1.375   6.178
 9688TIP3    H229022   1.935   1.419   6.142
 9689TIP3   OH229023   7.587   7.806   4.742
 9689TIP3    H129024   7.568   7.730   4.797
 9689TIP3    H229025   7.512   7.811   4.681
 9690TIP3   OH229026   2.951   3.372   0.922
 9690TIP3    H129027   3.045   3.354   0.928
 9690TIP3    H229028   2.922   3.321   0.847
 9691TIP3   OH229029   1.593   4.353   1.197
 9691TIP3    H129030   1.509   4.309   1.184
 9691TIP3    H229031   1.635   4.350   1.111
 9692TIP3   OH229032   4.651   0.341   5.981
 9692TIP3    H129033   4.694   0.411   5.931
 9692TIP3    H229034   4.636   0.380   6.068
 9693TIP3   OH229035   4.288   4.712   1.307
 9693TIP3    H129036   4.342   4.790   1.303
 9693TIP3    H229037   4.243   4.717   1.391
 9694TIP3   OH229038   3.858   5.265   0.975
 9694TIP3    H129039   3.935   5.322   0.975
 9694TIP3    H229040   3.794   5.311   1.029
 9695TIP3   OH229041   3.028   2.532   4.151
 9695TIP3    H129042   2.957   2.534   4.087
 9695TIP3    H229043   3.038   2.439   4.174
 9696TIP3   OH229044   0.845   4.798   6.102
 9696TIP3    H129045   0.797   4.846   6.169
 9696TIP3    H229046   0.937   4.815   6.120
 9697TIP3   OH229047   5.308   4.395   4.376
 9697TIP3    H129048   5.363   4.445   4.437
 9697TIP3    H229049   5.271   4.326   4.430
 9698TIP3   OH229050   1.783   7.093   2.648
 9698TIP3    H129051   1.775   7.103   2.553
 9698TIP3    H229052   1.756   7.179   2.683
 9699TIP3   OH229053   4.931   5.814   5.554
 9699TIP3    H129054   4.994   5.762   5.504
 9699TIP3    H229055   4.935   5.901   5.515
 9700TIP3   OH229056   6.541   1.986   0.458
 9700TIP3    H129057   6.543   2.071   0.501
 9700TIP3    H229058   6.632   1.969   0.434
 9701TIP3   OH229059   0.892   6.777   2.343
 9701TIP3    H129060   0.953   6.704   2.342
 9701TIP3    H229061   0.946   6.854   2.322
 9702TIP3   OH229062   0.727   4.816   2.736
 9702TIP3    H129063   0.724   4.909   2.714
 9702TIP3    H229064   0.664   4.807   2.808
 9703TIP3   OH229065   3.748   3.998   4.993
 9703TIP3    H129066   3.689   4.073   5.003
 9703TIP3    H229067   3.822   4.018   5.051
 9704TIP3   OH229068   7.762   2.743   0.152
 9704TIP3    H129069   7.819   2.677   0.192
 9704TIP3    H229070   7.740   2.707   0.066
 9705TIP3   OH229071   1.164   1.392   4.636
 9705TIP3    H129072   1.151   1.484   4.656
 9705TIP3    H229073   1.125   1.380   4.549
 9706TIP3   OH229074   3.504   7.296   1.677
 9706TIP3    H129075   3.431   7.331   1.627
 9706TIP3    H229076   3.509   7.204   1.652
 9707TIP3   OH229077   5.615   5.550   0.775
 9707TIP3    H129078   5.550   5.619   0.791
 9707TIP3    H229079   5.580   5.473   0.820
 9708TIP3   OH229080   0.065   5.494   0.879
 9708TIP3    H129081   0.103   5.533   0.958
 9708TIP3    H229082   0.051   5.402   0.902
 9709TIP3   OH229083   5.210   6.509   2.359
 9709TIP3    H129084   5.126   6.546   2.330
 9709TIP3    H229085   5.230   6.555   2.440
 9710TIP3   OH229086   2.346   7.253   5.517
 9710TIP3    H129087   2.312   7.323   5.574
 9710TIP3    H229088   2.272   7.194   5.504
 9711TIP3   OH229089   1.149   7.724   6.361
 9711TIP3    H129090   1.063   7.744   6.324
 9711TIP3    H229091   1.150   7.768   6.446
 9712TIP3   OH229092   7.568   3.592   3.578
 9712TIP3    H129093   7.609   3.634   3.502
 9712TIP3    H229094   7.612   3.631   3.654
 9713TIP3   OH229095   1.979   6.629   5.705
 9713TIP3    H129096   2.066   6.589   5.697
 9713TIP3    H229097   1.919   6.562   5.672
 9714TIP3   OH229098   6.660   1.712   0.274
 9714TIP3    H129099   6.693   1.792   0.314
 9714TIP3    H229100   6.739   1.666   0.244
 9715TIP3   OH229101   5.578   2.969   2.090
 9715TIP3    H129102   5.529   2.900   2.046
 9715TIP3    H229103   5.513   3.037   2.108
 9716TIP3   OH229104   7.953   1.073   0.468
 9716TIP3    H129105   7.948   1.075   0.372
 9716TIP3    H229106   8.036   1.117   0.488
 9717TIP3   OH229107   3.743   7.040   0.795
 9717TIP3    H129108   3.784   7.099   0.731
 9717TIP3    H229109   3.772   7.073   0.880
 9718TIP3   OH229110   0.763   6.176   5.865
 9718TIP3    H129111   0.847   6.146   5.830
 9718TIP3    H229112   0.758   6.268   5.838
 9719TIP3   OH229113   6.085   4.652   6.678
 9719TIP3    H129114   6.091   4.577   6.618
 9719TIP3    H229115   6.005   4.636   6.728
 9720TIP3   OH229116   7.063   0.328   2.157
 9720TIP3    H129117   7.141   0.327   2.212
 9720TIP3    H229118   7.076   0.402   2.098
 9721TIP3   OH229119   8.092   6.261   1.521
 9721TIP3    H129120   8.015   6.307   1.488
 9721TIP3    H229121   8.111   6.302   1.606
 9722TIP3   OH229122   2.993   3.397   0.461
 9722TIP3    H129123   3.056   3.444   0.516
 9722TIP3    H229124   2.908   3.433   0.485
 9723TIP3   OH229125   7.940   7.791   5.762
 9723TIP3    H129126   7.881   7.848   5.811
 9723TIP3    H229127   7.980   7.849   5.697
 9724TIP3   OH229128   0.706   4.592   4.934
 9724TIP3    H129129   0.766   4.598   5.008
 9724TIP3    H229130   0.671   4.502   4.938
 9725TIP3   OH229131   3.534   5.534   2.822
 9725TIP3    H129132   3.517   5.544   2.915
 9725TIP3    H229133   3.540   5.440   2.807
 9726TIP3   OH229134   6.836   7.402   2.307
 9726TIP3    H129135   6.887   7.326   2.336
 9726TIP3    H229136   6.784   7.368   2.234
 9727TIP3   OH229137   0.381   3.126   5.327
 9727TIP3    H129138   0.460   3.072   5.330
 9727TIP3    H229139   0.314   3.073   5.369
 9728TIP3   OH229140   4.134   7.158   3.209
 9728TIP3    H129141   4.216   7.114   3.231
 9728TIP3    H229142   4.098   7.186   3.293
 9729TIP3   OH229143   1.474   4.218   1.896
 9729TIP3    H129144   1.401   4.163   1.924
 9729TIP3    H229145   1.522   4.237   1.977
 9730TIP3   OH229146   6.726   7.506   4.914
 9730TIP3    H129147   6.688   7.515   4.826
 9730TIP3    H229148   6.724   7.412   4.931
 9731TIP3   OH229149   4.044   7.223   3.491
 9731TIP3    H129150   4.092   7.140   3.492
 9731TIP3    H229151   3.990   7.220   3.570
 9732TIP3   OH229152   1.970   2.598   3.523
 9732TIP3    H129153   1.983   2.683   3.480
 9732TIP3    H229154   1.916   2.619   3.600
 9733TIP3   OH229155   7.143   2.788   2.747
 9733TIP3    H129156   7.101   2.872   2.730
 9733TIP3    H229157   7.098   2.753   2.823
 9734TIP3   OH229158   5.025   1.956   3.365
 9734TIP3    H129159   5.046   2.010   3.441
 9734TIP3    H229160   5.075   1.876   3.378
 9735TIP3   OH229161   1.590   3.028   5.894
 9735TIP3    H129162   1.637   3.032   5.977
 9735TIP3    H229163   1.509   3.076   5.909
 9736TIP3   OH229164   2.324   4.076   5.139
 9736TIP3    H129165   2.358   3.987   5.155
 9736TIP3    H229166   2.231   4.070   5.161
 9737TIP3   OH229167   6.881   7.054   5.968
 9737TIP3    H129168   6.854   7.040   6.059
 9737TIP3    H229169   6.920   7.141   5.967
 9738TIP3   OH229170   6.843   0.781   6.293
 9738TIP3    H129171   6.816   0.690   6.280
 9738TIP3    H229172   6.770   0.820   6.342
 9739TIP3   OH229173   5.359   0.991   5.268
 9739TIP3    H129174   5.310   0.961   5.192
 9739TIP3    H229175   5.351   0.921   5.332
 9740TIP3   OH229176   7.121   6.613   5.196
 9740TIP3    H129177   7.086   6.554   5.129
 9740TIP3    H229178   7.044   6.655   5.233
 9741TIP3   OH229179   3.944   5.068   2.389
 9741TIP3    H129180   3.946   5.042   2.482
 9741TIP3    H229181   4.016   5.129   2.379
 9742TIP3   OH229182   4.553   2.897   3.807
 9742TIP3    H129183   4.489   2.951   3.759
 9742TIP3    H229184   4.504   2.818   3.831
 9743TIP3   OH229185   3.672   0.020   4.108
 9743TIP3    H129186   3.654   0.029   4.014
 9743TIP3    H229187   3.656  -0.073   4.126
 9744TIP3   OH229188   0.260   7.404   0.518
 9744TIP3    H129189   0.353   7.415   0.497
 9744TIP3    H229190   0.247   7.309   0.517
 9745TIP3   OH229191   7.919   5.554   1.287
 9745TIP3    H129192   7.999   5.542   1.236
 9745TIP3    H229193   7.861   5.602   1.227
 9746TIP3   OH229194   1.545   0.405   2.521
 9746TIP3    H129195   1.474   0.384   2.582
 9746TIP3    H229196   1.614   0.342   2.543
 9747TIP3   OH229197   0.990   6.690   1.671
 9747TIP3    H129198   1.027   6.619   1.723
 9747TIP3    H229199   0.987   6.655   1.582
 9748TIP3   OH229200   6.368   1.864   3.382
 9748TIP3    H129201   6.281   1.844   3.417
 9748TIP3    H229202   6.352   1.900   3.295
 9749TIP3   OH229203   1.173   6.489   5.241
 9749TIP3    H129204   1.092   6.440   5.223
 9749TIP3    H229205   1.226   6.479   5.162
 9750TIP3   OH229206   7.557   3.297   1.658
 9750TIP3    H129207   7.652   3.291   1.673
 9750TIP3    H229208   7.525   3.348   1.733
 9751TIP3   OH229209   1.641   0.070   4.878
 9751TIP3    H129210   1.733   0.064   4.907
 9751TIP3    H229211   1.590   0.050   4.957
 9752TIP3   OH229212   2.530   2.903   2.229
 9752TIP3    H129213   2.584   2.830   2.198
 9752TIP3    H229214   2.487   2.869   2.308
 9753TIP3   OH229215   0.243   7.568   6.720
 9753TIP3    H129216   0.270   7.488   6.676
 9753TIP3    H229217   0.173   7.541   6.780
 9754TIP3   OH229218   5.434   6.593   1.892
 9754TIP3    H129219   5.468   6.675   1.857
 9754TIP3    H229220   5.411   6.613   1.982
 9755TIP3   OH229221   6.132   6.095   2.131
 9755TIP3    H129222   6.091   6.008   2.126
 9755TIP3    H229223   6.225   6.078   2.118
 9756TIP3   OH229224   3.016   6.327   5.257
 9756TIP3    H129225   3.042   6.368   5.340
 9756TIP3    H229226   3.080   6.360   5.194
 9757TIP3   OH229227   1.450   4.151   0.612
 9757TIP3    H129228   1.534   4.120   0.578
 9757TIP3    H229229   1.462   4.246   0.622
 9758TIP3   OH229230   7.238   3.770   5.697
 9758TIP3    H129231   7.181   3.845   5.676
 9758TIP3    H229232   7.298   3.804   5.764
 9759TIP3   OH229233   4.082   0.121   4.246
 9759TIP3    H129234   4.018   0.077   4.302
 9759TIP3    H229235   4.110   0.198   4.296
 9760TIP3   OH229236   4.773   5.302   2.120
 9760TIP3    H129237   4.742   5.392   2.123
 9760TIP3    H229238   4.848   5.304   2.061
 9761TIP3   OH229239   0.503   0.802   4.001
 9761TIP3    H129240   0.411   0.811   4.024
 9761TIP3    H229241   0.533   0.726   4.051
 9762TIP3   OH229242   3.987   0.192   5.046
 9762TIP3    H129243   4.057   0.133   5.072
 9762TIP3    H229244   3.995   0.267   5.105
 9763TIP3   OH229245   8.217   4.119   2.759
 9763TIP3    H129246   8.126   4.131   2.731
 9763TIP3    H229247   8.269   4.150   2.686
 9764TIP3   OH229248   7.463   4.306   0.318
 9764TIP3    H129249   7.544   4.278   0.275
 9764TIP3    H229250   7.403   4.327   0.246
 9765TIP3   OH229251   4.070   3.459   2.399
 9765TIP3    H129252   4.029   3.382   2.359
 9765TIP3    H229253   4.159   3.461   2.361
 9766TIP3   OH229254   1.423   7.098   2.666
 9766TIP3    H129255   1.383   7.184   2.658
 9766TIP3    H229256   1.463   7.099   2.753
 9767TIP3   OH229257   3.901   4.668   1.455
 9767TIP3    H129258   3.976   4.630   1.410
 9767TIP3    H229259   3.833   4.674   1.388
 9768TIP3   OH229260   3.512   2.329   5.819
 9768TIP3    H129261   3.510   2.336   5.724
 9768TIP3    H229262   3.458   2.252   5.839
 9769TIP3   OH229263   6.582   7.108   0.685
 9769TIP3    H129264   6.577   7.040   0.752
 9769TIP3    H229265   6.580   7.061   0.602
 9770TIP3   OH229266   6.856   1.746   1.754
 9770TIP3    H129267   6.904   1.829   1.761
 9770TIP3    H229268   6.786   1.754   1.819
 9771TIP3   OH229269   4.754   0.636   5.046
 9771TIP3    H129270   4.800   0.651   4.964
 9771TIP3    H229271   4.694   0.563   5.027
 9772TIP3   OH229272   0.871   5.940   3.980
 9772TIP3    H129273   0.804   5.877   4.006
 9772TIP3    H229274   0.835   5.981   3.901
 9773TIP3   OH229275   4.160   5.724   2.827
 9773TIP3    H129276   4.101   5.767   2.765
 9773TIP3    H229277   4.218   5.672   2.772
 9774TIP3   OH229278   7.596   2.416   3.470
 9774TIP3    H129279   7.525   2.387   3.413
 9774TIP3    H229280   7.602   2.347   3.536
 9775TIP3   OH229281   2.172   2.392   1.821
 9775TIP3    H129282   2.086   2.430   1.805
 9775TIP3    H229283   2.160   2.298   1.807
 9776TIP3   OH229284   2.231   6.272   5.505
 9776TIP3    H129285   2.236   6.190   5.456
 9776TIP3    H229286   2.261   6.338   5.443
 9777TIP3   OH229287   2.380   6.192   4.703
 9777TIP3    H129288   2.341   6.176   4.617
 9777TIP3    H229289   2.457   6.246   4.684
 9778TIP3   OH229290   3.285   5.079   3.093
 9778TIP3    H129291   3.253   5.043   3.176
 9778TIP3    H229292   3.361   5.132   3.118
 9779TIP3   OH229293   7.609   4.114   2.199
 9779TIP3    H129294   7.563   4.091   2.280
 9779TIP3    H229295   7.541   4.146   2.141
 9780TIP3   OH229296   0.385   3.448   5.986
 9780TIP3    H129297   0.430   3.532   5.981
 9780TIP3    H229298   0.326   3.447   5.911
 9781TIP3   OH229299   2.494   0.865   0.899
 9781TIP3    H129300   2.437   0.922   0.951
 9781TIP3    H229301   2.529   0.803   0.962
 9782TIP3   OH229302   6.762   7.722   2.744
 9782TIP3    H129303   6.736   7.810   2.716
 9782TIP3    H229304   6.706   7.663   2.694
 9783TIP3   OH229305   4.854   2.886   5.516
 9783TIP3    H129306   4.789   2.836   5.466
 9783TIP3    H229307   4.828   2.874   5.607
 9784TIP3   OH229308   2.511   1.406   1.280
 9784TIP3    H129309   2.544   1.348   1.212
 9784TIP3    H229310   2.418   1.382   1.288
 9785TIP3   OH229311   6.401   1.469   0.632
 9785TIP3    H129312   6.393   1.419   0.551
 9785TIP3    H229313   6.490   1.503   0.631
 9786TIP3   OH229314   8.072   5.618   2.162
 9786TIP3    H129315   8.067   5.595   2.255
 9786TIP3    H229316   8.114   5.704   2.160
 9787TIP3   OH229317   6.947   4.870   0.034
 9787TIP3    H129318   6.870   4.868   0.091
 9787TIP3    H229319   6.971   4.962   0.029
 9788TIP3   OH229320   1.653   2.559   0.779
 9788TIP3    H129321   1.723   2.601   0.829
 9788TIP3    H229322   1.578   2.558   0.838
 9789TIP3   OH229323   2.969   1.310   1.915
 9789TIP3    H129324   2.941   1.262   1.837
 9789TIP3    H229325   2.888   1.335   1.959
 9790TIP3   OH229326   7.266   4.491   1.611
 9790TIP3    H129327   7.294   4.533   1.530
 9790TIP3    H229328   7.240   4.564   1.668
 9791TIP3   OH229329   8.095   4.292   2.154
 9791TIP3    H129330   8.040   4.214   2.149
 9791TIP3    H229331   8.049   4.358   2.103
 9792TIP3   OH229332   0.602   5.365   4.318
 9792TIP3    H129333   0.613   5.273   4.341
 9792TIP3    H229334   0.509   5.374   4.295
 9793TIP3   OH229335   1.134   2.668   1.342
 9793TIP3    H129336   1.150   2.720   1.264
 9793TIP3    H229337   1.209   2.608   1.347
 9794TIP3   OH229338   0.631   5.414   5.113
 9794TIP3    H129339   0.706   5.410   5.054
 9794TIP3    H229340   0.570   5.474   5.070
 9795TIP3   OH229341   2.142   2.076   3.521
 9795TIP3    H129342   2.135   2.171   3.524
 9795TIP3    H229343   2.236   2.059   3.530
 9796TIP3   OH229344   8.073   6.891   5.642
 9796TIP3    H129345   8.108   6.949   5.709
 9796TIP3    H229346   8.003   6.943   5.600
 9797TIP3   OH229347   3.005   2.607   5.235
 9797TIP3    H129348   2.935   2.666   5.206
 9797TIP3    H229349   3.046   2.653   5.309
 9798TIP3   OH229350   1.250   3.799   1.985
 9798TIP3    H129351   1.276   3.708   2.004
 9798TIP3    H229352   1.316   3.852   2.029
 9799TIP3   OH229353   3.971   2.381   5.513
 9799TIP3    H129354   4.001   2.301   5.469
 9799TIP3    H229355   3.975   2.360   5.606
 9800TIP3   OH229356   1.128   4.282   0.164
 9800TIP3    H129357   1.127   4.253   0.255
 9800TIP3    H229358   1.167   4.369   0.166
 9801TIP3   OH229359   8.074   6.378   1.764
 9801TIP3    H129360   8.156   6.425   1.781
 9801TIP3    H229361   8.051   6.340   1.849
 9802TIP3   OH229362   0.098   5.234   5.190
 9802TIP3    H129363   0.102   5.140   5.202
 9802TIP3    H229364   0.129   5.270   5.273
 9803TIP3   OH229365   0.740   1.191   3.056
 9803TIP3    H129366   0.700   1.147   3.131
 9803TIP3    H229367   0.719   1.135   2.982
 9804TIP3   OH229368   4.875   2.107   1.053
 9804TIP3    H129369   4.846   2.045   0.985
 9804TIP3    H229370   4.820   2.184   1.041
 9805TIP3   OH229371   5.637   4.005   1.731
 9805TIP3    H129372   5.554   4.034   1.694
 9805TIP3    H229373   5.612   3.944   1.801
 9806TIP3   OH229374   4.419   2.367   5.178
 9806TIP3    H129375   4.371   2.414   5.246
 9806TIP3    H229376   4.504   2.411   5.174
 9807TIP3   OH229377   0.688   6.208   3.583
 9807TIP3    H129378   0.776   6.195   3.547
 9807TIP3    H229379   0.630   6.182   3.511
 9808TIP3   OH229380   2.925   0.765   5.472
 9808TIP3    H129381   2.884   0.723   5.547
 9808TIP3    H229382   3.004   0.805   5.506
 9809TIP3   OH229383   5.267   0.566   0.713
 9809TIP3    H129384   5.283   0.640   0.654
 9809TIP3    H229385   5.273   0.489   0.656
 9810TIP3   OH229386   4.649   2.183   5.376
 9810TIP3    H129387   4.655   2.123   5.451
 9810TIP3    H229388   4.574   2.151   5.326
 9811TIP3   OH229389   1.032   4.213   0.763
 9811TIP3    H129390   1.024   4.298   0.718
 9811TIP3    H229391   0.966   4.158   0.720
 9812TIP3   OH229392   7.815   2.156   6.585
 9812TIP3    H129393   7.858   2.222   6.640
 9812TIP3    H229394   7.732   2.138   6.628
 9813TIP3   OH229395   0.908   2.961   6.702
 9813TIP3    H129396   0.914   3.020   6.627
 9813TIP3    H229397   0.922   2.874   6.665
 9814TIP3   OH229398   2.452   2.956   1.169
 9814TIP3    H129399   2.524   2.941   1.108
 9814TIP3    H229400   2.453   3.051   1.184
 9815TIP3   OH229401   1.623   6.851   2.698
 9815TIP3    H129402   1.679   6.917   2.657
 9815TIP3    H229403   1.629   6.775   2.640
 9816TIP3   OH229404   0.763   5.922   0.205
 9816TIP3    H129405   0.713   5.924   0.287
 9816TIP3    H229406   0.792   5.832   0.197
 9817TIP3   OH229407   7.393   0.173   2.726
 9817TIP3    H129408   7.333   0.144   2.795
 9817TIP3    H229409   7.414   0.093   2.678
 9818TIP3   OH229410   3.718   7.662   5.943
 9818TIP3    H129411   3.623   7.652   5.955
 9818TIP3    H229412   3.729   7.753   5.917
 9819TIP3   OH229413   4.260   3.331   4.885
 9819TIP3    H129414   4.354   3.321   4.870
 9819TIP3    H229415   4.255   3.386   4.963
 9820TIP3   OH229416   7.793   7.777   0.965
 9820TIP3    H129417   7.878   7.736   0.977
 9820TIP3    H229418   7.754   7.731   0.891
 9821TIP3   OH229419   7.357   7.613   6.287
 9821TIP3    H129420   7.376   7.703   6.313
 9821TIP3    H229421   7.315   7.573   6.363
 9822TIP3   OH229422   0.508   4.799   4.333
 9822TIP3    H129423   0.519   4.772   4.242
 9822TIP3    H229424   0.512   4.895   4.330
 9823TIP3   OH229425   2.886   6.779   2.408
 9823TIP3    H129426   2.954   6.711   2.410
 9823TIP3    H229427   2.906   6.835   2.484
 9824TIP3   OH229428   3.481   4.724   4.483
 9824TIP3    H129429   3.444   4.812   4.485
 9824TIP3    H229430   3.554   4.731   4.421
 9825TIP3   OH229431   5.078   0.730   3.501
 9825TIP3    H129432   5.039   0.649   3.469
 9825TIP3    H229433   5.008   0.795   3.497
 9826TIP3   OH229434   8.158   3.365   2.988
 9826TIP3    H129435   8.209   3.301   2.940
 9826TIP3    H229436   8.210   3.384   3.067
 9827TIP3   OH229437   2.305   2.636   6.651
 9827TIP3    H129438   2.385   2.594   6.682
 9827TIP3    H229439   2.321   2.652   6.558
 9828TIP3   OH229440   0.901   5.093   5.652
 9828TIP3    H129441   0.924   5.061   5.564
 9828TIP3    H229442   0.847   5.170   5.635
 9829TIP3   OH229443   0.299   2.751   2.498
 9829TIP3    H129444   0.240   2.826   2.495
 9829TIP3    H229445   0.252   2.685   2.549
 9830TIP3   OH229446   5.927   7.740   1.557
 9830TIP3    H129447   5.983   7.717   1.484
 9830TIP3    H229448   5.843   7.763   1.517
 9831TIP3   OH229449   1.709   0.390   0.530
 9831TIP3    H129450   1.752   0.474   0.516
 9831TIP3    H229451   1.781   0.331   0.556
 9832TIP3   OH229452   4.836   0.152   3.401
 9832TIP3    H129453   4.779   0.076   3.410
 9832TIP3    H229454   4.924   0.118   3.413
 9833TIP3   OH229455   4.794   2.915   3.653
 9833TIP3    H129456   4.720   2.911   3.713
 9833TIP3    H229457   4.871   2.901   3.708
 9834TIP3   OH229458   7.223   4.530   4.142
 9834TIP3    H129459   7.292   4.480   4.187
 9834TIP3    H229460   7.259   4.618   4.135
 9835TIP3   OH229461   6.186   3.739   1.300
 9835TIP3    H129462   6.164   3.776   1.215
 9835TIP3    H229463   6.183   3.813   1.360
 9836TIP3   OH229464   4.954   4.145   2.558
 9836TIP3    H129465   5.050   4.139   2.560
 9836TIP3    H229466   4.925   4.055   2.570
 9837TIP3   OH229467   5.881   3.199   5.781
 9837TIP3    H129468   5.975   3.189   5.767
 9837TIP3    H229469   5.850   3.245   5.703
 9838TIP3   OH229470   6.512   1.447   3.279
 9838TIP3    H129471   6.508   1.432   3.374
 9838TIP3    H229472   6.538   1.363   3.242
 9839TIP3   OH229473   0.974   5.879   6.696
 9839TIP3    H129474   0.942   5.823   6.767
 9839TIP3    H229475   1.006   5.958   6.740
 9840TIP3   OH229476   6.838   3.256   3.818
 9840TIP3    H129477   6.859   3.322   3.752
 9840TIP3    H229478   6.752   3.280   3.851
 9841TIP3   OH229479   2.628   5.948   4.458
 9841TIP3    H129480   2.570   5.930   4.533
 9841TIP3    H229481   2.589   5.899   4.386
 9842TIP3   OH229482   5.888   6.803   0.498
 9842TIP3    H129483   5.817   6.823   0.558
 9842TIP3    H229484   5.846   6.792   0.413
 9843TIP3   OH229485   5.312   5.375   1.152
 9843TIP3    H129486   5.325   5.426   1.232
 9843TIP3    H229487   5.274   5.293   1.182
 9844TIP3   OH229488   7.575   3.562   0.211
 9844TIP3    H129489   7.562   3.477   0.170
 9844TIP3    H229490   7.549   3.625   0.143
 9845TIP3   OH229491   1.796   1.326   3.292
 9845TIP3    H129492   1.727   1.263   3.312
 9845TIP3    H229493   1.869   1.300   3.348
 9846TIP3   OH229494   6.722   0.365   0.119
 9846TIP3    H129495   6.734   0.446   0.169
 9846TIP3    H229496   6.809   0.325   0.117
 9847TIP3   OH229497   7.038   5.224   5.506
 9847TIP3    H129498   7.118   5.181   5.473
 9847TIP3    H229499   6.983   5.151   5.536
 9848TIP3   OH229500   2.050   5.691   5.725
 9848TIP3    H129501   2.051   5.618   5.787
 9848TIP3    H229502   1.967   5.682   5.678
 9849TIP3   OH229503   7.012   7.771   3.397
 9849TIP3    H129504   6.993   7.679   3.378
 9849TIP3    H229505   7.061   7.802   3.321
 9850TIP3   OH229506   6.526   1.788   5.228
 9850TIP3    H129507   6.495   1.815   5.315
 9850TIP3    H229508   6.447   1.765   5.180
 9851TIP3   OH229509   1.114   1.014   3.434
 9851TIP3    H129510   1.165   1.076   3.383
 9851TIP3    H229511   1.028   1.013   3.392
 9852TIP3   OH229512   4.690   4.298   0.216
 9852TIP3    H129513   4.646   4.264   0.294
 9852TIP3    H229514   4.674   4.232   0.149
 9853TIP3   OH229515   3.978   6.726   0.494
 9853TIP3    H129516   3.935   6.805   0.524
 9853TIP3    H229517   3.919   6.655   0.519
 9854TIP3   OH229518   4.026   6.361   4.343
 9854TIP3    H129519   4.020   6.439   4.398
 9854TIP3    H229520   3.939   6.352   4.304
 9855TIP3   OH229521   0.630   2.026   5.763
 9855TIP3    H129522   0.639   1.959   5.695
 9855TIP3    H229523   0.657   2.107   5.719
 9856TIP3   OH229524   2.270   2.148   0.882
 9856TIP3    H129525   2.344   2.206   0.863
 9856TIP3    H229526   2.268   2.140   0.977
 9857TIP3   OH229527   4.401   2.119   1.550
 9857TIP3    H129528   4.434   2.202   1.518
 9857TIP3    H229529   4.454   2.100   1.627
 9858TIP3   OH229530   3.454   6.242   3.159
 9858TIP3    H129531   3.365   6.273   3.174
 9858TIP3    H229532   3.470   6.261   3.066
 9859TIP3   OH229533   3.708   1.449   2.477
 9859TIP3    H129534   3.727   1.452   2.571
 9859TIP3    H229535   3.776   1.392   2.441
 9860TIP3   OH229536   6.730   1.293   0.139
 9860TIP3    H129537   6.773   1.352   0.077
 9860TIP3    H229538   6.654   1.260   0.092
 9861TIP3   OH229539   6.250   7.611   0.594
 9861TIP3    H129540   6.218   7.698   0.616
 9861TIP3    H229541   6.338   7.625   0.559
 9862TIP3   OH229542   0.597   0.178   1.201
 9862TIP3    H129543   0.628   0.257   1.157
 9862TIP3    H229544   0.573   0.208   1.289
 9863TIP3   OH229545   1.859   6.885   1.962
 9863TIP3    H129546   1.790   6.932   2.008
 9863TIP3    H229547   1.878   6.810   2.018
 9864TIP3   OH229548   3.434   6.367   4.544
 9864TIP3    H129549   3.388   6.321   4.614
 9864TIP3    H229550   3.421   6.313   4.467
 9865TIP3   OH229551   5.141   1.913   6.432
 9865TIP3    H129552   5.072   1.848   6.444
 9865TIP3    H229553   5.159   1.911   6.338
 9866TIP3   OH229554   4.037   0.316   1.766
 9866TIP3    H129555   3.954   0.272   1.751
 9866TIP3    H229556   4.026   0.402   1.726
 9867TIP3   OH229557   4.539   5.217   0.043
 9867TIP3    H129558   4.552   5.221  -0.051
 9867TIP3    H229559   4.488   5.295   0.064
 9868TIP3   OH229560   5.156   6.010   1.054
 9868TIP3    H129561   5.076   6.013   1.001
 9868TIP3    H229562   5.213   6.076   1.015
 9869TIP3   OH229563   1.675   7.617   3.996
 9869TIP3    H129564   1.613   7.689   4.005
 9869TIP3    H229565   1.670   7.592   3.904
 9870TIP3   OH229566   1.575   3.209   1.083
 9870TIP3    H129567   1.582   3.274   1.013
 9870TIP3    H229568   1.618   3.249   1.158
 9871TIP3   OH229569   1.818   2.515   3.071
 9871TIP3    H129570   1.906   2.498   3.037
 9871TIP3    H229571   1.825   2.498   3.165
 9872TIP3   OH229572   5.952   6.170   3.556
 9872TIP3    H129573   6.013   6.138   3.489
 9872TIP3    H229574   5.961   6.108   3.628
 9873TIP3   OH229575   4.425   2.275   1.126
 9873TIP3    H129576   4.356   2.242   1.184
 9873TIP3    H229577   4.422   2.370   1.136
 9874TIP3   OH229578   3.071   4.183   6.655
 9874TIP3    H129579   3.028   4.103   6.685
 9874TIP3    H229580   3.087   4.167   6.562
 9875TIP3   OH229581   3.459   3.983   2.879
 9875TIP3    H129582   3.502   3.981   2.793
 9875TIP3    H229583   3.451   4.076   2.900
 9876TIP3   OH229584   7.004   3.284   3.395
 9876TIP3    H129585   6.919   3.324   3.413
 9876TIP3    H229586   7.001   3.261   3.302
 9877TIP3   OH229587   4.661   0.163   4.927
 9877TIP3    H129588   4.724   0.098   4.957
 9877TIP3    H229589   4.714   0.230   4.884
 9878TIP3   OH229590   8.046   7.581   5.918
 9878TIP3    H129591   8.087   7.577   5.831
 9878TIP3    H229592   7.975   7.644   5.908
 9879TIP3   OH229593   4.204   5.386   6.382
 9879TIP3    H129594   4.236   5.299   6.357
 9879TIP3    H229595   4.191   5.381   6.477
 9880TIP3   OH229596   2.694   1.654   0.431
 9880TIP3    H129597   2.702   1.727   0.493
 9880TIP3    H229598   2.706   1.576   0.485
 9881TIP3   OH229599   1.917   4.809   2.839
 9881TIP3    H129600   1.964   4.883   2.800
 9881TIP3    H229601   1.980   4.737   2.838
 9882TIP3   OH229602   1.044   6.164   5.995
 9882TIP3    H129603   1.117   6.173   5.934
 9882TIP3    H229604   1.072   6.096   6.057
 9883TIP3   OH229605   6.968   2.092   3.198
 9883TIP3    H129606   6.989   2.041   3.276
 9883TIP3    H229607   6.873   2.102   3.200
 9884TIP3   OH229608   7.518   6.002   5.399
 9884TIP3    H129609   7.485   5.914   5.417
 9884TIP3    H229610   7.479   6.056   5.467
 9885TIP3   OH229611   7.732   7.632   5.217
 9885TIP3    H129612   7.742   7.715   5.170
 9885TIP3    H229613   7.806   7.629   5.278
 9886TIP3   OH229614   1.726   4.885   4.630
 9886TIP3    H129615   1.816   4.886   4.664
 9886TIP3    H229616   1.737   4.889   4.535
 9887TIP3   OH229617   2.601   1.043   2.809
 9887TIP3    H129618   2.541   0.980   2.769
 9887TIP3    H229619   2.655   0.991   2.868
 9888TIP3   OH229620   5.490   7.335   2.536
 9888TIP3    H129621   5.560   7.292   2.585
 9888TIP3    H229622   5.498   7.299   2.447
 9889TIP3   OH229623   6.677   6.500   6.161
 9889TIP3    H129624   6.631   6.428   6.119
 9889TIP3    H229625   6.759   6.508   6.113
 9890TIP3   OH229626   3.943   2.211   4.457
 9890TIP3    H129627   3.892   2.289   4.434
 9890TIP3    H229628   3.921   2.194   4.548
 9891TIP3   OH229629   5.438   4.708   1.386
 9891TIP3    H129630   5.352   4.671   1.409
 9891TIP3    H229631   5.417   4.790   1.341
 9892TIP3   OH229632   7.182   1.834   4.890
 9892TIP3    H129633   7.269   1.796   4.905
 9892TIP3    H229634   7.198   1.908   4.832
 9893TIP3   OH229635   0.064   0.796   6.169
 9893TIP3    H129636  -0.016   0.751   6.195
 9893TIP3    H229637   0.034   0.866   6.111
 9894TIP3   OH229638   7.101   5.310   4.007
 9894TIP3    H129639   7.071   5.395   3.976
 9894TIP3    H229640   7.100   5.254   3.929
 9895TIP3   OH229641   6.615   3.234   6.596
 9895TIP3    H129642   6.557   3.270   6.528
 9895TIP3    H229643   6.559   3.223   6.672
 9896TIP3   OH229644   7.373   3.907   5.888
 9896TIP3    H129645   7.378   3.997   5.855
 9896TIP3    H229646   7.346   3.916   5.979
 9897TIP3   OH229647   5.320   5.656   2.326
 9897TIP3    H129648   5.412   5.642   2.348
 9897TIP3    H229649   5.320   5.730   2.266
 9898TIP3   OH229650   6.948   4.881   5.999
 9898TIP3    H129651   6.950   4.939   6.075
 9898TIP3    H229652   6.905   4.932   5.931
 9899TIP3   OH229653   3.500   5.236   6.249
 9899TIP3    H129654   3.448   5.310   6.219
 9899TIP3    H229655   3.555   5.214   6.175
 9900TIP3   OH229656   1.188   7.204   2.363
 9900TIP3    H129657   1.277   7.191   2.331
 9900TIP3    H229658   1.198   7.218   2.457
 9901TIP3   OH229659   2.403   5.375   2.617
 9901TIP3    H129660   2.469   5.382   2.548
 9901TIP3    H229661   2.403   5.462   2.658
 9902TIP3   OH229662   4.583   6.475   6.513
 9902TIP3    H129663   4.604   6.471   6.606
 9902TIP3    H229664   4.659   6.436   6.469
 9903TIP3   OH229665   0.289   2.210   4.140
 9903TIP3    H129666   0.352   2.140   4.155
 9903TIP3    H229667   0.204   2.168   4.152
 9904TIP3   OH229668   1.369   3.698   4.570
 9904TIP3    H129669   1.355   3.741   4.654
 9904TIP3    H229670   1.371   3.770   4.506
 9905TIP3   OH229671   6.372   5.627   5.192
 9905TIP3    H129672   6.425   5.561   5.234
 9905TIP3    H229673   6.389   5.616   5.098
 9906TIP3   OH229674   4.194   0.255   6.670
 9906TIP3    H129675   4.210   0.170   6.630
 9906TIP3    H229676   4.174   0.236   6.762
 9907TIP3   OH229677   2.737   2.418   2.641
 9907TIP3    H129678   2.669   2.405   2.708
 9907TIP3    H229679   2.701   2.485   2.584
 9908TIP3   OH229680   1.412   0.477   2.287
 9908TIP3    H129681   1.444   0.490   2.376
 9908TIP3    H229682   1.426   0.384   2.269
 9909TIP3   OH229683   4.503   0.548   0.628
 9909TIP3    H129684   4.588   0.524   0.591
 9909TIP3    H229685   4.480   0.475   0.685
 9910TIP3   OH229686   6.665   2.551   2.294
 9910TIP3    H129687   6.625   2.559   2.380
 9910TIP3    H229688   6.755   2.521   2.312
 9911TIP3   OH229689   2.339   1.065   0.622
 9911TIP3    H129690   2.365   1.047   0.531
 9911TIP3    H229691   2.324   0.979   0.661
 9912TIP3   OH229692   7.241   6.376   0.696
 9912TIP3    H129693   7.332   6.384   0.666
 9912TIP3    H229694   7.235   6.288   0.731
 9913TIP3   OH229695   4.120   2.154   6.320
 9913TIP3    H129696   4.111   2.248   6.306
 9913TIP3    H229697   4.148   2.146   6.411
 9914TIP3   OH229698   2.309   3.268   3.915
 9914TIP3    H129699   2.348   3.319   3.986
 9914TIP3    H229700   2.384   3.239   3.863
 9915TIP3   OH229701   6.670   0.767   5.329
 9915TIP3    H129702   6.641   0.857   5.321
 9915TIP3    H229703   6.590   0.715   5.329
 9916TIP3   OH229704   2.973   0.296   0.499
 9916TIP3    H129705   3.021   0.369   0.538
 9916TIP3    H229706   2.883   0.307   0.529
 9917TIP3   OH229707   0.701   5.497   2.619
 9917TIP3    H129708   0.766   5.440   2.577
 9917TIP3    H229709   0.708   5.580   2.573
 9918TIP3   OH229710   8.135   2.660   1.338
 9918TIP3    H129711   8.215   2.647   1.287
 9918TIP3    H229712   8.067   2.675   1.272
 9919TIP3   OH229713   0.122   6.080   0.456
 9919TIP3    H129714   0.063   6.041   0.520
 9919TIP3    H229715   0.091   6.170   0.446
 9920TIP3   OH229716   3.332   6.308   1.004
 9920TIP3    H129717   3.296   6.259   0.930
 9920TIP3    H229718   3.284   6.275   1.080
 9921TIP3   OH229719   1.958   1.116   2.444
 9921TIP3    H129720   1.884   1.161   2.486
 9921TIP3    H229721   1.935   1.112   2.351
 9922TIP3   OH229722   0.463   0.471   0.928
 9922TIP3    H129723   0.555   0.477   0.957
 9922TIP3    H229724   0.414   0.459   1.009
 9923TIP3   OH229725   2.252   5.680   1.948
 9923TIP3    H129726   2.222   5.590   1.959
 9923TIP3    H229727   2.321   5.691   2.013
 9924TIP3   OH229728   1.770   2.958   5.091
 9924TIP3    H129729   1.821   2.970   5.011
 9924TIP3    H229730   1.679   2.966   5.063
 9925TIP3   OH229731   4.101   3.161   0.690
 9925TIP3    H129732   4.107   3.256   0.678
 9925TIP3    H229733   4.090   3.149   0.785
 9926TIP3   OH229734   1.670   4.340   4.538
 9926TIP3    H129735   1.690   4.247   4.528
 9926TIP3    H229736   1.633   4.348   4.626
 9927TIP3   OH229737   1.965   5.516   6.477
 9927TIP3    H129738   2.047   5.528   6.428
 9927TIP3    H229739   1.901   5.490   6.411
 9928TIP3   OH229740   1.829   1.715   5.981
 9928TIP3    H129741   1.786   1.738   6.064
 9928TIP3    H229742   1.908   1.668   6.008
 9929TIP3   OH229743   1.117   5.023   2.696
 9929TIP3    H129744   1.200   4.995   2.658
 9929TIP3    H229745   1.094   4.952   2.757
 9930TIP3   OH229746   1.929   0.858   5.917
 9930TIP3    H129747   1.985   0.908   5.859
 9930TIP3    H229748   1.989   0.805   5.970
 9931TIP3   OH229749   3.926   3.546   2.811
 9931TIP3    H129750   3.840   3.506   2.796
 9931TIP3    H229751   3.907   3.631   2.850
 9932TIP3   OH229752   4.387   1.644   3.078
 9932TIP3    H129753   4.390   1.651   3.173
 9932TIP3    H229754   4.298   1.673   3.055
 9933TIP3   OH229755   5.651   6.928   3.950
 9933TIP3    H129756   5.558   6.949   3.949
 9933TIP3    H229757   5.659   6.856   4.013
 9934TIP3   OH229758   2.582   2.078   2.700
 9934TIP3    H129759   2.540   2.164   2.700
 9934TIP3    H229760   2.675   2.097   2.687
 9935TIP3   OH229761   2.560   4.541   2.228
 9935TIP3    H129762   2.499   4.611   2.250
 9935TIP3    H229763   2.619   4.536   2.304
 9936TIP3   OH229764   6.037   2.072   0.066
 9936TIP3    H129765   6.044   1.984   0.104
 9936TIP3    H229766   5.943   2.087   0.059
 9937TIP3   OH229767   8.224   4.691   4.502
 9937TIP3    H129768   8.188   4.758   4.559
 9937TIP3    H229769   8.249   4.620   4.561
 9938TIP3   OH229770   0.529   3.132   4.533
 9938TIP3    H129771   0.529   3.139   4.628
 9938TIP3    H229772   0.448   3.174   4.505
 9939TIP3   OH229773   6.133   1.398   3.909
 9939TIP3    H129774   6.172   1.429   3.991
 9939TIP3    H229775   6.165   1.460   3.843
 9940TIP3   OH229776   3.724   3.206   2.261
 9940TIP3    H129777   3.758   3.188   2.173
 9940TIP3    H229778   3.661   3.277   2.248
 9941TIP3   OH229779   3.252   1.480   1.124
 9941TIP3    H129780   3.221   1.561   1.166
 9941TIP3    H229781   3.279   1.508   1.037
 9942TIP3   OH229782   4.196   0.394   5.738
 9942TIP3    H129783   4.270   0.425   5.684
 9942TIP3    H229784   4.136   0.468   5.741
 9943TIP3   OH229785   3.673   2.473   5.388
 9943TIP3    H129786   3.603   2.409   5.397
 9943TIP3    H229787   3.705   2.488   5.477
 9944TIP3   OH229788   2.782   0.928   6.269
 9944TIP3    H129789   2.810   0.933   6.360
 9944TIP3    H229790   2.827   1.002   6.227
 9945TIP3   OH229791   2.352   2.337   4.614
 9945TIP3    H129792   2.345   2.245   4.586
 9945TIP3    H229793   2.412   2.376   4.551
 9946TIP3   OH229794   4.500   0.958   3.806
 9946TIP3    H129795   4.561   0.911   3.749
 9946TIP3    H229796   4.413   0.929   3.778
 9947TIP3   OH229797   0.740   7.801   0.504
 9947TIP3    H129798   0.728   7.791   0.410
 9947TIP3    H229799   0.663   7.850   0.533
 9948TIP3   OH229800   2.513   1.221   0.805
 9948TIP3    H129801   2.433   1.269   0.826
 9948TIP3    H229802   2.489   1.165   0.732
 9949TIP3   OH229803   1.421   0.786   2.629
 9949TIP3    H129804   1.366   0.766   2.554
 9949TIP3    H229805   1.460   0.871   2.609
 9950TIP3   OH229806   0.500   0.623   5.575
 9950TIP3    H129807   0.499   0.528   5.589
 9950TIP3    H229808   0.521   0.659   5.662
 9951TIP3   OH229809   0.900   6.322   1.646
 9951TIP3    H129810   0.987   6.354   1.672
 9951TIP3    H229811   0.918   6.252   1.583
 9952TIP3   OH229812   0.479   0.899   3.739
 9952TIP3    H129813   0.507   0.904   3.831
 9952TIP3    H229814   0.388   0.870   3.744
 9953TIP3   OH229815   2.904   3.284   2.394
 9953TIP3    H129816   2.958   3.364   2.390
 9953TIP3    H229817   2.936   3.230   2.321
 9954TIP3   OH229818   5.881   5.359   6.315
 9954TIP3    H129819   5.806   5.369   6.256
 9954TIP3    H229820   5.898   5.265   6.317
 9955TIP3   OH229821   6.649   2.512   2.584
 9955TIP3    H129822   6.563   2.480   2.614
 9955TIP3    H229823   6.710   2.443   2.610
 9956TIP3   OH229824   1.883   4.167   5.945
 9956TIP3    H129825   1.925   4.159   6.031
 9956TIP3    H229826   1.822   4.241   5.955
 9957TIP3   OH229827   7.053   3.311   1.975
 9957TIP3    H129828   6.982   3.280   1.919
 9957TIP3    H229829   7.019   3.303   2.064
 9958TIP3   OH229830   4.337   6.092   3.810
 9958TIP3    H129831   4.244   6.071   3.810
 9958TIP3    H229832   4.356   6.117   3.720
 9959TIP3   OH229833   3.533   0.067   5.440
 9959TIP3    H129834   3.558  -0.021   5.468
 9959TIP3    H229835   3.451   0.084   5.486
 9960TIP3   OH229836   8.186   1.595   5.505
 9960TIP3    H129837   8.145   1.509   5.518
 9960TIP3    H229838   8.254   1.600   5.572
 9961TIP3   OH229839   7.963   7.742   4.868
 9961TIP3    H129840   7.974   7.692   4.949
 9961TIP3    H229841   7.930   7.679   4.805
 9962TIP3   OH229842   4.174   7.315   1.885
 9962TIP3    H129843   4.164   7.374   1.811
 9962TIP3    H229844   4.222   7.240   1.850
 9963TIP3   OH229845   5.631   6.860   3.022
 9963TIP3    H129846   5.664   6.823   3.104
 9963TIP3    H229847   5.582   6.789   2.981
 9964TIP3   OH229848   7.896   6.941   4.814
 9964TIP3    H129849   7.917   6.874   4.879
 9964TIP3    H229850   7.978   6.956   4.768
 9965TIP3   OH229851   0.224   1.626   0.238
 9965TIP3    H129852   0.316   1.610   0.260
 9965TIP3    H229853   0.200   1.552   0.182
 9966TIP3   OH229854   5.035   6.675   0.866
 9966TIP3    H129855   5.078   6.635   0.942
 9966TIP3    H229856   4.996   6.755   0.901
 9967TIP3   OH229857   4.849   6.828   6.044
 9967TIP3    H129858   4.819   6.742   6.014
 9967TIP3    H229859   4.916   6.809   6.109
 9968TIP3   OH229860   2.008   1.512   3.346
 9968TIP3    H129861   1.941   1.476   3.287
 9968TIP3    H229862   2.090   1.503   3.297
 9969TIP3   OH229863   3.203   2.747   1.224
 9969TIP3    H129864   3.129   2.800   1.253
 9969TIP3    H229865   3.248   2.722   1.305
 9970TIP3   OH229866   3.111   4.158   6.363
 9970TIP3    H129867   3.142   4.070   6.344
 9970TIP3    H229868   3.042   4.173   6.299
 9971TIP3   OH229869   5.801   6.321   4.529
 9971TIP3    H129870   5.731   6.385   4.541
 9971TIP3    H229871   5.881   6.369   4.550
 9972TIP3   OH229872   6.515   1.629   0.049
 9972TIP3    H129873   6.579   1.655  -0.018
 9972TIP3    H229874   6.558   1.650   0.132
 9973TIP3   OH229875   2.470   3.998   1.291
 9973TIP3    H129876   2.418   3.952   1.357
 9973TIP3    H229877   2.460   4.090   1.314
 9974TIP3   OH229878   6.725   2.756   5.938
 9974TIP3    H129879   6.703   2.847   5.956
 9974TIP3    H229880   6.794   2.735   6.001
 9975TIP3   OH229881   2.994   3.577   1.467
 9975TIP3    H129882   2.908   3.579   1.509
 9975TIP3    H229883   3.019   3.485   1.467
 9976TIP3   OH229884   2.643   6.681   1.150
 9976TIP3    H129885   2.671   6.766   1.185
 9976TIP3    H229886   2.649   6.622   1.225
 9977TIP3   OH229887   5.230   5.335   5.460
 9977TIP3    H129888   5.163   5.279   5.422
 9977TIP3    H229889   5.311   5.283   5.454
 9978TIP3   OH229890   8.096   4.874   4.651
 9978TIP3    H129891   8.019   4.863   4.707
 9978TIP3    H229892   8.083   4.958   4.608
 9979TIP3   OH229893   1.808   3.244   3.932
 9979TIP3    H129894   1.860   3.314   3.972
 9979TIP3    H229895   1.799   3.271   3.841
 9980TIP3   OH229896   0.286   1.371   1.159
 9980TIP3    H129897   0.316   1.289   1.199
 9980TIP3    H229898   0.193   1.355   1.139
 9981TIP3   OH229899   4.048   1.646   6.156
 9981TIP3    H129900   4.133   1.647   6.112
 9981TIP3    H229901   4.045   1.728   6.205
 9982TIP3   OH229902   6.515   7.724   3.603
 9982TIP3    H129903   6.528   7.808   3.561
 9982TIP3    H229904   6.582   7.667   3.565
 9983TIP3   OH229905   3.163   1.130   4.158
 9983TIP3    H129906   3.162   1.192   4.085
 9983TIP3    H229907   3.232   1.067   4.135
 9984TIP3   OH229908   5.864   4.524   3.469
 9984TIP3    H129909   5.806   4.576   3.525
 9984TIP3    H229910   5.810   4.451   3.439
 9985TIP3   OH229911   0.725   6.964   2.598
 9985TIP3    H129912   0.676   6.996   2.674
 9985TIP3    H229913   0.671   6.894   2.562
 9986TIP3   OH229914   2.802   0.052   3.058
 9986TIP3    H129915   2.791   0.050   3.153
 9986TIP3    H229916   2.712   0.050   3.024
 9987TIP3   OH229917   8.306   5.825   5.637
 9987TIP3    H129918   8.358   5.893   5.595
 9987TIP3    H229919   8.322   5.746   5.584
 9988TIP3   OH229920   8.079   1.761   3.341
 9988TIP3    H129921   8.104   1.820   3.412
 9988TIP3    H229922   8.127   1.680   3.359
 9989TIP3   OH229923   7.879   6.606   5.256
 9989TIP3    H129924   7.883   6.522   5.209
 9989TIP3    H229925   7.903   6.584   5.346
 9990TIP3   OH229926   2.738   4.705   1.655
 9990TIP3    H129927   2.672   4.642   1.627
 9990TIP3    H229928   2.699   4.750   1.730
 9991TIP3   OH229929   1.449   6.863   4.569
 9991TIP3    H129930   1.390   6.788   4.559
 9991TIP3    H229931   1.456   6.875   4.664
 9992TIP3   OH229932   4.532   4.940   0.904
 9992TIP3    H129933   4.444   4.972   0.922
 9992TIP3    H229934   4.519   4.859   0.854
 9993TIP3   OH229935   8.045   5.348   5.281
 9993TIP3    H129936   8.115   5.312   5.227
 9993TIP3    H229937   7.985   5.389   5.219
 9994TIP3   OH229938   0.528   0.931   0.252
 9994TIP3    H129939   0.471   0.896   0.320
 9994TIP3    H229940   0.546   1.021   0.279
 9995TIP3   OH229941   7.490   3.249   1.407
 9995TIP3    H129942   7.505   3.259   1.500
 9995TIP3    H229943   7.570   3.207   1.374
 9996TIP3   OH229944   8.150   2.539   4.211
 9996TIP3    H129945   8.156   2.633   4.191
 9996TIP3    H229946   8.158   2.496   4.126
 9997TIP3   OH229947   8.307   0.637   3.110
 9997TIP3    H129948   8.347   0.660   3.025
 9997TIP3    H229949   8.262   0.554   3.093
 9998TIP3   OH229950   2.307   6.433   3.384
 9998TIP3    H129951   2.334   6.346   3.355
 9998TIP3    H229952   2.322   6.432   3.478
 9999TIP3   OH229953   6.886   3.984   4.550
 9999TIP3    H129954   6.811   3.977   4.609
 9999TIP3    H229955   6.943   3.912   4.577
10000TIP3   OH229956   3.494   4.609   1.769
10000TIP3    H129957   3.517   4.666   1.843
10000TIP3    H229958   3.431   4.546   1.806
10001TIP3   OH229959   1.502   6.584   2.959
10001TIP3    H129960   1.570   6.582   2.892
10001TIP3    H229961   1.438   6.648   2.926
10002TIP3   OH229962   2.579   3.718   4.324
10002TIP3    H129963   2.578   3.761   4.238
10002TIP3    H229964   2.601   3.627   4.305
10003TIP3   OH229965   1.488   5.919   2.273
10003TIP3    H129966   1.538   5.873   2.341
10003TIP3    H229967   1.541   5.909   2.194
10004TIP3   OH229968   4.685   6.216   3.828
10004TIP3    H129969   4.734   6.297   3.811
10004TIP3    H229970   4.674   6.215   3.923
10005TIP3   OH229971   5.104   4.829   4.889
10005TIP3    H129972   5.072   4.775   4.817
10005TIP3    H229973   5.199   4.831   4.878
10006TIP3   OH229974   6.426   0.494   0.232
10006TIP3    H129975   6.351   0.455   0.187
10006TIP3    H229976   6.476   0.420   0.265
10007TIP3   OH229977   7.056   4.466   0.061
10007TIP3    H129978   6.991   4.395   0.061
10007TIP3    H229979   7.094   4.463   0.149
10008TIP3   OH229980   0.899   7.216   1.730
10008TIP3    H129981   0.807   7.204   1.753
10008TIP3    H229982   0.940   7.133   1.753
10009TIP3   OH229983   4.717   2.425   0.853
10009TIP3    H129984   4.707   2.367   0.778
10009TIP3    H229985   4.682   2.509   0.824
10010TIP3   OH229986   7.069   7.099   3.647
10010TIP3    H129987   7.038   7.016   3.683
10010TIP3    H229988   6.997   7.128   3.591
10011TIP3   OH229989   6.776   1.957   0.682
10011TIP3    H129990   6.791   1.925   0.771
10011TIP3    H229991   6.802   2.049   0.686
10012TIP3   OH229992   5.734   2.659   5.497
10012TIP3    H129993   5.745   2.753   5.508
10012TIP3    H229994   5.814   2.621   5.533
10013TIP3   OH229995   4.318   1.379   1.358
10013TIP3    H129996   4.302   1.372   1.264
10013TIP3    H229997   4.413   1.369   1.367
10014TIP3   OH229998   5.529   3.494   6.210
10014TIP3    H129999   5.455   3.509   6.152
10014TIP3    H230000   5.538   3.575   6.260
10015TIP3   OH230001   7.963   5.669   1.903
10015TIP3    H130002   7.983   5.698   1.992
10015TIP3    H230003   8.043   5.626   1.874
10016TIP3   OH230004   5.207   0.083   5.775
10016TIP3    H130005   5.175  -0.006   5.794
10016TIP3    H230006   5.280   0.095   5.836
10017TIP3   OH230007   2.161   5.938   3.406
10017TIP3    H130008   2.136   5.847   3.396
10017TIP3    H230009   2.134   5.961   3.495
10018TIP3   OH230010   3.194   4.694   1.118
10018TIP3    H130011   3.180   4.745   1.038
10018TIP3    H230012   3.256   4.746   1.169
10019TIP3   OH230013   2.588   2.842   5.834
10019TIP3    H130014   2.560   2.774   5.896
10019TIP3    H230015   2.541   2.822   5.753
10020TIP3   OH230016   4.021   3.470   6.448
10020TIP3    H130017   4.007   3.416   6.526
10020TIP3    H230018   3.939   3.463   6.399
10021TIP3   OH230019   0.458   6.414   4.233
10021TIP3    H130020   0.375   6.371   4.255
10021TIP3    H230021   0.432   6.497   4.192
10022TIP3   OH230022   5.739   1.709   5.231
10022TIP3    H130023   5.815   1.767   5.220
10022TIP3    H230024   5.730   1.698   5.325
10023TIP3   OH230025   2.453   1.668   2.366
10023TIP3    H130026   2.411   1.582   2.372
10023TIP3    H230027   2.448   1.691   2.273
10024TIP3   OH230028   6.004   5.630   0.920
10024TIP3    H130029   5.929   5.635   0.860
10024TIP3    H230030   6.064   5.699   0.889
10025TIP3   OH230031   0.651   0.483   3.192
10025TIP3    H130032   0.743   0.480   3.167
10025TIP3    H230033   0.652   0.469   3.287
10026TIP3   OH230034   1.583   3.918   6.418
10026TIP3    H130035   1.608   3.980   6.349
10026TIP3    H230036   1.620   3.955   6.497
10027TIP3   OH230037   6.296   1.787   4.040
10027TIP3    H130038   6.218   1.734   4.021
10027TIP3    H230039   6.343   1.738   4.107
10028TIP3   OH230040   7.132   1.484   2.529
10028TIP3    H130041   7.098   1.478   2.618
10028TIP3    H230042   7.118   1.576   2.505
10029TIP3   OH230043   6.315   7.371   1.990
10029TIP3    H130044   6.296   7.281   2.018
10029TIP3    H230045   6.329   7.364   1.896
10030TIP3   OH230046   2.119   7.289   1.378
10030TIP3    H130047   2.168   7.223   1.428
10030TIP3    H230048   2.132   7.370   1.427
10031TIP3   OH230049   3.252   1.760   1.592
10031TIP3    H130050   3.164   1.734   1.567
10031TIP3    H230051   3.279   1.823   1.525
10032TIP3   OH230052   6.107   2.414   6.464
10032TIP3    H130053   6.148   2.449   6.544
10032TIP3    H230054   6.181   2.401   6.404
10033TIP3   OH230055   1.308   1.358   4.858
10033TIP3    H130056   1.390   1.336   4.815
10033TIP3    H230057   1.249   1.383   4.787
10034TIP3   OH230058   1.985   5.549   5.424
10034TIP3    H130059   1.940   5.578   5.504
10034TIP3    H230060   1.929   5.580   5.353
10035TIP3   OH230061   1.210   6.595   4.022
10035TIP3    H130062   1.142   6.542   4.063
10035TIP3    H230063   1.163   6.665   3.977
10036TIP3   OH230064   5.593   0.320   5.313
10036TIP3    H130065   5.673   0.271   5.331
10036TIP3    H230066   5.589   0.323   5.217
10037TIP3   OH230067   8.216   0.527   3.449
10037TIP3    H130068   8.149   0.488   3.392
10037TIP3    H230069   8.278   0.456   3.465
10038TIP3   OH230070   5.168   3.093   5.986
10038TIP3    H130071   5.206   3.142   5.913
10038TIP3    H230072   5.157   3.004   5.952
10039TIP3   OH230073   4.788   2.242   3.648
10039TIP3    H130074   4.874   2.244   3.690
10039TIP3    H230075   4.758   2.152   3.657
10040TIP3   OH230076   4.914   2.701   1.723
10040TIP3    H130077   5.000   2.727   1.691
10040TIP3    H230078   4.865   2.783   1.730
10041TIP3   OH230079   5.743   2.197   6.226
10041TIP3    H130080   5.809   2.265   6.214
10041TIP3    H230081   5.778   2.121   6.180
10042TIP3   OH230082   5.481   2.539   4.481
10042TIP3    H130083   5.398   2.541   4.529
10042TIP3    H230084   5.528   2.616   4.512
10043TIP3   OH230085   0.648   2.800   0.415
10043TIP3    H130086   0.740   2.786   0.392
10043TIP3    H230087   0.619   2.870   0.355
10044TIP3   OH230088   6.352   1.800   5.950
10044TIP3    H130089   6.396   1.882   5.973
10044TIP3    H230090   6.424   1.737   5.938
10045TIP3   OH230091   4.904   5.448   4.939
10045TIP3    H130092   4.990   5.427   4.975
10045TIP3    H230093   4.863   5.502   5.007
10046TIP3   OH230094   7.340   0.287   2.268
10046TIP3    H130095   7.357   0.309   2.359
10046TIP3    H230096   7.403   0.339   2.218
10047TIP3   OH230097   1.007   7.340   0.232
10047TIP3    H130098   0.938   7.357   0.168
10047TIP3    H230099   1.059   7.269   0.194
10048TIP3   OH230100   4.226   2.053   3.514
10048TIP3    H130101   4.159   1.988   3.490
10048TIP3    H230102   4.281   2.060   3.436
10049TIP3   OH230103   0.176   6.782   5.048
10049TIP3    H130104   0.125   6.775   4.967
10049TIP3    H230105   0.191   6.875   5.060
10050TIP3   OH230106   5.486   6.204   2.737
10050TIP3    H130107   5.557   6.152   2.700
10050TIP3    H230108   5.519   6.233   2.822
10051TIP3   OH230109   6.113   4.922   6.247
10051TIP3    H130110   6.183   4.934   6.310
10051TIP3    H230111   6.154   4.936   6.162
10052TIP3   OH230112   3.529   0.533   1.693
10052TIP3    H130113   3.617   0.568   1.709
10052TIP3    H230114   3.472   0.609   1.701
10053TIP3   OH230115   5.480   5.668   6.144
10053TIP3    H130116   5.439   5.636   6.225
10053TIP3    H230117   5.572   5.681   6.167
10054TIP3   OH230118   5.966   5.187   3.975
10054TIP3    H130119   5.970   5.281   3.959
10054TIP3    H230120   6.028   5.150   3.912
10055TIP3   OH230121   1.889   0.802   2.687
10055TIP3    H130122   1.974   0.763   2.707
10055TIP3    H230123   1.826   0.747   2.734
10056TIP3   OH230124   6.350   7.180   2.460
10056TIP3    H130125   6.326   7.240   2.531
10056TIP3    H230126   6.269   7.135   2.437
10057TIP3   OH230127   8.182   7.493   4.270
10057TIP3    H130128   8.107   7.467   4.217
10057TIP3    H230129   8.258   7.472   4.215
10058TIP3   OH230130   7.800   2.715   6.758
10058TIP3    H130131   7.866   2.738   6.693
10058TIP3    H230132   7.846   2.723   6.842
10059TIP3   OH230133   4.178   7.553   3.209
10059TIP3    H130134   4.086   7.531   3.200
10059TIP3    H230135   4.212   7.489   3.271
10060TIP3   OH230136   7.856   7.045   5.550
10060TIP3    H130137   7.815   7.107   5.609
10060TIP3    H230138   7.876   7.095   5.471
10061TIP3   OH230139   7.243   3.394   6.092
10061TIP3    H130140   7.198   3.383   6.176
10061TIP3    H230141   7.336   3.384   6.114
10062TIP3   OH230142   8.187   4.711   2.142
10062TIP3    H130143   8.166   4.746   2.056
10062TIP3    H230144   8.276   4.675   2.132
10063TIP3   OH230145   5.180   5.265   4.766
10063TIP3    H130146   5.155   5.303   4.850
10063TIP3    H230147   5.226   5.184   4.789
10064TIP3   OH230148   2.309   1.872   1.293
10064TIP3    H130149   2.306   1.902   1.384
10064TIP3    H230150   2.387   1.914   1.257
10065TIP3   OH230151   0.309   4.780   3.245
10065TIP3    H130152   0.349   4.857   3.286
10065TIP3    H230153   0.363   4.706   3.276
10066TIP3   OH230154   5.689   5.250   3.106
10066TIP3    H130155   5.776   5.276   3.137
10066TIP3    H230156   5.698   5.158   3.081
10067TIP3   OH230157   3.818   6.389   0.275
10067TIP3    H130158   3.847   6.451   0.208
10067TIP3    H230159   3.821   6.439   0.357
10068TIP3   OH230160   2.615   0.803   6.054
10068TIP3    H130161   2.524   0.826   6.039
10068TIP3    H230162   2.632   0.829   6.144
10069TIP3   OH230163   6.247   7.683   5.817
10069TIP3    H130164   6.273   7.672   5.908
10069TIP3    H230165   6.153   7.667   5.817
10070TIP3   OH230166   6.625   1.683   1.313
10070TIP3    H130167   6.690   1.632   1.263
10070TIP3    H230168   6.543   1.670   1.265
10071TIP3   OH230169   2.519   6.294   1.297
10071TIP3    H130170   2.533   6.307   1.391
10071TIP3    H230171   2.433   6.331   1.280
10072TIP3   OH230172   1.828   6.856   1.347
10072TIP3    H130173   1.879   6.901   1.280
10072TIP3    H230174   1.879   6.866   1.427
10073TIP3   OH230175   8.131   4.536   0.172
10073TIP3    H130176   8.110   4.468   0.108
10073TIP3    H230177   8.226   4.534   0.179
10074TIP3   OH230178   3.405   2.447   1.557
10074TIP3    H130179   3.492   2.440   1.518
10074TIP3    H230180   3.400   2.374   1.618
10075TIP3   OH230181   1.035   4.326   1.927
10075TIP3    H130182   1.112   4.289   1.969
10075TIP3    H230183   0.976   4.347   2.000
10076TIP3   OH230184   0.345   3.836   0.141
10076TIP3    H130185   0.357   3.871   0.229
10076TIP3    H230186   0.431   3.845   0.100
10077TIP3   OH230187   4.142   6.116   5.088
10077TIP3    H130188   4.147   6.062   5.010
10077TIP3    H230189   4.173   6.060   5.159
10078TIP3   OH230190   0.833   5.228   2.753
10078TIP3    H130191   0.864   5.141   2.727
10078TIP3    H230192   0.760   5.210   2.813
10079TIP3   OH230193   1.740   3.441   2.671
10079TIP3    H130194   1.741   3.465   2.763
10079TIP3    H230195   1.751   3.346   2.671
10080TIP3   OH230196   2.529   5.113   5.091
10080TIP3    H130197   2.566   5.035   5.050
10080TIP3    H230198   2.572   5.118   5.176
10081TIP3   OH230199   1.119   7.824   4.368
10081TIP3    H130200   1.109   7.753   4.432
10081TIP3    H230201   1.042   7.817   4.313
10082TIP3   OH230202   5.059   5.535   0.467
10082TIP3    H130203   5.056   5.599   0.538
10082TIP3    H230204   5.125   5.471   0.495
10083TIP3   OH230205   7.400   1.840   4.214
10083TIP3    H130206   7.488   1.874   4.201
10083TIP3    H230207   7.413   1.762   4.269
10084TIP3   OH230208   7.879   2.625   5.604
10084TIP3    H130209   7.831   2.642   5.523
10084TIP3    H230210   7.896   2.711   5.641
10085TIP3   OH230211   6.764   0.305   6.698
10085TIP3    H130212   6.848   0.259   6.709
10085TIP3    H230213   6.728   0.310   6.787
10086TIP3   OH230214   7.353   3.935   0.377
10086TIP3    H130215   7.334   3.841   0.370
10086TIP3    H230216   7.448   3.940   0.384
10087TIP3   OH230217   0.092   0.139   3.972
10087TIP3    H130218   0.158   0.159   3.906
10087TIP3    H230219   0.141   0.134   4.054
10088TIP3   OH230220   0.518   0.295   5.204
10088TIP3    H130221   0.561   0.227   5.152
10088TIP3    H230222   0.578   0.370   5.200
10089TIP3   OH230223   1.134   6.989   2.737
10089TIP3    H130224   1.207   6.993   2.675
10089TIP3    H230225   1.077   7.061   2.711
10090TIP3   OH230226   5.269   2.851   4.221
10090TIP3    H130227   5.183   2.887   4.240
10090TIP3    H230228   5.255   2.789   4.149
10091TIP3   OH230229   4.735   3.753   1.681
10091TIP3    H130230   4.700   3.758   1.771
10091TIP3    H230231   4.827   3.778   1.689
10092TIP3   OH230232   0.390   5.945   3.140
10092TIP3    H130233   0.412   6.019   3.196
10092TIP3    H230234   0.320   5.899   3.187
10093TIP3   OH230235   2.823   2.273   4.452
10093TIP3    H130236   2.852   2.223   4.528
10093TIP3    H230237   2.887   2.343   4.443
10094TIP3   OH230238   7.832   1.358   1.969
10094TIP3    H130239   7.803   1.329   2.055
10094TIP3    H230240   7.904   1.300   1.947
10095TIP3   OH230241   2.838   1.287   1.425
10095TIP3    H130242   2.807   1.196   1.417
10095TIP3    H230243   2.860   1.312   1.335
10096TIP3   OH230244   1.929   6.803   0.169
10096TIP3    H130245   1.925   6.839   0.257
10096TIP3    H230246   1.984   6.864   0.120
10097TIP3   OH230247   5.399   0.771   2.640
10097TIP3    H130248   5.394   0.866   2.655
10097TIP3    H230249   5.442   0.737   2.718
10098TIP3   OH230250   3.365   1.602   2.161
10098TIP3    H130251   3.408   1.517   2.170
10098TIP3    H230252   3.413   1.646   2.090
10099TIP3   OH230253   3.160   1.081   3.104
10099TIP3    H130254   3.141   1.048   3.016
10099TIP3    H230255   3.141   1.007   3.162
10100TIP3   OH230256   1.420   4.502   1.816
10100TIP3    H130257   1.399   4.429   1.875
10100TIP3    H230258   1.371   4.576   1.851
10101TIP3   OH230259   2.265   0.076   2.206
10101TIP3    H130260   2.281   0.159   2.250
10101TIP3    H230261   2.351   0.047   2.176
10102TIP3   OH230262   1.527   3.442   0.558
10102TIP3    H130263   1.602   3.499   0.579
10102TIP3    H230264   1.499   3.471   0.471
10103TIP3   OH230265   3.922   4.667   3.521
10103TIP3    H130266   3.965   4.731   3.464
10103TIP3    H230267   3.856   4.718   3.568
10104TIP3   OH230268   0.507   5.549   3.616
10104TIP3    H130269   0.602   5.550   3.604
10104TIP3    H230270   0.495   5.526   3.709
10105TIP3   OH230271   3.476   5.515   6.192
10105TIP3    H130272   3.392   5.558   6.206
10105TIP3    H230273   3.538   5.569   6.241
10106TIP3   OH230274   2.531   6.010   0.038
10106TIP3    H130275   2.436   6.008   0.023
10106TIP3    H230276   2.541   6.056   0.121
10107TIP3   OH230277   6.833   4.108   6.274
10107TIP3    H130278   6.765   4.099   6.207
10107TIP3    H230279   6.895   4.170   6.237
10108TIP3   OH230280   4.613   3.484   5.053
10108TIP3    H130281   4.675   3.495   5.125
10108TIP3    H230282   4.541   3.544   5.074
10109TIP3   OH230283   6.105   7.768   3.639
10109TIP3    H130284   6.039   7.760   3.708
10109TIP3    H230285   6.102   7.684   3.593
10110TIP3   OH230286   3.586   0.816   2.799
10110TIP3    H130287   3.627   0.851   2.720
10110TIP3    H230288   3.518   0.880   2.821
10111TIP3   OH230289   4.119   5.843   2.449
10111TIP3    H130290   4.059   5.859   2.376
10111TIP3    H230291   4.064   5.844   2.527
10112TIP3   OH230292   5.600   6.096   1.498
10112TIP3    H130293   5.599   6.000   1.501
10112TIP3    H230294   5.689   6.120   1.521
10113TIP3   OH230295   7.240   0.120   4.465
10113TIP3    H130296   7.297   0.044   4.456
10113TIP3    H230297   7.242   0.141   4.559
10114TIP3   OH230298   3.088   3.639   0.742
10114TIP3    H130299   3.152   3.569   0.727
10114TIP3    H230300   3.003   3.595   0.736
10115TIP3   OH230301   6.203   5.941   4.140
10115TIP3    H130302   6.293   5.948   4.171
10115TIP3    H230303   6.198   5.855   4.100
10116TIP3   OH230304   7.679   5.875   6.586
10116TIP3    H130305   7.702   5.955   6.633
10116TIP3    H230306   7.590   5.890   6.554
10117TIP3   OH230307   3.516   2.602   5.732
10117TIP3    H130308   3.573   2.631   5.803
10117TIP3    H230309   3.569   2.539   5.682
10118TIP3   OH230310   0.770   4.338   5.474
10118TIP3    H130311   0.774   4.285   5.394
10118TIP3    H230312   0.699   4.400   5.458
10119TIP3   OH230313   3.741   6.588   2.297
10119TIP3    H130314   3.731   6.498   2.267
10119TIP3    H230315   3.652   6.620   2.307
10120TIP3   OH230316   8.190   2.938   3.187
10120TIP3    H130317   8.253   2.997   3.228
10120TIP3    H230318   8.198   2.857   3.236
10121TIP3   OH230319   7.905   2.030   4.887
10121TIP3    H130320   7.924   2.062   4.975
10121TIP3    H230321   7.901   1.935   4.897
10122TIP3   OH230322   0.408   0.272   1.662
10122TIP3    H130323   0.425   0.177   1.666
10122TIP3    H230324   0.491   0.309   1.632
10123TIP3   OH230325   3.483   6.827   3.660
10123TIP3    H130326   3.393   6.813   3.689
10123TIP3    H230327   3.478   6.824   3.565
10124TIP3   OH230328   2.433   7.109   2.021
10124TIP3    H130329   2.439   7.185   2.079
10124TIP3    H230330   2.523   7.092   1.994
10125TIP3   OH230331   6.609   4.898   1.766
10125TIP3    H130332   6.677   4.934   1.709
10125TIP3    H230333   6.538   4.962   1.763
10126TIP3   OH230334   5.494   0.128   3.884
10126TIP3    H130335   5.429   0.059   3.870
10126TIP3    H230336   5.517   0.158   3.796
10127TIP3   OH230337   4.603   4.793   4.564
10127TIP3    H130338   4.625   4.868   4.620
10127TIP3    H230339   4.519   4.817   4.525
10128TIP3   OH230340   0.705   4.275   3.996
10128TIP3    H130341   0.761   4.301   4.069
10128TIP3    H230342   0.621   4.255   4.036
10129TIP3   OH230343   7.073   0.385   0.113
10129TIP3    H130344   7.037   0.471   0.090
10129TIP3    H230345   7.147   0.374   0.054
10130TIP3   OH230346   3.407   4.598   3.509
10130TIP3    H130347   3.407   4.505   3.531
10130TIP3    H230348   3.381   4.601   3.417
10131TIP3   OH230349   7.195   5.523   6.145
10131TIP3    H130350   7.276   5.566   6.176
10131TIP3    H230351   7.154   5.490   6.225
10132TIP3   OH230352   4.622   1.107   3.550
10132TIP3    H130353   4.641   1.099   3.457
10132TIP3    H230354   4.574   1.189   3.559
10133TIP3   OH230355   2.437   5.923   6.548
10133TIP3    H130356   2.383   5.851   6.579
10133TIP3    H230357   2.383   5.966   6.481
10134TIP3   OH230358   0.452   2.669   0.102
10134TIP3    H130359   0.406   2.605   0.155
10134TIP3    H230360   0.509   2.618   0.045
10135TIP3   OH230361   6.681   0.758   4.946
10135TIP3    H130362   6.719   0.821   5.007
10135TIP3    H230363   6.639   0.810   4.879
10136TIP3   OH230364   5.938   1.625   0.562
10136TIP3    H130365   5.997   1.564   0.607
10136TIP3    H230366   5.967   1.622   0.470
10137TIP3   OH230367   6.207   3.435   5.881
10137TIP3    H130368   6.292   3.459   5.918
10137TIP3    H230369   6.156   3.403   5.955
10138TIP3   OH230370   5.601   1.133   3.585
10138TIP3    H130371   5.630   1.217   3.619
10138TIP3    H230372   5.570   1.085   3.662
10139TIP3   OH230373   3.665   3.719   1.699
10139TIP3    H130374   3.603   3.785   1.728
10139TIP3    H230375   3.618   3.668   1.633
10140TIP3   OH230376   0.288   2.480   6.717
10140TIP3    H130377   0.267   2.551   6.657
10140TIP3    H230378   0.318   2.409   6.661
10141TIP3   OH230379   3.987   0.605   1.274
10141TIP3    H130380   4.027   0.593   1.188
10141TIP3    H230381   4.061   0.605   1.335
10142TIP3   OH230382   6.557   5.924   3.934
10142TIP3    H130383   6.528   5.983   3.865
10142TIP3    H230384   6.497   5.849   3.928
10143TIP3   OH230385   1.231   5.009   5.709
10143TIP3    H130386   1.209   4.973   5.623
10143TIP3    H230387   1.316   5.052   5.696
10144TIP3   OH230388   2.842   7.675   5.638
10144TIP3    H130389   2.897   7.601   5.612
10144TIP3    H230390   2.783   7.640   5.704
10145TIP3   OH230391   3.598   0.111   6.073
10145TIP3    H130392   3.581   0.119   6.167
10145TIP3    H230393   3.573   0.021   6.051
10146TIP3   OH230394   8.082   7.021   0.391
10146TIP3    H130395   7.991   7.001   0.370
10146TIP3    H230396   8.129   6.939   0.375
10147TIP3   OH230397   1.498   4.908   3.028
10147TIP3    H130398   1.522   4.937   3.116
10147TIP3    H230399   1.504   4.987   2.974
10148TIP3   OH230400   4.458   5.265   0.788
10148TIP3    H130401   4.440   5.284   0.696
10148TIP3    H230402   4.389   5.311   0.836
10149TIP3   OH230403   8.122   7.477   3.772
10149TIP3    H130404   8.059   7.478   3.844
10149TIP3    H230405   8.086   7.412   3.711
10150TIP3   OH230406   7.754   2.732   4.800
10150TIP3    H130407   7.788   2.696   4.881
10150TIP3    H230408   7.830   2.773   4.758
10151TIP3   OH230409   1.854   2.315   4.113
10151TIP3    H130410   1.915   2.323   4.040
10151TIP3    H230411   1.879   2.384   4.174
10152TIP3   OH230412   6.714   1.834   4.960
10152TIP3    H130413   6.665   1.906   4.999
10152TIP3    H230414   6.668   1.755   4.990
10153TIP3   OH230415   6.954   5.599   5.234
10153TIP3    H130416   6.947   5.569   5.324
10153TIP3    H230417   7.045   5.583   5.210
10154TIP3   OH230418   5.708   7.178   1.284
10154TIP3    H130419   5.651   7.167   1.360
10154TIP3    H230420   5.654   7.222   1.219
10155TIP3   OH230421   2.641   1.485   1.525
10155TIP3    H130422   2.574   1.457   1.462
10155TIP3    H230423   2.723   1.454   1.487
10156TIP3   OH230424   6.670   0.351   3.288
10156TIP3    H130425   6.725   0.346   3.366
10156TIP3    H230426   6.631   0.439   3.292
10157TIP3   OH230427   7.733   2.046   1.423
10157TIP3    H130428   7.696   1.959   1.408
10157TIP3    H230429   7.755   2.046   1.516
10158TIP3   OH230430   7.677   3.737   6.112
10158TIP3    H130431   7.687   3.739   6.207
10158TIP3    H230432   7.708   3.823   6.083
10159TIP3   OH230433   7.285   1.853   5.291
10159TIP3    H130434   7.194   1.879   5.287
10159TIP3    H230435   7.282   1.757   5.301
10160TIP3   OH230436   4.966   4.992   4.660
10160TIP3    H130437   5.059   5.013   4.652
10160TIP3    H230438   4.921   5.062   4.613
10161TIP3   OH230439   2.353   2.153   0.215
10161TIP3    H130440   2.307   2.229   0.250
10161TIP3    H230441   2.284   2.098   0.178
10162TIP3   OH230442   7.686   0.912   4.442
10162TIP3    H130443   7.741   0.959   4.379
10162TIP3    H230444   7.612   0.970   4.458
10163TIP3   OH230445   2.137   2.762   1.826
10163TIP3    H130446   2.085   2.688   1.794
10163TIP3    H230447   2.195   2.783   1.752
10164TIP3   OH230448   2.629   1.926   0.280
10164TIP3    H130449   2.689   1.880   0.221
10164TIP3    H230450   2.591   1.857   0.334
10165TIP3   OH230451   4.293   4.595   2.797
10165TIP3    H130452   4.346   4.562   2.870
10165TIP3    H230453   4.203   4.589   2.829
10166TIP3   OH230454   6.525   1.777   2.985
10166TIP3    H130455   6.559   1.742   3.067
10166TIP3    H230456   6.562   1.866   2.980
10167TIP3   OH230457   3.428   1.563   5.611
10167TIP3    H130458   3.371   1.542   5.537
10167TIP3    H230459   3.396   1.509   5.683
10168TIP3   OH230460   4.890   1.891   4.525
10168TIP3    H130461   4.863   1.972   4.568
10168TIP3    H230462   4.928   1.838   4.595
10169TIP3   OH230463   5.711   3.962   3.023
10169TIP3    H130464   5.651   4.026   3.062
10169TIP3    H230465   5.661   3.880   3.021
10170TIP3   OH230466   6.576   2.025   6.715
10170TIP3    H130467   6.530   1.988   6.790
10170TIP3    H230468   6.615   1.950   6.670
10171TIP3   OH230469   2.933   2.598   2.682
10171TIP3    H130470   2.898   2.511   2.697
10171TIP3    H230471   2.873   2.657   2.728
10172TIP3   OH230472   6.712   3.020   2.547
10172TIP3    H130473   6.655   2.943   2.541
10172TIP3    H230474   6.797   2.984   2.571
10173TIP3   OH230475   2.173   3.561   2.028
10173TIP3    H130476   2.152   3.567   1.935
10173TIP3    H230477   2.123   3.632   2.069
10174TIP3   OH230478   5.644   4.524   1.263
10174TIP3    H130479   5.588   4.579   1.318
10174TIP3    H230480   5.714   4.583   1.235
10175TIP3   OH230481   3.291   7.315   0.505
10175TIP3    H130482   3.226   7.330   0.436
10175TIP3    H230483   3.256   7.362   0.581
10176TIP3   OH230484   1.471   0.736   5.854
10176TIP3    H130485   1.564   0.739   5.872
10176TIP3    H230486   1.465   0.713   5.761
10177TIP3   OH230487   6.579   7.344   1.698
10177TIP3    H130488   6.502   7.289   1.684
10177TIP3    H230489   6.652   7.282   1.697
10178TIP3   OH230490   7.571   7.574   2.024
10178TIP3    H130491   7.524   7.632   2.083
10178TIP3    H230492   7.656   7.616   2.013
10179TIP3   OH230493   1.853   0.240   1.252
10179TIP3    H130494   1.945   0.262   1.236
10179TIP3    H230495   1.814   0.322   1.282
10180TIP3   OH230496   7.552   5.086   0.892
10180TIP3    H130497   7.481   5.129   0.846
10180TIP3    H230498   7.594   5.155   0.943
10181TIP3   OH230499   2.303   6.134   3.286
10181TIP3    H130500   2.254   6.067   3.333
10181TIP3    H230501   2.395   6.111   3.298
10182TIP3   OH230502   1.920   5.872   4.942
10182TIP3    H130503   1.958   5.958   4.925
10182TIP3    H230504   1.952   5.817   4.871
10183TIP3   OH230505   2.792   2.180   6.315
10183TIP3    H130506   2.712   2.163   6.265
10183TIP3    H230507   2.817   2.094   6.351
10184TIP3   OH230508   2.685   7.228   6.636
10184TIP3    H130509   2.668   7.135   6.652
10184TIP3    H230510   2.621   7.252   6.569
10185TIP3   OH230511   4.929   2.493   2.222
10185TIP3    H130512   4.971   2.578   2.235
10185TIP3    H230513   4.952   2.469   2.132
10186TIP3   OH230514   0.704   4.747   5.294
10186TIP3    H130515   0.761   4.701   5.356
10186TIP3    H230516   0.636   4.786   5.348
10187TIP3   OH230517   1.437   7.351   0.815
10187TIP3    H130518   1.514   7.345   0.872
10187TIP3    H230519   1.469   7.391   0.734
10188TIP3   OH230520   6.081   7.682   1.341
10188TIP3    H130521   6.035   7.729   1.272
10188TIP3    H230522   6.173   7.705   1.327
10189TIP3   OH230523   6.241   2.479   6.693
10189TIP3    H130524   6.262   2.399   6.741
10189TIP3    H230525   6.323   2.528   6.693
10190TIP3   OH230526   1.150   2.136   3.349
10190TIP3    H130527   1.100   2.185   3.284
10190TIP3    H230528   1.165   2.199   3.420
10191TIP3   OH230529   2.270   1.190   6.400
10191TIP3    H130530   2.191   1.136   6.406
10191TIP3    H230531   2.263   1.252   6.472
10192TIP3   OH230532   6.834   3.090   4.113
10192TIP3    H130533   6.833   3.184   4.098
10192TIP3    H230534   6.758   3.057   4.065
10193TIP3   OH230535   5.374   6.435   4.485
10193TIP3    H130536   5.454   6.450   4.536
10193TIP3    H230537   5.384   6.490   4.407
10194TIP3   OH230538   7.881   5.566   4.784
10194TIP3    H130539   7.858   5.618   4.707
10194TIP3    H230540   7.821   5.597   4.852
10195TIP3   OH230541   1.519   6.837   5.229
10195TIP3    H130542   1.555   6.777   5.164
10195TIP3    H230543   1.584   6.838   5.299
10196TIP3   OH230544   5.964   2.594   3.662
10196TIP3    H130545   6.025   2.521   3.650
10196TIP3    H230546   5.928   2.581   3.750
10197TIP3   OH230547   1.628   3.611   4.306
10197TIP3    H130548   1.582   3.546   4.359
10197TIP3    H230549   1.560   3.672   4.278
10198TIP3   OH230550   6.863   5.730   0.177
10198TIP3    H130551   6.803   5.789   0.223
10198TIP3    H230552   6.947   5.774   0.180
10199TIP3   OH230553   7.983   3.792   2.091
10199TIP3    H130554   7.993   3.873   2.141
10199TIP3    H230555   7.901   3.754   2.123
10200TIP3   OH230556   2.641   5.078   5.897
10200TIP3    H130557   2.682   4.993   5.914
10200TIP3    H230558   2.580   5.061   5.825
10201TIP3   OH230559   5.228   6.248   2.308
10201TIP3    H130560   5.247   6.205   2.392
10201TIP3    H230561   5.225   6.341   2.329
10202TIP3   OH230562   2.113   0.839   6.312
10202TIP3    H130563   2.059   0.789   6.373
10202TIP3    H230564   2.198   0.795   6.315
10203TIP3   OH230565   0.464   0.570   4.970
10203TIP3    H130566   0.449   0.567   5.065
10203TIP3    H230567   0.442   0.482   4.939
10204TIP3   OH230568   5.563   1.585   5.044
10204TIP3    H130569   5.571   1.667   5.093
10204TIP3    H230570   5.474   1.588   5.007
10205TIP3   OH230571   3.009   2.443   2.102
10205TIP3    H130572   3.088   2.404   2.066
10205TIP3    H230573   3.039   2.496   2.176
10206TIP3   OH230574   5.453   0.102   1.938
10206TIP3    H130575   5.419   0.113   1.850
10206TIP3    H230576   5.389   0.146   1.994
10207TIP3   OH230577   4.734   2.655   4.162
10207TIP3    H130578   4.729   2.647   4.067
10207TIP3    H230579   4.687   2.736   4.182
10208TIP3   OH230580   3.250   2.240   0.479
10208TIP3    H130581   3.295   2.325   0.471
10208TIP3    H230582   3.303   2.191   0.542
10209TIP3   OH230583   4.769   2.355   2.855
10209TIP3    H130584   4.831   2.300   2.904
10209TIP3    H230585   4.789   2.444   2.883
10210TIP3   OH230586   0.340   2.058   4.973
10210TIP3    H130587   0.256   2.088   5.007
10210TIP3    H230588   0.329   1.963   4.963
10211TIP3   OH230589   7.353   5.481   3.896
10211TIP3    H130590   7.263   5.513   3.886
10211TIP3    H230591   7.358   5.454   3.987
10212TIP3   OH230592   2.038   3.043   5.159
10212TIP3    H130593   2.014   2.973   5.098
10212TIP3    H230594   2.056   3.118   5.103
10213TIP3   OH230595   2.690   7.636   1.125
10213TIP3    H130596   2.759   7.700   1.141
10213TIP3    H230597   2.677   7.637   1.030
10214TIP3   OH230598   1.810   5.179   6.286
10214TIP3    H130599   1.740   5.194   6.350
10214TIP3    H230600   1.797   5.089   6.257
10215TIP3   OH230601   7.860   6.926   2.313
10215TIP3    H130602   7.917   6.969   2.248
10215TIP3    H230603   7.914   6.857   2.350
10216TIP3   OH230604   2.226   7.593   1.827
10216TIP3    H130605   2.206   7.656   1.896
10216TIP3    H230606   2.227   7.508   1.870
10217TIP3   OH230607   0.717   0.240   0.005
10217TIP3    H130608   0.738   0.186   0.081
10217TIP3    H230609   0.656   0.186  -0.046
10218TIP3   OH230610   1.184   7.494   0.622
10218TIP3    H130611   1.106   7.480   0.569
10218TIP3    H230612   1.235   7.414   0.612
10219TIP3   OH230613   0.634   3.212   6.140
10219TIP3    H130614   0.555   3.254   6.173
10219TIP3    H230615   0.628   3.220   6.045
10220TIP3   OH230616   6.326   1.551   6.446
10220TIP3    H130617   6.337   1.625   6.387
10220TIP3    H230618   6.278   1.486   6.395
10221TIP3   OH230619   6.661   5.638   2.855
10221TIP3    H130620   6.619   5.680   2.780
10221TIP3    H230621   6.721   5.574   2.816
10222TIP3   OH230622   0.747   0.583   3.970
10222TIP3    H130623   0.736   0.678   3.965
10222TIP3    H230624   0.841   0.569   3.960
10223TIP3   OH230625   1.028   1.862   1.786
10223TIP3    H130626   0.952   1.888   1.837
10223TIP3    H230627   1.102   1.877   1.845
10224TIP3   OH230628   6.536   5.340   0.371
10224TIP3    H130629   6.625   5.369   0.354
10224TIP3    H230630   6.545   5.246   0.390
10225TIP3   OH230631   8.079   5.781   5.824
10225TIP3    H130632   8.134   5.818   5.893
10225TIP3    H230633   8.131   5.791   5.744
10226TIP3   OH230634   3.038   2.393   5.081
10226TIP3    H130635   3.061   2.441   5.002
10226TIP3    H230636   3.037   2.460   5.150
10227TIP3   OH230637   1.748   6.434   3.741
10227TIP3    H130638   1.745   6.466   3.831
10227TIP3    H230639   1.671   6.473   3.700
10228TIP3   OH230640   3.565   1.502   6.046
10228TIP3    H130641   3.652   1.540   6.033
10228TIP3    H230642   3.518   1.567   6.098
10229TIP3   OH230643   7.157   0.578   4.517
10229TIP3    H130644   7.149   0.500   4.463
10229TIP3    H230645   7.189   0.546   4.601
10230TIP3   OH230646   2.703   4.818   5.901
10230TIP3    H130647   2.765   4.789   5.967
10230TIP3    H230648   2.730   4.774   5.820
10231TIP3   OH230649   7.167   5.823   0.792
10231TIP3    H130650   7.143   5.855   0.879
10231TIP3    H230651   7.151   5.729   0.796
10232TIP3   OH230652   6.202   6.746   5.184
10232TIP3    H130653   6.278   6.770   5.130
10232TIP3    H230654   6.162   6.830   5.208
10233TIP3   OH230655   8.287   7.010   4.465
10233TIP3    H130656   8.268   7.104   4.473
10233TIP3    H230657   8.329   6.987   4.547
10234TIP3   OH230658   0.823   3.726   3.517
10234TIP3    H130659   0.850   3.733   3.426
10234TIP3    H230660   0.844   3.811   3.556
10235TIP3   OH230661   4.933   3.041   4.798
10235TIP3    H130662   4.996   3.025   4.869
10235TIP3    H230663   4.880   3.114   4.829
10236TIP3   OH230664   0.465   7.556   2.137
10236TIP3    H130665   0.493   7.529   2.050
10236TIP3    H230666   0.516   7.635   2.155
10237TIP3   OH230667   2.255   5.195   0.507
10237TIP3    H130668   2.203   5.222   0.431
10237TIP3    H230669   2.205   5.226   0.583
10238TIP3   OH230670   2.367   2.446   6.209
10238TIP3    H130671   2.459   2.431   6.186
10238TIP3    H230672   2.318   2.395   6.146
10239TIP3   OH230673   0.800   5.196   6.524
10239TIP3    H130674   0.736   5.236   6.465
10239TIP3    H230675   0.756   5.195   6.609
10240TIP3   OH230676   6.008   6.039   6.273
10240TIP3    H130677   6.092   6.075   6.245
10240TIP3    H230678   5.942   6.086   6.222
10241TIP3   OH230679   7.300   3.177   6.383
10241TIP3    H130680   7.207   3.200   6.381
10241TIP3    H230681   7.308   3.102   6.325
10242TIP3   OH230682   5.872   4.205   1.038
10242TIP3    H130683   5.777   4.205   1.031
10242TIP3    H230684   5.890   4.220   1.131
10243TIP3   OH230685   7.927   0.497   0.689
10243TIP3    H130686   7.871   0.538   0.755
10243TIP3    H230687   7.958   0.417   0.731
10244TIP3   OH230688   1.202   3.928   6.287
10244TIP3    H130689   1.119   3.944   6.242
10244TIP3    H230690   1.248   4.012   6.285
10245TIP3   OH230691   2.633   7.410   1.294
10245TIP3    H130692   2.651   7.493   1.250
10245TIP3    H230693   2.718   7.377   1.322
10246TIP3   OH230694   3.018   5.792   1.554
10246TIP3    H130695   3.019   5.840   1.638
10246TIP3    H230696   3.026   5.700   1.579
10247TIP3   OH230697   7.028   1.454   0.457
10247TIP3    H130698   6.987   1.503   0.528
10247TIP3    H230699   7.121   1.453   0.479
10248TIP3   OH230700   7.102   6.652   2.842
10248TIP3    H130701   7.151   6.661   2.924
10248TIP3    H230702   7.169   6.650   2.774
10249TIP3   OH230703   7.043   1.675   0.648
10249TIP3    H130704   7.025   1.734   0.721
10249TIP3    H230705   7.106   1.724   0.594
10250TIP3   OH230706   6.259   1.351   2.249
10250TIP3    H130707   6.307   1.338   2.167
10250TIP3    H230708   6.326   1.370   2.314
10251TIP3   OH230709   7.736   5.908   1.363
10251TIP3    H130710   7.831   5.915   1.357
10251TIP3    H230711   7.716   5.821   1.329
10252TIP3   OH230712   3.432   7.604   0.377
10252TIP3    H130713   3.451   7.695   0.356
10252TIP3    H230714   3.413   7.605   0.471
10253TIP3   OH230715   3.025   6.271   6.730
10253TIP3    H130716   3.034   6.313   6.816
10253TIP3    H230717   2.987   6.338   6.674
10254TIP3   OH230718   2.527   3.314   6.757
10254TIP3    H130719   2.451   3.370   6.740
10254TIP3    H230720   2.490   3.234   6.793
10255TIP3   OH230721   3.779   6.014   4.087
10255TIP3    H130722   3.843   5.959   4.132
10255TIP3    H230723   3.713   6.032   4.154
10256TIP3   OH230724   1.826   6.496   6.309
10256TIP3    H130725   1.881   6.441   6.365
10256TIP3    H230726   1.853   6.586   6.329
10257TIP3   OH230727   7.581   4.283   3.382
10257TIP3    H130728   7.655   4.321   3.428
10257TIP3    H230729   7.621   4.221   3.321
10258TIP3   OH230730   7.086   3.807   4.250
10258TIP3    H130731   7.091   3.868   4.176
10258TIP3    H230732   6.993   3.789   4.260
10259TIP3   OH230733   6.418   6.280   2.822
10259TIP3    H130734   6.361   6.213   2.784
10259TIP3    H230735   6.494   6.283   2.763
10260TIP3   OH230736   0.304   7.822   6.709
10260TIP3    H130737   0.275   7.731   6.710
10260TIP3    H230738   0.310   7.845   6.617
10261TIP3   OH230739   7.020   0.853   1.927
10261TIP3    H130740   7.077   0.777   1.938
10261TIP3    H230741   6.932   0.819   1.941
10262TIP3   OH230742   4.396   0.232   1.861
10262TIP3    H130743   4.410   0.325   1.842
10262TIP3    H230744   4.441   0.186   1.790
10263TIP3   OH230745   0.412   4.722   5.411
10263TIP3    H130746   0.331   4.694   5.369
10263TIP3    H230747   0.403   4.817   5.420
10264TIP3   OH230748   1.780   1.872   3.252
10264TIP3    H130749   1.692   1.898   3.280
10264TIP3    H230750   1.773   1.778   3.233
10265TIP3   OH230751   5.138   2.196   3.629
10265TIP3    H130752   5.218   2.154   3.598
10265TIP3    H230753   5.102   2.239   3.551
10266TIP3   OH230754   4.929   5.351   4.175
10266TIP3    H130755   4.892   5.430   4.214
10266TIP3    H230756   4.882   5.279   4.217
10267TIP3   OH230757   1.368   2.170   3.067
10267TIP3    H130758   1.317   2.233   3.015
10267TIP3    H230759   1.357   2.200   3.157
10268TIP3   OH230760   4.175   0.644   1.034
10268TIP3    H130761   4.115   0.702   0.987
10268TIP3    H230762   4.157   0.557   0.997
10269TIP3   OH230763   5.640   6.119   0.705
10269TIP3    H130764   5.736   6.122   0.710
10269TIP3    H230765   5.612   6.121   0.797
10270TIP3   OH230766   5.864   6.717   3.987
10270TIP3    H130767   5.854   6.704   4.081
10270TIP3    H230768   5.920   6.794   3.979
10271TIP3   OH230769   5.332   2.303   5.455
10271TIP3    H130770   5.423   2.329   5.467
10271TIP3    H230771   5.285   2.385   5.438
10272TIP3   OH230772   6.488   4.553   0.653
10272TIP3    H130773   6.545   4.587   0.722
10272TIP3    H230774   6.501   4.613   0.580
10273TIP3   OH230775   7.105   6.153   1.974
10273TIP3    H130776   7.162   6.221   1.938
10273TIP3    H230777   7.050   6.126   1.900
10274TIP3   OH230778   7.364   3.203   5.602
10274TIP3    H130779   7.451   3.164   5.597
10274TIP3    H230780   7.336   3.188   5.693
10275TIP3   OH230781   4.037   0.587   3.419
10275TIP3    H130782   4.031   0.507   3.367
10275TIP3    H230783   4.111   0.635   3.381
10276TIP3   OH230784   8.193   2.228   6.386
10276TIP3    H130785   8.134   2.211   6.313
10276TIP3    H230786   8.185   2.322   6.403
10277TIP3   OH230787   0.472   1.089   1.159
10277TIP3    H130788   0.469   1.014   1.099
10277TIP3    H230789   0.536   1.065   1.225
10278TIP3   OH230790   4.399   2.358   1.881
10278TIP3    H130791   4.356   2.391   1.960
10278TIP3    H230792   4.341   2.289   1.850
10279TIP3   OH230793   4.117   6.268   6.540
10279TIP3    H130794   4.153   6.262   6.452
10279TIP3    H230795   4.049   6.335   6.535
10280TIP3   OH230796   0.453   7.069   5.530
10280TIP3    H130797   0.425   6.979   5.543
10280TIP3    H230798   0.392   7.104   5.465
10281TIP3   OH230799   0.011   3.105   1.190
10281TIP3    H130800   0.074   3.113   1.118
10281TIP3    H230801   0.062   3.066   1.261
10282TIP3   OH230802   0.330   2.879   4.666
10282TIP3    H130803   0.258   2.941   4.665
10282TIP3    H230804   0.357   2.871   4.574
10283TIP3   OH230805   5.851   6.436   1.413
10283TIP3    H130806   5.812   6.499   1.473
10283TIP3    H230807   5.895   6.373   1.471
10284TIP3   OH230808   0.175   2.232   5.425
10284TIP3    H130809   0.252   2.278   5.458
10284TIP3    H230810   0.161   2.269   5.338
10285TIP3   OH230811   1.182   4.732   2.501
10285TIP3    H130812   1.242   4.772   2.438
10285TIP3    H230813   1.095   4.756   2.469
10286TIP3   OH230814   4.848   4.194   5.378
10286TIP3    H130815   4.823   4.104   5.355
10286TIP3    H230816   4.819   4.204   5.469
10287TIP3   OH230817   5.937   4.842   3.364
10287TIP3    H130818   5.919   4.771   3.303
10287TIP3    H230819   6.025   4.871   3.342
10288TIP3   OH230820   6.514   4.854   3.604
10288TIP3    H130821   6.473   4.769   3.619
10288TIP3    H230822   6.601   4.833   3.571
10289TIP3   OH230823   2.836   0.551   1.231
10289TIP3    H130824   2.891   0.624   1.262
10289TIP3    H230825   2.898   0.482   1.209
10290TIP3   OH230826   6.367   5.557   4.398
10290TIP3    H130827   6.341   5.466   4.413
10290TIP3    H230828   6.313   5.608   4.458
10291TIP3   OH230829   4.263   3.441   4.433
10291TIP3    H130830   4.205   3.517   4.421
10291TIP3    H230831   4.233   3.401   4.515
10292TIP3   OH230832   0.485   3.275   5.115
10292TIP3    H130833   0.574   3.242   5.109
10292TIP3    H230834   0.443   3.219   5.181
10293TIP3   OH230835   1.703   4.812   1.466
10293TIP3    H130836   1.651   4.753   1.412
10293TIP3    H230837   1.638   4.868   1.509
10294TIP3   OH230838   7.567   7.580   5.667
10294TIP3    H130839   7.544   7.587   5.574
10294TIP3    H230840   7.507   7.514   5.701
10295TIP3   OH230841   0.256   1.547   4.404
10295TIP3    H130842   0.244   1.641   4.394
10295TIP3    H230843   0.298   1.519   4.323
10296TIP3   OH230844   5.983   0.140   6.608
10296TIP3    H130845   5.958   0.176   6.693
10296TIP3    H230846   5.908   0.157   6.552
10297TIP3   OH230847   3.253   7.676   1.385
10297TIP3    H130848   3.168   7.669   1.342
10297TIP3    H230849   3.314   7.701   1.316
10298TIP3   OH230850   7.828   3.069   2.836
10298TIP3    H130851   7.857   3.160   2.824
10298TIP3    H230852   7.888   3.034   2.902
10299TIP3   OH230853   3.847   3.760   1.290
10299TIP3    H130854   3.834   3.846   1.329
10299TIP3    H230855   3.921   3.773   1.230
10300TIP3   OH230856   0.530   1.660   4.473
10300TIP3    H130857   0.437   1.637   4.467
10300TIP3    H230858   0.533   1.736   4.532
10301TIP3   OH230859   8.090   2.889   4.963
10301TIP3    H130860   8.014   2.866   5.017
10301TIP3    H230861   8.106   2.981   4.982
10302TIP3   OH230862   4.788   6.525   4.321
10302TIP3    H130863   4.877   6.560   4.310
10302TIP3    H230864   4.800   6.445   4.373
10303TIP3   OH230865   5.896   0.784   1.066
10303TIP3    H130866   5.931   0.863   1.023
10303TIP3    H230867   5.942   0.779   1.149
10304TIP3   OH230868   1.587   6.618   3.251
10304TIP3    H130869   1.645   6.693   3.264
10304TIP3    H230870   1.590   6.601   3.157
10305TIP3   OH230871   3.456   2.949   5.568
10305TIP3    H130872   3.414   2.950   5.482
10305TIP3    H230873   3.433   3.033   5.608
10306TIP3   OH230874   1.969   6.050   2.684
10306TIP3    H130875   1.956   5.998   2.604
10306TIP3    H230876   1.919   6.130   2.669
10307TIP3   OH230877   3.060   2.649   2.444
10307TIP3    H130878   3.082   2.565   2.405
10307TIP3    H230879   3.015   2.627   2.525
10308TIP3   OH230880   5.267   2.577   4.651
10308TIP3    H130881   5.246   2.540   4.736
10308TIP3    H230882   5.185   2.613   4.619
10309TIP3   OH230883   3.912   7.514   5.645
10309TIP3    H130884   3.855   7.444   5.678
10309TIP3    H230885   3.947   7.480   5.563
10310TIP3   OH230886   7.912   0.078   0.023
10310TIP3    H130887   7.923   0.056   0.115
10310TIP3    H230888   7.915  -0.006  -0.022
10311TIP3   OH230889   1.623   7.584   4.606
10311TIP3    H130890   1.598   7.561   4.696
10311TIP3    H230891   1.669   7.507   4.573
10312TIP3   OH230892   7.788   2.325   0.603
10312TIP3    H130893   7.698   2.293   0.604
10312TIP3    H230894   7.787   2.404   0.657
10313TIP3   OH230895   1.166   6.156   5.751
10313TIP3    H130896   1.127   6.072   5.728
10313TIP3    H230897   1.253   6.154   5.710
10314TIP3   OH230898   1.803   7.648   1.224
10314TIP3    H130899   1.799   7.702   1.145
10314TIP3    H230900   1.785   7.709   1.296
10315TIP3   OH230901   5.372   1.251   5.164
10315TIP3    H130902   5.369   1.157   5.180
10315TIP3    H230903   5.281   1.278   5.154
10316TIP3   OH230904   5.063   4.903   6.296
10316TIP3    H130905   4.999   4.953   6.347
10316TIP3    H230906   5.030   4.905   6.207
10317TIP3   OH230907   7.682   4.962   0.464
10317TIP3    H130908   7.703   4.869   0.468
10317TIP3    H230909   7.717   4.991   0.380
10318TIP3   OH230910   4.664   5.196   1.191
10318TIP3    H130911   4.688   5.110   1.155
10318TIP3    H230912   4.597   5.229   1.131
10319TIP3   OH230913   2.296   6.069   6.374
10319TIP3    H130914   2.218   6.019   6.395
10319TIP3    H230915   2.268   6.160   6.375
10320TIP3   OH230916   4.824   5.777   2.529
10320TIP3    H130917   4.910   5.776   2.487
10320TIP3    H230918   4.773   5.839   2.476
10321TIP3   OH230919   7.095   6.509   0.876
10321TIP3    H130920   7.012   6.530   0.833
10321TIP3    H230921   7.148   6.468   0.807
10322TIP3   OH230922   1.272   1.768   4.819
10322TIP3    H130923   1.229   1.844   4.858
10322TIP3    H230924   1.306   1.719   4.894
10323TIP3   OH230925   3.613   4.340   3.198
10323TIP3    H130926   3.621   4.416   3.255
10323TIP3    H230927   3.699   4.331   3.158
10324TIP3   OH230928   6.401   2.602   3.046
10324TIP3    H130929   6.414   2.595   3.141
10324TIP3    H230930   6.337   2.673   3.037
10325TIP3   OH230931   1.710   7.641   5.600
10325TIP3    H130932   1.638   7.702   5.586
10325TIP3    H230933   1.685   7.563   5.550
10326TIP3   OH230934   3.777   5.415   5.024
10326TIP3    H130935   3.722   5.490   5.002
10326TIP3    H230936   3.719   5.340   5.017
10327TIP3   OH230937   5.446   0.201   1.153
10327TIP3    H130938   5.501   0.278   1.169
10327TIP3    H230939   5.428   0.203   1.059
10328TIP3   OH230940   6.211   0.607   4.649
10328TIP3    H130941   6.281   0.543   4.637
10328TIP3    H230942   6.131   0.558   4.633
10329TIP3   OH230943   5.160   1.729   0.162
10329TIP3    H130944   5.187   1.643   0.130
10329TIP3    H230945   5.208   1.741   0.244
10330TIP3   OH230946   1.304   7.344   4.952
10330TIP3    H130947   1.265   7.431   4.967
10330TIP3    H230948   1.255   7.286   5.010
10331TIP3   OH230949   6.305   4.987   6.416
10331TIP3    H130950   6.380   5.040   6.443
10331TIP3    H230951   6.284   4.934   6.493
10332TIP3   OH230952   4.226   1.267   4.453
10332TIP3    H130953   4.209   1.355   4.487
10332TIP3    H230954   4.275   1.282   4.372
10333TIP3   OH230955   2.874   6.132   2.247
10333TIP3    H130956   2.940   6.091   2.191
10333TIP3    H230957   2.867   6.221   2.214
10334TIP3   OH230958   5.437   4.883   3.527
10334TIP3    H130959   5.420   4.917   3.439
10334TIP3    H230960   5.395   4.798   3.529
10335TIP3   OH230961   0.951   4.581   5.107
10335TIP3    H130962   0.950   4.641   5.181
10335TIP3    H230963   0.986   4.633   5.035
10336TIP3   OH230964   3.389   1.005   3.450
10336TIP3    H130965   3.343   0.945   3.510
10336TIP3    H230966   3.458   1.044   3.504
10337TIP3   OH230967   2.713   5.597   5.817
10337TIP3    H130968   2.699   5.633   5.904
10337TIP3    H230969   2.669   5.658   5.758
10338TIP3   OH230970   5.173   7.441   5.946
10338TIP3    H130971   5.201   7.378   5.880
10338TIP3    H230972   5.122   7.390   6.009
10339TIP3   OH230973   0.255   4.056   2.729
10339TIP3    H130974   0.291   4.000   2.661
10339TIP3    H230975   0.319   4.126   2.739
10340TIP3   OH230976   5.972   6.662   3.179
10340TIP3    H130977   5.908   6.617   3.124
10340TIP3    H230978   6.037   6.696   3.117
10341TIP3   OH230979   0.395   1.444   2.072
10341TIP3    H130980   0.312   1.396   2.073
10341TIP3    H230981   0.372   1.531   2.106
10342TIP3   OH230982   6.879   2.591   5.169
10342TIP3    H130983   6.937   2.651   5.216
10342TIP3    H230984   6.901   2.505   5.203
10343TIP3   OH230985   3.620   5.127   3.669
10343TIP3    H130986   3.524   5.136   3.675
10343TIP3    H230987   3.648   5.108   3.758
10344TIP3   OH230988   5.233   2.765   6.146
10344TIP3    H130989   5.302   2.830   6.159
10344TIP3    H230990   5.195   2.785   6.061
10345TIP3   OH230991   5.314   2.315   4.969
10345TIP3    H130992   5.404   2.293   4.994
10345TIP3    H230993   5.260   2.276   5.038
10346TIP3   OH230994   0.796   3.615   0.836
10346TIP3    H130995   0.775   3.592   0.746
10346TIP3    H230996   0.719   3.586   0.886
10347TIP3   OH230997   6.888   4.510   2.284
10347TIP3    H130998   6.971   4.543   2.249
10347TIP3    H230999   6.884   4.544   2.373
10348TIP3   OH231000   2.977   5.607   6.283
10348TIP3    H131001   2.997   5.540   6.348
10348TIP3    H231002   3.059   5.616   6.233
10349TIP3   OH231003   3.041   4.668   5.859
10349TIP3    H131004   3.003   4.667   5.947
10349TIP3    H231005   2.973   4.632   5.803
10350TIP3   OH231006   5.220   4.934   0.373
10350TIP3    H131007   5.279   4.946   0.299
10350TIP3    H231008   5.218   5.019   0.417
10351TIP3   OH231009   4.320   1.500   1.665
10351TIP3    H131010   4.261   1.575   1.660
10351TIP3    H231011   4.399   1.529   1.620
10352TIP3   OH231012   5.889   6.075   1.531
10352TIP3    H131013   5.902   6.066   1.626
10352TIP3    H231014   5.968   6.120   1.500
10353TIP3   OH231015   6.335   2.881   5.928
10353TIP3    H131016   6.277   2.950   5.897
10353TIP3    H231017   6.423   2.915   5.917
10354TIP3   OH231018   4.196   2.505   1.046
10354TIP3    H131019   4.275   2.452   1.036
10354TIP3    H231020   4.193   2.559   0.966
10355TIP3   OH231021   3.390   7.593   2.577
10355TIP3    H131022   3.379   7.685   2.554
10355TIP3    H231023   3.306   7.567   2.615
10356TIP3   OH231024   0.682   1.589   2.839
10356TIP3    H131025   0.673   1.680   2.867
10356TIP3    H231026   0.595   1.564   2.810
10357TIP3   OH231027   7.772   1.992   3.692
10357TIP3    H131028   7.747   1.900   3.694
10357TIP3    H231029   7.864   1.992   3.719
10358TIP3   OH231030   2.784   1.759   3.744
10358TIP3    H131031   2.745   1.685   3.698
10358TIP3    H231032   2.763   1.744   3.836
10359TIP3   OH231033   6.448   3.338   5.379
10359TIP3    H131034   6.356   3.363   5.378
10359TIP3    H231035   6.494   3.416   5.348
10360TIP3   OH231036   0.929   0.095   0.906
10360TIP3    H131037   0.907   0.072   0.997
10360TIP3    H231038   0.848   0.129   0.870
10361TIP3   OH231039   6.053   5.205   0.289
10361TIP3    H131040   6.103   5.280   0.321
10361TIP3    H231041   6.015   5.166   0.368
10362TIP3   OH231042   1.688   5.761   2.362
10362TIP3    H131043   1.686   5.688   2.423
10362TIP3    H231044   1.691   5.720   2.275
10363TIP3   OH231045   1.513   1.332   6.289
10363TIP3    H131046   1.485   1.306   6.377
10363TIP3    H231047   1.437   1.376   6.251
10364TIP3   OH231048   5.768   2.902   2.885
10364TIP3    H131049   5.796   2.940   2.969
10364TIP3    H231050   5.698   2.842   2.909
10365TIP3   OH231051   1.859   6.277   3.184
10365TIP3    H131052   1.881   6.367   3.161
10365TIP3    H231053   1.797   6.284   3.256
10366TIP3   OH231054   3.394   6.653   2.706
10366TIP3    H131055   3.395   6.676   2.799
10366TIP3    H231056   3.481   6.678   2.674
10367TIP3   OH231057   4.226   5.693   4.796
10367TIP3    H131058   4.304   5.690   4.851
10367TIP3    H231059   4.179   5.613   4.816
10368TIP3   OH231060   3.723   3.078   5.682
10368TIP3    H131061   3.732   3.043   5.770
10368TIP3    H231062   3.813   3.082   5.648
10369TIP3   OH231063   4.826   0.383   3.629
10369TIP3    H131064   4.772   0.422   3.698
10369TIP3    H231065   4.916   0.403   3.655
10370TIP3   OH231066   0.964   6.873   2.002
10370TIP3    H131067   0.934   6.782   1.995
10370TIP3    H231068   1.055   6.866   2.032
10371TIP3   OH231069   3.647   2.168   0.336
10371TIP3    H131070   3.557   2.197   0.354
10371TIP3    H231071   3.683   2.147   0.422
10372TIP3   OH231072   7.107   6.245   5.147
10372TIP3    H131073   7.088   6.270   5.237
10372TIP3    H231074   7.179   6.182   5.154
10373TIP3   OH231075   2.491   1.861   3.825
10373TIP3    H131076   2.414   1.887   3.875
10373TIP3    H231077   2.547   1.817   3.889
10374TIP3   OH231078   3.052   0.014   0.448
10374TIP3    H131079   3.020  -0.058   0.501
10374TIP3    H231080   3.019   0.093   0.492
10375TIP3   OH231081   4.174   2.191   4.304
10375TIP3    H131082   4.227   2.263   4.336
10375TIP3    H231083   4.117   2.169   4.377
10376TIP3   OH231084   4.981   0.944   4.913
10376TIP3    H131085   4.973   1.037   4.893
10376TIP3    H231086   4.910   0.925   4.974
10377TIP3   OH231087   5.574   2.053   6.422
10377TIP3    H131088   5.644   2.030   6.482
10377TIP3    H231089   5.616   2.056   6.336
10378TIP3   OH231090   1.673   0.895   2.498
10378TIP3    H131091   1.643   0.976   2.538
10378TIP3    H231092   1.743   0.864   2.556
10379TIP3   OH231093   6.043   2.528   2.913
10379TIP3    H131094   6.042   2.459   2.979
10379TIP3    H231095   5.963   2.516   2.863
10380TIP3   OH231096   0.217   1.160   3.327
10380TIP3    H131097   0.224   1.251   3.354
10380TIP3    H231098   0.153   1.160   3.256
10381TIP3   OH231099   2.058   4.075   5.225
10381TIP3    H131100   2.101   4.066   5.309
10381TIP3    H231101   1.972   4.112   5.246
10382TIP3   OH231102   0.587   6.490   4.471
10382TIP3    H131103   0.674   6.528   4.461
10382TIP3    H231104   0.578   6.430   4.397
10383TIP3   OH231105   0.823   6.252   4.189
10383TIP3    H131106   0.802   6.335   4.230
10383TIP3    H231107   0.800   6.185   4.254
10384TIP3   OH231108   1.261   4.704   6.646
10384TIP3    H131109   1.177   4.688   6.688
10384TIP3    H231110   1.261   4.648   6.569
10385TIP3   OH231111   6.683   6.284   0.281
10385TIP3    H131112   6.700   6.363   0.332
10385TIP3    H231113   6.748   6.287   0.211
10386TIP3   OH231114   4.402   3.143   6.679
10386TIP3    H131115   4.426   3.066   6.628
10386TIP3    H231116   4.473   3.152   6.743
10387TIP3   OH231117   4.841   6.962   1.503
10387TIP3    H131118   4.900   6.996   1.436
10387TIP3    H231119   4.876   6.876   1.524
10388TIP3   OH231120   4.559   5.513   5.621
10388TIP3    H131121   4.620   5.559   5.564
10388TIP3    H231122   4.544   5.429   5.578
10389TIP3   OH231123   7.763   2.925   3.206
10389TIP3    H131124   7.739   3.006   3.160
10389TIP3    H231125   7.727   2.937   3.294
10390TIP3   OH231126   2.363   2.113   1.463
10390TIP3    H131127   2.349   2.206   1.481
10390TIP3    H231128   2.317   2.068   1.533
10391TIP3   OH231129   5.356   2.256   2.461
10391TIP3    H131130   5.291   2.195   2.425
10391TIP3    H231131   5.321   2.280   2.547
10392TIP3   OH231132   7.516   6.894   1.210
10392TIP3    H131133   7.471   6.839   1.274
10392TIP3    H231134   7.511   6.982   1.246
10393TIP3   OH231135   4.980   0.395   5.745
10393TIP3    H131136   4.986   0.491   5.751
10393TIP3    H231137   5.001   0.365   5.833
10394TIP3   OH231138   8.291   3.658   2.944
10394TIP3    H131139   8.358   3.726   2.952
10394TIP3    H231140   8.221   3.699   2.892
10395TIP3   OH231141   7.887   4.927   1.054
10395TIP3    H131142   7.872   4.991   1.124
10395TIP3    H231143   7.806   4.876   1.051
10396TIP3   OH231144   6.563   6.795   6.150
10396TIP3    H131145   6.549   6.731   6.081
10396TIP3    H231146   6.614   6.748   6.216
10397TIP3   OH231147   0.330   5.717   5.461
10397TIP3    H131148   0.340   5.622   5.458
10397TIP3    H231149   0.344   5.746   5.371
10398TIP3   OH231150   2.585   3.737   2.509
10398TIP3    H131151   2.510   3.684   2.537
10398TIP3    H231152   2.550   3.826   2.503
10399TIP3   OH231153   1.181   3.425   5.571
10399TIP3    H131154   1.250   3.370   5.606
10399TIP3    H231155   1.184   3.505   5.624
10400TIP3   OH231156   5.940   6.406   2.409
10400TIP3    H131157   5.959   6.383   2.318
10400TIP3    H231158   5.984   6.339   2.461
10401TIP3   OH231159   6.122   6.277   6.187
10401TIP3    H131160   6.067   6.341   6.141
10401TIP3    H231161   6.159   6.326   6.261
10402TIP3   OH231162   8.166   7.554   6.650
10402TIP3    H131163   8.197   7.495   6.718
10402TIP3    H231164   8.188   7.510   6.568
10403TIP3   OH231165   2.375   0.239   3.289
10403TIP3    H131166   2.433   0.179   3.243
10403TIP3    H231167   2.348   0.190   3.368
10404TIP3   OH231168   5.607   4.229   5.855
10404TIP3    H131169   5.519   4.209   5.886
10404TIP3    H231170   5.604   4.213   5.761
10405TIP3   OH231171   5.647   5.822   1.510
10405TIP3    H131172   5.725   5.772   1.482
10405TIP3    H231173   5.574   5.761   1.496
10406TIP3   OH231174   0.007   4.522   1.513
10406TIP3    H131175  -0.054   4.450   1.529
10406TIP3    H231176   0.037   4.548   1.601
10407TIP3   OH231177   6.427   7.440   6.403
10407TIP3    H131178   6.499   7.492   6.368
10407TIP3    H231179   6.460   7.408   6.487
10408TIP3   OH231180   0.511   3.834   4.787
10408TIP3    H131181   0.496   3.740   4.778
10408TIP3    H231182   0.515   3.848   4.882
10409TIP3   OH231183   7.414   1.896   5.519
10409TIP3    H131184   7.368   1.843   5.584
10409TIP3    H231185   7.380   1.868   5.435
10410TIP3   OH231186   2.530   0.313   0.904
10410TIP3    H131187   2.524   0.391   0.850
10410TIP3    H231188   2.448   0.267   0.890
10411TIP3   OH231189   3.917   4.964   5.558
10411TIP3    H131190   3.898   4.950   5.651
10411TIP3    H231191   3.894   4.881   5.517
10412TIP3   OH231192   4.455   6.375   4.700
10412TIP3    H131193   4.421   6.463   4.686
10412TIP3    H231194   4.394   6.335   4.762
10413TIP3   OH231195   2.663   1.167   4.429
10413TIP3    H131196   2.745   1.212   4.450
10413TIP3    H231197   2.665   1.156   4.334
10414TIP3   OH231198   4.880   3.429   6.412
10414TIP3    H131199   4.834   3.375   6.477
10414TIP3    H231200   4.866   3.519   6.442
10415TIP3   OH231201   2.124   2.961   4.102
10415TIP3    H131202   2.172   2.947   4.020
10415TIP3    H231203   2.183   2.927   4.170
10416TIP3   OH231204   7.124   5.791   6.112
10416TIP3    H131205   7.177   5.711   6.114
10416TIP3    H231206   7.089   5.799   6.201
10417TIP3   OH231207   0.251   5.715   1.341
10417TIP3    H131208   0.331   5.731   1.392
10417TIP3    H231209   0.197   5.792   1.356
10418TIP3   OH231210   2.406   5.482   4.709
10418TIP3    H131211   2.416   5.438   4.624
10418TIP3    H231212   2.439   5.420   4.773
10419TIP3   OH231213   3.553   3.593   0.657
10419TIP3    H131214   3.492   3.547   0.714
10419TIP3    H231215   3.509   3.596   0.572
10420TIP3   OH231216   6.910   3.503   6.057
10420TIP3    H131217   6.876   3.460   5.979
10420TIP3    H231218   6.977   3.563   6.024
10421TIP3   OH231219   5.919   3.295   1.302
10421TIP3    H131220   5.974   3.373   1.295
10421TIP3    H231221   5.850   3.320   1.363
10422TIP3   OH231222   7.848   4.627   4.681
10422TIP3    H131223   7.807   4.541   4.669
10422TIP3    H231224   7.880   4.650   4.594
10423TIP3   OH231225   6.448   3.882   0.629
10423TIP3    H131226   6.508   3.808   0.640
10423TIP3    H231227   6.422   3.905   0.718
10424TIP3   OH231228   4.367   0.851   0.723
10424TIP3    H131229   4.451   0.894   0.704
10424TIP3    H231230   4.385   0.795   0.799
10425TIP3   OH231231   0.434   5.622   4.930
10425TIP3    H131232   0.379   5.660   4.861
10425TIP3    H231233   0.374   5.565   4.978
10426TIP3   OH231234   4.062   0.326   2.666
10426TIP3    H131235   3.974   0.315   2.630
10426TIP3    H231236   4.051   0.395   2.732
10427TIP3   OH231237   0.942   4.869   1.715
10427TIP3    H131238   0.942   4.780   1.750
10427TIP3    H231239   0.925   4.925   1.790
10428TIP3   OH231240   6.850   5.867   1.277
10428TIP3    H131241   6.941   5.841   1.258
10428TIP3    H231242   6.805   5.858   1.193
10429TIP3   OH231243   5.923   2.800   3.446
10429TIP3    H131244   5.871   2.878   3.466
10429TIP3    H231245   5.933   2.756   3.531
10430TIP3   OH231246   0.627   1.880   4.233
10430TIP3    H131247   0.557   1.858   4.172
10430TIP3    H231248   0.629   1.807   4.295
10431TIP3   OH231249   0.855   1.223   0.215
10431TIP3    H131250   0.883   1.208   0.124
10431TIP3    H231251   0.935   1.251   0.260
10432TIP3   OH231252   3.809   3.969   1.612
10432TIP3    H131253   3.729   3.917   1.613
10432TIP3    H231254   3.837   3.971   1.703
10433TIP3   OH231255   6.372   1.241   3.659
10433TIP3    H131256   6.303   1.266   3.597
10433TIP3    H231257   6.449   1.289   3.629
10434TIP3   OH231258   2.032   3.834   5.055
10434TIP3    H131259   2.062   3.918   5.090
10434TIP3    H231260   1.979   3.796   5.124
10435TIP3   OH231261   5.668   2.153   2.152
10435TIP3    H131262   5.678   2.162   2.057
10435TIP3    H231263   5.587   2.104   2.164
10436TIP3   OH231264   4.691   1.746   5.885
10436TIP3    H131265   4.732   1.661   5.874
10436TIP3    H231266   4.676   1.754   5.979
10437TIP3   OH231267   2.136   0.744   0.473
10437TIP3    H131268   2.210   0.790   0.514
10437TIP3    H231269   2.118   0.795   0.394
10438TIP3   OH231270   6.160   5.820   0.746
10438TIP3    H131271   6.243   5.816   0.698
10438TIP3    H231272   6.095   5.842   0.679
10439TIP3   OH231273   7.277   3.085   4.676
10439TIP3    H131274   7.293   3.162   4.622
10439TIP3    H231275   7.247   3.120   4.760
10440TIP3   OH231276   0.205   3.655   2.476
10440TIP3    H131277   0.266   3.661   2.550
10440TIP3    H231278   0.256   3.688   2.401
10441TIP3   OH231279   2.488   4.451   0.449
10441TIP3    H131280   2.572   4.494   0.431
10441TIP3    H231281   2.442   4.451   0.366
10442TIP3   OH231282   3.336   0.655   0.963
10442TIP3    H131283   3.251   0.611   0.960
10442TIP3    H231284   3.363   0.663   0.872
10443TIP3   OH231285   8.211   1.076   6.218
10443TIP3    H131286   8.140   1.023   6.256
10443TIP3    H231287   8.244   1.023   6.145
10444TIP3   OH231288   3.068   3.695   5.694
10444TIP3    H131289   3.148   3.742   5.672
10444TIP3    H231290   3.056   3.633   5.622
10445TIP3   OH231291   2.214   2.628   6.374
10445TIP3    H131292   2.242   2.556   6.318
10445TIP3    H231293   2.119   2.621   6.377
10446TIP3   OH231294   6.049   1.920   2.442
10446TIP3    H131295   6.085   1.833   2.459
10446TIP3    H231296   6.126   1.974   2.422
10447TIP3   OH231297   1.499   1.401   2.623
10447TIP3    H131298   1.531   1.491   2.621
10447TIP3    H231299   1.404   1.409   2.616
10448TIP3   OH231300   6.672   3.204   2.005
10448TIP3    H131301   6.733   3.236   1.939
10448TIP3    H231302   6.599   3.167   1.954
10449TIP3   OH231303   7.802   2.346   4.091
10449TIP3    H131304   7.772   2.435   4.074
10449TIP3    H231305   7.859   2.326   4.016
10450TIP3   OH231306   4.787   1.973   3.703
10450TIP3    H131307   4.864   1.940   3.657
10450TIP3    H231308   4.807   1.960   3.796
10451TIP3   OH231309   4.504   6.509   3.218
10451TIP3    H131310   4.414   6.539   3.208
10451TIP3    H231311   4.554   6.587   3.240
10452TIP3   OH231312   4.040   2.953   2.275
10452TIP3    H131313   4.010   3.026   2.329
10452TIP3    H231314   3.964   2.895   2.267
10453TIP3   OH231315   6.571   6.918   1.718
10453TIP3    H131316   6.517   6.841   1.702
10453TIP3    H231317   6.524   6.990   1.676
10454TIP3   OH231318   2.139   3.513   5.335
10454TIP3    H131319   2.068   3.574   5.351
10454TIP3    H231320   2.100   3.426   5.346
10455TIP3   OH231321   0.886   2.581   6.247
10455TIP3    H131322   0.820   2.547   6.186
10455TIP3    H231323   0.835   2.628   6.314
10456TIP3   OH231324   8.188   4.843   5.923
10456TIP3    H131325   8.242   4.769   5.897
10456TIP3    H231326   8.242   4.920   5.905
10457TIP3   OH231327   3.667   3.765   5.135
10457TIP3    H131328   3.747   3.718   5.160
10457TIP3    H231329   3.698   3.835   5.077
10458TIP3   OH231330   3.352   2.906   4.737
10458TIP3    H131331   3.383   2.818   4.713
10458TIP3    H231332   3.289   2.928   4.669
10459TIP3   OH231333   3.537   2.917   5.853
10459TIP3    H131334   3.551   2.926   5.758
10459TIP3    H231335   3.612   2.866   5.884
10460TIP3   OH231336   0.689   2.419   4.682
10460TIP3    H131337   0.762   2.367   4.717
10460TIP3    H231338   0.621   2.354   4.661
10461TIP3   OH231339   7.858   3.912   4.963
10461TIP3    H131340   7.780   3.857   4.952
10461TIP3    H231341   7.906   3.873   5.035
10462TIP3   OH231342   2.288   6.887   1.989
10462TIP3    H131343   2.224   6.898   2.059
10462TIP3    H231344   2.347   6.962   1.999
10463TIP3   OH231345  -0.006   0.989   5.323
10463TIP3    H131346   0.003   1.037   5.240
10463TIP3    H231347   0.076   0.940   5.331
10464TIP3   OH231348   6.114   7.236   5.936
10464TIP3    H131349   6.053   7.261   6.005
10464TIP3    H231350   6.198   7.225   5.981
10465TIP3   OH231351   3.777   1.681   1.797
10465TIP3    H131352   3.851   1.741   1.811
10465TIP3    H231353   3.760   1.686   1.703
10466TIP3   OH231354   5.400   1.834   3.469
10466TIP3    H131355   5.390   1.889   3.547
10466TIP3    H231356   5.315   1.789   3.461
10467TIP3   OH231357   5.970   5.121   1.756
10467TIP3    H131358   5.960   5.108   1.850
10467TIP3    H231359   6.047   5.069   1.731
10468TIP3   OH231360   4.747   1.650   5.155
10468TIP3    H131361   4.654   1.670   5.165
10468TIP3    H231362   4.774   1.700   5.078
10469TIP3   OH231363   1.031   2.084   6.248
10469TIP3    H131364   0.999   2.078   6.338
10469TIP3    H231365   1.032   1.994   6.217
10470TIP3   OH231366   0.612   5.228   3.377
10470TIP3    H131367   0.682   5.202   3.317
10470TIP3    H231368   0.655   5.287   3.439
10471TIP3   OH231369   0.419   4.147   3.007
10471TIP3    H131370   0.463   4.184   2.931
10471TIP3    H231371   0.326   4.156   2.988
10472TIP3   OH231372   4.882   1.883   3.096
10472TIP3    H131373   4.926   1.891   3.181
10472TIP3    H231374   4.790   1.872   3.117
10473TIP3   OH231375   2.161   3.158   1.257
10473TIP3    H131376   2.181   3.095   1.327
10473TIP3    H231377   2.135   3.103   1.182
10474TIP3   OH231378   7.791   6.850   0.710
10474TIP3    H131379   7.751   6.788   0.648
10474TIP3    H231380   7.832   6.794   0.776
10475TIP3   OH231381   2.950   6.845   5.528
10475TIP3    H131382   2.928   6.763   5.572
10475TIP3    H231383   3.008   6.891   5.589
10476TIP3   OH231384   2.831   6.212   3.424
10476TIP3    H131385   2.873   6.269   3.488
10476TIP3    H231386   2.815   6.269   3.348
10477TIP3   OH231387   1.769   6.793   3.619
10477TIP3    H131388   1.758   6.884   3.592
10477TIP3    H231389   1.743   6.792   3.711
10478TIP3   OH231390   7.391   3.053   3.620
10478TIP3    H131391   7.373   3.080   3.530
10478TIP3    H231392   7.314   3.002   3.646
10479TIP3   OH231393   5.085   7.485   4.436
10479TIP3    H131394   5.122   7.559   4.388
10479TIP3    H231395   5.034   7.525   4.506
10480TIP3   OH231396   5.789   5.685   5.869
10480TIP3    H131397   5.852   5.755   5.885
10480TIP3    H231398   5.739   5.714   5.792
10481TIP3   OH231399   4.644   0.938   0.733
10481TIP3    H131400   4.689   0.897   0.807
10481TIP3    H231401   4.654   0.876   0.661
10482TIP3   OH231402   3.646   5.702   6.292
10482TIP3    H131403   3.688   5.640   6.351
10482TIP3    H231404   3.616   5.773   6.349
10483TIP3   OH231405   5.843   3.871   6.436
10483TIP3    H131406   5.820   3.873   6.529
10483TIP3    H231407   5.774   3.922   6.394
10484TIP3   OH231408   5.589   6.039   0.945
10484TIP3    H131409   5.671   5.991   0.961
10484TIP3    H231410   5.569   6.082   1.028
10485TIP3   OH231411   6.937   1.550   3.639
10485TIP3    H131412   6.951   1.481   3.573
10485TIP3    H231413   7.019   1.553   3.688
10486TIP3   OH231414   0.429   4.270   5.511
10486TIP3    H131415   0.476   4.353   5.498
10486TIP3    H231416   0.342   4.286   5.476
10487TIP3   OH231417   5.516   5.331   6.545
10487TIP3    H131418   5.446   5.294   6.490
10487TIP3    H231419   5.475   5.344   6.630
10488TIP3   OH231420   8.041   5.772   5.254
10488TIP3    H131421   8.074   5.740   5.338
10488TIP3    H231422   8.092   5.723   5.189
10489TIP3   OH231423   2.205   7.657   0.812
10489TIP3    H131424   2.192   7.606   0.891
10489TIP3    H231425   2.127   7.640   0.759
10490TIP3   OH231426   5.531   0.763   3.607
10490TIP3    H131427   5.438   0.745   3.620
10490TIP3    H231428   5.553   0.824   3.677
10491TIP3   OH231429   8.109   7.639   2.442
10491TIP3    H131430   8.046   7.578   2.404
10491TIP3    H231431   8.191   7.589   2.447
10492TIP3   OH231432   2.356   2.172   4.002
10492TIP3    H131433   2.305   2.199   3.926
10492TIP3    H231434   2.355   2.077   3.999
10493TIP3   OH231435   2.945   7.592   3.926
10493TIP3    H131436   2.994   7.514   3.898
10493TIP3    H231437   2.853   7.567   3.918
10494TIP3   OH231438   2.920   2.865   4.672
10494TIP3    H131439   3.002   2.816   4.664
10494TIP3    H231440   2.939   2.934   4.735
10495TIP3   OH231441   5.976   6.393   0.037
10495TIP3    H131442   6.028   6.352   0.106
10495TIP3    H231443   5.900   6.337   0.027
10496TIP3   OH231444   1.000   0.003   1.562
10496TIP3    H131445   1.004  -0.090   1.583
10496TIP3    H231446   0.907   0.022   1.555
10497TIP3   OH231447   0.348   5.294   4.247
10497TIP3    H131448   0.283   5.331   4.187
10497TIP3    H231449   0.314   5.314   4.334
10498TIP3   OH231450   8.030   6.364   2.039
10498TIP3    H131451   8.114   6.372   2.083
10498TIP3    H231452   7.972   6.422   2.088
10499TIP3   OH231453   6.436   4.938   0.921
10499TIP3    H131454   6.384   4.972   0.994
10499TIP3    H231455   6.496   5.008   0.898
10500TIP3   OH231456   4.941   1.178   5.283
10500TIP3    H131457   4.884   1.254   5.290
10500TIP3    H231458   4.916   1.136   5.201
10501TIP3   OH231459   6.720   4.771   6.763
10501TIP3    H131460   6.674   4.759   6.846
10501TIP3    H231461   6.709   4.687   6.718
10502TIP3   OH231462   8.217   0.939   2.571
10502TIP3    H131463   8.284   0.876   2.543
10502TIP3    H231464   8.266   1.004   2.621
10503TIP3   OH231465   6.908   3.537   6.760
10503TIP3    H131466   6.890   3.455   6.805
10503TIP3    H231467   6.828   3.556   6.712
10504TIP3   OH231468   4.855   5.362   0.761
10504TIP3    H131469   4.797   5.298   0.803
10504TIP3    H231470   4.797   5.413   0.704
10505TIP3   OH231471   0.547   2.773   6.704
10505TIP3    H131472   0.461   2.732   6.697
10505TIP3    H231473   0.560   2.817   6.620
10506TIP3   OH231474   6.599   1.125   2.861
10506TIP3    H131475   6.638   1.065   2.924
10506TIP3    H231476   6.551   1.069   2.801
10507TIP3   OH231477   1.126   1.083   3.795
10507TIP3    H131478   1.060   1.141   3.833
10507TIP3    H231479   1.107   1.083   3.701
10508TIP3   OH231480   6.454   1.384   0.126
10508TIP3    H131481   6.475   1.322   0.056
10508TIP3    H231482   6.453   1.469   0.081
10509TIP3   OH231483   1.731   4.405   5.126
10509TIP3    H131484   1.644   4.366   5.117
10509TIP3    H231485   1.746   4.448   5.042
10510TIP3   OH231486   4.841   3.257   3.750
10510TIP3    H131487   4.883   3.213   3.824
10510TIP3    H231488   4.751   3.223   3.750
10511TIP3   OH231489   6.684   2.610   3.677
10511TIP3    H131490   6.613   2.551   3.653
10511TIP3    H231491   6.685   2.610   3.773
10512TIP3   OH231492   5.829   1.148   1.758
10512TIP3    H131493   5.861   1.237   1.746
10512TIP3    H231494   5.752   1.157   1.815
10513TIP3   OH231495   3.878   1.131   2.785
10513TIP3    H131496   3.831   1.064   2.738
10513TIP3    H231497   3.909   1.087   2.865
10514TIP3   OH231498   0.052   3.731   4.131
10514TIP3    H131499   0.070   3.822   4.106
10514TIP3    H231500   0.053   3.683   4.048
10515TIP3   OH231501   0.374   6.353   4.611
10515TIP3    H131502   0.371   6.427   4.549
10515TIP3    H231503   0.399   6.393   4.694
10516TIP3   OH231504   3.443   2.445   6.057
10516TIP3    H131505   3.501   2.519   6.041
10516TIP3    H231506   3.450   2.392   5.978
10517TIP3   OH231507   3.489   3.948   0.802
10517TIP3    H131508   3.475   4.011   0.874
10517TIP3    H231509   3.402   3.915   0.782
10518TIP3   OH231510   6.761   7.157   5.709
10518TIP3    H131511   6.745   7.089   5.774
10518TIP3    H231512   6.763   7.111   5.625
10519TIP3   OH231513   3.619   3.466   4.994
10519TIP3    H131514   3.609   3.512   5.078
10519TIP3    H231515   3.653   3.380   5.019
10520TIP3   OH231516   0.374   1.049   0.761
10520TIP3    H131517   0.319   1.066   0.684
10520TIP3    H231518   0.445   1.113   0.754
10521TIP3   OH231519   3.183   5.597   2.965
10521TIP3    H131520   3.110   5.646   3.002
10521TIP3    H231521   3.198   5.527   3.029
10522TIP3   OH231522   2.241   7.697   6.316
10522TIP3    H131523   2.315   7.732   6.266
10522TIP3    H231524   2.273   7.613   6.349
10523TIP3   OH231525   6.689   3.216   5.817
10523TIP3    H131526   6.762   3.277   5.813
10523TIP3    H231527   6.662   3.205   5.726
10524TIP3   OH231528   6.922   2.207   4.841
10524TIP3    H131529   6.904   2.244   4.755
10524TIP3    H231530   6.931   2.113   4.826
10525TIP3   OH231531   6.105   0.278   4.908
10525TIP3    H131532   6.060   0.304   4.989
10525TIP3    H231533   6.084   0.347   4.846
10526TIP3   OH231534   4.185   2.851   2.853
10526TIP3    H131535   4.211   2.771   2.807
10526TIP3    H231536   4.090   2.857   2.838
10527TIP3   OH231537   7.113   7.272   5.099
10527TIP3    H131538   7.207   7.263   5.085
10527TIP3    H231539   7.081   7.318   5.021
10528TIP3   OH231540   1.558   1.372   2.058
10528TIP3    H131541   1.562   1.435   2.130
10528TIP3    H231542   1.520   1.421   1.985
10529TIP3   OH231543   7.126   3.103   4.934
10529TIP3    H131544   7.084   3.018   4.943
10529TIP3    H231545   7.060   3.165   4.965
10530TIP3   OH231546   2.908   7.470   3.323
10530TIP3    H131547   2.860   7.552   3.321
10530TIP3    H231548   2.983   7.487   3.379
10531TIP3   OH231549   6.987   5.815   4.337
10531TIP3    H131550   6.897   5.834   4.364
10531TIP3    H231551   7.031   5.789   4.418
10532TIP3   OH231552   0.455   1.631   2.681
10532TIP3    H131553   0.369   1.634   2.638
10532TIP3    H231554   0.487   1.721   2.677
10533TIP3   OH231555   7.355   7.454   4.755
10533TIP3    H131556   7.323   7.515   4.821
10533TIP3    H231557   7.296   7.467   4.680
10534TIP3   OH231558   3.108   1.171   5.680
10534TIP3    H131559   3.077   1.111   5.748
10534TIP3    H231560   3.057   1.251   5.695
10535TIP3   OH231561   8.064   3.116   6.378
10535TIP3    H131562   7.976   3.123   6.414
10535TIP3    H231563   8.063   3.171   6.300
10536TIP3   OH231564   4.934   7.205   1.452
10536TIP3    H131565   4.962   7.152   1.526
10536TIP3    H231566   4.839   7.201   1.454
10537TIP3   OH231567   3.676   6.245   1.157
10537TIP3    H131568   3.597   6.197   1.179
10537TIP3    H231569   3.729   6.183   1.107
10538TIP3   OH231570   1.768   7.124   1.206
10538TIP3    H131571   1.726   7.146   1.123
10538TIP3    H231572   1.845   7.073   1.181
10539TIP3   OH231573   1.371   4.543   5.822
10539TIP3    H131574   1.414   4.625   5.797
10539TIP3    H231575   1.301   4.569   5.882
10540TIP3   OH231576   1.701   0.293   6.779
10540TIP3    H131577   1.653   0.234   6.837
10540TIP3    H231578   1.652   0.290   6.696
10541TIP3   OH231579   3.210   4.246   1.547
10541TIP3    H131580   3.235   4.215   1.460
10541TIP3    H231581   3.120   4.277   1.536
10542TIP3   OH231582   3.254   1.424   5.221
10542TIP3    H131583   3.331   1.399   5.272
10542TIP3    H231584   3.225   1.343   5.179
10543TIP3   OH231585   7.429   7.147   6.016
10543TIP3    H131586   7.396   7.074   5.963
10543TIP3    H231587   7.457   7.106   6.098
10544TIP3   OH231588   5.852   6.264   0.912
10544TIP3    H131589   5.912   6.202   0.870
10544TIP3    H231590   5.873   6.257   1.006
10545TIP3   OH231591   0.601   5.525   5.362
10545TIP3    H131592   0.608   5.474   5.281
10545TIP3    H231593   0.508   5.549   5.367
10546TIP3   OH231594   4.090   2.204   0.984
10546TIP3    H131595   4.050   2.291   0.988
10546TIP3    H231596   4.021   2.144   1.009
10547TIP3   OH231597   5.396   6.653   3.693
10547TIP3    H131598   5.420   6.679   3.782
10547TIP3    H231599   5.479   6.635   3.649
10548TIP3   OH231600   2.300   7.589   2.730
10548TIP3    H131601   2.358   7.658   2.697
10548TIP3    H231602   2.286   7.610   2.822
10549TIP3   OH231603   4.250   5.935   3.491
10549TIP3    H131604   4.157   5.937   3.513
10549TIP3    H231605   4.253   5.962   3.399
10550TIP3   OH231606   1.180   1.766   5.359
10550TIP3    H131607   1.194   1.676   5.387
10550TIP3    H231608   1.125   1.805   5.427
10551TIP3   OH231609   3.624   5.176   5.987
10551TIP3    H131610   3.576   5.107   5.942
10551TIP3    H231611   3.651   5.236   5.916
10552TIP3   OH231612   3.894   3.805   4.757
10552TIP3    H131613   3.873   3.734   4.696
10552TIP3    H231614   3.809   3.844   4.778
10553TIP3   OH231615   6.187   6.896   6.495
10553TIP3    H131616   6.172   6.983   6.457
10553TIP3    H231617   6.103   6.873   6.534
10554TIP3   OH231618   1.379   4.906   1.353
10554TIP3    H131619   1.337   4.989   1.379
10554TIP3    H231620   1.340   4.841   1.410
10555TIP3   OH231621   6.648   0.486   3.639
10555TIP3    H131622   6.641   0.392   3.623
10555TIP3    H231623   6.738   0.507   3.616
10556TIP3   OH231624   2.054   0.407   4.631
10556TIP3    H131625   2.113   0.478   4.606
10556TIP3    H231626   2.097   0.328   4.599
10557TIP3   OH231627   1.386   2.314   1.670
10557TIP3    H131628   1.320   2.371   1.630
10557TIP3    H231629   1.419   2.261   1.598
10558TIP3   OH231630   5.932   3.540   1.580
10558TIP3    H131631   5.889   3.459   1.608
10558TIP3    H231632   5.911   3.547   1.487
10559TIP3   OH231633   4.814   6.323   1.779
10559TIP3    H131634   4.904   6.293   1.775
10559TIP3    H231635   4.792   6.319   1.873
10560TIP3   OH231636   2.518   3.500   4.830
10560TIP3    H131637   2.587   3.533   4.888
10560TIP3    H231638   2.526   3.405   4.835
10561TIP3   OH231639   5.178   6.431   5.124
10561TIP3    H131640   5.149   6.520   5.143
10561TIP3    H231641   5.231   6.406   5.201
10562TIP3   OH231642   1.797   1.821   4.618
10562TIP3    H131643   1.750   1.753   4.665
10562TIP3    H231644   1.839   1.873   4.686
10563TIP3   OH231645   5.303   1.585   4.676
10563TIP3    H131646   5.231   1.633   4.635
10563TIP3    H231647   5.342   1.536   4.604
10564TIP3   OH231648   8.037   1.899   2.872
10564TIP3    H131649   8.046   1.993   2.855
10564TIP3    H231650   8.016   1.893   2.965
10565TIP3   OH231651   2.557   6.398   3.600
10565TIP3    H131652   2.606   6.444   3.668
10565TIP3    H231653   2.468   6.431   3.608
10566TIP3   OH231654   8.198   0.175   6.713
10566TIP3    H131655   8.159   0.130   6.638
10566TIP3    H231656   8.247   0.248   6.674
10567TIP3   OH231657   1.399   4.759   5.025
10567TIP3    H131658   1.482   4.757   5.073
10567TIP3    H231659   1.421   4.797   4.940
10568TIP3   OH231660   4.580   0.755   4.440
10568TIP3    H131661   4.555   0.688   4.376
10568TIP3    H231662   4.620   0.825   4.387
10569TIP3   OH231663   1.833   2.390   1.059
10569TIP3    H131664   1.857   2.479   1.032
10569TIP3    H231665   1.888   2.333   1.005
10570TIP3   OH231666   3.859   4.497   1.703
10570TIP3    H131667   3.892   4.486   1.613
10570TIP3    H231668   3.936   4.486   1.758
10571TIP3   OH231669   2.099   6.218   0.765
10571TIP3    H131670   2.062   6.263   0.689
10571TIP3    H231671   2.054   6.258   0.840
10572TIP3   OH231672   0.844   0.036   2.668
10572TIP3    H131673   0.895  -0.002   2.597
10572TIP3    H231674   0.764   0.069   2.627
10573TIP3   OH231675   7.624   3.135   5.519
10573TIP3    H131676   7.631   3.080   5.441
10573TIP3    H231677   7.711   3.175   5.528
10574TIP3   OH231678   4.896   2.679   0.511
10574TIP3    H131679   4.874   2.700   0.602
10574TIP3    H231680   4.836   2.732   0.459
10575TIP3   OH231681   2.750   7.804   2.554
10575TIP3    H131682   2.835   7.761   2.559
10575TIP3    H231683   2.771   7.896   2.537
10576TIP3   OH231684   1.640   3.074   1.526
10576TIP3    H131685   1.581   3.008   1.563
10576TIP3    H231686   1.728   3.043   1.548
10577TIP3   OH231687   0.761   7.778   1.279
10577TIP3    H131688   0.848   7.740   1.270
10577TIP3    H231689   0.749   7.792   1.373
10578TIP3   OH231690   1.397   7.064   5.121
10578TIP3    H131691   1.475   7.116   5.138
10578TIP3    H231692   1.412   6.982   5.167
10579TIP3   OH231693   6.791   5.873   2.695
10579TIP3    H131694   6.746   5.829   2.624
10579TIP3    H231695   6.833   5.949   2.654
10580TIP3   OH231696   5.507   5.009   5.821
10580TIP3    H131697   5.575   4.942   5.823
10580TIP3    H231698   5.554   5.091   5.805
10581TIP3   OH231699   7.094   6.832   0.495
10581TIP3    H131700   7.164   6.825   0.430
10581TIP3    H231701   7.124   6.778   0.568
10582TIP3   OH231702   4.377   1.409   1.084
10582TIP3    H131703   4.440   1.481   1.073
10582TIP3    H231704   4.394   1.351   1.010
10583TIP3   OH231705   5.208   6.806   2.430
10583TIP3    H131706   5.178   6.862   2.358
10583TIP3    H231707   5.197   6.861   2.508
10584TIP3   OH231708   1.101   3.151   2.912
10584TIP3    H131709   1.040   3.204   2.860
10584TIP3    H231710   1.044   3.100   2.970
10585TIP3   OH231711   2.864   1.149   6.151
10585TIP3    H131712   2.919   1.141   6.073
10585TIP3    H231713   2.890   1.233   6.190
10586TIP3   OH231714   3.379   2.410   3.765
10586TIP3    H131715   3.390   2.316   3.752
10586TIP3    H231716   3.398   2.449   3.680
10587TIP3   OH231717   6.635   3.512   1.265
10587TIP3    H131718   6.677   3.442   1.316
10587TIP3    H231719   6.689   3.589   1.282
10588TIP3   OH231720   0.907   0.600   6.467
10588TIP3    H131721   0.941   0.533   6.407
10588TIP3    H231722   0.818   0.618   6.434
10589TIP3   OH231723   2.616   3.357   3.457
10589TIP3    H131724   2.619   3.441   3.412
10589TIP3    H231725   2.525   3.348   3.486
10590TIP3   OH231726   0.747   6.814   0.474
10590TIP3    H131727   0.669   6.760   0.486
10590TIP3    H231728   0.819   6.751   0.464
10591TIP3   OH231729   8.300   0.478   5.051
10591TIP3    H131730   8.265   0.486   5.140
10591TIP3    H231731   8.244   0.535   4.999
10592TIP3   OH231732   3.142   7.495   4.550
10592TIP3    H131733   3.123   7.406   4.579
10592TIP3    H231734   3.072   7.549   4.588
10593TIP3   OH231735   7.870   4.184   4.937
10593TIP3    H131736   7.871   4.088   4.938
10593TIP3    H231737   7.866   4.207   4.844
10594TIP3   OH231738   7.645   3.159   2.550
10594TIP3    H131739   7.597   3.080   2.527
10594TIP3    H231740   7.656   3.155   2.645
10595TIP3   OH231741   1.037   5.400   3.490
10595TIP3    H131742   1.066   5.312   3.517
10595TIP3    H231743   1.042   5.452   3.571
10596TIP3   OH231744   0.123   3.047   4.700
10596TIP3    H131745   0.063   3.048   4.625
10596TIP3    H231746   0.123   3.137   4.732
10597TIP3   OH231747   6.779   6.869   2.766
10597TIP3    H131748   6.771   6.964   2.779
10597TIP3    H231749   6.794   6.834   2.854
10598TIP3   OH231750   1.814   0.075   2.086
10598TIP3    H131751   1.820   0.164   2.121
10598TIP3    H231752   1.891   0.030   2.121
10599TIP3   OH231753   7.315   3.155   3.383
10599TIP3    H131754   7.271   3.100   3.318
10599TIP3    H231755   7.384   3.199   3.334
10600TIP3   OH231756   1.319   3.801   2.430
10600TIP3    H131757   1.263   3.757   2.365
10600TIP3    H231758   1.346   3.731   2.489
10601TIP3   OH231759   2.979   1.706   3.551
10601TIP3    H131760   2.933   1.767   3.609
10601TIP3    H231761   2.938   1.621   3.569
10602TIP3   OH231762   6.365   0.606   6.395
10602TIP3    H131763   6.291   0.642   6.347
10602TIP3    H231764   6.436   0.602   6.331
10603TIP3   OH231765   1.577   3.347   2.000
10603TIP3    H131766   1.662   3.367   2.039
10603TIP3    H231767   1.518   3.336   2.075
10604TIP3   OH231768   5.427   5.903   0.325
10604TIP3    H131769   5.430   5.816   0.286
10604TIP3    H231770   5.378   5.891   0.407
10605TIP3   OH231771   1.476   4.320   2.985
10605TIP3    H131772   1.519   4.380   3.046
10605TIP3    H231773   1.406   4.372   2.946
10606TIP3   OH231774   7.650   6.132   3.915
10606TIP3    H131775   7.576   6.157   3.971
10606TIP3    H231776   7.695   6.064   3.964
10607TIP3   OH231777   4.111   3.201   6.183
10607TIP3    H131778   4.048   3.148   6.233
10607TIP3    H231779   4.124   3.152   6.102
10608TIP3   OH231780   2.935   5.405   2.579
10608TIP3    H131781   2.885   5.486   2.589
10608TIP3    H231782   2.878   5.348   2.527
10609TIP3   OH231783   5.978   3.583   2.004
10609TIP3    H131784   5.968   3.498   2.048
10609TIP3    H231785   5.897   3.593   1.954
10610TIP3   OH231786   4.857   4.734   4.586
10610TIP3    H131787   4.769   4.772   4.590
10610TIP3    H231788   4.916   4.809   4.597
10611TIP3   OH231789   3.943   2.019   0.510
10611TIP3    H131790   4.012   1.961   0.543
10611TIP3    H231791   3.969   2.037   0.420
10612TIP3   OH231792   4.311   2.742   2.460
10612TIP3    H131793   4.323   2.826   2.417
10612TIP3    H231794   4.396   2.698   2.452
10613TIP3   OH231795   4.568   3.329   1.896
10613TIP3    H131796   4.513   3.280   1.957
10613TIP3    H231797   4.643   3.271   1.880
10614TIP3   OH231798   5.240   5.301   0.274
10614TIP3    H131799   5.316   5.248   0.250
10614TIP3    H231800   5.227   5.359   0.199
10615TIP3   OH231801   5.548   1.078   0.669
10615TIP3    H131802   5.527   1.073   0.576
10615TIP3    H231803   5.629   1.129   0.673
10616TIP3   OH231804   6.561   3.477   1.943
10616TIP3    H131805   6.568   3.513   2.032
10616TIP3    H231806   6.619   3.401   1.944
10617TIP3   OH231807   4.479   4.887   3.019
10617TIP3    H131808   4.460   4.797   3.046
10617TIP3    H231809   4.486   4.883   2.924
10618TIP3   OH231810   5.084   4.028   4.406
10618TIP3    H131811   5.080   4.104   4.348
10618TIP3    H231812   5.072   3.953   4.348
10619TIP3   OH231813   7.979   0.423   6.214
10619TIP3    H131814   8.032   0.380   6.281
10619TIP3    H231815   7.945   0.352   6.160
10620TIP3   OH231816   5.473   6.464   1.303
10620TIP3    H131817   5.449   6.393   1.362
10620TIP3    H231818   5.392   6.488   1.259
10621TIP3   OH231819   6.805   3.351   4.122
10621TIP3    H131820   6.735   3.357   4.186
10621TIP3    H231821   6.811   3.440   4.085
10622TIP3   OH231822   0.780   6.613   2.050
10622TIP3    H131823   0.726   6.640   2.124
10622TIP3    H231824   0.818   6.530   2.077
10623TIP3   OH231825   1.629   3.382   0.890
10623TIP3    H131826   1.712   3.418   0.859
10623TIP3    H231827   1.588   3.455   0.936
10624TIP3   OH231828   1.605   1.356   3.966
10624TIP3    H131829   1.620   1.262   3.959
10624TIP3    H231830   1.692   1.395   3.966
10625TIP3   OH231831   2.640   4.407   4.787
10625TIP3    H131832   2.600   4.323   4.810
10625TIP3    H231833   2.566   4.469   4.783
10626TIP3   OH231834   2.264   4.829   6.478
10626TIP3    H131835   2.244   4.816   6.385
10626TIP3    H231836   2.207   4.768   6.524
10627TIP3   OH231837   7.427   0.044   5.785
10627TIP3    H131838   7.498   0.060   5.848
10627TIP3    H231839   7.438  -0.047   5.759
10628TIP3   OH231840   1.486   1.034   6.726
10628TIP3    H131841   1.581   1.028   6.739
10628TIP3    H231842   1.450   0.966   6.782
10629TIP3   OH231843   0.156   5.073   4.943
10629TIP3    H131844   0.128   5.030   5.024
10629TIP3    H231845   0.251   5.071   4.946
10630TIP3   OH231846   0.439   5.912   4.841
10630TIP3    H131847   0.490   5.930   4.920
10630TIP3    H231848   0.497   5.858   4.787
10631TIP3   OH231849   7.029   1.907   3.396
10631TIP3    H131850   6.969   1.834   3.411
10631TIP3    H231851   7.103   1.868   3.349
10632TIP3   OH231852   4.489   4.891   2.165
10632TIP3    H131853   4.395   4.870   2.168
10632TIP3    H231854   4.531   4.809   2.140
10633TIP3   OH231855   2.162   4.787   3.705
10633TIP3    H131856   2.113   4.854   3.752
10633TIP3    H231857   2.097   4.745   3.648
10634TIP3   OH231858   1.774   4.543   4.894
10634TIP3    H131859   1.749   4.539   4.801
10634TIP3    H231860   1.761   4.635   4.918
10635TIP3   OH231861   0.766   5.565   4.177
10635TIP3    H131862   0.703   5.499   4.205
10635TIP3    H231863   0.743   5.583   4.086
10636TIP3   OH231864   2.188   6.427   4.560
10636TIP3    H131865   2.193   6.454   4.652
10636TIP3    H231866   2.190   6.332   4.562
10637TIP3   OH231867   2.797   5.178   1.031
10637TIP3    H131868   2.867   5.148   1.089
10637TIP3    H231869   2.843   5.218   0.957
10638TIP3   OH231870   2.429   6.651   0.216
10638TIP3    H131871   2.388   6.737   0.214
10638TIP3    H231872   2.496   6.658   0.284
10639TIP3   OH231873   6.210   6.520   2.518
10639TIP3    H131874   6.183   6.487   2.603
10639TIP3    H231875   6.146   6.588   2.497
10640TIP3   OH231876   1.540   2.077   1.133
10640TIP3    H131877   1.502   1.990   1.148
10640TIP3    H231878   1.612   2.061   1.072
10641TIP3   OH231879   3.121   6.098   2.993
10641TIP3    H131880   3.107   6.192   2.986
10641TIP3    H231881   3.138   6.082   3.085
10642TIP3   OH231882   0.441   4.230   6.416
10642TIP3    H131883   0.498   4.292   6.372
10642TIP3    H231884   0.403   4.177   6.346
10643TIP3   OH231885   1.255   3.022   0.383
10643TIP3    H131886   1.344   3.046   0.355
10643TIP3    H231887   1.258   3.025   0.478
10644TIP3   OH231888   1.941   0.297   5.652
10644TIP3    H131889   1.993   0.360   5.702
10644TIP3    H231890   1.917   0.229   5.715
10645TIP3   OH231891   6.851   6.910   0.423
10645TIP3    H131892   6.938   6.895   0.459
10645TIP3    H231893   6.858   6.881   0.332
10646TIP3   OH231894   7.799   1.469   2.607
10646TIP3    H131895   7.777   1.488   2.515
10646TIP3    H231896   7.839   1.550   2.638
10647TIP3   OH231897   0.002   0.749   4.701
10647TIP3    H131898  -0.028   0.690   4.632
10647TIP3    H231899   0.087   0.712   4.729
10648TIP3   OH231900   6.556   4.100   1.765
10648TIP3    H131901   6.485   4.105   1.701
10648TIP3    H231902   6.593   4.012   1.754
10649TIP3   OH231903   5.479   6.569   6.748
10649TIP3    H131904   5.472   6.474   6.733
10649TIP3    H231905   5.398   6.592   6.793
10650TIP3   OH231906   8.058   0.559   6.539
10650TIP3    H131907   8.036   0.589   6.627
10650TIP3    H231908   8.011   0.476   6.530
10651TIP3   OH231909   6.359   3.587   2.978
10651TIP3    H131910   6.444   3.620   2.950
10651TIP3    H231911   6.379   3.502   3.017
10652TIP3   OH231912   0.230   5.755   3.255
10652TIP3    H131913   0.218   5.730   3.346
10652TIP3    H231914   0.157   5.714   3.209
10653TIP3   OH231915   5.766   6.298   2.042
10653TIP3    H131916   5.758   6.204   2.026
10653TIP3    H231917   5.692   6.319   2.099
10654TIP3   OH231918   1.957   1.062   1.029
10654TIP3    H131919   1.999   1.068   0.944
10654TIP3    H231920   1.867   1.035   1.010
10655TIP3   OH231921   5.051   0.372   6.658
10655TIP3    H131922   4.968   0.387   6.612
10655TIP3    H231923   5.041   0.287   6.699
10656TIP3   OH231924   6.581   2.280   3.793
10656TIP3    H131925   6.669   2.312   3.813
10656TIP3    H231926   6.537   2.275   3.878
10657TIP3   OH231927   6.372   3.510   1.208
10657TIP3    H131928   6.350   3.586   1.155
10657TIP3    H231929   6.468   3.513   1.217
10658TIP3   OH231930   3.572   7.133   4.061
10658TIP3    H131931   3.624   7.199   4.107
10658TIP3    H231932   3.626   7.054   4.065
10659TIP3   OH231933   2.886   7.403   1.761
10659TIP3    H131934   2.805   7.449   1.740
10659TIP3    H231935   2.955   7.464   1.734
10660TIP3   OH231936   4.269   4.736   3.810
10660TIP3    H131937   4.191   4.708   3.761
10660TIP3    H231938   4.334   4.753   3.743
10661TIP3   OH231939   7.158   2.472   4.051
10661TIP3    H131940   7.138   2.552   4.002
10661TIP3    H231941   7.223   2.427   3.997
10662TIP3   OH231942   3.325   7.145   2.311
10662TIP3    H131943   3.365   7.169   2.227
10662TIP3    H231944   3.231   7.139   2.292
10663TIP3   OH231945   4.474   1.148   5.778
10663TIP3    H131946   4.538   1.092   5.822
10663TIP3    H231947   4.510   1.163   5.691
10664TIP3   OH231948   2.409   1.508   2.914
10664TIP3    H131949   2.396   1.543   2.826
10664TIP3    H231950   2.421   1.414   2.901
10665TIP3   OH231951   4.400   1.857   5.467
10665TIP3    H131952   4.444   1.928   5.419
10665TIP3    H231953   4.460   1.837   5.540
10666TIP3   OH231954   5.051   4.468   2.027
10666TIP3    H131955   4.999   4.547   2.011
10666TIP3    H231956   4.993   4.396   2.000
10667TIP3   OH231957   5.610   5.074   1.270
10667TIP3    H131958   5.627   5.096   1.178
10667TIP3    H231959   5.665   5.135   1.320
10668TIP3   OH231960   3.509   1.871   2.194
10668TIP3    H131961   3.603   1.861   2.208
10668TIP3    H231962   3.469   1.820   2.264
10669TIP3   OH231963   5.001   2.603   4.202
10669TIP3    H131964   4.906   2.609   4.204
10669TIP3    H231965   5.020   2.509   4.201
10670TIP3   OH231966   4.477   6.144   5.941
10670TIP3    H131967   4.533   6.075   5.904
10670TIP3    H231968   4.501   6.223   5.894
10671TIP3   OH231969   1.742   3.934   0.006
10671TIP3    H131970   1.728   3.884   0.086
10671TIP3    H231971   1.654   3.957  -0.024
10672TIP3   OH231972   5.373   4.518   2.292
10672TIP3    H131973   5.465   4.524   2.320
10672TIP3    H231974   5.378   4.509   2.197
10673TIP3   OH231975   4.302   6.343   5.648
10673TIP3    H131976   4.393   6.326   5.670
10673TIP3    H231977   4.304   6.366   5.555
10674TIP3   OH231978   7.965   7.534   2.710
10674TIP3    H131979   8.055   7.564   2.718
10674TIP3    H231980   7.967   7.467   2.641
10675TIP3   OH231981   3.143   5.314   6.046
10675TIP3    H131982   3.179   5.333   5.960
10675TIP3    H231983   3.049   5.305   6.032
10676TIP3   OH231984   1.570   3.409   1.740
10676TIP3    H131985   1.563   3.427   1.834
10676TIP3    H231986   1.527   3.324   1.729
10677TIP3   OH231987   7.856   7.600   1.977
10677TIP3    H131988   7.829   7.553   1.898
10677TIP3    H231989   7.943   7.565   1.998
10678TIP3   OH231990   6.886   1.276   5.292
10678TIP3    H131991   6.933   1.347   5.335
10678TIP3    H231992   6.921   1.197   5.332
10679TIP3   OH231993   3.569   3.718   6.312
10679TIP3    H131994   3.647   3.769   6.294
10679TIP3    H231995   3.571   3.647   6.247
10680TIP3   OH231996   4.442   2.052   5.757
10680TIP3    H131997   4.463   1.964   5.726
10680TIP3    H231998   4.525   2.099   5.752
10681TIP3   OH231999   4.929   1.257   0.577
10681TIP3    H132000   5.021   1.237   0.562
10681TIP3    H232001   4.884   1.174   0.561
10682TIP3   OH232002   1.000   3.299   2.215
10682TIP3    H132003   0.948   3.338   2.145
10682TIP3    H232004   0.971   3.344   2.294
10683TIP3   OH232005   7.242   1.828   3.229
10683TIP3    H132006   7.295   1.775   3.288
10683TIP3    H232007   7.264   1.795   3.142
10684TIP3   OH232008   0.177   4.629   0.923
10684TIP3    H132009   0.242   4.633   0.994
10684TIP3    H232010   0.139   4.716   0.921
10685TIP3   OH232011   3.497   0.358   5.275
10685TIP3    H132012   3.403   0.376   5.271
10685TIP3    H232013   3.528   0.410   5.350
10686TIP3   OH232014   1.250   0.290   3.326
10686TIP3    H132015   1.254   0.378   3.289
10686TIP3    H232016   1.339   0.255   3.316
10687TIP3   OH232017   7.971   2.406   5.761
10687TIP3    H132018   8.060   2.441   5.762
10687TIP3    H232019   7.914   2.483   5.757
10688TIP3   OH232020   2.343   6.655   1.355
10688TIP3    H132021   2.277   6.716   1.387
10688TIP3    H232022   2.418   6.668   1.413
10689TIP3   OH232023   2.489   6.779   5.828
10689TIP3    H132024   2.438   6.811   5.753
10689TIP3    H232025   2.438   6.706   5.862
10690TIP3   OH232026   6.978   4.674   4.988
10690TIP3    H132027   7.005   4.695   5.078
10690TIP3    H232028   6.882   4.677   4.991
10691TIP3   OH232029   6.639   6.660   5.898
10691TIP3    H132030   6.727   6.636   5.868
10691TIP3    H232031   6.581   6.596   5.857
10692TIP3   OH232032   6.811   5.978   6.443
10692TIP3    H132033   6.855   6.063   6.443
10692TIP3    H232034   6.792   5.961   6.535
10693TIP3   OH232035   0.925   3.731   5.061
10693TIP3    H132036   0.860   3.667   5.092
10693TIP3    H232037   0.959   3.693   4.980
10694TIP3   OH232038   0.794   5.667   4.901
10694TIP3    H132039   0.858   5.737   4.910
10694TIP3    H232040   0.731   5.682   4.972
10695TIP3   OH232041   3.638   6.526   3.332
10695TIP3    H132042   3.578   6.563   3.267
10695TIP3    H232043   3.584   6.511   3.410
10696TIP3   OH232044   0.272   6.255   4.897
10696TIP3    H132045   0.344   6.235   4.957
10696TIP3    H232046   0.203   6.193   4.921
10697TIP3   OH232047   6.535   6.695   5.598
10697TIP3    H132048   6.469   6.764   5.606
10697TIP3    H232049   6.618   6.741   5.608
10698TIP3   OH232050   0.699   4.005   6.582
10698TIP3    H132051   0.614   4.017   6.541
10698TIP3    H232052   0.761   4.003   6.509
10699TIP3   OH232053   8.134   3.940   4.850
10699TIP3    H132054   8.050   3.901   4.826
10699TIP3    H232055   8.196   3.906   4.785
10700TIP3   OH232056   5.453   0.267   6.374
10700TIP3    H132057   5.459   0.181   6.415
10700TIP3    H232058   5.454   0.328   6.448
10701TIP3   OH232059   4.840   4.852   2.487
10701TIP3    H132060   4.802   4.796   2.419
10701TIP3    H232061   4.767   4.909   2.513
10702TIP3   OH232062   0.426   1.282   6.453
10702TIP3    H132063   0.380   1.363   6.475
10702TIP3    H232064   0.519   1.303   6.466
10703TIP3   OH232065   7.219   1.113   2.721
10703TIP3    H132066   7.180   1.079   2.640
10703TIP3    H232067   7.181   1.059   2.790
10704TIP3   OH232068   1.298   1.568   1.961
10704TIP3    H132069   1.321   1.659   1.942
10704TIP3    H232070   1.242   1.541   1.889
10705TIP3   OH232071   6.773   2.703   1.684
10705TIP3    H132072   6.695   2.729   1.635
10705TIP3    H232073   6.746   2.706   1.776
10706TIP3   OH232074   1.856   2.764   0.250
10706TIP3    H132075   1.775   2.778   0.201
10706TIP3    H232076   1.846   2.677   0.289
10707TIP3   OH232077   1.298   2.735   5.429
10707TIP3    H132078   1.341   2.658   5.468
10707TIP3    H232079   1.209   2.705   5.411
10708TIP3   OH232080   4.984   3.630   2.977
10708TIP3    H132081   5.034   3.692   2.925
10708TIP3    H232082   4.950   3.566   2.914
10709TIP3   OH232083   4.009   3.527   0.254
10709TIP3    H132084   3.990   3.564   0.340
10709TIP3    H232085   4.043   3.601   0.203
10710TIP3   OH232086   0.950   6.400   4.910
10710TIP3    H132087   0.874   6.350   4.879
10710TIP3    H232088   1.025   6.359   4.867
10711TIP3   OH232089   5.094   3.770   4.631
10711TIP3    H132090   5.001   3.784   4.617
10711TIP3    H232091   5.134   3.784   4.545
10712TIP3   OH232092   8.009   0.611   1.366
10712TIP3    H132093   8.030   0.695   1.323
10712TIP3    H232094   7.975   0.556   1.295
10713TIP3   OH232095   6.856   1.433   5.704
10713TIP3    H132096   6.796   1.486   5.651
10713TIP3    H232097   6.803   1.361   5.737
10714TIP3   OH232098   1.199   7.604   4.974
10714TIP3    H132099   1.181   7.644   5.059
10714TIP3    H232100   1.236   7.675   4.921
10715TIP3   OH232101   6.825   4.075   3.768
10715TIP3    H132102   6.786   4.098   3.684
10715TIP3    H232103   6.762   4.016   3.809
10716TIP3   OH232104   5.458   1.230   1.083
10716TIP3    H132105   5.509   1.178   1.145
10716TIP3    H232106   5.428   1.167   1.018
10717TIP3   OH232107   3.773   2.775   6.197
10717TIP3    H132108   3.741   2.840   6.259
10717TIP3    H232109   3.857   2.810   6.167
10718TIP3   OH232110   0.691   5.364   3.087
10718TIP3    H132111   0.728   5.384   3.173
10718TIP3    H232112   0.723   5.276   3.067
10719TIP3   OH232113   1.112   2.322   4.452
10719TIP3    H132114   1.202   2.349   4.434
10719TIP3    H232115   1.119   2.259   4.523
10720TIP3   OH232116   0.360   5.544   1.982
10720TIP3    H132117   0.430   5.592   1.939
10720TIP3    H232118   0.281   5.568   1.933
10721TIP3   OH232119   4.293   4.658   5.141
10721TIP3    H132120   4.339   4.740   5.126
10721TIP3    H232121   4.243   4.672   5.222
10722TIP3   OH232122   5.628   2.148   0.241
10722TIP3    H132123   5.568   2.077   0.218
10722TIP3    H232124   5.578   2.228   0.225
10723TIP3   OH232125   8.147   4.056   3.001
10723TIP3    H132126   8.182   4.070   2.913
10723TIP3    H232127   8.128   3.962   3.004
10724TIP3   OH232128   3.134   0.950   4.729
10724TIP3    H132129   3.223   0.948   4.692
10724TIP3    H232130   3.080   0.983   4.658
10725TIP3   OH232131   2.636   7.453   5.745
10725TIP3    H132132   2.614   7.379   5.801
10725TIP3    H232133   2.607   7.426   5.658
10726TIP3   OH232134   7.253   4.970   4.882
10726TIP3    H132135   7.211   4.937   4.803
10726TIP3    H232136   7.182   5.008   4.933
10727TIP3   OH232137   0.447   0.832   5.338
10727TIP3    H132138   0.512   0.776   5.379
10727TIP3    H232139   0.432   0.902   5.402
10728TIP3   OH232140   5.433   6.892   6.385
10728TIP3    H132141   5.348   6.881   6.429
10728TIP3    H232142   5.495   6.903   6.457
10729TIP3   OH232143   1.476   2.255   0.835
10729TIP3    H132144   1.426   2.184   0.796
10729TIP3    H232145   1.566   2.240   0.804
10730TIP3   OH232146   0.767   1.180   0.891
10730TIP3    H132147   0.786   1.101   0.942
10730TIP3    H232148   0.675   1.171   0.867
10731TIP3   OH232149   7.003   5.745   5.790
10731TIP3    H132150   6.926   5.704   5.829
10731TIP3    H232151   7.003   5.834   5.825
10732TIP3   OH232152   1.411   1.197   3.188
10732TIP3    H132153   1.440   1.245   3.110
10732TIP3    H232154   1.347   1.134   3.155
10733TIP3   OH232155   3.336   0.807   2.647
10733TIP3    H132156   3.296   0.753   2.714
10733TIP3    H232157   3.367   0.745   2.581
10734TIP3   OH232158   4.088   1.440   3.214
10734TIP3    H132159   4.146   1.486   3.154
10734TIP3    H232160   4.002   1.481   3.202
10735TIP3   OH232161   2.940   2.990   0.049
10735TIP3    H132162   2.882   2.955   0.117
10735TIP3    H232163   2.979   3.068   0.089
10736TIP3   OH232164   4.881   0.936   3.750
10736TIP3    H132165   4.968   0.972   3.764
10736TIP3    H232166   4.824   1.012   3.743
10737TIP3   OH232167   4.383   5.670   5.221
10737TIP3    H132168   4.424   5.584   5.205
10737TIP3    H232169   4.318   5.677   5.151
10738TIP3   OH232170   4.577   0.981   0.388
10738TIP3    H132171   4.587   0.903   0.443
10738TIP3    H232172   4.510   0.957   0.325
10739TIP3   OH232173   6.618   1.009   0.010
10739TIP3    H132174   6.537   0.988   0.056
10739TIP3    H232175   6.628   0.939  -0.054
10740TIP3   OH232176   5.414   6.670   5.055
10740TIP3    H132177   5.346   6.712   5.108
10740TIP3    H232178   5.372   6.655   4.970
10741TIP3   OH232179   2.291   7.295   3.536
10741TIP3    H132180   2.242   7.252   3.606
10741TIP3    H232181   2.224   7.336   3.481
10742TIP3   OH232182   4.301   6.426   6.259
10742TIP3    H132183   4.232   6.474   6.213
10742TIP3    H232184   4.323   6.481   6.335
10743TIP3   OH232185   6.299   0.446   5.772
10743TIP3    H132186   6.225   0.471   5.717
10743TIP3    H232187   6.370   0.429   5.710
10744TIP3   OH232188   1.107   2.147   5.522
10744TIP3    H132189   1.058   2.193   5.591
10744TIP3    H232190   1.087   2.055   5.536
10745TIP3   OH232191   1.341   1.320   3.612
10745TIP3    H132192   1.247   1.336   3.606
10745TIP3    H232193   1.371   1.380   3.681
10746TIP3   OH232194   0.630   1.989   6.149
10746TIP3    H132195   0.695   2.060   6.152
10746TIP3    H232196   0.586   1.993   6.233
10747TIP3   OH232197   7.760   2.585   2.245
10747TIP3    H132198   7.744   2.553   2.334
10747TIP3    H232199   7.692   2.542   2.192
10748TIP3   OH232200   2.851   7.723   1.948
10748TIP3    H132201   2.880   7.715   1.857
10748TIP3    H232202   2.790   7.798   1.947
10749TIP3   OH232203   7.031   3.554   5.105
10749TIP3    H132204   7.102   3.557   5.170
10749TIP3    H232205   6.989   3.469   5.120
10750TIP3   OH232206   1.855   2.991   4.041
10750TIP3    H132207   1.951   2.995   4.048
10750TIP3    H232208   1.830   3.079   4.011
10751TIP3   OH232209   3.996   0.366   2.111
10751TIP3    H132210   4.088   0.340   2.118
10751TIP3    H232211   3.947   0.285   2.120
10752TIP3   OH232212   4.371   7.072   1.463
10752TIP3    H132213   4.327   7.008   1.407
10752TIP3    H232214   4.405   7.137   1.402
10753TIP3   OH232215   1.588   0.179   1.384
10753TIP3    H132216   1.495   0.176   1.405
10753TIP3    H232217   1.628   0.224   1.457
10754TIP3   OH232218   2.251   4.561   1.631
10754TIP3    H132219   2.224   4.631   1.690
10754TIP3    H232220   2.309   4.506   1.684
10755TIP3   OH232221   3.890   5.309   6.021
10755TIP3    H132222   3.913   5.330   6.112
10755TIP3    H232223   3.950   5.239   5.997
10756TIP3   OH232224   6.015   3.150   5.448
10756TIP3    H132225   5.977   3.222   5.498
10756TIP3    H232226   5.984   3.164   5.358
10757TIP3   OH232227   3.848   1.271   2.310
10757TIP3    H132228   3.931   1.233   2.340
10757TIP3    H232229   3.786   1.197   2.311
10758TIP3   OH232230   3.188   1.489   5.475
10758TIP3    H132231   3.170   1.583   5.465
10758TIP3    H232232   3.218   1.461   5.389
10759TIP3   OH232233   7.505   4.399   5.504
10759TIP3    H132234   7.515   4.487   5.540
10759TIP3    H232235   7.547   4.402   5.418
10760TIP3   OH232236   7.424   3.664   4.057
10760TIP3    H132237   7.409   3.741   4.003
10760TIP3    H232238   7.338   3.623   4.065
10761TIP3   OH232239   0.132   3.694   0.471
10761TIP3    H132240   0.060   3.726   0.416
10761TIP3    H232241   0.207   3.747   0.446
10762TIP3   OH232242   2.900   6.354   4.221
10762TIP3    H132243   2.861   6.303   4.293
10762TIP3    H232244   2.871   6.309   4.142
10763TIP3   OH232245   2.017   2.054   1.370
10763TIP3    H132246   1.942   2.108   1.342
10763TIP3    H232247   1.985   2.008   1.448
10764TIP3   OH232248   2.160   1.500   5.423
10764TIP3    H132249   2.072   1.484   5.390
10764TIP3    H232250   2.147   1.554   5.501
10765TIP3   OH232251   5.040   3.432   2.487
10765TIP3    H132252   5.113   3.471   2.439
10765TIP3    H232253   4.993   3.380   2.422
10766TIP3   OH232254   3.913   6.437   6.433
10766TIP3    H132255   3.824   6.450   6.401
10766TIP3    H232256   3.955   6.523   6.423
10767TIP3   OH232257   7.165   0.064   1.116
10767TIP3    H132258   7.098   0.131   1.110
10767TIP3    H232259   7.153   0.025   1.203
10768TIP3   OH232260   1.285   0.413   6.248
10768TIP3    H132261   1.342   0.341   6.220
10768TIP3    H232262   1.308   0.485   6.189
10769TIP3   OH232263   2.543   0.338   1.517
10769TIP3    H132264   2.623   0.327   1.568
10769TIP3    H232265   2.571   0.334   1.426
10770TIP3   OH232266   7.956   7.388   4.958
10770TIP3    H132267   8.016   7.443   5.009
10770TIP3    H232268   7.869   7.418   4.982
10771TIP3   OH232269   1.127   4.410   6.141
10771TIP3    H132270   1.109   4.397   6.048
10771TIP3    H232271   1.055   4.464   6.173
10772TIP3   OH232272   6.522   7.601   1.029
10772TIP3    H132273   6.557   7.573   0.945
10772TIP3    H232274   6.596   7.641   1.075
10773TIP3   OH232275   5.099   4.472   0.227
10773TIP3    H132276   5.107   4.403   0.293
10773TIP3    H232277   5.134   4.433   0.147
10774TIP3   OH232278   4.524   4.708   1.826
10774TIP3    H132279   4.599   4.681   1.879
10774TIP3    H232280   4.554   4.697   1.735
10775TIP3   OH232281   1.040   7.742   4.756
10775TIP3    H132282   1.039   7.819   4.814
10775TIP3    H232283   1.002   7.672   4.809
10776TIP3   OH232284   4.116   0.143   2.929
10776TIP3    H132285   4.187   0.199   2.960
10776TIP3    H232286   4.074   0.194   2.859
10777TIP3   OH232287   8.008   4.229   1.661
10777TIP3    H132288   8.049   4.291   1.722
10777TIP3    H232289   8.081   4.186   1.618
10778TIP3   OH232290   0.008   2.199   0.888
10778TIP3    H132291   0.096   2.197   0.849
10778TIP3    H232292  -0.021   2.289   0.878
10779TIP3   OH232293   7.578   2.485   1.015
10779TIP3    H132294   7.666   2.512   1.040
10779TIP3    H232295   7.522   2.559   1.041
10780TIP3   OH232296   2.989   5.104   5.746
10780TIP3    H132297   2.978   5.128   5.654
10780TIP3    H232298   3.049   5.029   5.745
10781TIP3   OH232299   3.826   0.328   2.358
10781TIP3    H132300   3.811   0.347   2.451
10781TIP3    H232301   3.877   0.403   2.326
10782TIP3   OH232302   7.099   5.710   4.576
10782TIP3    H132303   7.021   5.667   4.610
10782TIP3    H232304   7.154   5.726   4.653
10783TIP3   OH232305   5.869   7.782   3.817
10783TIP3    H132306   5.860   7.700   3.769
10783TIP3    H232307   5.839   7.849   3.755
10784TIP3   OH232308   3.896   2.173   1.295
10784TIP3    H132309   3.900   2.131   1.209
10784TIP3    H232310   3.904   2.101   1.358
10785TIP3   OH232311   2.273   4.279   5.960
10785TIP3    H132312   2.243   4.188   5.958
10785TIP3    H232313   2.299   4.294   6.051
10786TIP3   OH232314   4.900   7.806   1.201
10786TIP3    H132315   4.898   7.900   1.222
10786TIP3    H232316   4.812   7.787   1.170
10787TIP3   OH232317   8.287   7.294   4.500
10787TIP3    H132318   8.293   7.389   4.492
10787TIP3    H232319   8.204   7.278   4.544
10788TIP3   OH232320   4.581   5.828   5.355
10788TIP3    H132321   4.594   5.918   5.326
10788TIP3    H232322   4.519   5.791   5.291
10789TIP3   OH232323   2.977   0.390   5.676
10789TIP3    H132324   3.018   0.444   5.744
10789TIP3    H232325   3.036   0.397   5.601
10790TIP3   OH232326   4.601   4.250   2.298
10790TIP3    H132327   4.686   4.293   2.309
10790TIP3    H232328   4.617   4.179   2.235
10791TIP3   OH232329   0.664   1.686   3.421
10791TIP3    H132330   0.759   1.681   3.427
10791TIP3    H232331   0.647   1.772   3.382
10792TIP3   OH232332   8.090   5.239   4.237
10792TIP3    H132333   8.030   5.206   4.304
10792TIP3    H232334   8.177   5.223   4.273
10793TIP3   OH232335   1.122   0.926   4.654
10793TIP3    H132336   1.065   0.904   4.728
10793TIP3    H232337   1.184   0.990   4.690
10794TIP3   OH232338   6.790   1.713   3.805
10794TIP3    H132339   6.794   1.670   3.890
10794TIP3    H232340   6.830   1.650   3.744
10795TIP3   OH232341   2.439   7.806   1.993
10795TIP3    H132342   2.347   7.786   1.975
10795TIP3    H232343   2.467   7.738   2.053
10796TIP3   OH232344   6.582   4.146   4.415
10796TIP3    H132345   6.584   4.195   4.497
10796TIP3    H232346   6.523   4.195   4.358
10797TIP3   OH232347   3.444   1.510   1.824
10797TIP3    H132348   3.492   1.537   1.902
10797TIP3    H232349   3.380   1.446   1.856
10798TIP3   OH232350   7.170   0.634   0.819
10798TIP3    H132351   7.089   0.683   0.803
10798TIP3    H232352   7.144   0.542   0.811
10799TIP3   OH232353   4.776   3.275   5.958
10799TIP3    H132354   4.810   3.337   6.022
10799TIP3    H232355   4.702   3.234   6.002
10800TIP3   OH232356   5.241   5.734   6.064
10800TIP3    H132357   5.331   5.729   6.033
10800TIP3    H232358   5.189   5.694   5.994
10801TIP3   OH232359   3.441   7.308   5.731
10801TIP3    H132360   3.480   7.275   5.649
10801TIP3    H232361   3.399   7.390   5.706
10802TIP3   OH232362   0.338   7.359   5.174
10802TIP3    H132363   0.396   7.402   5.236
10802TIP3    H232364   0.381   7.372   5.089
10803TIP3   OH232365   4.664   3.086   2.033
10803TIP3    H132366   4.747   3.131   2.013
10803TIP3    H232367   4.678   2.996   2.004
10804TIP3   OH232368   2.444   1.858   2.592
10804TIP3    H132369   2.468   1.829   2.504
10804TIP3    H232370   2.493   1.940   2.604
10805TIP3   OH232371   3.724   2.500   3.716
10805TIP3    H132372   3.778   2.487   3.794
10805TIP3    H232373   3.726   2.416   3.671
10806TIP3   OH232374   8.321   0.376   0.983
10806TIP3    H132375   8.242   0.430   0.977
10806TIP3    H232376   8.344   0.378   1.076
10807TIP3   OH232377   4.500   2.086   1.837
10807TIP3    H132378   4.579   2.126   1.872
10807TIP3    H232379   4.429   2.119   1.892
10808TIP3   OH232380   5.489   5.458   5.341
10808TIP3    H132381   5.403   5.496   5.356
10808TIP3    H232382   5.509   5.480   5.250
10809TIP3   OH232383   1.010   3.102   5.228
10809TIP3    H132384   1.049   3.093   5.141
10809TIP3    H232385   1.080   3.138   5.282
10810TIP3   OH232386   8.008   6.976   2.097
10810TIP3    H132387   8.024   7.055   2.046
10810TIP3    H232388   8.023   6.904   2.034
10811TIP3   OH232389   4.002   7.433   4.198
10811TIP3    H132390   3.966   7.403   4.281
10811TIP3    H232391   4.086   7.474   4.222
10812TIP3   OH232392   0.655   7.353   3.531
10812TIP3    H132393   0.747   7.327   3.532
10812TIP3    H232394   0.606   7.271   3.530
10813TIP3   OH232395   0.245   2.240   0.763
10813TIP3    H132396   0.272   2.326   0.793
10813TIP3    H232397   0.218   2.254   0.673
10814TIP3   OH232398   0.601   4.211   0.824
10814TIP3    H132399   0.537   4.150   0.861
10814TIP3    H232400   0.558   4.245   0.745
10815TIP3   OH232401   5.139   0.997   4.680
10815TIP3    H132402   5.126   0.987   4.774
10815TIP3    H232403   5.185   0.917   4.654
10816TIP3   OH232404   5.943   2.857   0.273
10816TIP3    H132405   6.027   2.891   0.305
10816TIP3    H232406   5.958   2.763   0.260
10817TIP3   OH232407   3.085   3.946   2.037
10817TIP3    H132408   3.110   3.926   2.127
10817TIP3    H232409   3.004   3.897   2.023
10818TIP3   OH232410   6.576   0.074   0.158
10818TIP3    H132411   6.527   0.153   0.134
10818TIP3    H232412   6.530   0.003   0.115
10819TIP3   OH232413   5.767   0.542   5.921
10819TIP3    H132414   5.703   0.570   5.856
10819TIP3    H232415   5.740   0.453   5.945
10820TIP3   OH232416   1.254   2.476   5.125
10820TIP3    H132417   1.340   2.491   5.165
10820TIP3    H232418   1.193   2.482   5.198
10821TIP3   OH232419   4.515   2.244   4.936
10821TIP3    H132420   4.475   2.267   5.020
10821TIP3    H232421   4.600   2.206   4.960
10822TIP3   OH232422   2.207   3.114   0.230
10822TIP3    H132423   2.128   3.166   0.219
10822TIP3    H232424   2.179   3.024   0.215
10823TIP3   OH232425   1.885   0.880   2.010
10823TIP3    H132426   1.828   0.892   2.086
10823TIP3    H232427   1.836   0.819   1.953
10824TIP3   OH232428   4.256   7.800   3.069
10824TIP3    H132429   4.259   7.826   3.161
10824TIP3    H232430   4.232   7.707   3.072
10825TIP3   OH232431   0.598   6.879   4.775
10825TIP3    H132432   0.520   6.919   4.815
10825TIP3    H232433   0.667   6.944   4.786
10826TIP3   OH232434   1.447   7.782   4.037
10826TIP3    H132435   1.469   7.854   3.977
10826TIP3    H232436   1.423   7.826   4.119
10827TIP3   OH232437   5.290   2.908   4.773
10827TIP3    H132438   5.286   2.883   4.680
10827TIP3    H232439   5.225   2.853   4.815
10828TIP3   OH232440   7.098   5.761   1.233
10828TIP3    H132441   7.147   5.776   1.152
10828TIP3    H232442   7.107   5.667   1.249
10829TIP3   OH232443   0.195   1.322   0.810
10829TIP3    H132444   0.223   1.355   0.725
10829TIP3    H232445   0.277   1.315   0.860
10830TIP3   OH232446   2.962   1.898   4.471
10830TIP3    H132447   3.054   1.871   4.465
10830TIP3    H232448   2.914   1.830   4.423
10831TIP3   OH232449   3.015   6.713   1.022
10831TIP3    H132450   2.952   6.778   0.991
10831TIP3    H232451   2.964   6.632   1.028
10832TIP3   OH232452   5.630   0.397   1.207
10832TIP3    H132453   5.661   0.469   1.152
10832TIP3    H232454   5.671   0.413   1.292
10833TIP3   OH232455   4.939   1.061   2.935
10833TIP3    H132456   4.961   1.154   2.940
10833TIP3    H232457   5.022   1.016   2.950
10834TIP3   OH232458   1.294   0.426   1.923
10834TIP3    H132459   1.265   0.510   1.887
10834TIP3    H232460   1.225   0.364   1.897
10835TIP3   OH232461   4.920   5.029   6.630
10835TIP3    H132462   4.936   4.934   6.630
10835TIP3    H232463   4.825   5.038   6.639
10836TIP3   OH232464   2.839   4.891   0.883
10836TIP3    H132465   2.882   4.886   0.968
10836TIP3    H232466   2.780   4.815   0.881
10837TIP3   OH232467   3.913   2.448   5.250
10837TIP3    H132468   3.950   2.413   5.331
10837TIP3    H232469   3.851   2.516   5.279
10838TIP3   OH232470   0.339   1.221   2.617
10838TIP3    H132471   0.393   1.144   2.636
10838TIP3    H232472   0.360   1.244   2.527
10839TIP3   OH232473   4.592   5.436   6.791
10839TIP3    H132474   4.550   5.456   6.707
10839TIP3    H232475   4.643   5.514   6.811
10840TIP3   OH232476   6.715   5.906   0.357
10840TIP3    H132477   6.643   5.918   0.294
10840TIP3    H232478   6.673   5.866   0.433
10841TIP3   OH232479   4.223   4.655   6.586
10841TIP3    H132480   4.195   4.568   6.615
10841TIP3    H232481   4.185   4.715   6.650
10842TIP3   OH232482   4.868   4.225   6.179
10842TIP3    H132483   4.821   4.272   6.248
10842TIP3    H232484   4.954   4.206   6.216
10843TIP3   OH232485   7.599   2.678   3.219
10843TIP3    H132486   7.652   2.621   3.163
10843TIP3    H232487   7.650   2.760   3.223
10844TIP3   OH232488   3.458   5.826   4.373
10844TIP3    H132489   3.527   5.772   4.334
10844TIP3    H232490   3.478   5.827   4.467
10845TIP3   OH232491   6.493   3.031   1.833
10845TIP3    H132492   6.468   3.015   1.742
10845TIP3    H232493   6.553   2.960   1.855
10846TIP3   OH232494   6.300   3.978   1.376
10846TIP3    H132495   6.362   3.919   1.419
10846TIP3    H232496   6.300   4.057   1.429
10847TIP3   OH232497   7.069   5.923   1.007
10847TIP3    H132498   7.099   6.005   1.046
10847TIP3    H232499   6.975   5.921   1.024
10848TIP3   OH232500   7.406   5.926   1.976
10848TIP3    H132501   7.437   5.973   1.899
10848TIP3    H232502   7.403   5.834   1.949
10849TIP3   OH232503   7.907   6.351   5.103
10849TIP3    H132504   7.908   6.260   5.136
10849TIP3    H232505   7.901   6.342   5.008
10850TIP3   OH232506   2.542   6.563   3.857
10850TIP3    H132507   2.471   6.626   3.840
10850TIP3    H232508   2.524   6.528   3.944
10851TIP3   OH232509   0.311   4.672   3.798
10851TIP3    H132510   0.297   4.578   3.797
10851TIP3    H232511   0.405   4.683   3.808
10852TIP3   OH232512   0.787   7.643   1.898
10852TIP3    H132513   0.760   7.574   1.838
10852TIP3    H232514   0.715   7.705   1.899
10853TIP3   OH232515   7.285   7.464   5.887
10853TIP3    H132516   7.204   7.415   5.896
10853TIP3    H232517   7.334   7.417   5.819
10854TIP3   OH232518   5.684   7.262   4.535
10854TIP3    H132519   5.616   7.264   4.468
10854TIP3    H232520   5.718   7.352   4.538
10855TIP3   OH232521   1.136   0.332   0.641
10855TIP3    H132522   1.075   0.378   0.583
10855TIP3    H232523   1.199   0.290   0.582
10856TIP3   OH232524   7.084   3.262   4.443
10856TIP3    H132525   7.023   3.261   4.518
10856TIP3    H232526   7.063   3.182   4.395
10857TIP3   OH232527   2.448   0.030   4.574
10857TIP3    H132528   2.445  -0.005   4.486
10857TIP3    H232529   2.441  -0.046   4.631
10858TIP3   OH232530   8.262   1.725   2.312
10858TIP3    H132531   8.330   1.661   2.333
10858TIP3    H232532   8.182   1.673   2.305
10859TIP3   OH232533   2.792   4.255   3.935
10859TIP3    H132534   2.749   4.181   3.976
10859TIP3    H232535   2.786   4.238   3.841
10860TIP3   OH232536   0.890   2.625   5.963
10860TIP3    H132537   0.961   2.576   6.005
10860TIP3    H232538   0.846   2.559   5.908
10861TIP3   OH232539   1.905   4.830   1.807
10861TIP3    H132540   1.813   4.801   1.808
10861TIP3    H232541   1.953   4.756   1.843
10862TIP3   OH232542   3.957   5.398   6.267
10862TIP3    H132543   3.932   5.489   6.286
10862TIP3    H232544   4.040   5.386   6.313
10863TIP3   OH232545   4.646   3.505   4.498
10863TIP3    H132546   4.613   3.431   4.446
10863TIP3    H232547   4.593   3.503   4.578
10864TIP3   OH232548   5.219   0.664   4.951
10864TIP3    H132549   5.277   0.738   4.934
10864TIP3    H232550   5.182   0.682   5.037
10865TIP3   OH232551   1.379   5.584   4.772
10865TIP3    H132552   1.305   5.641   4.749
10865TIP3    H232553   1.363   5.503   4.722
10866TIP3   OH232554   8.288   0.176   6.112
10866TIP3    H132555   8.200   0.139   6.114
10866TIP3    H232556   8.318   0.172   6.203
10867TIP3   OH232557   6.148   6.512   0.485
10867TIP3    H132558   6.145   6.607   0.476
10867TIP3    H232559   6.230   6.494   0.530
10868TIP3   OH232560   3.481   4.383   1.603
10868TIP3    H132561   3.471   4.448   1.672
10868TIP3    H232562   3.391   4.360   1.578
10869TIP3   OH232563   1.555   1.631   4.521
10869TIP3    H132564   1.549   1.652   4.614
10869TIP3    H232565   1.640   1.587   4.512
10870TIP3   OH232566   0.473   1.590   3.179
10870TIP3    H132567   0.489   1.681   3.153
10870TIP3    H232568   0.542   1.571   3.242
10871TIP3   OH232569   3.006   3.555   4.958
10871TIP3    H132570   3.043   3.522   4.876
10871TIP3    H232571   2.913   3.564   4.940
10872TIP3   OH232572   5.437   6.991   2.571
10872TIP3    H132573   5.356   7.028   2.535
10872TIP3    H232574   5.412   6.961   2.659
10873TIP3   OH232575   4.858   5.002   1.973
10873TIP3    H132576   4.828   5.018   2.062
10873TIP3    H232577   4.951   5.024   1.974
10874TIP3   OH232578   2.421   3.216   2.643
10874TIP3    H132579   2.502   3.171   2.670
10874TIP3    H232580   2.369   3.223   2.723
10875TIP3   OH232581   1.673   2.403   6.024
10875TIP3    H132582   1.672   2.319   6.070
10875TIP3    H232583   1.763   2.434   6.031
10876TIP3   OH232584   4.523   4.147   3.151
10876TIP3    H132585   4.523   4.149   3.056
10876TIP3    H232586   4.490   4.233   3.177
10877TIP3   OH232587   3.042   5.945   4.652
10877TIP3    H132588   2.956   5.915   4.680
10877TIP3    H232589   3.096   5.866   4.651
10878TIP3   OH232590   4.983   3.868   4.200
10878TIP3    H132591   4.890   3.865   4.176
10878TIP3    H232592   5.025   3.806   4.141
10879TIP3   OH232593   7.571   2.244   2.268
10879TIP3    H132594   7.650   2.269   2.317
10879TIP3    H232595   7.498   2.268   2.326
10880TIP3   OH232596   1.194   6.745   1.952
10880TIP3    H132597   1.152   6.676   1.901
10880TIP3    H232598   1.284   6.748   1.920
10881TIP3   OH232599   0.425   4.171   1.773
10881TIP3    H132600   0.500   4.148   1.827
10881TIP3    H232601   0.395   4.256   1.806
10882TIP3   OH232602   0.754   4.671   2.213
10882TIP3    H132603   0.768   4.646   2.122
10882TIP3    H232604   0.775   4.593   2.263
10883TIP3   OH232605   5.240   1.831   2.179
10883TIP3    H132606   5.249   1.762   2.244
10883TIP3    H232607   5.158   1.811   2.133
10884TIP3   OH232608   4.774   0.251   0.904
10884TIP3    H132609   4.861   0.259   0.943
10884TIP3    H232610   4.718   0.222   0.977
10885TIP3   OH232611   2.242   4.949   1.561
10885TIP3    H132612   2.304   4.882   1.532
10885TIP3    H232613   2.273   5.029   1.520
10886TIP3   OH232614   7.585   5.168   2.445
10886TIP3    H132615   7.619   5.218   2.371
10886TIP3    H232616   7.539   5.233   2.499
10887TIP3   OH232617   0.069   3.118   1.566
10887TIP3    H132618   0.095   3.177   1.637
10887TIP3    H232619   0.080   3.030   1.602
10888TIP3   OH232620   8.010   6.525   0.810
10888TIP3    H132621   8.063   6.560   0.738
10888TIP3    H232622   7.978   6.441   0.778
10889TIP3   OH232623   1.075   3.698   5.314
10889TIP3    H132624   1.154   3.750   5.329
10889TIP3    H232625   1.045   3.726   5.227
10890TIP3   OH232626   5.194   1.025   0.519
10890TIP3    H132627   5.175   1.031   0.426
10890TIP3    H232628   5.193   1.115   0.550
10891TIP3   OH232629   4.975   0.776   2.144
10891TIP3    H132630   4.944   0.798   2.232
10891TIP3    H232631   5.071   0.776   2.152
10892TIP3   OH232632   3.032   0.951   3.518
10892TIP3    H132633   3.071   0.967   3.432
10892TIP3    H232634   2.991   0.865   3.510
10893TIP3   OH232635   0.626   1.014   3.248
10893TIP3    H132636   0.556   0.956   3.217
10893TIP3    H232637   0.600   1.036   3.337
10894TIP3   OH232638   0.495   6.320   1.391
10894TIP3    H132639   0.411   6.309   1.347
10894TIP3    H232640   0.472   6.342   1.481
10895TIP3   OH232641   6.195   3.020   0.223
10895TIP3    H132642   6.288   3.000   0.228
10895TIP3    H232643   6.175   3.015   0.130
10896TIP3   OH232644   6.943   3.312   0.875
10896TIP3    H132645   6.881   3.368   0.923
10896TIP3    H232646   6.890   3.273   0.806
10897TIP3   OH232647   6.813   5.606   3.099
10897TIP3    H132648   6.828   5.696   3.130
10897TIP3    H232649   6.755   5.616   3.024
10898TIP3   OH232650   6.292   0.235   5.197
10898TIP3    H132651   6.220   0.180   5.165
10898TIP3    H232652   6.343   0.176   5.253
10899TIP3   OH232653   3.706   5.111   3.407
10899TIP3    H132654   3.706   5.111   3.503
10899TIP3    H232655   3.640   5.176   3.383
10900TIP3   OH232656   6.001   2.134   2.935
10900TIP3    H132657   6.047   2.121   3.018
10900TIP3    H232658   6.066   2.114   2.868
10901TIP3   OH232659   3.067   7.215   2.184
10901TIP3    H132660   3.050   7.142   2.125
10901TIP3    H232661   2.988   7.269   2.178
10902TIP3   OH232662   8.222   3.590   5.909
10902TIP3    H132663   8.197   3.593   6.002
10902TIP3    H232664   8.139   3.589   5.862
10903TIP3   OH232665   2.610   6.995   3.724
10903TIP3    H132666   2.635   6.907   3.750
10903TIP3    H232667   2.604   6.992   3.629
10904TIP3   OH232668   2.894   4.611   3.064
10904TIP3    H132669   2.958   4.542   3.084
10904TIP3    H232670   2.822   4.595   3.125
10905TIP3   OH232671   8.266   2.692   3.299
10905TIP3    H132672   8.335   2.668   3.361
10905TIP3    H232673   8.208   2.616   3.298
10906TIP3   OH232674   4.987   5.043   4.986
10906TIP3    H132675   4.905   5.075   4.948
10906TIP3    H232676   5.003   4.960   4.941
10907TIP3   OH232677   5.119   2.499   4.876
10907TIP3    H132678   5.055   2.461   4.816
10907TIP3    H232679   5.177   2.426   4.898
10908TIP3   OH232680   7.584   7.186   4.088
10908TIP3    H132681   7.636   7.217   4.163
10908TIP3    H232682   7.494   7.187   4.120
10909TIP3   OH232683   4.376   3.064   0.589
10909TIP3    H132684   4.419   3.066   0.504
10909TIP3    H232685   4.348   3.154   0.604
10910TIP3   OH232686   0.516   2.073   1.312
10910TIP3    H132687   0.597   2.090   1.361
10910TIP3    H232688   0.474   2.001   1.359
10911TIP3   OH232689   6.177   3.952   6.332
10911TIP3    H132690   6.179   3.967   6.426
10911TIP3    H232691   6.164   3.857   6.323
10912TIP3   OH232692   6.432   7.328   1.421
10912TIP3    H132693   6.464   7.418   1.432
10912TIP3    H232694   6.488   7.291   1.353
10913TIP3   OH232695   3.939   0.236   0.356
10913TIP3    H132696   3.985   0.254   0.274
10913TIP3    H232697   3.867   0.179   0.332
10914TIP3   OH232698   7.194   2.097   4.757
10914TIP3    H132699   7.226   2.164   4.697
10914TIP3    H232700   7.136   2.042   4.704
10915TIP3   OH232701   3.969   1.792   1.380
10915TIP3    H132702   3.901   1.726   1.392
10915TIP3    H232703   3.942   1.865   1.436
10916TIP3   OH232704   5.937   2.827   1.826
10916TIP3    H132705   5.965   2.865   1.909
10916TIP3    H232706   5.970   2.887   1.759
10917TIP3   OH232707   0.123   3.198   1.843
10917TIP3    H132708   0.086   3.286   1.855
10917TIP3    H232709   0.197   3.195   1.903
10918TIP3   OH232710   0.874   3.003   3.013
10918TIP3    H132711   0.931   2.935   2.976
10918TIP3    H232712   0.805   3.014   2.947
10919TIP3   OH232713   3.180   1.259   2.830
10919TIP3    H132714   3.238   1.297   2.763
10919TIP3    H232715   3.093   1.294   2.810
10920TIP3   OH232716   7.294   7.232   2.737
10920TIP3    H132717   7.313   7.325   2.724
10920TIP3    H232718   7.204   7.231   2.769
10921TIP3   OH232719   2.755   4.503   3.418
10921TIP3    H132720   2.676   4.553   3.439
10921TIP3    H232721   2.723   4.417   3.393
10922TIP3   OH232722   5.166   5.262   1.792
10922TIP3    H132723   5.257   5.272   1.764
10922TIP3    H232724   5.138   5.179   1.752
10923TIP3   OH232725   0.648   7.404   2.554
10923TIP3    H132726   0.673   7.326   2.505
10923TIP3    H232727   0.645   7.474   2.489
10924TIP3   OH232728   4.116   6.761   1.368
10924TIP3    H132729   4.033   6.714   1.372
10924TIP3    H232730   4.108   6.829   1.435
10925TIP3   OH232731   6.856   6.413   4.146
10925TIP3    H132732   6.873   6.336   4.200
10925TIP3    H232733   6.939   6.430   4.102
10926TIP3   OH232734   6.564   3.502   3.893
10926TIP3    H132735   6.648   3.528   3.932
10926TIP3    H232736   6.507   3.484   3.967
10927TIP3   OH232737   5.247   3.749   0.060
10927TIP3    H132738   5.155   3.725   0.054
10927TIP3    H232739   5.290   3.697  -0.008
10928TIP3   OH232740   1.901   1.205   5.924
10928TIP3    H132741   1.882   1.115   5.952
10928TIP3    H232742   1.941   1.246   6.001
10929TIP3   OH232743   7.843   1.520   1.507
10929TIP3    H132744   7.827   1.441   1.558
10929TIP3    H232745   7.756   1.550   1.482
10930TIP3   OH232746   3.145   0.408   5.265
10930TIP3    H132747   3.069   0.459   5.291
10930TIP3    H232748   3.132   0.391   5.172
10931TIP3   OH232749   0.576   5.648   3.931
10931TIP3    H132750   0.487   5.633   3.962
10931TIP3    H232751   0.577   5.739   3.903
10932TIP3   OH232752   5.668   2.489   5.842
10932TIP3    H132753   5.723   2.567   5.833
10932TIP3    H232754   5.601   2.515   5.906
10933TIP3   OH232755   5.546   7.620   0.073
10933TIP3    H132756   5.497   7.667   0.007
10933TIP3    H232757   5.550   7.530   0.041
10934TIP3   OH232758   5.705   2.801   2.635
10934TIP3    H132759   5.766   2.828   2.704
10934TIP3    H232760   5.683   2.882   2.589
10935TIP3   OH232761   2.521   0.458   5.184
10935TIP3    H132762   2.542   0.387   5.123
10935TIP3    H232763   2.457   0.511   5.137
10936TIP3   OH232764   5.873   5.074   0.480
10936TIP3    H132765   5.778   5.083   0.472
10936TIP3    H232766   5.889   5.061   0.573
10937TIP3   OH232767   4.488   1.554   4.232
10937TIP3    H132768   4.543   1.569   4.155
10937TIP3    H232769   4.525   1.611   4.299
10938TIP3   OH232770   1.841   1.888   2.325
10938TIP3    H132771   1.931   1.876   2.357
10938TIP3    H232772   1.819   1.977   2.349
10939TIP3   OH232773   6.720   0.191   1.912
10939TIP3    H132774   6.755   0.185   2.002
10939TIP3    H232775   6.702   0.284   1.900
10940TIP3   OH232776   7.718   6.228   1.938
10940TIP3    H132777   7.756   6.306   1.897
10940TIP3    H232778   7.702   6.255   2.028
10941TIP3   OH232779   0.790   5.104   3.105
10941TIP3    H132780   0.818   5.015   3.084
10941TIP3    H232781   0.868   5.147   3.140
10942TIP3   OH232782   7.978   5.904   2.561
10942TIP3    H132783   8.064   5.894   2.601
10942TIP3    H232784   7.992   5.968   2.491
10943TIP3   OH232785   1.604   4.193   1.643
10943TIP3    H132786   1.620   4.284   1.617
10943TIP3    H232787   1.556   4.199   1.725
10944TIP3   OH232788   7.135   4.282   1.191
10944TIP3    H132789   7.206   4.223   1.217
10944TIP3    H232790   7.075   4.281   1.265
10945TIP3   OH232791   3.584   5.980   2.989
10945TIP3    H132792   3.551   6.070   2.984
10945TIP3    H232793   3.531   5.931   2.927
10946TIP3   OH232794   6.671   1.218   2.288
10946TIP3    H132795   6.723   1.290   2.254
10946TIP3    H232796   6.621   1.256   2.360
10947TIP3   OH232797   4.670   0.758   0.532
10947TIP3    H132798   4.653   0.711   0.451
10947TIP3    H232799   4.738   0.708   0.575
10948TIP3   OH232800   6.959   5.464   1.510
10948TIP3    H132801   7.009   5.453   1.428
10948TIP3    H232802   6.893   5.529   1.489
10949TIP3   OH232803   4.513   5.859   2.009
10949TIP3    H132804   4.496   5.948   1.980
10949TIP3    H232805   4.590   5.866   2.066
10950TIP3   OH232806   5.526   7.300   5.746
10950TIP3    H132807   5.609   7.290   5.699
10950TIP3    H232808   5.522   7.225   5.804
10951TIP3   OH232809   7.398   0.225   5.583
10951TIP3    H132810   7.393   0.183   5.669
10951TIP3    H232811   7.317   0.198   5.539
10952TIP3   OH232812   6.918   5.461   0.335
10952TIP3    H132813   7.000   5.426   0.300
10952TIP3    H232814   6.896   5.534   0.277
10953TIP3   OH232815   2.109   0.342   4.263
10953TIP3    H132816   2.118   0.256   4.305
10953TIP3    H232817   2.028   0.378   4.299
10954TIP3   OH232818   7.736   5.499   2.661
10954TIP3    H132819   7.705   5.503   2.570
10954TIP3    H232820   7.757   5.590   2.683
10955TIP3   OH232821   3.875   5.343   3.724
10955TIP3    H132822   3.806   5.329   3.659
10955TIP3    H232823   3.949   5.291   3.691
10956TIP3   OH232824   4.863   7.406   1.139
10956TIP3    H132825   4.922   7.344   1.096
10956TIP3    H232826   4.898   7.492   1.115
10957TIP3   OH232827   2.215   7.767   0.512
10957TIP3    H132828   2.304   7.739   0.530
10957TIP3    H232829   2.194   7.828   0.583
10958TIP3   OH232830   1.931   6.293   0.986
10958TIP3    H132831   1.878   6.359   0.941
10958TIP3    H232832   1.897   6.209   0.953
10959TIP3   OH232833   4.497   2.968   1.744
10959TIP3    H132834   4.445   3.024   1.686
10959TIP3    H232835   4.469   2.991   1.832
10960TIP3   OH232836   5.039   7.305   3.360
10960TIP3    H132837   4.975   7.376   3.353
10960TIP3    H232838   4.986   7.225   3.361
10961TIP3   OH232839   5.831   7.483   2.708
10961TIP3    H132840   5.749   7.528   2.686
10961TIP3    H232841   5.851   7.431   2.630
10962TIP3   OH232842   6.145   6.465   2.957
10962TIP3    H132843   6.083   6.409   3.003
10962TIP3    H232844   6.230   6.444   2.996
10963TIP3   OH232845   2.776   0.386   2.051
10963TIP3    H132846   2.714   0.332   2.001
10963TIP3    H232847   2.794   0.334   2.130
10964TIP3   OH232848   2.692   7.114   6.159
10964TIP3    H132849   2.629   7.102   6.088
10964TIP3    H232850   2.639   7.112   6.239
10965TIP3   OH232851   5.675   5.253   5.787
10965TIP3    H132852   5.629   5.334   5.809
10965TIP3    H232853   5.765   5.268   5.816
10966TIP3   OH232854   7.832   5.855   4.760
10966TIP3    H132855   7.926   5.863   4.774
10966TIP3    H232856   7.798   5.817   4.841
10967TIP3   OH232857   7.213   3.569   2.023
10967TIP3    H132858   7.206   3.612   1.938
10967TIP3    H232859   7.149   3.497   2.018
10968TIP3   OH232860   0.524   4.929   6.162
10968TIP3    H132861   0.507   4.975   6.244
10968TIP3    H232862   0.552   4.842   6.188
10969TIP3   OH232863   0.412   7.315   6.547
10969TIP3    H132864   0.317   7.304   6.556
10969TIP3    H232865   0.423   7.354   6.460
10970TIP3   OH232866   6.371   1.357   4.119
10970TIP3    H132867   6.376   1.290   4.051
10970TIP3    H232868   6.307   1.324   4.181
10971TIP3   OH232869   1.598   4.999   0.241
10971TIP3    H132870   1.691   5.004   0.219
10971TIP3    H232871   1.597   4.997   0.337
10972TIP3   OH232872   7.228   0.094   2.936
10972TIP3    H132873   7.264   0.158   2.997
10972TIP3    H232874   7.163   0.046   2.988
10973TIP3   OH232875   2.312   2.854   4.311
10973TIP3    H132876   2.347   2.785   4.254
10973TIP3    H232877   2.380   2.867   4.378
10974TIP3   OH232878   0.608   2.651   1.277
10974TIP3    H132879   0.546   2.673   1.347
10974TIP3    H232880   0.662   2.581   1.314
10975TIP3   OH232881   4.815   4.553   4.998
10975TIP3    H132882   4.825   4.556   4.903
10975TIP3    H232883   4.738   4.498   5.012
10976TIP3   OH232884   3.953   3.685   1.699
10976TIP3    H132885   3.957   3.713   1.791
10976TIP3    H232886   3.860   3.689   1.677
10977TIP3   OH232887   0.926   5.552   4.416
10977TIP3    H132888   0.938   5.465   4.454
10977TIP3    H232889   0.854   5.541   4.354
10978TIP3   OH232890   1.593   2.480   5.766
10978TIP3    H132891   1.587   2.575   5.779
10978TIP3    H232892   1.598   2.445   5.855
10979TIP3   OH232893   6.771   7.664   2.347
10979TIP3    H132894   6.852   7.708   2.371
10979TIP3    H232895   6.798   7.575   2.322
10980TIP3   OH232896   4.054   1.720   2.119
10980TIP3    H132897   4.135   1.739   2.071
10980TIP3    H232898   4.031   1.631   2.092
10981TIP3   OH232899   4.160   0.765   2.403
10981TIP3    H132900   4.249   0.792   2.382
10981TIP3    H232901   4.160   0.757   2.499
10982TIP3   OH232902   7.151   6.176   0.129
10982TIP3    H132903   7.090   6.110   0.164
10982TIP3    H232904   7.229   6.167   0.182
10983TIP3   OH232905   1.278   5.003   0.190
10983TIP3    H132906   1.210   4.991   0.256
10983TIP3    H232907   1.349   5.047   0.237
10984TIP3   OH232908   3.484   6.263   5.846
10984TIP3    H132909   3.559   6.234   5.897
10984TIP3    H232910   3.475   6.356   5.867
10985TIP3   OH232911   5.649   2.744   6.667
10985TIP3    H132912   5.582   2.777   6.607
10985TIP3    H232913   5.660   2.652   6.643
10986TIP3   OH232914   5.596   6.401   5.469
10986TIP3    H132915   5.620   6.493   5.473
10986TIP3    H232916   5.680   6.355   5.458
10987TIP3   OH232917   2.450   5.475   0.402
10987TIP3    H132918   2.417   5.400   0.354
10987TIP3    H232919   2.544   5.477   0.382
10988TIP3   OH232920   0.612   4.034   5.963
10988TIP3    H132921   0.620   4.034   5.867
10988TIP3    H232922   0.625   3.942   5.988
10989TIP3   OH232923   3.323   2.217   0.813
10989TIP3    H132924   3.310   2.305   0.779
10989TIP3    H232925   3.367   2.170   0.743
10990TIP3   OH232926   1.648   5.207   0.512
10990TIP3    H132927   1.660   5.299   0.535
10990TIP3    H232928   1.636   5.163   0.596
10991TIP3   OH232929   7.195   6.553   6.060
10991TIP3    H132930   7.178   6.641   6.094
10991TIP3    H232931   7.262   6.566   5.993
10992TIP3   OH232932   4.580   1.080   2.484
10992TIP3    H132933   4.559   1.171   2.463
10992TIP3    H232934   4.513   1.029   2.438
10993TIP3   OH232935   1.696   7.357   0.177
10993TIP3    H132936   1.609   7.350   0.218
10993TIP3    H232937   1.744   7.281   0.211
10994TIP3   OH232938   7.927   6.458   0.210
10994TIP3    H132939   7.945   6.488   0.298
10994TIP3    H232940   7.833   6.437   0.211
10995TIP3   OH232941   8.136   1.496   3.373
10995TIP3    H132942   8.046   1.484   3.343
10995TIP3    H232943   8.170   1.407   3.384
10996TIP3   OH232944   0.121   1.430   2.581
10996TIP3    H132945   0.160   1.511   2.546
10996TIP3    H232946   0.196   1.376   2.606
10997TIP3   OH232947   3.969   4.227   3.844
10997TIP3    H132948   3.969   4.131   3.847
10997TIP3    H232949   3.926   4.248   3.761
10998TIP3   OH232950   5.826   1.197   4.097
10998TIP3    H132951   5.880   1.249   4.157
10998TIP3    H232952   5.885   1.170   4.028
10999TIP3   OH232953   5.196   6.911   6.566
10999TIP3    H132954   5.235   6.984   6.614
10999TIP3    H232955   5.151   6.860   6.633
11000TIP3   OH232956   4.438   2.053   0.490
11000TIP3    H132957   4.481   2.058   0.405
11000TIP3    H232958   4.434   1.959   0.509
11001TIP3   OH232959   1.090   4.205   4.441
11001TIP3    H132960   1.134   4.255   4.510
11001TIP3    H232961   1.112   4.251   4.360
11002TIP3   OH232962   3.283   7.620   0.901
11002TIP3    H132963   3.369   7.585   0.925
11002TIP3    H232964   3.272   7.697   0.958
11003TIP3   OH232965   2.543   0.120   5.572
11003TIP3    H132966   2.597   0.192   5.604
11003TIP3    H232967   2.551   0.125   5.476
11004TIP3   OH232968   6.482   5.843   2.350
11004TIP3    H132969   6.562   5.873   2.306
11004TIP3    H232970   6.513   5.782   2.416
11005TIP3   OH232971   1.078   6.698   5.423
11005TIP3    H132972   1.070   6.664   5.334
11005TIP3    H232973   1.169   6.726   5.430
11006TIP3   OH232974   1.303   0.587   4.059
11006TIP3    H132975   1.245   0.610   4.132
11006TIP3    H232976   1.290   0.657   3.995
11007TIP3   OH232977   7.277   6.045   5.227
11007TIP3    H132978   7.205   6.012   5.281
11007TIP3    H232979   7.344   6.072   5.290
11008TIP3   OH232980   3.238   0.335   6.706
11008TIP3    H132981   3.149   0.318   6.738
11008TIP3    H232982   3.234   0.425   6.672
11009TIP3   OH232983   5.737   4.849   0.262
11009TIP3    H132984   5.832   4.834   0.269
11009TIP3    H232985   5.730   4.939   0.229
11010TIP3   OH232986   8.176   7.264   5.426
11010TIP3    H132987   8.090   7.245   5.389
11010TIP3    H232988   8.214   7.327   5.364
11011TIP3   OH232989   6.482   1.588   1.536
11011TIP3    H132990   6.458   1.499   1.512
11011TIP3    H232991   6.536   1.619   1.464
11012TIP3   OH232992   4.209   6.187   5.880
11012TIP3    H132993   4.154   6.122   5.922
11012TIP3    H232994   4.297   6.170   5.915
11013TIP3   OH232995   4.302   1.245   2.628
11013TIP3    H132996   4.342   1.274   2.710
11013TIP3    H232997   4.376   1.238   2.567
11014TIP3   OH232998   2.498   3.686   1.758
11014TIP3    H132999   2.475   3.779   1.749
11014TIP3    H233000   2.501   3.671   1.852
11015TIP3   OH233001   2.586   3.371   2.904
11015TIP3    H133002   2.515   3.377   2.967
11015TIP3    H233003   2.644   3.303   2.938
11016TIP3   OH233004   7.847   6.409   1.608
11016TIP3    H133005   7.765   6.424   1.654
11016TIP3    H233006   7.904   6.367   1.673
11017TIP3   OH233007   4.694   4.337   5.168
11017TIP3    H133008   4.746   4.304   5.242
11017TIP3    H233009   4.618   4.378   5.210
11018TIP3   OH233010   4.779   2.430   4.401
11018TIP3    H133011   4.719   2.433   4.327
11018TIP3    H233012   4.746   2.497   4.462
11019TIP3   OH233013   1.675   2.612   5.038
11019TIP3    H133014   1.677   2.533   4.984
11019TIP3    H233015   1.665   2.684   4.976
11020TIP3   OH233016   1.567   3.558   3.740
11020TIP3    H133017   1.541   3.612   3.814
11020TIP3    H233018   1.505   3.579   3.671
11021TIP3   OH233019   6.254   7.118   4.809
11021TIP3    H133020   6.188   7.053   4.829
11021TIP3    H233021   6.287   7.147   4.895
11022TIP3   OH233022   6.411   0.979   1.378
11022TIP3    H133023   6.412   0.980   1.474
11022TIP3    H233024   6.498   1.011   1.353
11023TIP3   OH233025   4.284   0.199   1.311
11023TIP3    H133026   4.310   0.270   1.369
11023TIP3    H233027   4.332   0.123   1.344
11024TIP3   OH233028   4.114   4.000   4.640
11024TIP3    H133029   4.036   3.956   4.675
11024TIP3    H233030   4.175   3.928   4.621
11025TIP3   OH233031   3.023   6.427   0.331
11025TIP3    H133032   3.114   6.418   0.303
11025TIP3    H233033   3.019   6.511   0.376
11026TIP3   OH233034   5.513   5.735   1.983
11026TIP3    H133035   5.538   5.647   1.953
11026TIP3    H233036   5.569   5.794   1.931
11027TIP3   OH233037   7.169   5.251   6.716
11027TIP3    H133038   7.119   5.249   6.635
11027TIP3    H233039   7.146   5.335   6.757
11028TIP3   OH233040   6.508   6.723   0.827
11028TIP3    H133041   6.447   6.794   0.808
11028TIP3    H233042   6.570   6.725   0.755
11029TIP3   OH233043   4.116   6.389   2.756
11029TIP3    H133044   4.210   6.388   2.779
11029TIP3    H233045   4.103   6.473   2.713
11030TIP3   OH233046   6.675   1.794   1.951
11030TIP3    H133047   6.616   1.721   1.969
11030TIP3    H233048   6.616   1.866   1.926
11031TIP3   OH233049   6.993   4.692   5.666
11031TIP3    H133050   7.024   4.623   5.724
11031TIP3    H233051   7.072   4.734   5.633
11032TIP3   OH233052   7.960   3.774   2.625
11032TIP3    H133053   8.034   3.742   2.573
11032TIP3    H233054   7.933   3.698   2.678
11033TIP3   OH233055   2.411   1.324   2.595
11033TIP3    H133056   2.427   1.274   2.675
11033TIP3    H233057   2.396   1.414   2.626
11034TIP3   OH233058   6.425   2.972   1.557
11034TIP3    H133059   6.485   3.030   1.511
11034TIP3    H233060   6.338   2.999   1.527
11035TIP3   OH233061   7.291   3.359   1.812
11035TIP3    H133062   7.243   3.352   1.730
11035TIP3    H233063   7.233   3.320   1.878
11036TIP3   OH233064   7.285   0.106   6.385
11036TIP3    H133065   7.301   0.171   6.453
11036TIP3    H233066   7.342   0.133   6.312
11037TIP3   OH233067   3.943   6.519   1.173
11037TIP3    H133068   4.015   6.529   1.111
11037TIP3    H233069   3.897   6.603   1.169
11038TIP3   OH233070   5.664   1.404   4.008
11038TIP3    H133071   5.697   1.334   4.064
11038TIP3    H233072   5.731   1.414   3.940
11039TIP3   OH233073   5.125   5.279   0.773
11039TIP3    H133074   5.102   5.205   0.831
11039TIP3    H233075   5.053   5.341   0.784
11040TIP3   OH233076   5.340   3.251   2.051
11040TIP3    H133077   5.342   3.193   1.975
11040TIP3    H233078   5.246   3.266   2.068
11041TIP3   OH233079   3.276   2.870   0.999
11041TIP3    H133080   3.269   2.830   1.085
11041TIP3    H233081   3.185   2.885   0.972
11042TIP3   OH233082   1.374   1.616   5.038
11042TIP3    H133083   1.370   1.534   4.988
11042TIP3    H233084   1.436   1.598   5.109
11043TIP3   OH233085   4.761   2.499   6.791
11043TIP3    H133086   4.672   2.482   6.761
11043TIP3    H233087   4.814   2.490   6.712
11044TIP3   OH233088   2.851   2.214   0.109
11044TIP3    H133089   2.797   2.243   0.182
11044TIP3    H233090   2.921   2.279   0.103
11045TIP3   OH233091   6.412   0.633   4.046
11045TIP3    H133092   6.424   0.547   4.006
11045TIP3    H233093   6.458   0.628   4.129
11046TIP3   OH233094   6.079   2.577   4.081
11046TIP3    H133095   6.084   2.576   4.177
11046TIP3    H233096   6.094   2.486   4.055
11047TIP3   OH233097   2.455   1.058   0.039
11047TIP3    H133098   2.387   1.010   0.086
11047TIP3    H233099   2.407   1.113  -0.022
11048TIP3   OH233100   2.721   1.034   5.469
11048TIP3    H133101   2.795   1.086   5.438
11048TIP3    H233102   2.667   1.096   5.519
11049TIP3   OH233103   3.769   6.158   5.719
11049TIP3    H133104   3.689   6.134   5.672
11049TIP3    H233105   3.817   6.077   5.728
11050TIP3   OH233106   7.244   4.909   3.870
11050TIP3    H133107   7.161   4.893   3.825
11050TIP3    H233108   7.256   5.004   3.863
11051TIP3   OH233109   6.311   3.428   2.244
11051TIP3    H133110   6.254   3.500   2.271
11051TIP3    H233111   6.292   3.417   2.150
11052TIP3   OH233112   3.977   5.146   1.997
11052TIP3    H133113   3.950   5.058   1.971
11052TIP3    H233114   4.073   5.144   1.991
11053TIP3   OH233115   5.111   2.332   5.181
11053TIP3    H133116   5.048   2.350   5.111
11053TIP3    H233117   5.077   2.254   5.225
11054TIP3   OH233118   6.808   7.376   3.781
11054TIP3    H133119   6.885   7.418   3.746
11054TIP3    H233120   6.824   7.282   3.771
11055TIP3   OH233121   3.761   4.308   1.515
11055TIP3    H133122   3.692   4.268   1.462
11055TIP3    H233123   3.714   4.365   1.576
11056TIP3   OH233124   2.161   0.440   1.714
11056TIP3    H133125   2.136   0.530   1.735
11056TIP3    H233126   2.203   0.408   1.793
11057TIP3   OH233127   6.581   2.974   5.861
11057TIP3    H133128   6.630   3.056   5.858
11057TIP3    H233129   6.600   2.931   5.778
11058TIP3   OH233130   3.198   4.816   3.852
11058TIP3    H133131   3.226   4.762   3.778
11058TIP3    H233132   3.104   4.831   3.837
11059TIP3   OH233133   6.544   2.835   6.369
11059TIP3    H133134   6.513   2.883   6.445
11059TIP3    H233135   6.618   2.886   6.337
11060TIP3   OH233136   4.721   0.048   0.049
11060TIP3    H133137   4.726   0.133   0.007
11060TIP3    H233138   4.797   0.045   0.107
11061TIP3   OH233139   2.706   1.831   0.659
11061TIP3    H133140   2.742   1.920   0.667
11061TIP3    H233141   2.768   1.776   0.707
11062TIP3   OH233142   2.436   1.861   0.561
11062TIP3    H133143   2.517   1.856   0.612
11062TIP3    H233144   2.408   1.953   0.569
11063TIP3   OH233145   1.270   7.691   0.122
11063TIP3    H133146   1.300   7.628   0.056
11063TIP3    H233147   1.179   7.666   0.140
11064TIP3   OH233148   3.559   4.147   3.765
11064TIP3    H133149   3.471   4.141   3.729
11064TIP3    H233150   3.608   4.075   3.725
11065TIP3   OH233151   6.665   4.414   1.488
11065TIP3    H133152   6.707   4.331   1.511
11065TIP3    H233153   6.574   4.392   1.470
11066TIP3   OH233154   5.496   7.558   6.675
11066TIP3    H133155   5.401   7.568   6.684
11066TIP3    H233156   5.519   7.617   6.603
11067TIP3   OH233157   3.895   3.444   5.659
11067TIP3    H133158   3.836   3.409   5.726
11067TIP3    H233159   3.929   3.525   5.697
11068TIP3   OH233160   3.562   0.150   2.080
11068TIP3    H133161   3.574   0.215   2.149
11068TIP3    H233162   3.557   0.201   1.999
11069TIP3   OH233163   5.609   7.097   0.643
11069TIP3    H133164   5.681   7.102   0.581
11069TIP3    H233165   5.569   7.183   0.641
11070TIP3   OH233166   2.015   6.522   4.794
11070TIP3    H133167   2.081   6.488   4.854
11070TIP3    H233168   1.994   6.448   4.737
11071TIP3   OH233169   6.541   3.578   5.267
11071TIP3    H133170   6.465   3.636   5.272
11071TIP3    H233171   6.592   3.599   5.345
11072TIP3   OH233172   6.618   1.052   5.322
11072TIP3    H133173   6.615   1.140   5.360
11072TIP3    H233174   6.540   1.046   5.268
11073TIP3   OH233175   1.908   0.915   4.161
11073TIP3    H133176   1.885   0.932   4.070
11073TIP3    H233177   1.895   0.821   4.172
11074TIP3   OH233178   6.313   1.770   6.617
11074TIP3    H133179   6.288   1.693   6.567
11074TIP3    H233180   6.346   1.832   6.551
11075TIP3   OH233181   4.516   0.260   2.260
11075TIP3    H133182   4.559   0.337   2.222
11075TIP3    H233183   4.534   0.267   2.354
11076TIP3   OH233184   1.450   5.120   5.544
11076TIP3    H133185   1.427   5.193   5.486
11076TIP3    H233186   1.484   5.052   5.485
11077TIP3   OH233187   3.624   2.562   6.710
11077TIP3    H133188   3.616   2.492   6.775
11077TIP3    H233189   3.542   2.558   6.660
11078TIP3   OH233190   0.387   6.789   5.901
11078TIP3    H133191   0.299   6.827   5.900
11078TIP3    H233192   0.418   6.803   5.991
11079TIP3   OH233193   6.501   6.699   3.150
11079TIP3    H133194   6.480   6.792   3.146
11079TIP3    H233195   6.425   6.659   3.191
11080TIP3   OH233196   0.227   4.235   4.378
11080TIP3    H133197   0.314   4.197   4.372
11080TIP3    H233198   0.241   4.330   4.368
11081TIP3   OH233199   2.526   4.538   1.597
11081TIP3    H133200   2.512   4.471   1.530
11081TIP3    H233201   2.445   4.589   1.598
11082TIP3   OH233202   6.010   2.555   1.860
11082TIP3    H133203   6.052   2.545   1.775
11082TIP3    H233204   5.982   2.647   1.862
11083TIP3   OH233205   5.779   0.084   5.310
11083TIP3    H133206   5.818   0.079   5.222
11083TIP3    H233207   5.724   0.006   5.316
11084TIP3   OH233208   1.494   2.713   2.822
11084TIP3    H133209   1.505   2.720   2.728
11084TIP3    H233210   1.499   2.619   2.841
11085TIP3   OH233211   6.352   4.552   3.736
11085TIP3    H133212   6.297   4.610   3.788
11085TIP3    H233213   6.291   4.497   3.688
11086TIP3   OH233214   4.944   3.058   1.607
11086TIP3    H133215   4.985   3.137   1.572
11086TIP3    H233216   4.967   2.989   1.544
11087TIP3   OH233217   1.507   2.466   0.549
11087TIP3    H133218   1.431   2.504   0.593
11087TIP3    H233219   1.574   2.462   0.617
11088TIP3   OH233220   1.477   6.451   4.585
11088TIP3    H133221   1.467   6.365   4.546
11088TIP3    H233222   1.572   6.465   4.588
11089TIP3   OH233223   4.205   3.470   5.121
11089TIP3    H133224   4.188   3.538   5.186
11089TIP3    H233225   4.279   3.421   5.156
11090TIP3   OH233226   2.764   0.765   0.410
11090TIP3    H133227   2.733   0.797   0.325
11090TIP3    H233228   2.693   0.786   0.471
11091TIP3   OH233229   6.817   3.966   1.764
11091TIP3    H133230   6.778   3.885   1.733
11091TIP3    H233231   6.905   3.941   1.792
11092TIP3   OH233232   2.644   3.096   5.747
11092TIP3    H133233   2.555   3.125   5.730
11092TIP3    H233234   2.634   3.013   5.793
11093TIP3   OH233235   0.357   4.039   6.609
11093TIP3    H133236   0.387   4.105   6.547
11093TIP3    H233237   0.274   4.073   6.642
11094TIP3   OH233238   4.223   5.981   4.833
11094TIP3    H133239   4.212   6.007   4.742
11094TIP3    H233240   4.210   5.886   4.833
11095TIP3   OH233241   3.675   2.585   5.002
11095TIP3    H133242   3.679   2.639   5.081
11095TIP3    H233243   3.692   2.646   4.930
11096TIP3   OH233244   5.687   4.979   3.113
11096TIP3    H133245   5.764   4.934   3.078
11096TIP3    H233246   5.666   4.933   3.194
11097TIP3   OH233247   2.458   1.586   0.795
11097TIP3    H133248   2.450   1.666   0.744
11097TIP3    H233249   2.502   1.613   0.876
11098TIP3   OH233250   7.073   5.083   5.094
11098TIP3    H133251   6.981   5.072   5.068
11098TIP3    H233252   7.088   5.014   5.159
11099TIP3   OH233253   6.039   1.498   2.289
11099TIP3    H133254   6.111   1.435   2.284
11099TIP3    H233255   6.053   1.557   2.215
11100TIP3   OH233256   5.257   1.425   1.048
11100TIP3    H133257   5.324   1.360   1.066
11100TIP3    H233258   5.243   1.421   0.954
11101TIP3   OH233259   8.058   5.601   3.625
11101TIP3    H133260   8.098   5.638   3.704
11101TIP3    H233261   8.002   5.531   3.657
11102TIP3   OH233262   0.087   0.786   2.891
11102TIP3    H133263   0.142   0.843   2.944
11102TIP3    H233264   0.145   0.717   2.861
11103TIP3   OH233265   7.623   0.238   1.322
11103TIP3    H133266   7.620   0.299   1.248
11103TIP3    H233267   7.531   0.216   1.338
11104TIP3   OH233268   2.480   4.019   6.189
11104TIP3    H133269   2.394   4.048   6.159
11104TIP3    H233270   2.539   4.090   6.166
11105TIP3   OH233271   0.848   1.760   2.018
11105TIP3    H133272   0.913   1.693   2.036
11105TIP3    H233273   0.816   1.740   1.930
11106TIP3   OH233274   6.563   3.012   4.176
11106TIP3    H133275   6.495   3.020   4.243
11106TIP3    H233276   6.645   3.004   4.225
11107TIP3   OH233277   5.202   3.651   5.247
11107TIP3    H133278   5.281   3.658   5.301
11107TIP3    H233279   5.212   3.568   5.201
11108TIP3   OH233280   6.287   0.767   5.593
11108TIP3    H133281   6.223   0.696   5.592
11108TIP3    H233282   6.246   0.836   5.645
11109TIP3   OH233283   0.819   0.973   2.368
11109TIP3    H133284   0.838   0.897   2.312
11109TIP3    H233285   0.764   1.029   2.314
11110TIP3   OH233286   4.828   1.019   0.490
11110TIP3    H133287   4.827   0.933   0.533
11110TIP3    H233288   4.762   1.011   0.421
11111TIP3   OH233289   4.378   1.173   3.916
11111TIP3    H133290   4.417   1.117   3.849
11111TIP3    H233291   4.439   1.168   3.990
11112TIP3   OH233292   0.460   4.140   3.279
11112TIP3    H133293   0.421   4.119   3.194
11112TIP3    H233294   0.553   4.119   3.270
11113TIP3   OH233295   5.028   2.053   6.112
11113TIP3    H133296   4.964   2.113   6.074
11113TIP3    H233297   5.083   2.108   6.168
11114TIP3   OH233298   7.933   7.292   6.678
11114TIP3    H133299   7.964   7.228   6.614
11114TIP3    H233300   7.961   7.377   6.643
11115TIP3   OH233301   5.710   7.831   1.386
11115TIP3    H133302   5.625   7.796   1.413
11115TIP3    H233303   5.736   7.777   1.312
11116TIP3   OH233304   4.516   6.926   2.827
11116TIP3    H133305   4.585   6.951   2.889
11116TIP3    H233306   4.488   7.009   2.788
11117TIP3   OH233307   5.892   3.879   1.432
11117TIP3    H133308   5.865   3.877   1.340
11117TIP3    H233309   5.892   3.787   1.459
11118TIP3   OH233310   1.708   6.696   0.081
11118TIP3    H133311   1.679   6.781   0.048
11118TIP3    H233312   1.796   6.712   0.115
11119TIP3   OH233313   6.222   1.522   3.232
11119TIP3    H133314   6.310   1.503   3.199
11119TIP3    H233315   6.167   1.526   3.154
11120TIP3   OH233316   2.914   1.438   1.215
11120TIP3    H133317   2.914   1.525   1.255
11120TIP3    H233318   2.851   1.445   1.143
11121TIP3   OH233319   4.844   0.451   4.154
11121TIP3    H133320   4.940   0.449   4.150
11121TIP3    H233321   4.816   0.368   4.115
11122TIP3   OH233322   7.858   7.295   2.152
11122TIP3    H133323   7.891   7.244   2.078
11122TIP3    H233324   7.764   7.306   2.134
11123TIP3   OH233325   6.510   3.085   3.773
11123TIP3    H133326   6.536   3.110   3.862
11123TIP3    H233327   6.423   3.045   3.784
11124TIP3   OH233328   5.266   6.503   6.332
11124TIP3    H133329   5.192   6.532   6.385
11124TIP3    H233330   5.261   6.557   6.253
11125TIP3   OH233331   1.790   2.841   1.528
11125TIP3    H133332   1.863   2.883   1.575
11125TIP3    H233333   1.738   2.800   1.597
11126TIP3   OH233334   1.137   4.956   1.562
11126TIP3    H133335   1.159   4.867   1.533
11126TIP3    H233336   1.051   4.946   1.603
11127TIP3   OH233337   0.896   6.384   2.149
11127TIP3    H133338   0.863   6.312   2.202
11127TIP3    H233339   0.965   6.345   2.096
11128TIP3   OH233340   3.353   0.186   0.455
11128TIP3    H133341   3.274   0.229   0.425
11128TIP3    H233342   3.419   0.206   0.388
11129TIP3   OH233343   7.602   1.083   1.111
11129TIP3    H133344   7.558   0.999   1.097
11129TIP3    H233345   7.561   1.119   1.190
11130TIP3   OH233346   3.618   0.479   1.353
11130TIP3    H133347   3.542   0.514   1.304
11130TIP3    H233348   3.609   0.384   1.345
11131TIP3   OH233349   4.740   0.328   0.078
11131TIP3    H133350   4.675   0.395   0.057
11131TIP3    H233351   4.811   0.343   0.016
11132TIP3   OH233352   6.175   3.280   1.727
11132TIP3    H133353   6.264   3.259   1.698
11132TIP3    H233354   6.171   3.375   1.725
11133TIP3   OH233355   1.565   3.083   0.083
11133TIP3    H133356   1.573   3.178   0.092
11133TIP3    H233357   1.475   3.069   0.052
11134TIP3   OH233358   0.718   3.345   1.605
11134TIP3    H133359   0.710   3.251   1.620
11134TIP3    H233360   0.641   3.369   1.554
11135TIP3   OH233361   2.248   2.153   1.146
11135TIP3    H133362   2.234   2.111   1.231
11135TIP3    H233363   2.194   2.232   1.150
11136TIP3   OH233364   3.857   5.813   0.490
11136TIP3    H133365   3.831   5.905   0.489
11136TIP3    H233366   3.799   5.771   0.426
11137TIP3   OH233367   7.655   3.058   5.029
11137TIP3    H133368   7.563   3.069   5.052
11137TIP3    H233369   7.659   3.078   4.935
11138TIP3   OH233370   3.895   3.070   2.028
11138TIP3    H133371   3.876   2.983   1.994
11138TIP3    H233372   3.961   3.056   2.095
11139TIP3   OH233373   6.557   7.055   5.498
11139TIP3    H133374   6.478   7.002   5.504
11139TIP3    H233375   6.526   7.145   5.490
11140TIP3   OH233376   2.360   6.554   4.378
11140TIP3    H133377   2.288   6.536   4.439
11140TIP3    H233378   2.435   6.573   4.434
11141TIP3   OH233379   4.269   6.939   1.232
11141TIP3    H133380   4.215   6.861   1.227
11141TIP3    H233381   4.245   6.990   1.154
11142TIP3   OH233382   7.403   1.399   3.886
11142TIP3    H133383   7.449   1.315   3.884
11142TIP3    H233384   7.396   1.425   3.795
11143TIP3   OH233385   5.825   2.705   5.826
11143TIP3    H133386   5.873   2.715   5.744
11143TIP3    H233387   5.843   2.786   5.875
11144TIP3   OH233388   1.802   6.563   0.804
11144TIP3    H133389   1.888   6.603   0.797
11144TIP3    H233390   1.754   6.619   0.866
11145TIP3   OH233391   7.425   2.302   0.367
11145TIP3    H133392   7.410   2.230   0.306
11145TIP3    H233393   7.405   2.266   0.453
11146TIP3   OH233394   6.976   4.167   6.700
11146TIP3    H133395   7.047   4.224   6.669
11146TIP3    H233396   6.925   4.147   6.621
11147TIP3   OH233397   3.480   4.094   5.813
11147TIP3    H133398   3.412   4.027   5.806
11147TIP3    H233399   3.543   4.072   5.744
11148TIP3   OH233400   3.704   6.669   2.552
11148TIP3    H133401   3.718   6.760   2.578
11148TIP3    H233402   3.739   6.665   2.462
11149TIP3   OH233403   3.761   2.422   0.255
11149TIP3    H133404   3.836   2.377   0.295
11149TIP3    H233405   3.708   2.352   0.217
11150TIP3   OH233406   0.132   2.653   0.133
11150TIP3    H133407   0.159   2.649   0.041
11150TIP3    H233408   0.133   2.746   0.155
11151TIP3   OH233409   3.690   3.380   2.875
11151TIP3    H133410   3.657   3.372   2.785
11151TIP3    H233411   3.666   3.298   2.917
11152TIP3   OH233412   2.798   1.098   6.523
11152TIP3    H133413   2.775   1.015   6.564
11152TIP3    H233414   2.741   1.162   6.566
11153TIP3   OH233415   3.505   3.920   1.302
11153TIP3    H133416   3.476   3.901   1.392
11153TIP3    H233417   3.426   3.911   1.249
11154TIP3   OH233418   1.119   6.021   6.237
11154TIP3    H133419   1.146   6.105   6.273
11154TIP3    H233420   1.073   5.977   6.308
11155TIP3   OH233421   6.986   7.802   4.679
11155TIP3    H133422   6.957   7.716   4.711
11155TIP3    H233423   7.062   7.824   4.734
11156TIP3   OH233424   8.122   0.721   2.881
11156TIP3    H133425   8.082   0.806   2.863
11156TIP3    H233426   8.216   0.737   2.877
11157TIP3   OH233427   0.676   2.682   1.663
11157TIP3    H133428   0.635   2.765   1.687
11157TIP3    H233429   0.602   2.626   1.638
11158TIP3   OH233430   3.869   4.337   3.096
11158TIP3    H133431   3.869   4.371   3.006
11158TIP3    H233432   3.943   4.277   3.098
11159TIP3   OH233433   6.603   7.290   6.114
11159TIP3    H133434   6.588   7.267   6.023
11159TIP3    H233435   6.603   7.206   6.160
11160TIP3   OH233436   6.801   2.537   6.235
11160TIP3    H133437   6.716   2.511   6.200
11160TIP3    H233438   6.841   2.454   6.264
11161TIP3   OH233439   7.181   4.623   0.569
11161TIP3    H133440   7.134   4.562   0.627
11161TIP3    H233441   7.252   4.570   0.532
11162TIP3   OH233442   0.442   0.838   4.912
11162TIP3    H133443   0.494   0.846   4.991
11162TIP3    H233444   0.458   0.748   4.881
11163TIP3   OH233445   1.654   1.201   0.474
11163TIP3    H133446   1.685   1.292   0.469
11163TIP3    H233447   1.575   1.206   0.527
11164TIP3   OH233448   6.113   6.557   1.707
11164TIP3    H133449   6.052   6.626   1.683
11164TIP3    H233450   6.073   6.476   1.674
11165TIP3   OH233451   6.488   6.085   1.168
11165TIP3    H133452   6.523   6.005   1.208
11165TIP3    H233453   6.480   6.147   1.241
11166TIP3   OH233454   1.119   6.525   5.964
11166TIP3    H133455   1.174   6.450   5.942
11166TIP3    H233456   1.134   6.541   6.057
11167TIP3   OH233457   6.501   2.348   1.321
11167TIP3    H133458   6.489   2.285   1.392
11167TIP3    H233459   6.426   2.333   1.263
11168TIP3   OH233460   0.344   0.025   5.347
11168TIP3    H133461   0.290   0.033   5.426
11168TIP3    H233462   0.425  -0.017   5.377
11169TIP3   OH233463   4.698   4.768   3.475
11169TIP3    H133464   4.771   4.725   3.431
11169TIP3    H233465   4.626   4.764   3.413
11170TIP3   OH233466   3.805   6.912   5.455
11170TIP3    H133467   3.758   6.880   5.378
11170TIP3    H233468   3.874   6.847   5.469
11171TIP3   OH233469   0.681   5.354   1.671
11171TIP3    H133470   0.653   5.379   1.760
11171TIP3    H233471   0.776   5.348   1.677
11172TIP3   OH233472   8.039   7.243   4.671
11172TIP3    H133473   8.025   7.283   4.757
11172TIP3    H233474   8.032   7.316   4.609
11173TIP3   OH233475   5.052   6.632   4.262
11173TIP3    H133476   5.079   6.582   4.339
11173TIP3    H233477   5.085   6.721   4.277
11174TIP3   OH233478   3.341   0.076   4.740
11174TIP3    H133479   3.428   0.117   4.745
11174TIP3    H233480   3.338   0.017   4.814
11175TIP3   OH233481   5.871   7.279   0.848
11175TIP3    H133482   5.872   7.202   0.906
11175TIP3    H233483   5.780   7.308   0.849
11176TIP3   OH233484   0.074   1.290   3.572
11176TIP3    H133485   0.025   1.359   3.617
11176TIP3    H233486   0.047   1.298   3.480
11177TIP3   OH233487   6.250   3.443   0.486
11177TIP3    H133488   6.190   3.449   0.561
11177TIP3    H233489   6.295   3.527   0.486
11178TIP3   OH233490   4.070   4.503   1.281
11178TIP3    H133491   4.118   4.486   1.200
11178TIP3    H233492   4.083   4.423   1.333
11179TIP3   OH233493   5.466   6.187   4.762
11179TIP3    H133494   5.420   6.111   4.727
11179TIP3    H233495   5.396   6.249   4.785
11180TIP3   OH233496   5.535   1.144   0.164
11180TIP3    H133497   5.575   1.068   0.122
11180TIP3    H233498   5.527   1.119   0.256
11181TIP3   OH233499   4.557   3.544   2.112
11181TIP3    H133500   4.509   3.617   2.072
11181TIP3    H233501   4.594   3.496   2.038
11182TIP3   OH233502   0.151   5.806   5.859
11182TIP3    H133503   0.125   5.763   5.778
11182TIP3    H233504   0.068   5.823   5.905
11183TIP3   OH233505   4.646   1.771   4.285
11183TIP3    H133506   4.603   1.849   4.321
11183TIP3    H233507   4.626   1.774   4.191
11184TIP3   OH233508   6.715   4.728   5.917
11184TIP3    H133509   6.739   4.693   5.831
11184TIP3    H233510   6.719   4.823   5.906
11185TIP3   OH233511   3.867   5.606   2.295
11185TIP3    H133512   3.864   5.702   2.286
11185TIP3    H233513   3.955   5.583   2.267
11186TIP3   OH233514   3.094   7.685   4.353
11186TIP3    H133515   3.144   7.699   4.272
11186TIP3    H233516   3.124   7.600   4.384
11187TIP3   OH233517   1.749   6.935   4.466
11187TIP3    H133518   1.785   6.967   4.548
11187TIP3    H233519   1.821   6.942   4.403
11188TIP3   OH233520   5.889   0.495   5.093
11188TIP3    H133521   5.907   0.568   5.033
11188TIP3    H233522   5.796   0.476   5.080
11189TIP3   OH233523   3.432   1.260   4.653
11189TIP3    H133524   3.398   1.223   4.572
11189TIP3    H233525   3.356   1.298   4.696
11190TIP3   OH233526   4.090   1.170   3.132
11190TIP3    H133527   4.124   1.144   3.219
11190TIP3    H233528   4.037   1.247   3.149
11191TIP3   OH233529   7.623   3.934   1.783
11191TIP3    H133530   7.631   3.879   1.861
11191TIP3    H233531   7.529   3.941   1.768
11192TIP3   OH233532   4.888   2.934   4.525
11192TIP3    H133533   4.959   2.996   4.511
11192TIP3    H233534   4.843   2.966   4.603
11193TIP3   OH233535   4.182   5.655   5.511
11193TIP3    H133536   4.140   5.740   5.527
11193TIP3    H233537   4.267   5.676   5.473
11194TIP3   OH233538   3.388   0.715   1.559
11194TIP3    H133539   3.379   0.628   1.521
11194TIP3    H233540   3.389   0.775   1.484
11195TIP3   OH233541   2.283   7.136   4.941
11195TIP3    H133542   2.272   7.051   4.984
11195TIP3    H233543   2.194   7.173   4.939
11196TIP3   OH233544   4.732   7.783   6.632
11196TIP3    H133545   4.658   7.828   6.671
11196TIP3    H233546   4.703   7.759   6.544
11197TIP3   OH233547   7.151   1.953   2.477
11197TIP3    H133548   7.164   1.863   2.448
11197TIP3    H233549   7.238   1.982   2.504
11198TIP3   OH233550   2.028   4.992   3.834
11198TIP3    H133551   2.088   5.058   3.799
11198TIP3    H233552   1.941   5.020   3.806
11199TIP3   OH233553   4.315   2.016   1.314
11199TIP3    H133554   4.263   2.092   1.287
11199TIP3    H233555   4.341   2.036   1.404
11200TIP3   OH233556   7.585   5.322   0.277
11200TIP3    H133557   7.639   5.255   0.318
11200TIP3    H233558   7.509   5.331   0.335
11201TIP3   OH233559   1.165   3.865   6.570
11201TIP3    H133560   1.246   3.817   6.551
11201TIP3    H233561   1.133   3.893   6.484
11202TIP3   OH233562   0.248   4.957   6.105
11202TIP3    H133563   0.298   5.029   6.142
11202TIP3    H233564   0.279   4.879   6.151
11203TIP3   OH233565   7.130   0.398   5.568
11203TIP3    H133566   7.103   0.430   5.482
11203TIP3    H233567   7.142   0.304   5.555
11204TIP3   OH233568   4.764   7.043   3.284
11204TIP3    H133569   4.856   7.027   3.260
11204TIP3    H233570   4.758   7.012   3.374
11205TIP3   OH233571   2.430   1.725   1.581
11205TIP3    H133572   2.493   1.773   1.634
11205TIP3    H233573   2.450   1.633   1.596
11206TIP3   OH233574   0.994   3.674   2.117
11206TIP3    H133575   1.004   3.742   2.050
11206TIP3    H233576   1.011   3.592   2.071
11207TIP3   OH233577   2.151   5.623   1.684
11207TIP3    H133578   2.186   5.657   1.766
11207TIP3    H233579   2.220   5.638   1.620
11208TIP3   OH233580   5.230   5.412   6.626
11208TIP3    H133581   5.187   5.493   6.653
11208TIP3    H233582   5.162   5.346   6.631
11209TIP3   OH233583   6.180   1.334   3.485
11209TIP3    H133584   6.216   1.402   3.429
11209TIP3    H233585   6.088   1.327   3.458
11210TIP3   OH233586   2.135   6.691   2.396
11210TIP3    H133587   2.150   6.783   2.414
11210TIP3    H233588   2.222   6.651   2.398
11211TIP3   OH233589   0.140   7.277   6.616
11211TIP3    H133590   0.062   7.232   6.649
11211TIP3    H233591   0.106   7.347   6.562
11212TIP3   OH233592   0.876   3.636   2.806
11212TIP3    H133593   0.848   3.609   2.894
11212TIP3    H233594   0.814   3.592   2.748
11213TIP3   OH233595   2.190   3.803   2.736
11213TIP3    H133596   2.123   3.777   2.673
11213TIP3    H233597   2.212   3.893   2.712
11214TIP3   OH233598   2.220   2.808   1.559
11214TIP3    H133599   2.192   2.894   1.527
11214TIP3    H233600   2.258   2.765   1.483
11215TIP3   OH233601   1.066   0.416   4.951
11215TIP3    H133602   0.998   0.366   4.995
11215TIP3    H233603   1.022   0.461   4.879
11216TIP3   OH233604   0.932   3.518   5.851
11216TIP3    H133605   1.010   3.515   5.906
11216TIP3    H233606   0.891   3.602   5.872
11217TIP3   OH233607   2.004   1.208   3.435
11217TIP3    H133608   2.031   1.121   3.407
11217TIP3    H233609   2.084   1.250   3.465
11218TIP3   OH233610   6.651   5.283   1.140
11218TIP3    H133611   6.732   5.322   1.109
11218TIP3    H233612   6.610   5.246   1.062
11219TIP3   OH233613   4.566   7.753   3.156
11219TIP3    H133614   4.653   7.781   3.127
11219TIP3    H233615   4.575   7.659   3.169
11220TIP3   OH233616   3.048   1.557   1.540
11220TIP3    H133617   3.070   1.538   1.631
11220TIP3    H233618   3.077   1.480   1.492
11221TIP3   OH233619   5.810   7.004   0.957
11221TIP3    H133620   5.866   6.983   1.032
11221TIP3    H233621   5.744   6.935   0.955
11222TIP3   OH233622   6.506   1.333   1.127
11222TIP3    H133623   6.490   1.292   1.043
11222TIP3    H233624   6.598   1.314   1.146
11223TIP3   OH233625   7.106   4.764   2.345
11223TIP3    H133626   7.069   4.822   2.279
11223TIP3    H233627   7.142   4.691   2.295
11224TIP3   OH233628   2.633   0.921   2.513
11224TIP3    H133629   2.654   0.840   2.468
11224TIP3    H233630   2.549   0.903   2.556
11225TIP3   OH233631   1.599   7.305   1.318
11225TIP3    H133632   1.637   7.341   1.398
11225TIP3    H233633   1.670   7.256   1.278
11226TIP3   OH233634   0.124   4.089   3.452
11226TIP3    H133635   0.208   4.058   3.487
11226TIP3    H233636   0.113   4.040   3.370
11227TIP3   OH233637   1.976   2.844   0.786
11227TIP3    H133638   1.940   2.784   0.720
11227TIP3    H233639   1.923   2.924   0.776
11228TIP3   OH233640   7.218   2.420   1.373
11228TIP3    H133641   7.307   2.454   1.386
11228TIP3    H233642   7.166   2.498   1.352
11229TIP3   OH233643   0.310   2.549   3.805
11229TIP3    H133644   0.401   2.575   3.816
11229TIP3    H233645   0.273   2.617   3.748
11230TIP3   OH233646   2.670   4.287   1.799
11230TIP3    H133647   2.639   4.315   1.885
11230TIP3    H233648   2.668   4.367   1.746
11231TIP3   OH233649   1.857   7.032   5.725
11231TIP3    H133650   1.884   7.120   5.750
11231TIP3    H233651   1.769   7.043   5.688
11232TIP3   OH233652   8.287   6.654   5.711
11232TIP3    H133653   8.252   6.732   5.668
11232TIP3    H233654   8.382   6.661   5.701
11233TIP3   OH233655   4.015   6.786   0.216
11233TIP3    H133656   4.025   6.766   0.309
11233TIP3    H233657   3.956   6.861   0.214
11234TIP3   OH233658   6.205   5.447   2.199
11234TIP3    H133659   6.138   5.423   2.136
11234TIP3    H233660   6.282   5.467   2.146
11235TIP3   OH233661   1.157   2.168   1.403
11235TIP3    H133662   1.242   2.126   1.419
11235TIP3    H233663   1.106   2.149   1.482
11236TIP3   OH233664   5.660   6.655   5.482
11236TIP3    H133665   5.681   6.748   5.470
11236TIP3    H233666   5.723   6.625   5.548
11237TIP3   OH233667   5.378   0.228   5.010
11237TIP3    H133668   5.328   0.289   4.955
11237TIP3    H233669   5.330   0.225   5.093
11238TIP3   OH233670   2.635   6.935   1.950
11238TIP3    H133671   2.664   6.929   2.041
11238TIP3    H233672   2.630   6.844   1.921
11239TIP3   OH233673   6.918   2.163   0.123
11239TIP3    H133674   6.869   2.199   0.197
11239TIP3    H233675   7.003   2.139   0.159
11240TIP3   OH233676   1.824   2.021   3.522
11240TIP3    H133677   1.793   2.112   3.525
11240TIP3    H233678   1.769   1.975   3.586
11241TIP3   OH233679   0.131   5.157   2.982
11241TIP3    H133680   0.094   5.069   2.992
11241TIP3    H233681   0.055   5.215   2.983
11242TIP3   OH233682   6.782   0.194   5.767
11242TIP3    H133683   6.758   0.274   5.720
11242TIP3    H233684   6.752   0.123   5.711
11243TIP3   OH233685   1.559   3.005   2.090
11243TIP3    H133686   1.583   3.031   2.179
11243TIP3    H233687   1.621   3.052   2.034
11244TIP3   OH233688   1.990   4.130   0.122
11244TIP3    H133689   2.024   4.208   0.079
11244TIP3    H233690   2.056   4.062   0.106
11245TIP3   OH233691   5.131   2.301   2.628
11245TIP3    H133692   5.072   2.310   2.554
11245TIP3    H233693   5.152   2.391   2.653
11246TIP3   OH233694   5.005   0.870   6.018
11246TIP3    H133695   4.949   0.923   6.074
11246TIP3    H233696   5.064   0.933   5.977
11247TIP3   OH233697   5.660   0.044   1.726
11247TIP3    H133698   5.600   0.116   1.706
11247TIP3    H233699   5.725   0.047   1.656
11248TIP3   OH233700   4.827   3.903   0.161
11248TIP3    H133701   4.793   3.872   0.076
11248TIP3    H233702   4.814   3.829   0.220
11249TIP3   OH233703   5.011   3.921   3.791
11249TIP3    H133704   5.059   3.993   3.751
11249TIP3    H233705   4.933   3.962   3.829
11250TIP3   OH233706   6.016   5.610   6.162
11250TIP3    H133707   6.071   5.682   6.192
11250TIP3    H233708   6.066   5.531   6.185
11251TIP3   OH233709   4.777   0.020   4.027
11251TIP3    H133710   4.821  -0.033   4.094
11251TIP3    H233711   4.847   0.070   3.986
11252TIP3   OH233712   5.262   5.076   4.947
11252TIP3    H133713   5.173   5.042   4.937
11252TIP3    H233714   5.311   5.004   4.988
11253TIP3   OH233715   4.593   4.388   1.716
11253TIP3    H133716   4.510   4.392   1.667
11253TIP3    H233717   4.660   4.404   1.649
11254TIP3   OH233718   4.154   1.755   0.321
11254TIP3    H133719   4.165   1.667   0.287
11254TIP3    H233720   4.219   1.762   0.391
11255TIP3   OH233721   0.495   4.513   1.218
11255TIP3    H133722   0.436   4.450   1.259
11255TIP3    H233723   0.500   4.485   1.127
11256TIP3   OH233724   3.756   3.492   6.353
11256TIP3    H133725   3.664   3.489   6.380
11256TIP3    H233726   3.778   3.586   6.354
11257TIP3   OH233727   2.385   4.491   4.670
11257TIP3    H133728   2.343   4.474   4.586
11257TIP3    H233729   2.347   4.573   4.700
11258TIP3   OH233730   2.723   3.916   4.457
11258TIP3    H133731   2.685   3.833   4.428
11258TIP3    H233732   2.672   3.983   4.412
11259TIP3   OH233733   6.306   1.959   3.115
11259TIP3    H133734   6.233   2.011   3.148
11259TIP3    H233735   6.271   1.914   3.038
11260TIP3   OH233736   1.341   4.305   3.808
11260TIP3    H133737   1.318   4.254   3.885
11260TIP3    H233738   1.366   4.240   3.742
11261TIP3   OH233739   2.892   6.263   0.159
11261TIP3    H133740   2.961   6.284   0.222
11261TIP3    H233741   2.915   6.313   0.081
11262TIP3   OH233742   7.961   3.034   0.264
11262TIP3    H133743   7.908   3.108   0.238
11262TIP3    H233744   7.913   2.993   0.337
11263TIP3   OH233745   0.684   2.849   5.159
11263TIP3    H133746   0.682   2.753   5.162
11263TIP3    H233747   0.597   2.874   5.131
11264TIP3   OH233748   2.751   0.066   1.456
11264TIP3    H133749   2.773   0.084   1.365
11264TIP3    H233750   2.766   0.149   1.501
11265TIP3   OH233751   0.499   3.622   6.525
11265TIP3    H133752   0.453   3.572   6.593
11265TIP3    H233753   0.526   3.557   6.460
11266TIP3   OH233754   7.927   4.447   6.749
11266TIP3    H133755   7.990   4.380   6.724
11266TIP3    H233756   7.971   4.497   6.818
11267TIP3   OH233757   1.755   3.042   6.449
11267TIP3    H133758   1.826   3.014   6.506
11267TIP3    H233759   1.753   2.976   6.379
11268TIP3   OH233760   2.804   2.101   6.009
11268TIP3    H133761   2.710   2.090   6.027
11268TIP3    H233762   2.808   2.115   5.914
11269TIP3   OH233763   6.553   2.798   0.502
11269TIP3    H133764   6.648   2.799   0.508
11269TIP3    H233765   6.523   2.795   0.593
11270TIP3   OH233766   3.669   5.392   3.562
11270TIP3    H133767   3.611   5.317   3.575
11270TIP3    H233768   3.611   5.461   3.529
11271TIP3   OH233769   4.290   1.662   3.929
11271TIP3    H133770   4.217   1.600   3.934
11271TIP3    H233771   4.255   1.738   3.883
11272TIP3   OH233772   7.155   2.272   3.353
11272TIP3    H133773   7.175   2.216   3.278
11272TIP3    H233774   7.059   2.282   3.351
11273TIP3   OH233775   5.494   1.817   5.176
11273TIP3    H133776   5.587   1.814   5.197
11273TIP3    H233777   5.483   1.895   5.122
11274TIP3   OH233778   6.178   4.049   3.816
11274TIP3    H133779   6.254   4.018   3.866
11274TIP3    H233780   6.189   4.144   3.811
11275TIP3   OH233781   7.312   4.738   1.839
11275TIP3    H133782   7.386   4.799   1.837
11275TIP3    H233783   7.235   4.794   1.849
11276TIP3   OH233784   2.903   2.836   2.238
11276TIP3    H133785   2.911   2.930   2.224
11276TIP3    H233786   2.896   2.826   2.333
11277TIP3   OH233787   0.271   7.708   2.478
11277TIP3    H133788   0.326   7.637   2.446
11277TIP3    H233789   0.321   7.788   2.459
11278TIP3   OH233790   1.234   2.556   1.985
11278TIP3    H133791   1.249   2.609   1.907
11278TIP3    H233792   1.209   2.619   2.053
11279TIP3   OH233793   3.977   0.020   3.139
11279TIP3    H133794   3.893   0.035   3.098
11279TIP3    H233795   4.042   0.044   3.073
11280TIP3   OH233796   7.674   5.169   5.419
11280TIP3    H133797   7.736   5.180   5.347
11280TIP3    H233798   7.591   5.202   5.384
11281TIP3   OH233799   7.913   5.319   1.043
11281TIP3    H133800   7.925   5.385   0.975
11281TIP3    H233801   7.821   5.327   1.069
11282TIP3   OH233802   2.073   5.355   4.734
11282TIP3    H133803   2.036   5.298   4.666
11282TIP3    H233804   2.014   5.345   4.809
11283TIP3   OH233805   6.371   4.706   4.115
11283TIP3    H133806   6.309   4.685   4.045
11283TIP3    H233807   6.402   4.621   4.146
11284TIP3   OH233808   3.807   2.982   3.018
11284TIP3    H133809   3.811   2.915   2.950
11284TIP3    H233810   3.885   2.965   3.072
11285TIP3   OH233811   8.095   7.187   6.448
11285TIP3    H133812   8.055   7.245   6.384
11285TIP3    H233813   8.151   7.129   6.396
11286TIP3   OH233814   1.462   7.386   3.105
11286TIP3    H133815   1.383   7.435   3.081
11286TIP3    H233816   1.464   7.390   3.201
11287TIP3   OH233817   5.338   1.213   6.098
11287TIP3    H133818   5.427   1.215   6.132
11287TIP3    H233819   5.296   1.289   6.138
11288TIP3   OH233820   6.982   7.342   4.797
11288TIP3    H133821   7.002   7.434   4.809
11288TIP3    H233822   6.899   7.341   4.750
11289TIP3   OH233823   1.470   5.269   3.403
11289TIP3    H133824   1.513   5.302   3.324
11289TIP3    H233825   1.483   5.339   3.468
11290TIP3   OH233826   0.274   0.220   2.862
11290TIP3    H133827   0.368   0.238   2.851
11290TIP3    H233828   0.232   0.269   2.791
11291TIP3   OH233829   4.348   3.716   3.209
11291TIP3    H133830   4.331   3.810   3.218
11291TIP3    H233831   4.423   3.700   3.266
11292TIP3   OH233832   4.607   2.566   2.976
11292TIP3    H133833   4.590   2.650   3.019
11292TIP3    H233834   4.646   2.590   2.892
11293TIP3   OH233835   7.860  -0.024   4.413
11293TIP3    H133836   7.787  -0.001   4.470
11293TIP3    H233837   7.934   0.027   4.446
11294TIP3   OH233838   4.963   2.255   4.560
11294TIP3    H133839   5.057   2.267   4.547
11294TIP3    H233840   4.922   2.310   4.493
11295TIP3   OH233841   7.250   7.524   0.520
11295TIP3    H133842   7.301   7.604   0.527
11295TIP3    H233843   7.275   7.472   0.596
11296TIP3   OH233844   1.419   6.644   6.589
11296TIP3    H133845   1.471   6.667   6.512
11296TIP3    H233846   1.423   6.549   6.594
11297TIP3   OH233847   7.683   1.682   5.673
11297TIP3    H133848   7.679   1.693   5.768
11297TIP3    H233849   7.739   1.605   5.660
11298TIP3   OH233850   3.694   1.922   0.846
11298TIP3    H133851   3.627   1.854   0.858
11298TIP3    H233852   3.645   2.004   0.844
11299TIP3   OH233853   4.379   5.975   2.454
11299TIP3    H133854   4.350   6.037   2.520
11299TIP3    H233855   4.300   5.926   2.430
11300TIP3   OH233856   7.886   7.424   0.299
11300TIP3    H133857   7.936   7.504   0.284
11300TIP3    H233858   7.952   7.356   0.311
11301TIP3   OH233859   5.212   7.274   5.550
11301TIP3    H133860   5.285   7.315   5.597
11301TIP3    H233861   5.178   7.209   5.611
11302TIP3   OH233862   5.886   5.860   3.330
11302TIP3    H133863   5.938   5.834   3.255
11302TIP3    H233864   5.831   5.932   3.298
11303TIP3   OH233865   4.550   2.591   0.619
11303TIP3    H133866   4.535   2.508   0.574
11303TIP3    H233867   4.498   2.655   0.570
11304TIP3   OH233868   2.322   5.817   0.190
11304TIP3    H133869   2.338   5.741   0.133
11304TIP3    H233870   2.377   5.801   0.267
11305TIP3   OH233871   7.526   6.363   1.172
11305TIP3    H133872   7.434   6.391   1.180
11305TIP3    H233873   7.570   6.438   1.132
11306TIP3   OH233874   4.529   6.719   6.052
11306TIP3    H133875   4.553   6.802   6.012
11306TIP3    H233876   4.490   6.743   6.136
11307TIP3   OH233877   3.146   1.635   5.878
11307TIP3    H133878   3.150   1.656   5.971
11307TIP3    H233879   3.230   1.593   5.860
11308TIP3   OH233880   3.837   7.366   5.260
11308TIP3    H133881   3.806   7.455   5.248
11308TIP3    H233882   3.758   7.315   5.276
11309TIP3   OH233883   1.840   2.915   2.192
11309TIP3    H133884   1.848   3.005   2.160
11309TIP3    H233885   1.759   2.882   2.154
11310TIP3   OH233886   3.042   6.062   5.499
11310TIP3    H133887   3.002   6.099   5.420
11310TIP3    H233888   2.970   6.057   5.562
11311TIP3   OH233889   3.941   1.835   0.162
11311TIP3    H133890   3.858   1.868   0.196
11311TIP3    H233891   3.984   1.795   0.238
11312TIP3   OH233892   4.316   3.107   4.562
11312TIP3    H133893   4.291   3.129   4.472
11312TIP3    H233894   4.242   3.135   4.616
11313TIP3   OH233895   2.439   2.191   5.593
11313TIP3    H133896   2.456   2.187   5.687
11313TIP3    H233897   2.383   2.116   5.575
11314TIP3   OH233898   1.388   7.010   6.302
11314TIP3    H133899   1.405   7.093   6.257
11314TIP3    H233900   1.443   7.014   6.381
11315TIP3   OH233901   7.849   1.770   4.987
11315TIP3    H133902   7.853   1.732   5.075
11315TIP3    H233903   7.869   1.697   4.928
11316TIP3   OH233904   7.675   7.526   2.327
11316TIP3    H133905   7.672   7.470   2.250
11316TIP3    H233906   7.754   7.498   2.373
11317TIP3   OH233907   7.104   2.369   4.992
11317TIP3    H133908   7.092   2.461   5.016
11317TIP3    H233909   7.032   2.351   4.931
11318TIP3   OH233910   1.262   4.556   0.172
11318TIP3    H133911   1.300   4.608   0.244
11318TIP3    H233912   1.201   4.616   0.129
11319TIP3   OH233913   6.695   3.484   5.043
11319TIP3    H133914   6.637   3.533   5.100
11319TIP3    H233915   6.719   3.546   4.974
11320TIP3   OH233916   3.411   5.581   0.531
11320TIP3    H133917   3.379   5.588   0.621
11320TIP3    H233918   3.404   5.670   0.496
11321TIP3   OH233919   7.203   7.476   6.497
11321TIP3    H133920   7.166   7.393   6.466
11321TIP3    H233921   7.128   7.536   6.496
11322TIP3   OH233922   0.027   3.457   0.537
11322TIP3    H133923  -0.064   3.460   0.568
11322TIP3    H233924   0.042   3.544   0.500
11323TIP3   OH233925   1.020   0.587   3.869
11323TIP3    H133926   1.011   0.597   3.774
11323TIP3    H233927   1.052   0.671   3.900
11324TIP3   OH233928   4.456   1.987   4.365
11324TIP3    H133929   4.450   2.077   4.397
11324TIP3    H233930   4.435   1.993   4.272
11325TIP3   OH233931   0.176   2.223   2.816
11325TIP3    H133932   0.097   2.276   2.807
11325TIP3    H233933   0.189   2.185   2.729
11326TIP3   OH233934   1.438   1.971   2.695
11326TIP3    H133935   1.476   2.038   2.752
11326TIP3    H233936   1.458   1.889   2.740
11327TIP3   OH233937   2.512   1.671   1.307
11327TIP3    H133938   2.459   1.686   1.385
11327TIP3    H233939   2.519   1.575   1.302
11328TIP3   OH233940   6.234   3.522   0.755
11328TIP3    H133941   6.149   3.523   0.711
11328TIP3    H233942   6.217   3.480   0.839
11329TIP3   OH233943   5.199   6.907   1.417
11329TIP3    H133944   5.218   6.838   1.353
11329TIP3    H233945   5.203   6.862   1.501
11330TIP3   OH233946   8.057   4.329   1.023
11330TIP3    H133947   8.123   4.399   1.022
11330TIP3    H233948   8.064   4.289   0.937
11331TIP3   OH233949   3.810   2.416   1.344
11331TIP3    H133950   3.888   2.470   1.331
11331TIP3    H233951   3.841   2.326   1.330
11332TIP3   OH233952   6.037   0.534   0.174
11332TIP3    H133953   6.098   0.469   0.207
11332TIP3    H233954   6.075   0.562   0.090
11333TIP3   OH233955   1.454   0.643   1.480
11333TIP3    H133956   1.451   0.553   1.447
11333TIP3    H233957   1.412   0.695   1.412
11334TIP3   OH233958   3.310   1.197   4.409
11334TIP3    H133959   3.245   1.187   4.340
11334TIP3    H233960   3.379   1.251   4.370
11335TIP3   OH233961   0.701   0.744   1.012
11335TIP3    H133962   0.699   0.653   0.984
11335TIP3    H233963   0.700   0.741   1.108
11336TIP3   OH233964   2.131   3.575   2.389
11336TIP3    H133965   2.058   3.533   2.344
11336TIP3    H233966   2.147   3.521   2.466
11337TIP3   OH233967   3.181   1.977   5.606
11337TIP3    H133968   3.191   2.072   5.611
11337TIP3    H233969   3.234   1.943   5.677
11338TIP3   OH233970   3.869   6.250   5.385
11338TIP3    H133971   3.857   6.196   5.307
11338TIP3    H233972   3.799   6.315   5.380
11339TIP3   OH233973   0.508   5.768   3.415
11339TIP3    H133974   0.578   5.707   3.440
11339TIP3    H233975   0.473   5.732   3.334
11340TIP3   OH233976   7.786   2.147   1.984
11340TIP3    H133977   7.702   2.149   1.938
11340TIP3    H233978   7.780   2.071   2.041
11341TIP3   OH233979   4.021   3.471   3.793
11341TIP3    H133980   4.105   3.442   3.828
11341TIP3    H233981   3.962   3.397   3.806
11342TIP3   OH233982   0.705   6.563   3.692
11342TIP3    H133983   0.777   6.539   3.634
11342TIP3    H233984   0.628   6.562   3.635
11343TIP3   OH233985   0.642   7.509   1.657
11343TIP3    H133986   0.580   7.500   1.584
11343TIP3    H233987   0.684   7.424   1.664
11344TIP3   OH233988   3.758   3.883   4.045
11344TIP3    H133989   3.723   3.900   4.133
11344TIP3    H233990   3.823   3.952   4.032
11345TIP3   OH233991   8.014   1.990   4.342
11345TIP3    H133992   8.046   2.060   4.398
11345TIP3    H233993   8.089   1.965   4.289
11346TIP3   OH233994   7.985   5.041   5.633
11346TIP3    H133995   8.024   4.965   5.677
11346TIP3    H233996   8.056   5.076   5.579
11347TIP3   OH233997   4.942   5.527   1.130
11347TIP3    H133998   4.914   5.462   1.065
11347TIP3    H233999   4.860   5.563   1.165
11348TIP3   OH234000   2.075   2.600   5.690
11348TIP3    H134001   2.113   2.554   5.615
11348TIP3    H234002   1.982   2.608   5.670
11349TIP3   OH234003   5.333   2.524   5.186
11349TIP3    H134004   5.264   2.474   5.144
11349TIP3    H234005   5.296   2.549   5.271
11350TIP3   OH234006   6.857   4.677   2.906
11350TIP3    H134007   6.869   4.586   2.881
11350TIP3    H234008   6.944   4.716   2.899
11351TIP3   OH234009   3.071   6.916   3.629
11351TIP3    H134010   2.978   6.895   3.619
11351TIP3    H234011   3.106   6.843   3.681
11352TIP3   OH234012   0.258   0.920   3.041
11352TIP3    H134013   0.352   0.905   3.039
11352TIP3    H234014   0.248   1.014   3.056
11353TIP3   OH234015   7.057   2.362   3.668
11353TIP3    H134016   6.990   2.349   3.600
11353TIP3    H234017   7.140   2.344   3.623
11354TIP3   OH234018   3.692   0.135   3.484
11354TIP3    H134019   3.632   0.116   3.555
11354TIP3    H234020   3.724   0.224   3.503
11355TIP3   OH234021   3.403   6.555   3.140
11355TIP3    H134022   3.380   6.645   3.114
11355TIP3    H234023   3.368   6.546   3.228
11356TIP3   OH234024   0.017   3.448   1.913
11356TIP3    H134025   0.028   3.529   1.863
11356TIP3    H234026  -0.020   3.477   1.996
11357TIP3   OH234027   7.124   5.419   2.315
11357TIP3    H134028   7.112   5.488   2.250
11357TIP3    H234029   7.037   5.381   2.325
11358TIP3   OH234030   0.256   5.406   4.468
11358TIP3    H134031   0.210   5.374   4.546
11358TIP3    H234032   0.239   5.500   4.467
11359TIP3   OH234033   4.596   6.103   0.107
11359TIP3    H134034   4.623   6.145   0.190
11359TIP3    H234035   4.564   6.176   0.053
11360TIP3   OH234036   7.301   5.274   1.693
11360TIP3    H134037   7.383   5.247   1.653
11360TIP3    H234038   7.234   5.252   1.629
11361TIP3   OH234039   4.459   0.249   1.079
11361TIP3    H134040   4.531   0.299   1.118
11361TIP3    H234041   4.402   0.228   1.153
11362TIP3   OH234042   2.334   2.055   4.635
11362TIP3    H134043   2.383   1.977   4.664
11362TIP3    H234044   2.313   2.101   4.716
11363TIP3   OH234045   0.399   0.891   0.030
11363TIP3    H134046   0.327   0.859   0.084
11363TIP3    H234047   0.470   0.910   0.092
11364TIP3   OH234048   0.655   3.793   6.129
11364TIP3    H134049   0.674   3.734   6.202
11364TIP3    H234050   0.595   3.743   6.074
11365TIP3   OH234051   6.331   7.690   5.082
11365TIP3    H134052   6.404   7.636   5.110
11365TIP3    H234053   6.273   7.630   5.035
11366TIP3   OH234054   6.902   2.815   5.022
11366TIP3    H134055   6.942   2.863   5.094
11366TIP3    H234056   6.859   2.740   5.063
11367TIP3   OH234057   8.067   6.331   2.970
11367TIP3    H134058   8.135   6.398   2.961
11367TIP3    H234059   8.112   6.248   2.955
11368TIP3   OH234060   4.901   1.667   4.357
11368TIP3    H134061   4.920   1.729   4.428
11368TIP3    H234062   4.815   1.693   4.324
11369TIP3   OH234063   4.023   4.101   1.253
11369TIP3    H134064   3.932   4.103   1.285
11369TIP3    H234065   4.076   4.120   1.330
11370TIP3   OH234066   1.629   3.648   6.134
11370TIP3    H134067   1.550   3.697   6.111
11370TIP3    H234068   1.641   3.662   6.228
11371TIP3   OH234069   3.597   5.371   4.587
11371TIP3    H134070   3.505   5.354   4.610
11371TIP3    H234071   3.604   5.339   4.497
11372TIP3   OH234072   6.851   4.975   5.505
11372TIP3    H134073   6.863   4.904   5.442
11372TIP3    H234074   6.769   5.017   5.479
11373TIP3   OH234075   7.207   0.061   5.122
11373TIP3    H134076   7.268  -0.006   5.152
11373TIP3    H234077   7.157   0.019   5.052
11374TIP3   OH234078   2.154   0.050   2.675
11374TIP3    H134079   2.124   0.130   2.633
11374TIP3    H234080   2.172   0.076   2.765
11375TIP3   OH234081   3.424   1.217   5.584
11375TIP3    H134082   3.435   1.124   5.565
11375TIP3    H234083   3.342   1.222   5.632
11376TIP3   OH234084   3.987   5.159   0.590
11376TIP3    H134085   4.028   5.200   0.666
11376TIP3    H234086   4.057   5.110   0.548
11377TIP3   OH234087   3.692   3.618   2.661
11377TIP3    H134088   3.714   3.686   2.725
11377TIP3    H234089   3.738   3.645   2.581
11378TIP3   OH234090   8.269   6.710   1.988
11378TIP3    H134091   8.293   6.679   1.901
11378TIP3    H234092   8.187   6.757   1.975
11379TIP3   OH234093   4.199   6.556   1.041
11379TIP3    H134094   4.248   6.523   1.117
11379TIP3    H234095   4.226   6.498   0.969
11380TIP3   OH234096   6.506   6.089   0.891
11380TIP3    H134097   6.595   6.054   0.882
11380TIP3    H234098   6.497   6.105   0.985
11381TIP3   OH234099   1.929   3.544   0.086
11381TIP3    H134100   1.928   3.448   0.080
11381TIP3    H234101   1.848   3.571   0.044
11382TIP3   OH234102   1.682   3.348   4.486
11382TIP3    H134103   1.688   3.390   4.572
11382TIP3    H234104   1.590   3.359   4.461
11383TIP3   OH234105   3.003   5.475   4.842
11383TIP3    H134106   3.009   5.406   4.908
11383TIP3    H234107   2.932   5.531   4.873
11384TIP3   OH234108   2.343   6.832   5.626
11384TIP3    H134109   2.345   6.809   5.533
11384TIP3    H234110   2.253   6.860   5.642
11385TIP3   OH234111   5.251   0.212   2.117
11385TIP3    H134112   5.327   0.165   2.152
11385TIP3    H234113   5.199   0.144   2.074
11386TIP3   OH234114   5.120   6.535   1.842
11386TIP3    H134115   5.193   6.597   1.848
11386TIP3    H234116   5.045   6.589   1.818
11387TIP3   OH234117   1.674   2.241   3.143
11387TIP3    H134118   1.632   2.219   3.227
11387TIP3    H234119   1.673   2.336   3.140
11388TIP3   OH234120   4.586   2.822   6.777
11388TIP3    H134121   4.648   2.873   6.725
11388TIP3    H234122   4.610   2.731   6.761
11389TIP3   OH234123   4.840   0.858   2.744
11389TIP3    H134124   4.890   0.900   2.813
11389TIP3    H234125   4.853   0.913   2.667
11390TIP3   OH234126   1.744   0.875   0.780
11390TIP3    H134127   1.668   0.820   0.762
11390TIP3    H234128   1.733   0.902   0.871
11391TIP3   OH234129   0.965   0.829   4.115
11391TIP3    H134130   1.021   0.768   4.164
11391TIP3    H234131   0.946   0.899   4.178
11392TIP3   OH234132   4.514   7.790   1.606
11392TIP3    H134133   4.604   7.763   1.625
11392TIP3    H234134   4.483   7.830   1.687
11393TIP3   OH234135   1.459   3.929   5.881
11393TIP3    H134136   1.526   3.997   5.875
11393TIP3    H234137   1.483   3.866   5.813
11394TIP3   OH234138   0.694   2.511   3.376
11394TIP3    H134139   0.656   2.590   3.338
11394TIP3    H234140   0.671   2.515   3.469
11395TIP3   OH234141   0.795   2.858   6.068
11395TIP3    H134142   0.819   2.899   5.985
11395TIP3    H234143   0.811   2.765   6.054
11396TIP3   OH234144   4.320   0.411   4.719
11396TIP3    H134145   4.405   0.388   4.681
11396TIP3    H234146   4.298   0.337   4.775
11397TIP3   OH234147   5.014   6.558   6.435
11397TIP3    H134148   4.976   6.544   6.522
11397TIP3    H234149   4.995   6.650   6.415
11398TIP3   OH234150   2.047   6.042   1.387
11398TIP3    H134151   1.984   6.105   1.421
11398TIP3    H234152   2.041   6.051   1.291
11399TIP3   OH234153   4.341   6.863   5.463
11399TIP3    H134154   4.302   6.820   5.539
11399TIP3    H234155   4.348   6.794   5.397
11400TIP3   OH234156   5.159   0.544   2.773
11400TIP3    H134157   5.136   0.456   2.743
11400TIP3    H234158   5.220   0.531   2.845
11401TIP3   OH234159   0.658   0.508   3.475
11401TIP3    H134160   0.638   0.602   3.468
11401TIP3    H234161   0.616   0.481   3.557
11402TIP3   OH234162   7.975   7.471   0.759
11402TIP3    H134163   8.011   7.559   0.757
11402TIP3    H234164   7.943   7.460   0.849
11403TIP3   OH234165   5.070   7.261   1.005
11403TIP3    H134166   5.064   7.240   0.912
11403TIP3    H234167   5.107   7.183   1.045
11404TIP3   OH234168   6.611   0.835   6.402
11404TIP3    H134169   6.604   0.926   6.430
11404TIP3    H234170   6.530   0.794   6.434
11405TIP3   OH234171   0.720   0.522   0.376
11405TIP3    H134172   0.743   0.609   0.344
11405TIP3    H234173   0.642   0.498   0.324
11406TIP3   OH234174   8.110   0.485   1.696
11406TIP3    H134175   8.112   0.411   1.636
11406TIP3    H234176   8.073   0.450   1.777
11407TIP3   OH234177   4.076   1.229   1.891
11407TIP3    H134178   4.003   1.218   1.952
11407TIP3    H234179   4.048   1.299   1.832
11408TIP3   OH234180   5.891   3.323   0.987
11408TIP3    H134181   5.877   3.230   0.969
11408TIP3    H234182   5.871   3.332   1.080
11409TIP3   OH234183   4.397   4.611   5.703
11409TIP3    H134184   4.467   4.597   5.640
11409TIP3    H234185   4.346   4.530   5.702
11410TIP3   OH234186   3.600   1.661   4.055
11410TIP3    H134187   3.620   1.674   4.147
11410TIP3    H234188   3.638   1.737   4.011
11411TIP3   OH234189   3.886   6.985   1.277
11411TIP3    H134190   3.880   6.891   1.262
11411TIP3    H234191   3.954   6.995   1.343
11412TIP3   OH234192   4.137   2.823   0.410
11412TIP3    H134193   4.092   2.785   0.335
11412TIP3    H234194   4.096   2.908   0.422
11413TIP3   OH234195   4.419   0.667   1.176
11413TIP3    H134196   4.351   0.684   1.241
11413TIP3    H234197   4.372   0.664   1.092
11414TIP3   OH234198   7.957   6.311   6.079
11414TIP3    H134199   7.954   6.238   6.140
11414TIP3    H234200   7.962   6.389   6.134
11415TIP3   OH234201   6.430   3.350   0.966
11415TIP3    H134202   6.401   3.333   0.876
11415TIP3    H234203   6.351   3.380   1.011
11416TIP3   OH234204   0.375   1.945   3.418
11416TIP3    H134205   0.346   2.032   3.394
11416TIP3    H234206   0.308   1.913   3.479
11417TIP3   OH234207   2.790   6.145   4.389
11417TIP3    H134208   2.799   6.097   4.307
11417TIP3    H234209   2.740   6.086   4.446
11418TIP3   OH234210   6.980   2.800   0.340
11418TIP3    H134211   7.074   2.785   0.350
11418TIP3    H234212   6.973   2.860   0.266
11419TIP3   OH234213   0.881   2.052   4.679
11419TIP3    H134214   0.948   2.035   4.613
11419TIP3    H234215   0.808   1.996   4.654
11420TIP3   OH234216   0.937   6.216   1.117
11420TIP3    H134217   0.887   6.293   1.089
11420TIP3    H234218   1.017   6.251   1.154
11421TIP3   OH234219   5.742   1.110   2.591
11421TIP3    H134220   5.760   1.023   2.555
11421TIP3    H234221   5.794   1.169   2.536
11422TIP3   OH234222   5.199   0.730   4.585
11422TIP3    H134223   5.280   0.684   4.562
11422TIP3    H234224   5.130   0.678   4.545
11423TIP3   OH234225   7.880   2.121   2.776
11423TIP3    H134226   7.873   2.034   2.737
11423TIP3    H234227   7.812   2.123   2.843
11424TIP3   OH234228   6.832   4.974   6.529
11424TIP3    H134229   6.776   5.017   6.593
11424TIP3    H234230   6.869   4.898   6.575
11425TIP3   OH234231   8.101   2.030   5.404
11425TIP3    H134232   8.190   1.995   5.414
11425TIP3    H234233   8.046   1.952   5.395
11426TIP3   OH234234   7.306   5.547   1.127
11426TIP3    H134235   7.337   5.592   1.205
11426TIP3    H234236   7.361   5.581   1.056
11427TIP3   OH234237   1.850   2.705   1.269
11427TIP3    H134238   1.789   2.777   1.283
11427TIP3    H234239   1.878   2.679   1.357
11428TIP3   OH234240   5.991   1.389   1.751
11428TIP3    H134241   6.073   1.399   1.798
11428TIP3    H234242   6.016   1.383   1.659
11429TIP3   OH234243   4.836   7.356   0.474
11429TIP3    H134244   4.762   7.306   0.509
11429TIP3    H234245   4.863   7.412   0.546
11430TIP3   OH234246   7.433   4.496   3.953
11430TIP3    H134247   7.359   4.466   4.006
11430TIP3    H234248   7.418   4.456   3.867
11431TIP3   OH234249   4.701   0.551   1.645
11431TIP3    H134250   4.786   0.512   1.627
11431TIP3    H234251   4.721   0.641   1.671
11432TIP3   OH234252   3.326   6.667   1.383
11432TIP3    H134253   3.304   6.603   1.315
11432TIP3    H234254   3.353   6.614   1.458
11433TIP3   OH234255   1.502   4.732   0.071
11433TIP3    H134256   1.408   4.743   0.055
11433TIP3    H234257   1.524   4.800   0.135
11434TIP3   OH234258   1.366   5.724   0.416
11434TIP3    H134259   1.319   5.760   0.341
11434TIP3    H234260   1.300   5.717   0.485
11435TIP3   OH234261   0.527   3.401   1.439
11435TIP3    H134262   0.557   3.439   1.356
11435TIP3    H234263   0.432   3.395   1.429
11436TIP3   OH234264   3.167   3.536   6.684
11436TIP3    H134265   3.099   3.548   6.617
11436TIP3    H234266   3.124   3.483   6.752
11437TIP3   OH234267   3.287   6.905   4.615
11437TIP3    H134268   3.264   6.958   4.538
11437TIP3    H234269   3.373   6.870   4.594
11438TIP3   OH234270   6.903   5.419   1.945
11438TIP3    H134271   6.898   5.377   2.031
11438TIP3    H234272   6.888   5.512   1.963
11439TIP3   OH234273   0.249   3.079   2.723
11439TIP3    H134274   0.231   3.008   2.661
11439TIP3    H234275   0.220   3.158   2.678
11440TIP3   OH234276   6.180   2.104   2.710
11440TIP3    H134277   6.227   2.021   2.699
11440TIP3    H234278   6.114   2.103   2.640
11441TIP3   OH234279   4.443   3.243   0.072
11441TIP3    H134280   4.373   3.308   0.067
11441TIP3    H234281   4.511   3.284   0.125
11442TIP3   OH234282   1.442   0.477   5.924
11442TIP3    H134283   1.359   0.448   5.885
11442TIP3    H234284   1.446   0.570   5.904
11443TIP3   OH234285   1.966   6.849   4.326
11443TIP3    H134286   2.049   6.855   4.374
11443TIP3    H234287   1.926   6.768   4.358
11444TIP3   OH234288   5.081   2.439   6.478
11444TIP3    H134289   5.159   2.475   6.435
11444TIP3    H234290   5.097   2.345   6.483
11445TIP3   OH234291   1.040   0.258   0.194
11445TIP3    H134292   0.951   0.222   0.198
11445TIP3    H234293   1.097   0.181   0.194
11446TIP3   OH234294   1.950   1.029   0.100
11446TIP3    H134295   1.909   0.945   0.120
11446TIP3    H234296   1.928   1.085   0.174
11447TIP3   OH234297   6.382   4.900   3.893
11447TIP3    H134298   6.365   4.806   3.889
11447TIP3    H234299   6.475   4.906   3.918
11448TIP3   OH234300   0.421   2.069   0.487
11448TIP3    H134301   0.402   1.998   0.548
11448TIP3    H234302   0.340   2.121   0.484
11449TIP3   OH234303   0.394   0.043   5.706
11449TIP3    H134304   0.395  -0.018   5.780
11449TIP3    H234305   0.479   0.086   5.710
11450TIP3   OH234306   5.947   5.216   3.217
11450TIP3    H134307   5.919   5.175   3.299
11450TIP3    H234308   6.026   5.264   3.240
11451TIP3   OH234309   3.184   0.948   6.350
11451TIP3    H134310   3.135   1.028   6.369
11451TIP3    H234311   3.272   0.967   6.382
11452TIP3   OH234312   4.109   3.153   3.219
11452TIP3    H134313   4.138   3.177   3.131
11452TIP3    H234314   4.035   3.212   3.237
11453TIP3   OH234315   3.881   1.147   0.509
11453TIP3    H134316   3.975   1.156   0.521
11453TIP3    H234317   3.842   1.195   0.582
11454TIP3   OH234318   0.394   6.411   5.183
11454TIP3    H134319   0.445   6.457   5.249
11454TIP3    H234320   0.435   6.436   5.100
11455TIP3   OH234321   6.432   2.067   0.210
11455TIP3    H134322   6.410   1.981   0.174
11455TIP3    H234323   6.437   2.053   0.305
11456TIP3   OH234324   6.927   6.990   4.219
11456TIP3    H134325   6.982   7.057   4.178
11456TIP3    H234326   6.945   6.999   4.313
11457TIP3   OH234327   6.089   3.303   4.237
11457TIP3    H134328   6.001   3.325   4.269
11457TIP3    H234329   6.148   3.356   4.289
11458TIP3   OH234330   0.255   6.761   4.685
11458TIP3    H134331   0.314   6.721   4.620
11458TIP3    H234332   0.243   6.692   4.750
11459TIP3   OH234333   6.886   6.444   6.646
11459TIP3    H134334   6.910   6.535   6.664
11459TIP3    H234335   6.826   6.449   6.572
11460TIP3   OH234336   2.440   4.239   4.155
11460TIP3    H134337   2.357   4.283   4.135
11460TIP3    H234338   2.494   4.253   4.077
11461TIP3   OH234339   4.383   5.553   6.260
11461TIP3    H134340   4.428   5.525   6.180
11461TIP3    H234341   4.304   5.499   6.263
11462TIP3   OH234342   0.517   1.925   2.654
11462TIP3    H134343   0.579   1.984   2.696
11462TIP3    H234344   0.440   1.979   2.636
11463TIP3   OH234345   0.287   6.559   1.452
11463TIP3    H134346   0.300   6.474   1.494
11463TIP3    H234347   0.200   6.554   1.413
11464TIP3   OH234348   3.122   0.363   4.999
11464TIP3    H134349   3.133   0.434   4.937
11464TIP3    H234350   3.212   0.337   5.022
11465TIP3   OH234351   7.255   0.570   6.630
11465TIP3    H134352   7.295   0.653   6.605
11465TIP3    H234353   7.241   0.577   6.725
11466TIP3   OH234354   3.358   2.889   4.059
11466TIP3    H134355   3.353   2.796   4.081
11466TIP3    H234356   3.367   2.934   4.143
11467TIP3   OH234357   5.622   7.793   2.543
11467TIP3    H134358   5.566   7.849   2.597
11467TIP3    H234359   5.573   7.711   2.536
11468TIP3   OH234360   8.038   2.502   3.334
11468TIP3    H134361   7.959   2.549   3.361
11468TIP3    H234362   8.067   2.456   3.412
11469TIP3   OH234363   5.822   5.590   4.672
11469TIP3    H134364   5.878   5.531   4.620
11469TIP3    H234365   5.753   5.617   4.611
11470TIP3   OH234366   3.836   3.900   2.710
11470TIP3    H134367   3.888   3.911   2.630
11470TIP3    H234368   3.761   3.959   2.697
11471TIP3   OH234369   5.008   1.243   1.263
11471TIP3    H134370   4.933   1.201   1.304
11471TIP3    H234371   4.978   1.268   1.176
11472TIP3   OH234372   8.050   1.210   0.776
11472TIP3    H134373   8.017   1.259   0.851
11472TIP3    H234374   8.042   1.270   0.702
11473TIP3   OH234375   8.079   1.683   0.492
11473TIP3    H134376   8.017   1.729   0.435
11473TIP3    H234377   8.063   1.719   0.579
11474TIP3   OH234378   5.663   2.382   3.980
11474TIP3    H134379   5.682   2.445   4.049
11474TIP3    H234380   5.748   2.361   3.943
11475TIP3   OH234381   0.358   2.618   1.136
11475TIP3    H134382   0.334   2.565   1.212
11475TIP3    H234383   0.435   2.668   1.165
11476TIP3   OH234384   0.173   0.989   0.954
11476TIP3    H134385   0.246   0.938   0.988
11476TIP3    H234386   0.211   1.041   0.883
11477TIP3   OH234387   2.821   7.381   2.193
11477TIP3    H134388   2.771   7.438   2.251
11477TIP3    H234389   2.877   7.442   2.143
11478TIP3   OH234390   6.534   1.459   1.761
11478TIP3    H134391   6.543   1.512   1.682
11478TIP3    H234392   6.509   1.522   1.829
11479TIP3   OH234393   4.056   7.093   6.283
11479TIP3    H134394   4.082   7.183   6.265
11479TIP3    H234395   4.127   7.059   6.338
11480TIP3   OH234396   2.712   1.387   0.550
11480TIP3    H134397   2.618   1.374   0.555
11480TIP3    H234398   2.744   1.313   0.497
11481TIP3   OH234399   3.790   2.744   1.490
11481TIP3    H134400   3.777   2.761   1.584
11481TIP3    H234401   3.708   2.772   1.449
11482TIP3   OH234402   2.883   5.198   5.984
11482TIP3    H134403   2.792   5.171   5.981
11482TIP3    H234404   2.916   5.181   5.896
11483TIP3   OH234405   5.783   7.778   5.978
11483TIP3    H134406   5.701   7.766   6.024
11483TIP3    H234407   5.840   7.822   6.041
11484TIP3   OH234408   6.347   6.247   2.491
11484TIP3    H134409   6.309   6.327   2.526
11484TIP3    H234410   6.439   6.250   2.517
11485TIP3   OH234411   5.867   2.242   3.782
11485TIP3    H134412   5.947   2.295   3.785
11485TIP3    H234413   5.896   2.157   3.748
11486TIP3   OH234414   5.009   7.108   0.762
11486TIP3    H134415   4.939   7.066   0.713
11486TIP3    H234416   5.033   7.045   0.829
11487TIP3   OH234417   6.323   6.873   2.721
11487TIP3    H134418   6.380   6.942   2.756
11487TIP3    H234419   6.258   6.920   2.669
11488TIP3   OH234420   1.356   4.246   5.954
11488TIP3    H134421   1.357   4.317   5.890
11488TIP3    H234422   1.272   4.202   5.939
11489TIP3   OH234423   7.873   7.558   4.706
11489TIP3    H134424   7.795   7.502   4.717
11489TIP3    H234425   7.929   7.510   4.646
11490TIP3   OH234426   5.778   2.140   5.255
11490TIP3    H134427   5.715   2.096   5.312
11490TIP3    H234428   5.753   2.112   5.167
11491TIP3   OH234429   4.870   5.712   1.770
11491TIP3    H134430   4.927   5.762   1.711
11491TIP3    H234431   4.787   5.760   1.769
11492TIP3   OH234432   3.845   2.128   4.171
11492TIP3    H134433   3.795   2.070   4.113
11492TIP3    H234434   3.933   2.091   4.173
11493TIP3   OH234435   5.975   2.917   5.116
11493TIP3    H134436   6.065   2.887   5.131
11493TIP3    H234437   5.923   2.836   5.114
11494TIP3   OH234438   2.086   2.977   3.250
11494TIP3    H134439   2.162   3.033   3.239
11494TIP3    H234440   2.052   2.965   3.161
11495TIP3   OH234441   0.424   1.750   0.602
11495TIP3    H134442   0.422   1.744   0.698
11495TIP3    H234443   0.332   1.749   0.576
11496TIP3   OH234444   2.832   5.410   5.405
11496TIP3    H134445   2.887   5.388   5.330
11496TIP3    H234446   2.880   5.374   5.480
11497TIP3   OH234447   7.438   1.084   3.394
11497TIP3    H134448   7.447   1.151   3.326
11497TIP3    H234449   7.525   1.077   3.432
11498TIP3   OH234450   7.352   0.585   2.383
11498TIP3    H134451   7.360   0.510   2.442
11498TIP3    H234452   7.392   0.657   2.432
11499TIP3   OH234453   3.232   5.743   4.681
11499TIP3    H134454   3.280   5.729   4.762
11499TIP3    H234455   3.188   5.659   4.665
11500TIP3   OH234456   4.534   5.469   4.744
11500TIP3    H134457   4.459   5.435   4.695
11500TIP3    H234458   4.510   5.458   4.836
11501TIP3   OH234459   5.128   5.114   6.497
11501TIP3    H134460   5.052   5.102   6.555
11501TIP3    H234461   5.161   5.025   6.482
11502TIP3   OH234462   4.749   6.421   4.668
11502TIP3    H134463   4.655   6.438   4.665
11502TIP3    H234464   4.764   6.360   4.596
11503TIP3   OH234465   5.029   5.504   2.152
11503TIP3    H134466   5.023   5.442   2.080
11503TIP3    H234467   4.988   5.584   2.119
11504TIP3   OH234468   3.587   3.715   3.544
11504TIP3    H134469   3.522   3.771   3.586
11504TIP3    H234470   3.667   3.731   3.594
11505TIP3   OH234471   5.099   0.332   1.534
11505TIP3    H134472   5.139   0.335   1.447
11505TIP3    H234473   5.018   0.383   1.524
11506TIP3   OH234474   8.037   7.835   2.617
11506TIP3    H134475   7.941   7.834   2.613
11506TIP3    H234476   8.064   7.760   2.565
11507TIP3   OH234477   2.506   4.674   4.133
11507TIP3    H134478   2.560   4.631   4.066
11507TIP3    H234479   2.418   4.639   4.119
11508TIP3   OH234480   2.135   3.044   1.895
11508TIP3    H134481   2.129   3.030   1.801
11508TIP3    H234482   2.123   2.957   1.933
11509TIP3   OH234483   4.120   1.192   0.750
11509TIP3    H134484   4.125   1.283   0.719
11509TIP3    H234485   4.138   1.140   0.672
11510TIP3   OH234486   7.971   0.810   2.127
11510TIP3    H134487   7.904   0.858   2.077
11510TIP3    H234488   7.921   0.764   2.195
11511TIP3   OH234489   5.827   4.435   6.038
11511TIP3    H134490   5.830   4.428   6.134
11511TIP3    H234491   5.743   4.477   6.020
11512TIP3   OH234492   5.323   6.604   3.401
11512TIP3    H134493   5.386   6.555   3.349
11512TIP3    H234494   5.370   6.627   3.481
11513TIP3   OH234495   3.465   2.802   6.420
11513TIP3    H134496   3.511   2.719   6.421
11513TIP3    H234497   3.530   2.866   6.447
11514TIP3   OH234498   8.149   3.077   6.056
11514TIP3    H134499   8.113   3.008   6.112
11514TIP3    H234500   8.074   3.109   6.006
11515TIP3   OH234501   3.451   1.167   1.732
11515TIP3    H134502   3.520   1.233   1.739
11515TIP3    H234503   3.384   1.197   1.793
11516TIP3   OH234504   1.175   1.487   5.432
11516TIP3    H134505   1.206   1.436   5.358
11516TIP3    H234506   1.199   1.436   5.509
11517TIP3   OH234507   2.748   0.827   6.563
11517TIP3    H134508   2.813   0.769   6.601
11517TIP3    H234509   2.701   0.773   6.499
11518TIP3   OH234510   7.869   3.740   4.060
11518TIP3    H134511   7.915   3.677   4.115
11518TIP3    H234512   7.937   3.803   4.035
11519TIP3   OH234513   7.590   1.232   2.493
11519TIP3    H134514   7.593   1.152   2.547
11519TIP3    H234515   7.518   1.283   2.528
11520TIP3   OH234516   4.499   3.440   1.165
11520TIP3    H134517   4.426   3.385   1.138
11520TIP3    H234518   4.577   3.388   1.144
11521TIP3   OH234519   0.696   7.162   5.408
11521TIP3    H134520   0.608   7.137   5.437
11521TIP3    H234521   0.747   7.081   5.414
11522TIP3   OH234522   2.164   6.182   1.147
11522TIP3    H134523   2.222   6.258   1.139
11522TIP3    H234524   2.079   6.213   1.116
11523TIP3   OH234525   6.150   5.559   0.196
11523TIP3    H134526   6.147   5.617   0.120
11523TIP3    H234527   6.237   5.520   0.193
11524TIP3   OH234528   6.589   5.358   4.925
11524TIP3    H134529   6.508   5.408   4.934
11524TIP3    H234530   6.648   5.394   4.991
11525TIP3   OH234531   2.148   2.584   0.506
11525TIP3    H134532   2.176   2.541   0.426
11525TIP3    H234533   2.228   2.594   0.558
11526TIP3   OH234534   5.902   2.761   3.142
11526TIP3    H134535   5.880   2.733   3.231
11526TIP3    H234536   5.849   2.704   3.086
11527TIP3   OH234537   0.119   6.958   2.485
11527TIP3    H134538   0.191   6.948   2.422
11527TIP3    H234539   0.073   6.874   2.481
11528TIP3   OH234540   2.464   0.787   3.260
11528TIP3    H134541   2.421   0.773   3.175
11528TIP3    H234542   2.434   0.715   3.315
11529TIP3   OH234543   0.513   3.889   6.402
11529TIP3    H134544   0.510   3.794   6.387
11529TIP3    H234545   0.439   3.923   6.352
11530TIP3   OH234546   6.397   0.457   5.052
11530TIP3    H134547   6.406   0.368   5.086
11530TIP3    H234548   6.308   0.461   5.017
11531TIP3   OH234549   8.221   6.619   6.681
11531TIP3    H134550   8.188   6.709   6.689
11531TIP3    H234551   8.258   6.616   6.593
11532TIP3   OH234552   0.970   5.851   3.172
11532TIP3    H134553   1.036   5.913   3.142
11532TIP3    H234554   0.995   5.831   3.262
11533TIP3   OH234555   7.728   0.430   5.825
11533TIP3    H134556   7.795   0.493   5.851
11533TIP3    H234557   7.766   0.385   5.749
11534TIP3   OH234558   4.961   3.455   5.793
11534TIP3    H134559   4.900   3.415   5.854
11534TIP3    H234560   4.913   3.458   5.710
11535TIP3   OH234561   4.538   3.555   0.907
11535TIP3    H134562   4.575   3.508   0.982
11535TIP3    H234563   4.473   3.614   0.947
11536TIP3   OH234564   0.295   5.008   4.465
11536TIP3    H134565   0.250   4.930   4.432
11536TIP3    H234566   0.358   5.030   4.396
11537TIP3   OH234567   7.174   7.343   3.290
11537TIP3    H134568   7.226   7.381   3.360
11537TIP3    H234569   7.224   7.361   3.210
11538TIP3   OH234570   6.420   1.664   1.966
11538TIP3    H134571   6.441   1.695   2.054
11538TIP3    H234572   6.387   1.742   1.921
11539TIP3   OH234573   6.344   2.474   3.603
11539TIP3    H134574   6.391   2.442   3.679
11539TIP3    H234575   6.269   2.522   3.639
11540TIP3   OH234576   0.405   5.900   0.730
11540TIP3    H134577   0.353   5.978   0.714
11540TIP3    H234578   0.496   5.931   0.736
11541TIP3   OH234579   6.158   0.744   6.237
11541TIP3    H134580   6.137   0.654   6.215
11541TIP3    H234581   6.104   0.797   6.179
11542TIP3   OH234582   2.129   3.381   0.461
11542TIP3    H134583   2.169   3.408   0.379
11542TIP3    H234584   2.170   3.437   0.527
11543TIP3   OH234585   1.813   6.269   0.460
11543TIP3    H134586   1.903   6.280   0.492
11543TIP3    H234587   1.822   6.217   0.380
11544TIP3   OH234588   4.158   0.958   1.009
11544TIP3    H134589   4.250   0.934   1.004
11544TIP3    H234590   4.151   1.014   1.086
11545TIP3   OH234591   1.695   0.765   3.133
11545TIP3    H134592   1.714   0.674   3.109
11545TIP3    H234593   1.605   0.763   3.164
11546TIP3   OH234594   3.111   2.138   6.709
11546TIP3    H134595   3.189   2.153   6.656
11546TIP3    H234596   3.065   2.222   6.708
11547TIP3   OH234597   7.942   5.356   2.103
11547TIP3    H134598   7.969   5.448   2.102
11547TIP3    H234599   8.022   5.307   2.120
11548TIP3   OH234600   5.569   1.411   5.257
11548TIP3    H134601   5.507   1.350   5.218
11548TIP3    H234602   5.587   1.475   5.188
11549TIP3   OH234603   1.272   5.986   4.517
11549TIP3    H134604   1.188   5.987   4.562
11549TIP3    H234605   1.252   6.019   4.429
11550TIP3   OH234606   0.508   0.839   2.605
11550TIP3    H134607   0.547   0.926   2.618
11550TIP3    H234608   0.505   0.828   2.510
11551TIP3   OH234609   6.785   6.558   0.238
11551TIP3    H134610   6.710   6.615   0.223
11551TIP3    H234611   6.826   6.549   0.151
11552TIP3   OH234612   6.628   5.151   0.896
11552TIP3    H134613   6.715   5.124   0.868
11552TIP3    H234614   6.589   5.192   0.819
11553TIP3   OH234615   7.031   3.200   5.794
11553TIP3    H134616   7.008   3.114   5.829
11553TIP3    H234617   7.123   3.212   5.819
11554TIP3   OH234618   5.669   4.083   2.781
11554TIP3    H134619   5.633   4.164   2.817
11554TIP3    H234620   5.713   4.041   2.856
11555TIP3   OH234621   4.579   1.725   2.878
11555TIP3    H134622   4.538   1.742   2.963
11555TIP3    H234623   4.515   1.671   2.831
11556TIP3   OH234624   4.398   3.499   2.548
11556TIP3    H134625   4.490   3.509   2.575
11556TIP3    H234626   4.354   3.467   2.626
11557TIP3   OH234627   4.928   0.600   1.873
11557TIP3    H134628   4.912   0.694   1.862
11557TIP3    H234629   4.984   0.594   1.950
11558TIP3   OH234630   6.409   3.740   2.228
11558TIP3    H134631   6.410   3.831   2.199
11558TIP3    H234632   6.321   3.709   2.207
11559TIP3   OH234633   1.732   4.403   5.745
11559TIP3    H134634   1.734   4.488   5.788
11559TIP3    H234635   1.680   4.347   5.804
11560TIP3   OH234636   5.843   0.724   2.225
11560TIP3    H134637   5.768   0.696   2.278
11560TIP3    H234638   5.804   0.747   2.140
11561TIP3   OH234639   6.042   4.467   2.926
11561TIP3    H134640   5.970   4.521   2.894
11561TIP3    H234641   6.026   4.457   3.019
11562TIP3   OH234642   3.993   0.971   2.971
11562TIP3    H134643   4.055   0.899   2.963
11562TIP3    H234644   4.032   1.029   3.036
11563TIP3   OH234645   6.123   2.298   0.737
11563TIP3    H134646   6.077   2.335   0.662
11563TIP3    H234647   6.189   2.240   0.698
11564TIP3   OH234648   1.991   4.803   1.468
11564TIP3    H134649   2.037   4.846   1.540
11564TIP3    H234650   1.899   4.828   1.480
11565TIP3   OH234651   2.441   0.420   6.539
11565TIP3    H134652   2.360   0.415   6.490
11565TIP3    H234653   2.510   0.399   6.476
11566TIP3   OH234654   1.858   0.239   6.543
11566TIP3    H134655   1.807   0.271   6.618
11566TIP3    H234656   1.911   0.314   6.516
11567TIP3   OH234657   3.542   3.507   6.117
11567TIP3    H134658   3.459   3.462   6.127
11567TIP3    H234659   3.581   3.469   6.038
11568TIP3   OH234660   1.358   3.742   4.209
11568TIP3    H134661   1.295   3.710   4.274
11568TIP3    H234662   1.364   3.671   4.145
11569TIP3   OH234663   6.204   6.796   4.174
11569TIP3    H134664   6.287   6.756   4.200
11569TIP3    H234665   6.157   6.810   4.256
11570TIP3   OH234666   2.322   4.018   3.018
11570TIP3    H134667   2.295   3.926   3.013
11570TIP3    H234668   2.247   4.063   3.058
11571TIP3   OH234669   7.508   1.104   6.450
11571TIP3    H134670   7.533   1.191   6.419
11571TIP3    H234671   7.490   1.055   6.370
11572TIP3   OH234672   0.435   4.141   3.777
11572TIP3    H134673   0.444   4.071   3.842
11572TIP3    H234674   0.396   4.098   3.701
11573TIP3   OH234675   0.745   2.721   2.834
11573TIP3    H134676   0.745   2.695   2.742
11573TIP3    H234677   0.806   2.794   2.838
11574TIP3   OH234678   1.871   7.779   3.774
11574TIP3    H134679   1.915   7.829   3.842
11574TIP3    H234680   1.923   7.794   3.695
11575TIP3   OH234681   7.021   4.176   2.699
11575TIP3    H134682   7.013   4.197   2.606
11575TIP3    H234683   6.930   4.162   2.728
11576TIP3   OH234684   3.814   4.945   5.809
11576TIP3    H134685   3.785   4.870   5.861
11576TIP3    H234686   3.875   4.991   5.866
11577TIP3   OH234687   2.826   5.628   4.972
11577TIP3    H134688   2.733   5.644   4.954
11577TIP3    H234689   2.830   5.616   5.067
11578TIP3   OH234690   0.496   7.248   3.818
11578TIP3    H134691   0.464   7.213   3.735
11578TIP3    H234692   0.517   7.339   3.800
11579TIP3   OH234693   6.408   3.978   2.120
11579TIP3    H134694   6.365   4.058   2.151
11579TIP3    H234695   6.497   4.006   2.100
11580TIP3   OH234696   1.102   2.878   0.228
11580TIP3    H134697   1.153   2.934   0.287
11580TIP3    H234698   1.142   2.792   0.237
11581TIP3   OH234699   2.762   2.841   0.237
11581TIP3    H134700   2.732   2.887   0.316
11581TIP3    H234701   2.691   2.780   0.217
11582TIP3   OH234702   6.197   6.158   0.516
11582TIP3    H134703   6.234   6.194   0.596
11582TIP3    H234704   6.224   6.066   0.516
11583TIP3   OH234705   6.936   4.370   3.282
11583TIP3    H134706   6.993   4.421   3.224
11583TIP3    H234707   6.967   4.390   3.370
11584TIP3   OH234708   3.811   2.195   1.672
11584TIP3    H134709   3.784   2.240   1.751
11584TIP3    H234710   3.734   2.145   1.644
11585TIP3   OH234711   3.819   4.353   2.572
11585TIP3    H134712   3.736   4.397   2.552
11585TIP3    H234713   3.839   4.303   2.492
11586TIP3   OH234714   7.693   7.440   5.015
11586TIP3    H134715   7.687   7.361   5.069
11586TIP3    H234716   7.693   7.512   5.077
11587TIP3   OH234717   6.252   5.747   4.589
11587TIP3    H134718   6.201   5.729   4.668
11587TIP3    H234719   6.195   5.803   4.536
11588TIP3   OH234720   5.468   2.160   1.486
11588TIP3    H134721   5.544   2.104   1.503
11588TIP3    H234722   5.471   2.226   1.555
11589TIP3   OH234723   5.258   7.200   3.166
11589TIP3    H134724   5.333   7.199   3.106
11589TIP3    H234725   5.295   7.227   3.250
11590TIP3   OH234726   4.412   5.192   6.510
11590TIP3    H134727   4.477   5.180   6.441
11590TIP3    H234728   4.428   5.280   6.543
11591TIP3   OH234729   2.006   3.269   3.548
11591TIP3    H134730   2.097   3.237   3.553
11591TIP3    H234731   2.004   3.344   3.607
11592TIP3   OH234732   3.281   7.113   5.860
11592TIP3    H134733   3.357   7.161   5.826
11592TIP3    H234734   3.265   7.045   5.795
11593TIP3   OH234735   4.695   7.392   2.540
11593TIP3    H134736   4.752   7.394   2.463
11593TIP3    H234737   4.615   7.351   2.509
11594TIP3   OH234738   1.322   7.526   3.915
11594TIP3    H134739   1.396   7.501   3.859
11594TIP3    H234740   1.350   7.608   3.957
11595TIP3   OH234741   7.405   5.897   1.088
11595TIP3    H134742   7.410   5.910   1.182
11595TIP3    H234743   7.397   5.985   1.051
11596TIP3   OH234744   7.819   7.279   3.315
11596TIP3    H134745   7.810   7.196   3.268
11596TIP3    H234746   7.814   7.255   3.407
11597TIP3   OH234747   2.087   4.672   1.959
11597TIP3    H134748   2.139   4.666   2.039
11597TIP3    H234749   2.149   4.704   1.893
11598TIP3   OH234750   1.650   6.670   5.056
11598TIP3    H134751   1.726   6.618   5.082
11598TIP3    H234752   1.640   6.652   4.963
11599TIP3   OH234753   5.738   5.095   5.518
11599TIP3    H134754   5.748   5.184   5.486
11599TIP3    H234755   5.739   5.104   5.614
11600TIP3   OH234756   7.608   0.541   1.167
11600TIP3    H134757   7.648   0.579   1.245
11600TIP3    H234758   7.521   0.580   1.162
11601TIP3   OH234759   6.054   1.612   2.047
11601TIP3    H134760   6.124   1.672   2.020
11601TIP3    H234761   5.973   1.661   2.031
11602TIP3   OH234762   1.330   5.332   5.414
11602TIP3    H134763   1.245   5.292   5.398
11602TIP3    H234764   1.310   5.423   5.439
11603TIP3   OH234765   5.729   4.544   5.207
11603TIP3    H134766   5.715   4.514   5.296
11603TIP3    H234767   5.760   4.467   5.159
11604TIP3   OH234768   3.171   0.367   0.026
11604TIP3    H134769   3.187   0.352   0.119
11604TIP3    H234770   3.076   0.365   0.017
11605TIP3   OH234771   7.726   1.732   4.353
11605TIP3    H134772   7.804   1.777   4.321
11605TIP3    H234773   7.729   1.646   4.310
11606TIP3   OH234774   7.530   3.858   4.703
11606TIP3    H134775   7.439   3.850   4.730
11606TIP3    H234776   7.550   3.951   4.714
11607TIP3   OH234777   7.846   2.930   6.185
11607TIP3    H134778   7.802   2.998   6.236
11607TIP3    H234779   7.776   2.878   6.148
11608TIP3   OH234780   6.514   3.813   1.223
11608TIP3    H134781   6.443   3.793   1.162
11608TIP3    H234782   6.479   3.790   1.309
11609TIP3   OH234783   3.105   0.101   2.283
11609TIP3    H134784   3.182   0.057   2.248
11609TIP3    H234785   3.133   0.191   2.296
11610TIP3   OH234786   7.522   2.515   0.038
11610TIP3    H134787   7.440   2.465   0.036
11610TIP3    H234788   7.549   2.511   0.130
11611TIP3   OH234789   4.455   0.471   1.740
11611TIP3    H134790   4.404   0.552   1.734
11611TIP3    H234791   4.544   0.496   1.713
11612TIP3   OH234792   0.580   7.524   3.832
11612TIP3    H134793   0.641   7.487   3.896
11612TIP3    H234794   0.635   7.580   3.777
11613TIP3   OH234795   4.620   1.878   3.225
11613TIP3    H134796   4.684   1.880   3.297
11613TIP3    H234797   4.551   1.820   3.256
11614TIP3   OH234798   1.416   5.536   0.712
11614TIP3    H134799   1.360   5.588   0.770
11614TIP3    H234800   1.374   5.449   0.710
11615TIP3   OH234801   4.604   6.730   1.096
11615TIP3    H134802   4.679   6.676   1.070
11615TIP3    H234803   4.580   6.698   1.183
11616TIP3   OH234804   3.797   2.072   2.994
11616TIP3    H134805   3.782   2.005   3.061
11616TIP3    H234806   3.744   2.147   3.023
11617TIP3   OH234807   4.696   5.628   5.840
11617TIP3    H134808   4.787   5.603   5.828
11617TIP3    H234809   4.647   5.566   5.786
11618TIP3   OH234810   6.926   4.085   1.337
11618TIP3    H134811   6.925   4.154   1.403
11618TIP3    H234812   6.982   4.017   1.375
11619TIP3   OH234813   2.733   6.666   4.732
11619TIP3    H134814   2.679   6.674   4.811
11619TIP3    H234815   2.674   6.627   4.667
11620TIP3   OH234816   0.407   5.607   0.729
11620TIP3    H134817   0.405   5.700   0.709
11620TIP3    H234818   0.463   5.600   0.806
11621TIP3   OH234819   5.049   2.054   2.806
11621TIP3    H134820   5.076   2.129   2.753
11621TIP3    H234821   5.100   1.980   2.773
11622TIP3   OH234822   5.553   6.581   2.611
11622TIP3    H134823   5.586   6.515   2.549
11622TIP3    H234824   5.550   6.662   2.561
11623TIP3   OH234825   4.925   7.633   5.391
11623TIP3    H134826   4.994   7.625   5.456
11623TIP3    H234827   4.844   7.634   5.442
11624TIP3   OH234828   4.823   3.055   1.218
11624TIP3    H134829   4.793   3.137   1.258
11624TIP3    H234830   4.742   3.007   1.200
11625TIP3   OH234831   2.387   4.904   2.783
11625TIP3    H134832   2.424   4.982   2.824
11625TIP3    H234833   2.451   4.835   2.799
11626TIP3   OH234834   0.268   1.667   2.154
11626TIP3    H134835   0.287   1.752   2.195
11626TIP3    H234836   0.179   1.677   2.120
11627TIP3   OH234837   4.387   3.420   5.998
11627TIP3    H134838   4.358   3.425   6.089
11627TIP3    H234839   4.436   3.338   5.993
11628TIP3   OH234840   2.672   1.949   3.281
11628TIP3    H134841   2.653   1.862   3.246
11628TIP3    H234842   2.705   1.998   3.206
11629TIP3   OH234843   6.242   1.801   1.017
11629TIP3    H134844   6.315   1.741   1.031
11629TIP3    H234845   6.273   1.884   1.055
11630TIP3   OH234846   1.117   2.926   1.481
11630TIP3    H134847   1.108   2.839   1.444
11630TIP3    H234848   1.034   2.943   1.525
11631TIP3   OH234849   3.115   2.680   4.628
11631TIP3    H134850   3.139   2.621   4.699
11631TIP3    H234851   3.173   2.655   4.555
11632TIP3   OH234852   6.698   3.402   1.023
11632TIP3    H134853   6.694   3.426   1.115
11632TIP3    H234854   6.610   3.371   1.002
11633TIP3   OH234855   1.497   0.085   0.859
11633TIP3    H134856   1.414   0.038   0.864
11633TIP3    H234857   1.482   0.153   0.794
11634TIP3   OH234858   0.475   3.401   1.915
11634TIP3    H134859   0.412   3.453   1.865
11634TIP3    H234860   0.421   3.342   1.968
11635TIP3   OH234861   7.918   6.106   4.621
11635TIP3    H134862   7.899   6.012   4.616
11635TIP3    H234863   7.921   6.135   4.530
11636TIP3   OH234864   4.474   4.597   5.973
11636TIP3    H134865   4.568   4.615   5.979
11636TIP3    H234866   4.454   4.601   5.880
11637TIP3   OH234867   5.868   5.701   6.647
11637TIP3    H134868   5.824   5.624   6.610
11637TIP3    H234869   5.880   5.760   6.573
11638TIP3   OH234870   3.004   1.385   4.938
11638TIP3    H134871   2.931   1.365   4.879
11638TIP3    H234872   2.977   1.352   5.023
11639TIP3   OH234873   7.956   7.644   0.107
11639TIP3    H134874   8.006   7.704   0.162
11639TIP3    H234875   8.018   7.614   0.042
11640TIP3   OH234876   3.472   6.049   1.214
11640TIP3    H134877   3.475   6.028   1.120
11640TIP3    H234878   3.515   5.975   1.256
11641TIP3   OH234879   6.814   2.994   1.671
11641TIP3    H134880   6.901   2.964   1.696
11641TIP3    H234881   6.817   3.089   1.682
11642TIP3   OH234882   1.862   2.143   5.007
11642TIP3    H134883   1.947   2.183   5.028
11642TIP3    H234884   1.805   2.168   5.079
11643TIP3   OH234885   2.039   5.759   2.718
11643TIP3    H134886   1.989   5.827   2.672
11643TIP3    H234887   2.053   5.796   2.806
11644TIP3   OH234888   1.123   5.052   0.971
11644TIP3    H134889   1.061   5.106   0.923
11644TIP3    H234890   1.172   5.114   1.025
11645TIP3   OH234891   7.799   5.231   5.684
11645TIP3    H134892   7.850   5.152   5.700
11645TIP3    H234893   7.766   5.221   5.594
11646TIP3   OH234894   6.238   4.097   1.119
11646TIP3    H134895   6.296   4.098   1.195
11646TIP3    H234896   6.175   4.027   1.137
11647TIP3   OH234897   6.400   6.183   5.816
11647TIP3    H134898   6.316   6.209   5.777
11647TIP3    H234899   6.460   6.253   5.793
11648TIP3   OH234900   7.507   4.436   1.734
11648TIP3    H134901   7.415   4.458   1.717
11648TIP3    H234902   7.503   4.354   1.783
11649TIP3   OH234903   2.733   5.602   0.285
11649TIP3    H134904   2.827   5.618   0.294
11649TIP3    H234905   2.692   5.687   0.302
11650TIP3   OH234906   4.823   5.334   0.119
11650TIP3    H134907   4.749   5.320   0.178
11650TIP3    H234908   4.842   5.247   0.085
11651TIP3   OH234909   2.957   1.514   4.607
11651TIP3    H134910   2.864   1.510   4.586
11651TIP3    H234911   2.991   1.588   4.557
11652TIP3   OH234912   5.039   0.612   0.350
11652TIP3    H134913   5.051   0.675   0.421
11652TIP3    H234914   4.956   0.636   0.310
11653TIP3   OH234915   1.940   0.542   0.463
11653TIP3    H134916   2.003   0.570   0.530
11653TIP3    H234917   1.931   0.618   0.406
11654TIP3   OH234918   0.425   6.609   6.711
11654TIP3    H134919   0.411   6.619   6.617
11654TIP3    H234920   0.338   6.587   6.746
11655TIP3   OH234921   6.181   1.367   4.861
11655TIP3    H134922   6.257   1.394   4.914
11655TIP3    H234923   6.114   1.343   4.925
11656TIP3   OH234924   6.496   0.010   4.811
11656TIP3    H134925   6.404   0.036   4.807
11656TIP3    H234926   6.545   0.093   4.813
11657TIP3   OH234927   4.798   1.900   5.275
11657TIP3    H134928   4.821   1.897   5.368
11657TIP3    H234929   4.823   1.814   5.242
11658TIP3   OH234930   0.442   6.913   4.179
11658TIP3    H134931   0.452   6.891   4.272
11658TIP3    H234932   0.510   6.979   4.164
11659TIP3   OH234933   5.786   0.863   5.912
11659TIP3    H134934   5.777   0.772   5.940
11659TIP3    H234935   5.707   0.906   5.943
11660TIP3   OH234936   2.349   5.748   1.290
11660TIP3    H134937   2.358   5.829   1.239
11660TIP3    H234938   2.264   5.712   1.265
11661TIP3   OH234939   7.330   4.071   0.932
11661TIP3    H134940   7.294   3.983   0.932
11661TIP3    H234941   7.352   4.088   1.023
11662TIP3   OH234942   3.901   7.203   3.723
11662TIP3    H134943   3.912   7.234   3.812
11662TIP3    H234944   3.806   7.199   3.710
11663TIP3   OH234945   2.879   3.143   0.400
11663TIP3    H134946   2.949   3.086   0.430
11663TIP3    H234947   2.911   3.232   0.417
11664TIP3   OH234948   2.565   6.084   2.422
11664TIP3    H134949   2.599   6.102   2.510
11664TIP3    H234950   2.551   6.171   2.384
11665TIP3   OH234951   3.134   0.419   2.294
11665TIP3    H134952   3.219   0.375   2.291
11665TIP3    H234953   3.105   0.407   2.385
11666TIP3   OH234954   2.600   3.687   0.831
11666TIP3    H134955   2.644   3.757   0.878
11666TIP3    H234956   2.515   3.724   0.807
11667TIP3   OH234957   1.226   2.021   4.236
11667TIP3    H134958   1.248   1.996   4.326
11667TIP3    H234959   1.140   2.062   4.242
11668TIP3   OH234960   1.098   6.895   3.818
11668TIP3    H134961   1.104   6.989   3.802
11668TIP3    H234962   1.107   6.855   3.731
11669TIP3   OH234963   7.281   2.778   0.941
11669TIP3    H134964   7.245   2.744   1.023
11669TIP3    H234965   7.237   2.861   0.928
11670TIP3   OH234966   3.613   5.661   4.009
11670TIP3    H134967   3.689   5.636   3.957
11670TIP3    H234968   3.647   5.673   4.098
11671TIP3   OH234969   4.003   2.658   6.038
11671TIP3    H134970   4.016   2.585   6.098
11671TIP3    H234971   4.055   2.729   6.074
11672TIP3   OH234972   4.063   1.487   3.914
11672TIP3    H134973   4.048   1.417   3.850
11672TIP3    H234974   3.977   1.525   3.928
11673TIP3   OH234975   0.872   0.761   4.575
11673TIP3    H134976   0.839   0.850   4.586
11673TIP3    H234977   0.847   0.738   4.485
11674TIP3   OH234978   2.049   2.888   6.410
11674TIP3    H134979   2.143   2.902   6.398
11674TIP3    H234980   2.031   2.919   6.498
11675TIP3   OH234981   0.713   7.068   2.896
11675TIP3    H134982   0.680   7.064   2.985
11675TIP3    H234983   0.687   7.154   2.864
11676TIP3   OH234984   2.059   2.326   6.323
11676TIP3    H134985   1.980   2.274   6.341
11676TIP3    H234986   2.131   2.271   6.354
11677TIP3   OH234987   1.290   1.880   2.097
11677TIP3    H134988   1.294   1.904   2.004
11677TIP3    H234989   1.202   1.904   2.124
11678TIP3   OH234990   1.789   4.102   4.498
11678TIP3    H134991   1.765   4.029   4.554
11678TIP3    H234992   1.884   4.103   4.499
11679TIP3   OH234993   1.807   2.600   5.580
11679TIP3    H134994   1.837   2.524   5.529
11679TIP3    H234995   1.729   2.568   5.625
11680TIP3   OH234996   8.326   4.782   3.848
11680TIP3    H134997   8.367   4.762   3.763
11680TIP3    H234998   8.235   4.801   3.827
11681TIP3   OH234999   3.504   3.776   3.224
11681TIP3    H135000   3.573   3.826   3.180
11681TIP3    H235001   3.540   3.688   3.235
11682TIP3   OH235002   3.577   5.897   6.453
11682TIP3    H135003   3.649   5.913   6.513
11682TIP3    H235004   3.572   5.976   6.399
11683TIP3   OH235005   3.590   7.184   3.707
11683TIP3    H135006   3.532   7.220   3.640
11683TIP3    H235007   3.532   7.136   3.766
11684TIP3   OH235008   5.776   6.373   3.477
11684TIP3    H135009   5.766   6.340   3.388
11684TIP3    H235010   5.870   6.375   3.493
11685TIP3   OH235011   7.722   2.070   0.459
11685TIP3    H135012   7.795   2.121   0.494
11685TIP3    H235013   7.699   2.114   0.377
11686TIP3   OH235014   8.093   4.991   3.194
11686TIP3    H135015   8.118   4.905   3.161
11686TIP3    H235016   8.160   5.012   3.259
11687TIP3   OH235017   6.981   7.723   0.577
11687TIP3    H135018   7.035   7.753   0.651
11687TIP3    H235019   6.970   7.630   0.593
11688TIP3   OH235020   1.558   4.498   2.707
11688TIP3    H135021   1.626   4.445   2.750
11688TIP3    H235022   1.509   4.537   2.780
11689TIP3   OH235023   1.736   6.914   0.656
11689TIP3    H135024   1.788   6.838   0.630
11689TIP3    H235025   1.645   6.882   0.656
11690TIP3   OH235026   3.055   7.224   4.603
11690TIP3    H135027   2.982   7.167   4.630
11690TIP3    H235028   3.102   7.173   4.537
11691TIP3   OH235029   7.700   5.704   2.313
11691TIP3    H135030   7.647   5.772   2.354
11691TIP3    H235031   7.704   5.729   2.220
11692TIP3   OH235032   6.831   4.378   5.076
11692TIP3    H135033   6.766   4.444   5.049
11692TIP3    H235034   6.786   4.294   5.066
11693TIP3   OH235035   2.433   1.637   0.277
11693TIP3    H135036   2.466   1.612   0.191
11693TIP3    H235037   2.506   1.619   0.337
11694TIP3   OH235038   3.812   4.944   1.888
11694TIP3    H135039   3.806   4.882   1.815
11694TIP3    H235040   3.746   4.913   1.950
11695TIP3   OH235041   6.199   4.919   5.997
11695TIP3    H135042   6.228   4.851   5.936
11695TIP3    H235043   6.271   4.983   5.998
11696TIP3   OH235044   2.244   4.720   0.067
11696TIP3    H135045   2.214   4.807   0.039
11696TIP3    H235046   2.213   4.712   0.157
11697TIP3   OH235047   2.036   1.709   6.755
11697TIP3    H135048   2.068   1.678   6.839
11697TIP3    H235049   2.085   1.790   6.739
11698TIP3   OH235050   5.633   3.036   3.842
11698TIP3    H135051   5.546   3.005   3.819
11698TIP3    H235052   5.620   3.091   3.919
11699TIP3   OH235053   7.212   7.550   1.865
11699TIP3    H135054   7.205   7.597   1.783
11699TIP3    H235055   7.219   7.458   1.840
11700TIP3   OH235056   5.772   0.842   2.518
11700TIP3    H135057   5.763   0.773   2.452
11700TIP3    H235058   5.722   0.809   2.593
11701TIP3   OH235059   4.100   7.001   5.823
11701TIP3    H135060   4.164   7.021   5.891
11701TIP3    H235061   4.085   7.085   5.779
11702TIP3   OH235062   7.879   3.969   1.034
11702TIP3    H135063   7.854   4.012   1.117
11702TIP3    H235064   7.953   3.914   1.057
11703TIP3   OH235065   3.613   0.446   3.364
11703TIP3    H135066   3.663   0.439   3.445
11703TIP3    H235067   3.578   0.536   3.365
11704TIP3   OH235068   5.909   2.812   1.244
11704TIP3    H135069   6.002   2.800   1.262
11704TIP3    H235070   5.902   2.804   1.148
11705TIP3   OH235071   3.210   1.873   4.734
11705TIP3    H135072   3.180   1.915   4.653
11705TIP3    H235073   3.271   1.805   4.705
11706TIP3   OH235074   2.093   1.001   3.674
11706TIP3    H135075   2.044   0.933   3.628
11706TIP3    H235076   2.177   1.004   3.630
11707TIP3   OH235077   6.836   6.619   1.505
11707TIP3    H135078   6.741   6.622   1.490
11707TIP3    H235079   6.855   6.525   1.513
11708TIP3   OH235080   6.386   3.274   0.703
11708TIP3    H135081   6.328   3.203   0.675
11708TIP3    H235082   6.349   3.352   0.661
11709TIP3   OH235083   3.092   6.925   5.763
11709TIP3    H135084   3.098   6.838   5.801
11709TIP3    H235085   3.015   6.965   5.806
11710TIP3   OH235086   1.272   0.606   5.000
11710TIP3    H135087   1.196   0.548   5.008
11710TIP3    H235088   1.240   0.691   5.030
11711TIP3   OH235089   1.229   5.802   0.200
11711TIP3    H135090   1.161   5.845   0.251
11711TIP3    H235091   1.183   5.736   0.148
11712TIP3   OH235092   2.503   2.006   4.377
11712TIP3    H135093   2.497   1.916   4.346
11712TIP3    H235094   2.433   2.014   4.441
11713TIP3   OH235095   4.458   5.281   5.468
11713TIP3    H135096   4.387   5.322   5.419
11713TIP3    H235097   4.428   5.282   5.559
11714TIP3   OH235098   5.312   2.864   4.518
11714TIP3    H135099   5.320   2.927   4.446
11714TIP3    H235100   5.256   2.795   4.483
11715TIP3   OH235101   3.797   1.999   3.658
11715TIP3    H135102   3.837   1.918   3.626
11715TIP3    H235103   3.773   1.979   3.749
11716TIP3   OH235104   0.625   7.784   1.033
11716TIP3    H135105   0.669   7.863   1.001
11716TIP3    H235106   0.668   7.764   1.116
11717TIP3   OH235107   3.264   3.668   1.613
11717TIP3    H135108   3.218   3.642   1.693
11717TIP3    H235109   3.202   3.646   1.543
11718TIP3   OH235110   3.233   7.176   1.832
11718TIP3    H135111   3.173   7.222   1.773
11718TIP3    H235112   3.258   7.242   1.897
11719TIP3   OH235113   6.417   6.962   3.410
11719TIP3    H135114   6.481   7.000   3.350
11719TIP3    H235115   6.458   6.969   3.496
11720TIP3   OH235116   2.289   3.009   5.803
11720TIP3    H135117   2.275   2.916   5.786
11720TIP3    H235118   2.293   3.015   5.899
11721TIP3   OH235119   5.957   6.350   1.658
11721TIP3    H135120   6.003   6.293   1.720
11721TIP3    H235121   5.864   6.334   1.675
11722TIP3   OH235122   0.574   7.625   4.623
11722TIP3    H135123   0.535   7.640   4.537
11722TIP3    H235124   0.536   7.692   4.678
11723TIP3   OH235125   1.370   1.256   5.309
11723TIP3    H135126   1.378   1.225   5.219
11723TIP3    H235127   1.460   1.258   5.342
11724TIP3   OH235128   0.949   4.794   0.832
11724TIP3    H135129   0.964   4.703   0.854
11724TIP3    H235130   0.994   4.844   0.901
11725TIP3   OH235131   0.306   4.556   1.463
11725TIP3    H135132   0.276   4.468   1.485
11725TIP3    H235133   0.226   4.604   1.441
11726TIP3   OH235134   2.052   3.679   6.772
11726TIP3    H135135   2.070   3.759   6.822
11726TIP3    H235136   2.134   3.629   6.777
11727TIP3   OH235137   4.438   4.493   3.006
11727TIP3    H135138   4.506   4.486   3.073
11727TIP3    H235139   4.467   4.434   2.936
11728TIP3   OH235140   1.465   1.744   3.339
11728TIP3    H135141   1.526   1.703   3.278
11728TIP3    H235142   1.410   1.672   3.371
11729TIP3   OH235143   5.241   2.320   0.975
11729TIP3    H135144   5.148   2.344   0.978
11729TIP3    H235145   5.241   2.225   0.988
11730TIP3   OH235146   3.702   1.766   5.490
11730TIP3    H135147   3.627   1.797   5.439
11730TIP3    H235148   3.664   1.704   5.552
11731TIP3   OH235149   1.078   6.825   5.132
11731TIP3    H135150   1.098   6.831   5.039
11731TIP3    H235151   1.158   6.791   5.172
11732TIP3   OH235152   7.233   5.973   2.786
11732TIP3    H135153   7.252   5.955   2.878
11732TIP3    H235154   7.140   5.997   2.785
11733TIP3   OH235155   7.009   4.097   3.192
11733TIP3    H135156   6.975   4.058   3.272
11733TIP3    H235157   6.992   4.191   3.202
11734TIP3   OH235158   4.540   6.612   4.323
11734TIP3    H135159   4.632   6.588   4.318
11734TIP3    H235160   4.522   6.654   4.238
11735TIP3   OH235161   7.482   4.348   6.509
11735TIP3    H135162   7.528   4.270   6.541
11735TIP3    H235163   7.536   4.421   6.537
11736TIP3   OH235164   8.038   2.957   3.935
11736TIP3    H135165   8.021   2.923   3.848
11736TIP3    H235166   7.951   2.972   3.973
11737TIP3   OH235167   1.681   4.527   0.103
11737TIP3    H135168   1.612   4.592   0.087
11737TIP3    H235169   1.644   4.469   0.169
11738TIP3   OH235170   5.298   7.672   1.089
11738TIP3    H135171   5.380   7.696   1.046
11738TIP3    H235172   5.233   7.731   1.051
11739TIP3   OH235173   2.295   6.049   6.088
11739TIP3    H135174   2.216   6.010   6.053
11739TIP3    H235175   2.292   6.031   6.182
11740TIP3   OH235176   7.748   1.369   0.212
11740TIP3    H135177   7.826   1.314   0.219
11740TIP3    H235178   7.687   1.317   0.159
11741TIP3   OH235179   5.114   4.216   0.728
11741TIP3    H135180   5.139   4.300   0.689
11741TIP3    H235181   5.027   4.198   0.694
11742TIP3   OH235182   0.988   4.275   6.683
11742TIP3    H135183   1.011   4.347   6.625
11742TIP3    H235184   1.067   4.259   6.735
11743TIP3   OH235185   5.622   5.971   3.963
11743TIP3    H135186   5.529   5.978   3.982
11743TIP3    H235187   5.627   5.926   3.879
11744TIP3   OH235188   1.477   0.714   0.636
11744TIP3    H135189   1.482   0.649   0.566
11744TIP3    H235190   1.407   0.773   0.610
11745TIP3   OH235191   2.865   6.041   2.968
11745TIP3    H135192   2.949   6.066   3.007
11745TIP3    H235193   2.800   6.084   3.022
11746TIP3   OH235194   2.114   4.718   3.248
11746TIP3    H135195   2.179   4.738   3.181
11746TIP3    H235196   2.030   4.719   3.202
11747TIP3   OH235197   6.737   5.877   6.690
11747TIP3    H135198   6.720   5.835   6.774
11747TIP3    H235199   6.651   5.892   6.652
11748TIP3   OH235200   4.037   7.571   4.480
11748TIP3    H135201   4.110   7.565   4.417
11748TIP3    H235202   4.035   7.663   4.505
11749TIP3   OH235203   3.100   4.403   6.451
11749TIP3    H135204   3.103   4.316   6.410
11749TIP3    H235205   3.086   4.385   6.544
11750TIP3   OH235206   7.559   0.433   5.421
11750TIP3    H135207   7.612   0.494   5.471
11750TIP3    H235208   7.500   0.393   5.485
11751TIP3   OH235209   8.243   3.826   0.631
11751TIP3    H135210   8.169   3.808   0.573
11751TIP3    H235211   8.300   3.884   0.580
11752TIP3   OH235212   7.006   5.012   5.744
11752TIP3    H135213   6.948   5.007   5.669
11752TIP3    H235214   7.014   4.922   5.775
11753TIP3   OH235215   0.655   6.302   3.139
11753TIP3    H135216   0.671   6.214   3.172
11753TIP3    H235217   0.595   6.290   3.065
11754TIP3   OH235218   4.384   4.005   0.377
11754TIP3    H135219   4.422   3.973   0.295
11754TIP3    H235220   4.306   3.950   0.390
11755TIP3   OH235221   4.618   7.406   4.489
11755TIP3    H135222   4.646   7.421   4.579
11755TIP3    H235223   4.684   7.348   4.453
11756TIP3   OH235224   2.144   3.394   4.759
11756TIP3    H135225   2.091   3.473   4.745
11756TIP3    H235226   2.231   3.419   4.730
11757TIP3   OH235227   4.651   6.860   0.277
11757TIP3    H135228   4.593   6.786   0.258
11757TIP3    H235229   4.718   6.824   0.335
11758TIP3   OH235230   0.906   0.940   3.239
11758TIP3    H135231   0.839   0.871   3.243
11758TIP3    H235232   0.858   1.018   3.212
11759TIP3   OH235233   0.191   6.913   1.864
11759TIP3    H135234   0.149   6.950   1.941
11759TIP3    H235235   0.181   6.818   1.874
11760TIP3   OH235236   0.691   2.847   5.781
11760TIP3    H135237   0.754   2.789   5.739
11760TIP3    H235238   0.628   2.788   5.823
11761TIP3   OH235239   2.478   1.295   2.218
11761TIP3    H135240   2.436   1.209   2.227
11761TIP3    H235241   2.442   1.346   2.291
11762TIP3   OH235242   3.659   7.209   5.966
11762TIP3    H135243   3.668   7.114   5.973
11762TIP3    H235244   3.567   7.224   5.946
11763TIP3   OH235245   3.204   3.352   2.132
11763TIP3    H135246   3.268   3.423   2.140
11763TIP3    H235247   3.169   3.360   2.044
11764TIP3   OH235248   7.314   0.948   0.567
11764TIP3    H135249   7.375   1.011   0.527
11764TIP3    H235250   7.246   1.003   0.606
11765TIP3   OH235251   7.523   5.194   6.654
11765TIP3    H135252   7.516   5.261   6.722
11765TIP3    H235253   7.484   5.236   6.577
11766TIP3   OH235254   5.405   3.829   1.631
11766TIP3    H135255   5.361   3.914   1.629
11766TIP3    H235256   5.458   3.826   1.552
11767TIP3   OH235257   1.294   5.147   1.422
11767TIP3    H135258   1.241   5.100   1.486
11767TIP3    H235259   1.260   5.236   1.423
11768TIP3   OH235260   6.110   4.684   0.564
11768TIP3    H135261   6.183   4.732   0.526
11768TIP3    H235262   6.145   4.597   0.582
11769TIP3   OH235263   0.484   7.229   4.098
11769TIP3    H135264   0.524   7.229   4.011
11769TIP3    H235265   0.403   7.180   4.086
11770TIP3   OH235266   5.426   2.624   4.934
11770TIP3    H135267   5.425   2.544   4.881
11770TIP3    H235268   5.391   2.597   5.019
11771TIP3   OH235269   2.815   4.145   5.239
11771TIP3    H135270   2.859   4.158   5.155
11771TIP3    H235271   2.796   4.052   5.242
11772TIP3   OH235272   4.454   0.505   2.026
11772TIP3    H135273   4.428   0.516   1.934
11772TIP3    H235274   4.374   0.476   2.070
11773TIP3   OH235275   4.745   4.622   6.033
11773TIP3    H135276   4.761   4.625   6.128
11773TIP3    H235277   4.765   4.710   6.003
11774TIP3   OH235278   6.355   1.298   3.011
11774TIP3    H135279   6.411   1.227   2.980
11774TIP3    H235280   6.365   1.367   2.945
11775TIP3   OH235281   6.675   5.706   4.987
11775TIP3    H135282   6.612   5.682   4.919
11775TIP3    H235283   6.708   5.792   4.961
11776TIP3   OH235284   6.496   3.808   0.049
11776TIP3    H135285   6.455   3.833   0.132
11776TIP3    H235286   6.483   3.713   0.044
11777TIP3   OH235287   2.050   6.716   0.750
11777TIP3    H135288   2.121   6.668   0.795
11777TIP3    H235289   2.076   6.808   0.756
11778TIP3   OH235290   2.067   7.531   3.307
11778TIP3    H135291   2.057   7.440   3.334
11778TIP3    H235292   2.044   7.531   3.214
11779TIP3   OH235293   1.571   4.880   4.017
11779TIP3    H135294   1.498   4.902   3.958
11779TIP3    H235295   1.563   4.944   4.088
11780TIP3   OH235296   0.631   1.988   1.079
11780TIP3    H135297   0.584   2.013   1.159
11780TIP3    H235298   0.562   1.974   1.014
11781TIP3   OH235299   3.320  -0.001   2.154
11781TIP3    H135300   3.411   0.029   2.151
11781TIP3    H235301   3.280   0.039   2.077
11782TIP3   OH235302   0.432   3.663   2.630
11782TIP3    H135303   0.498   3.643   2.563
11782TIP3    H235304   0.472   3.734   2.682
11783TIP3   OH235305   2.192   6.964   2.429
11783TIP3    H135306   2.166   7.054   2.447
11783TIP3    H235307   2.272   6.951   2.479
11784TIP3   OH235308   1.260   6.623   1.392
11784TIP3    H135309   1.245   6.717   1.400
11784TIP3    H235310   1.179   6.584   1.425
11785TIP3   OH235311   6.699   6.883   6.494
11785TIP3    H135312   6.736   6.936   6.564
11785TIP3    H235313   6.608   6.913   6.486
11786TIP3   OH235314   1.294   7.542   2.960
11786TIP3    H135315   1.266   7.505   2.877
11786TIP3    H235316   1.213   7.566   3.005
11787TIP3   OH235317   4.324   6.754   1.567
11787TIP3    H135318   4.299   6.728   1.656
11787TIP3    H235319   4.242   6.776   1.524
11788TIP3   OH235320   6.665   5.136   5.441
11788TIP3    H135321   6.726   5.207   5.421
11788TIP3    H235322   6.619   5.164   5.519
11789TIP3   OH235323   5.355   5.888   4.950
11789TIP3    H135324   5.392   5.945   5.017
11789TIP3    H235325   5.431   5.855   4.902
11790TIP3   OH235326   4.261   5.555   0.630
11790TIP3    H135327   4.340   5.600   0.659
11790TIP3    H235328   4.206   5.624   0.594
11791TIP3   OH235329   6.353   3.286   1.366
11791TIP3    H135330   6.387   3.304   1.454
11791TIP3    H235331   6.333   3.372   1.330
11792TIP3   OH235332   4.054   4.788   1.079
11792TIP3    H135333   4.073   4.701   1.115
11792TIP3    H235334   4.065   4.847   1.154
11793TIP3   OH235335   2.054   4.062   4.544
11793TIP3    H135336   2.084   4.050   4.634
11793TIP3    H235337   2.099   3.994   4.495
11794TIP3   OH235338   0.889   7.668   0.950
11794TIP3    H135339   0.922   7.752   0.983
11794TIP3    H235340   0.852   7.689   0.864
11795TIP3   OH235341   0.258   5.398   6.180
11795TIP3    H135342   0.169   5.372   6.204
11795TIP3    H235343   0.248   5.482   6.135
11796TIP3   OH235344   4.766   6.030   0.355
11796TIP3    H135345   4.839   5.980   0.319
11796TIP3    H235346   4.773   6.116   0.314
11797TIP3   OH235347   5.361   3.382   0.914
11797TIP3    H135348   5.401   3.431   0.985
11797TIP3    H235349   5.343   3.448   0.847
11798TIP3   OH235350   7.897   0.250   6.022
11798TIP3    H135351   7.960   0.279   5.957
11798TIP3    H235352   7.812   0.262   5.980
11799TIP3   OH235353   3.970   7.685   2.949
11799TIP3    H135354   4.025   7.625   2.898
11799TIP3    H235355   3.971   7.766   2.899
11800TIP3   OH235356   7.757   7.316   4.271
11800TIP3    H135357   7.805   7.360   4.201
11800TIP3    H235358   7.725   7.387   4.327
11801TIP3   OH235359   6.691   2.054   1.775
11801TIP3    H135360   6.765   2.079   1.831
11801TIP3    H235361   6.728   2.049   1.687
11802TIP3   OH235362   1.791   1.287   2.635
11802TIP3    H135363   1.701   1.306   2.610
11802TIP3    H235364   1.784   1.225   2.708
11803TIP3   OH235365   3.504   1.597   5.031
11803TIP3    H135366   3.597   1.577   5.024
11803TIP3    H235367   3.487   1.599   5.125
11804TIP3   OH235368   0.844   6.942   1.091
11804TIP3    H135369   0.824   7.028   1.128
11804TIP3    H235370   0.783   6.933   1.018
11805TIP3   OH235371   7.748   5.062   6.535
11805TIP3    H135372   7.774   5.124   6.467
11805TIP3    H235373   7.662   5.094   6.565
11806TIP3   OH235374   7.606   0.661   2.004
11806TIP3    H135375   7.569   0.737   1.960
11806TIP3    H235376   7.676   0.631   1.946
11807TIP3   OH235377   2.814   4.385   6.670
11807TIP3    H135378   2.907   4.403   6.685
11807TIP3    H235379   2.805   4.291   6.686
11808TIP3   OH235380   1.601   1.768   6.463
11808TIP3    H135381   1.564   1.855   6.479
11808TIP3    H235382   1.582   1.752   6.370
11809TIP3   OH235383   3.619   0.704   0.497
11809TIP3    H135384   3.700   0.752   0.517
11809TIP3    H235385   3.648   0.620   0.463
11810TIP3   OH235386   6.486   4.296   2.700
11810TIP3    H135387   6.493   4.363   2.631
11810TIP3    H235388   6.401   4.313   2.741
11811TIP3   OH235389   5.561   7.682   0.990
11811TIP3    H135390   5.654   7.681   0.968
11811TIP3    H235391   5.540   7.775   1.003
11812TIP3   OH235392   2.923   6.983   1.026
11812TIP3    H135393   2.981   7.055   1.048
11812TIP3    H235394   2.840   7.025   1.001
11813TIP3   OH235395   4.789   6.888   4.011
11813TIP3    H135396   4.814   6.952   4.077
11813TIP3    H235397   4.866   6.833   4.000
11814TIP3   OH235398   7.802   2.641   4.107
11814TIP3    H135399   7.833   2.638   4.197
11814TIP3    H235400   7.764   2.729   4.097
11815TIP3   OH235401   6.759   3.254   2.422
11815TIP3    H135402   6.752   3.180   2.482
11815TIP3    H235403   6.670   3.269   2.392
11816TIP3   OH235404   3.514   1.080   0.903
11816TIP3    H135405   3.545   1.152   0.958
11816TIP3    H235406   3.593   1.041   0.867
11817TIP3   OH235407   5.136   4.195   4.160
11817TIP3    H135408   5.070   4.258   4.129
11817TIP3    H235409   5.128   4.121   4.100
11818TIP3   OH235410   2.139   0.808   3.919
11818TIP3    H135411   2.088   0.881   3.885
11818TIP3    H235412   2.094   0.730   3.887
11819TIP3   OH235413   6.278   7.686   3.894
11819TIP3    H135414   6.223   7.609   3.905
11819TIP3    H235415   6.262   7.739   3.972
11820TIP3   OH235416   1.316   0.992   3.013
11820TIP3    H135417   1.282   0.908   3.044
11820TIP3    H235418   1.239   1.050   3.011
11821TIP3   OH235419   4.635   7.061   0.074
11821TIP3    H135420   4.645   7.148   0.112
11821TIP3    H235421   4.650   7.001   0.147
11822TIP3   OH235422   0.021   1.590   3.209
11822TIP3    H135423  -0.051   1.568   3.268
11822TIP3    H235424   0.088   1.524   3.228
11823TIP3   OH235425   6.884   2.787   6.396
11823TIP3    H135426   6.848   2.790   6.485
11823TIP3    H235427   6.829   2.723   6.351
11824TIP3   OH235428   2.918   3.517   3.330
11824TIP3    H135429   2.993   3.487   3.278
11824TIP3    H235430   2.842   3.501   3.273
11825TIP3   OH235431   8.065   7.165   3.988
11825TIP3    H135432   8.054   7.159   3.893
11825TIP3    H235433   8.046   7.256   4.009
11826TIP3   OH235434   0.458   3.516   2.900
11826TIP3    H135435   0.434   3.578   2.831
11826TIP3    H235436   0.432   3.431   2.866
11827TIP3   OH235437   2.022   6.183   4.340
11827TIP3    H135438   1.975   6.266   4.346
11827TIP3    H235439   1.955   6.119   4.316
11828TIP3   OH235440   6.491   6.191   6.426
11828TIP3    H135441   6.449   6.275   6.413
11828TIP3    H235442   6.583   6.206   6.404
11829TIP3   OH235443   5.944   7.551   0.480
11829TIP3    H135444   5.954   7.646   0.493
11829TIP3    H235445   5.884   7.543   0.406
11830TIP3   OH235446   1.753   0.710   4.717
11830TIP3    H135447   1.676   0.681   4.668
11830TIP3    H235448   1.802   0.764   4.655
11831TIP3   OH235449   4.235   6.375   0.336
11831TIP3    H135450   4.323   6.345   0.315
11831TIP3    H235451   4.177   6.320   0.282
11832TIP3   OH235452   7.672   4.235   4.541
11832TIP3    H135453   7.640   4.223   4.631
11832TIP3    H235454   7.614   4.179   4.488
11833TIP3   OH235455   0.943   3.882   3.815
11833TIP3    H135456   0.924   3.952   3.753
11833TIP3    H235457   0.875   3.889   3.882
11834TIP3   OH235458   0.838   0.324   6.368
11834TIP3    H135459   0.916   0.349   6.320
11834TIP3    H235460   0.820   0.234   6.340
11835TIP3   OH235461   5.371   3.578   4.236
11835TIP3    H135462   5.385   3.576   4.141
11835TIP3    H235463   5.449   3.538   4.273
11836TIP3   OH235464   6.855   6.268   6.272
11836TIP3    H135465   6.789   6.333   6.296
11836TIP3    H235466   6.901   6.307   6.198
11837TIP3   OH235467   7.558   2.977   0.551
11837TIP3    H135468   7.471   2.949   0.580
11837TIP3    H235469   7.584   3.044   0.615
11838TIP3   OH235470   0.457   4.395   0.990
11838TIP3    H135471   0.507   4.357   0.918
11838TIP3    H235472   0.373   4.348   0.988
11839TIP3   OH235473   8.133   0.424   3.076
11839TIP3    H135474   8.142   0.350   3.015
11839TIP3    H235475   8.087   0.387   3.152
11840TIP3   OH235476   3.510   1.109   0.092
11840TIP3    H135477   3.417   1.126   0.101
11840TIP3    H235478   3.550   1.153   0.167
11841TIP3   OH235479   3.897   6.017   5.141
11841TIP3    H135480   3.985   6.052   5.128
11841TIP3    H235481   3.909   5.943   5.200
11842TIP3   OH235482   4.672   5.844   6.201
11842TIP3    H135483   4.615   5.836   6.125
11842TIP3    H235484   4.615   5.827   6.276
11843TIP3   OH235485   8.242   2.461   0.883
11843TIP3    H135486   8.158   2.501   0.861
11843TIP3    H235487   8.301   2.492   0.814
11844TIP3   OH235488   0.914   0.635   6.049
11844TIP3    H135489   0.889   0.589   5.969
11844TIP3    H235490   0.861   0.714   6.048
11845TIP3   OH235491   1.618   3.226   5.227
11845TIP3    H135492   1.663   3.304   5.260
11845TIP3    H235493   1.666   3.152   5.266
11846TIP3   OH235494   1.920   7.594   0.738
11846TIP3    H135495   1.948   7.534   0.669
11846TIP3    H235496   1.875   7.665   0.692
11847TIP3   OH235497   6.794   3.618   1.724
11847TIP3    H135498   6.839   3.533   1.727
11847TIP3    H235499   6.702   3.597   1.741
11848TIP3   OH235500   4.457   4.313   5.515
11848TIP3    H135501   4.429   4.344   5.428
11848TIP3    H235502   4.378   4.321   5.569
11849TIP3   OH235503   1.129   3.989   5.691
11849TIP3    H135504   1.115   4.076   5.731
11849TIP3    H235505   1.041   3.956   5.675
11850TIP3   OH235506   6.310   0.920   3.989
11850TIP3    H135507   6.345   0.833   4.009
11850TIP3    H235508   6.242   0.933   4.054
11851TIP3   OH235509   4.913   4.865   1.395
11851TIP3    H135510   4.919   4.951   1.354
11851TIP3    H235511   4.857   4.814   1.337
11852TIP3   OH235512   2.152   0.960   3.357
11852TIP3    H135513   2.235   0.969   3.404
11852TIP3    H235514   2.165   1.010   3.277
11853TIP3   OH235515   0.897   4.341   1.676
11853TIP3    H135516   0.929   4.342   1.767
11853TIP3    H235517   0.883   4.248   1.657
11854TIP3   OH235518   6.290   1.500   5.765
11854TIP3    H135519   6.218   1.563   5.754
11854TIP3    H235520   6.248   1.419   5.794
11855TIP3   OH235521   6.856   5.525   2.496
11855TIP3    H135522   6.778   5.519   2.441
11855TIP3    H235523   6.891   5.612   2.479
11856TIP3   OH235524   1.689   1.085   4.599
11856TIP3    H135525   1.773   1.075   4.644
11856TIP3    H235526   1.711   1.080   4.506
11857TIP3   OH235527   3.032   0.909   1.510
11857TIP3    H135528   3.081   0.943   1.435
11857TIP3    H235529   3.032   0.814   1.498
11858TIP3   OH235530   4.166   4.126   1.779
11858TIP3    H135531   4.172   4.064   1.852
11858TIP3    H235532   4.208   4.081   1.706
11859TIP3   OH235533   3.995   2.770   0.977
11859TIP3    H135534   4.034   2.786   1.063
11859TIP3    H235535   3.945   2.850   0.958
11860TIP3   OH235536   2.622   0.894   2.068
11860TIP3    H135537   2.695   0.955   2.069
11860TIP3    H235538   2.659   0.810   2.097
11861TIP3   OH235539   8.332   4.501   5.272
11861TIP3    H135540   8.237   4.488   5.280
11861TIP3    H235541   8.343   4.551   5.192
11862TIP3   OH235542   3.681   1.371   3.350
11862TIP3    H135543   3.686   1.296   3.290
11862TIP3    H235544   3.661   1.331   3.435
11863TIP3   OH235545   1.555   2.319   2.701
11863TIP3    H135546   1.524   2.361   2.781
11863TIP3    H235547   1.646   2.296   2.719
11864TIP3   OH235548   2.042   0.126   1.894
11864TIP3    H135549   2.076   0.127   1.984
11864TIP3    H235550   2.016   0.217   1.877
11865TIP3   OH235551   0.599   2.651   6.325
11865TIP3    H135552   0.591   2.739   6.362
11865TIP3    H235553   0.592   2.664   6.230
11866TIP3   OH235554   6.193   4.945   4.090
11866TIP3    H135555   6.274   4.910   4.053
11866TIP3    H235556   6.132   4.872   4.088
11867TIP3   OH235557   2.116   6.082   4.960
11867TIP3    H135558   2.089   6.039   5.041
11867TIP3    H235559   2.209   6.104   4.974
11868TIP3   OH235560   1.558   0.119   4.422
11868TIP3    H135561   1.517   0.073   4.494
11868TIP3    H235562   1.519   0.206   4.423
11869TIP3   OH235563   1.184   7.114   0.236
11869TIP3    H135564   1.213   7.157   0.316
11869TIP3    H235565   1.149   7.030   0.265
11870TIP3   OH235566   2.884   4.080   5.994
11870TIP3    H135567   2.857   3.997   6.034
11870TIP3    H235568   2.972   4.062   5.960
11871TIP3   OH235569   7.053   2.616   3.834
11871TIP3    H135570   7.109   2.680   3.790
11871TIP3    H235571   7.036   2.550   3.767
11872TIP3   OH235572   6.717   6.400   0.679
11872TIP3    H135573   6.775   6.339   0.634
11872TIP3    H235574   6.652   6.425   0.614
11873TIP3   OH235575   4.352   7.113   1.771
11873TIP3    H135576   4.289   7.040   1.773
11873TIP3    H235577   4.388   7.111   1.682
11874TIP3   OH235578   6.179   1.354   1.529
11874TIP3    H135579   6.267   1.337   1.496
11874TIP3    H235580   6.158   1.441   1.495
11875TIP3   OH235581   7.317   2.844   4.926
11875TIP3    H135582   7.369   2.834   4.847
11875TIP3    H235583   7.321   2.938   4.946
11876TIP3   OH235584   2.938   0.104   5.650
11876TIP3    H135585   2.977   0.165   5.712
11876TIP3    H235586   2.876   0.158   5.599
11877TIP3   OH235587   0.474   7.444   1.114
11877TIP3    H135588   0.412   7.387   1.160
11877TIP3    H235589   0.443   7.443   1.023
11878TIP3   OH235590   2.514   2.284   1.326
11878TIP3    H135591   2.446   2.349   1.308
11878TIP3    H235592   2.466   2.208   1.359
11879TIP3   OH235593   7.403   3.205   6.703
11879TIP3    H135594   7.331   3.146   6.724
11879TIP3    H235595   7.421   3.189   6.610
11880TIP3   OH235596   5.358   7.677   4.603
11880TIP3    H135597   5.394   7.602   4.649
11880TIP3    H235598   5.272   7.691   4.642
11881TIP3   OH235599   3.526   5.634   1.113
11881TIP3    H135600   3.577   5.707   1.146
11881TIP3    H235601   3.444   5.638   1.162
11882TIP3   OH235602   4.287   4.943   6.338
11882TIP3    H135603   4.260   4.902   6.256
11882TIP3    H235604   4.314   5.031   6.314
11883TIP3   OH235605   6.672   6.247   4.542
11883TIP3    H135606   6.626   6.164   4.527
11883TIP3    H235607   6.689   6.281   4.454
11884TIP3   OH235608   3.886   4.986   1.605
11884TIP3    H135609   3.863   4.903   1.647
11884TIP3    H235610   3.820   5.048   1.634
11885TIP3   OH235611   3.829   2.390   4.882
11885TIP3    H135612   3.771   2.449   4.930
11885TIP3    H235613   3.851   2.437   4.802
11886TIP3   OH235614   6.547   7.246   3.801
11886TIP3    H135615   6.633   7.205   3.805
11886TIP3    H235616   6.545   7.290   3.716
11887TIP3   OH235617   5.307   0.329   5.706
11887TIP3    H135618   5.348   0.290   5.629
11887TIP3    H235619   5.263   0.256   5.749
11888TIP3   OH235620   1.702   6.106   5.492
11888TIP3    H135621   1.785   6.089   5.537
11888TIP3    H235622   1.666   6.020   5.474
11889TIP3   OH235623   7.263   2.781   1.929
11889TIP3    H135624   7.266   2.877   1.934
11889TIP3    H235625   7.330   2.752   1.992
11890TIP3   OH235626   0.885   7.085   0.281
11890TIP3    H135627   0.954   7.055   0.339
11890TIP3    H235628   0.832   7.144   0.335
11891TIP3   OH235629   0.720   5.328   3.635
11891TIP3    H135630   0.795   5.371   3.676
11891TIP3    H235631   0.662   5.307   3.708
11892TIP3   OH235632   2.031   5.322   4.468
11892TIP3    H135633   2.044   5.392   4.404
11892TIP3    H235634   2.015   5.244   4.416
11893TIP3   OH235635   3.866   3.357   5.396
11893TIP3    H135636   3.793   3.296   5.399
11893TIP3    H235637   3.866   3.399   5.482
11894TIP3   OH235638   7.954   2.490   6.051
11894TIP3    H135639   7.958   2.507   5.957
11894TIP3    H235640   7.939   2.577   6.090
11895TIP3   OH235641   1.969   1.241   1.238
11895TIP3    H135642   1.884   1.284   1.234
11895TIP3    H235643   1.960   1.166   1.180
11896TIP3   OH235644   1.295   3.163   3.087
11896TIP3    H135645   1.279   3.246   3.131
11896TIP3    H235646   1.221   3.152   3.027
11897TIP3   OH235647   1.162   0.659   1.751
11897TIP3    H135648   1.110   0.699   1.821
11897TIP3    H235649   1.216   0.731   1.717
11898TIP3   OH235650   7.886   7.692   6.275
11898TIP3    H135651   7.970   7.726   6.243
11898TIP3    H235652   7.844   7.655   6.197
11899TIP3   OH235653   7.521   6.723   0.343
11899TIP3    H135654   7.568   6.704   0.262
11899TIP3    H235655   7.447   6.777   0.316
11900TIP3   OH235656   0.810   6.492   4.292
11900TIP3    H135657   0.753   6.556   4.251
11900TIP3    H235658   0.844   6.536   4.370
11901TIP3   OH235659   3.640   3.948   5.602
11901TIP3    H135660   3.587   3.991   5.534
11901TIP3    H235661   3.687   3.879   5.555
11902TIP3   OH235662   8.111   7.226   2.924
11902TIP3    H135663   8.061   7.148   2.900
11902TIP3    H235664   8.048   7.282   2.969
11903TIP3   OH235665   7.047   2.311   3.047
11903TIP3    H135666   7.073   2.238   3.103
11903TIP3    H235667   7.127   2.337   3.001
11904TIP3   OH235668   7.585   4.492   1.283
11904TIP3    H135669   7.561   4.439   1.207
11904TIP3    H235670   7.584   4.430   1.356
11905TIP3   OH235671   5.936   6.976   2.121
11905TIP3    H135672   5.871   6.969   2.191
11905TIP3    H235673   5.987   6.895   2.128
11906TIP3   OH235674   5.853   1.878   0.283
11906TIP3    H135675   5.772   1.847   0.242
11906TIP3    H235676   5.830   1.892   0.375
11907TIP3   OH235677   7.791   7.032   5.889
11907TIP3    H135678   7.811   7.105   5.829
11907TIP3    H235679   7.875   6.988   5.902
11908TIP3   OH235680   6.918   2.344   5.277
11908TIP3    H135681   6.883   2.277   5.218
11908TIP3    H235682   7.012   2.329   5.278
11909TIP3   OH235683   6.067   2.717   4.325
11909TIP3    H135684   6.049   2.769   4.247
11909TIP3    H235685   6.080   2.781   4.394
11910TIP3   OH235686   7.271   0.377   1.036
11910TIP3    H135687   7.288   0.287   1.006
11910TIP3    H235688   7.176   0.381   1.046
11911TIP3   OH235689   5.828   0.543   6.205
11911TIP3    H135690   5.776   0.575   6.279
11911TIP3    H235691   5.778   0.571   6.128
11912TIP3   OH235692   3.224   7.056   4.392
11912TIP3    H135693   3.158   7.009   4.342
11912TIP3    H235694   3.274   7.105   4.326
11913TIP3   OH235695   7.016   3.586   5.634
11913TIP3    H135696   7.036   3.680   5.639
11913TIP3    H235697   7.076   3.553   5.567
11914TIP3   OH235698   0.134   4.169   6.653
11914TIP3    H135699   0.127   4.237   6.719
11914TIP3    H235700   0.087   4.203   6.577
11915TIP3   OH235701   5.756   7.578   0.256
11915TIP3    H135702   5.716   7.564   0.170
11915TIP3    H235703   5.769   7.672   0.261
11916TIP3   OH235704   1.236   4.338   4.655
11916TIP3    H135705   1.188   4.341   4.738
11916TIP3    H235706   1.266   4.248   4.648
11917TIP3   OH235707   8.004   1.250   0.217
11917TIP3    H135708   8.068   1.321   0.211
11917TIP3    H235709   7.997   1.217   0.128
11918TIP3   OH235710   6.124   3.829   0.031
11918TIP3    H135711   6.120   3.762   0.100
11918TIP3    H235712   6.035   3.864   0.025
11919TIP3   OH235713   0.363   3.065   5.649
11919TIP3    H135714   0.303   3.016   5.592
11919TIP3    H235715   0.307   3.104   5.716
11920TIP3   OH235716   6.613   1.740   6.719
11920TIP3    H135717   6.557   1.662   6.711
11920TIP3    H235718   6.638   1.760   6.629
11921TIP3   OH235719   1.530   7.124   1.792
11921TIP3    H135720   1.606   7.075   1.759
11921TIP3    H235721   1.494   7.167   1.715
11922TIP3   OH235722   1.621   1.742   0.865
11922TIP3    H135723   1.627   1.737   0.960
11922TIP3    H235724   1.636   1.652   0.835
11923TIP3   OH235725   4.232   7.275   2.724
11923TIP3    H135726   4.324   7.255   2.740
11923TIP3    H235727   4.185   7.229   2.794
11924TIP3   OH235728   3.865   4.170   0.338
11924TIP3    H135729   3.954   4.164   0.374
11924TIP3    H235730   3.833   4.080   0.339
11925TIP3   OH235731   7.563   0.081   3.127
11925TIP3    H135732   7.616   0.037   3.192
11925TIP3    H235733   7.620   0.148   3.090
11926TIP3   OH235734   5.704   0.752   2.799
11926TIP3    H135735   5.760   0.800   2.861
11926TIP3    H235736   5.617   0.790   2.810
11927TIP3   OH235737   5.998   7.404   4.115
11927TIP3    H135738   6.064   7.397   4.185
11927TIP3    H235739   5.947   7.324   4.122
11928TIP3   OH235740   3.600   7.564   4.817
11928TIP3    H135741   3.637   7.517   4.892
11928TIP3    H235742   3.667   7.626   4.791
11929TIP3   OH235743   5.891   1.446   0.936
11929TIP3    H135744   5.947   1.496   0.877
11929TIP3    H235745   5.848   1.512   0.991
11930TIP3   OH235746   6.319   4.155   1.620
11930TIP3    H135747   6.337   4.226   1.558
11930TIP3    H235748   6.244   4.186   1.671
11931TIP3   OH235749   4.582   4.069   0.868
11931TIP3    H135750   4.674   4.075   0.842
11931TIP3    H235751   4.563   3.975   0.867
11932TIP3   OH235752   5.504   4.490   6.062
11932TIP3    H135753   5.513   4.406   6.017
11932TIP3    H235754   5.448   4.541   6.004
11933TIP3   OH235755   0.309   4.165   0.371
11933TIP3    H135756   0.262   4.242   0.403
11933TIP3    H235757   0.305   4.172   0.275
11934TIP3   OH235758   7.353   6.951   2.023
11934TIP3    H135759   7.437   6.918   2.056
11934TIP3    H235760   7.358   6.938   1.928
11935TIP3   OH235761   8.317   6.920   3.516
11935TIP3    H135762   8.264   6.843   3.536
11935TIP3    H235763   8.329   6.962   3.601
11936TIP3   OH235764   5.722   2.319   4.513
11936TIP3    H135765   5.775   2.380   4.461
11936TIP3    H235766   5.633   2.354   4.508
11937TIP3   OH235767   2.608   6.085   0.780
11937TIP3    H135768   2.579   5.993   0.776
11937TIP3    H235769   2.527   6.135   0.789
11938TIP3   OH235770   6.089   1.962   4.236
11938TIP3    H135771   6.131   1.893   4.184
11938TIP3    H235772   6.000   1.929   4.251
11939TIP3   OH235773   7.099   3.639   3.123
11939TIP3    H135774   7.164   3.583   3.165
11939TIP3    H235775   7.143   3.723   3.111
11940TIP3   OH235776   2.953   6.005   6.790
11940TIP3    H135777   2.862   6.016   6.765
11940TIP3    H235778   2.997   6.082   6.754
11941TIP3   OH235779   4.852   5.051   3.299
11941TIP3    H135780   4.946   5.031   3.307
11941TIP3    H235781   4.809   4.966   3.299
11942TIP3   OH235782   0.040   2.095   5.014
11942TIP3    H135783  -0.010   2.162   5.060
11942TIP3    H235784   0.024   2.015   5.064
11943TIP3   OH235785   3.119   6.854   6.089
11943TIP3    H135786   3.033   6.813   6.093
11943TIP3    H235787   3.102   6.946   6.069
11944TIP3   OH235788   0.884   3.527   3.930
11944TIP3    H135789   0.796   3.503   3.900
11944TIP3    H235790   0.870   3.568   4.015
11945TIP3   OH235791   6.407   1.207   0.708
11945TIP3    H135792   6.401   1.301   0.693
11945TIP3    H235793   6.499   1.191   0.727
11946TIP3   OH235794   3.236   3.337   6.305
11946TIP3    H135795   3.287   3.336   6.224
11946TIP3    H235796   3.153   3.296   6.281
11947TIP3   OH235797   3.380   1.797   1.228
11947TIP3    H135798   3.361   1.868   1.290
11947TIP3    H235799   3.305   1.798   1.168
11948TIP3   OH235800   1.588   1.088   6.151
11948TIP3    H135801   1.585   1.075   6.057
11948TIP3    H235802   1.558   1.178   6.164
11949TIP3   OH235803   7.761   3.533   2.930
11949TIP3    H135804   7.728   3.529   2.841
11949TIP3    H235805   7.686   3.557   2.983
11950TIP3   OH235806   1.376   3.567   2.579
11950TIP3    H135807   1.298   3.530   2.621
11950TIP3    H235808   1.433   3.592   2.651
11951TIP3   OH235809   5.842   6.185   3.949
11951TIP3    H135810   5.775   6.117   3.944
11951TIP3    H235811   5.816   6.250   3.883
11952TIP3   OH235812   3.463   3.439   3.807
11952TIP3    H135813   3.459   3.364   3.747
11952TIP3    H235814   3.553   3.471   3.799
11953TIP3   OH235815   8.027   0.811   0.995
11953TIP3    H135816   7.939   0.849   1.000
11953TIP3    H235817   8.077   0.873   0.942
11954TIP3   OH235818   3.667   4.678   3.647
11954TIP3    H135819   3.607   4.650   3.716
11954TIP3    H235820   3.624   4.652   3.565
11955TIP3   OH235821   1.861   5.630   5.150
11955TIP3    H135822   1.827   5.670   5.070
11955TIP3    H235823   1.866   5.536   5.130
11956TIP3   OH235824   8.225   5.741   2.673
11956TIP3    H135825   8.165   5.700   2.734
11956TIP3    H235826   8.311   5.732   2.714
11957TIP3   OH235827   6.507   2.107   2.190
11957TIP3    H135828   6.549   2.168   2.250
11957TIP3    H235829   6.468   2.163   2.123
11958TIP3   OH235830   6.626   0.050   1.328
11958TIP3    H135831   6.608   0.034   1.235
11958TIP3    H235832   6.635   0.145   1.334
11959TIP3   OH235833   0.494   6.746   1.166
11959TIP3    H135834   0.507   6.765   1.260
11959TIP3    H235835   0.558   6.677   1.147
11960TIP3   OH235836   1.219   0.384   1.138
11960TIP3    H135837   1.212   0.291   1.158
11960TIP3    H235838   1.132   0.420   1.156
11961TIP3   OH235839   3.689   0.067   6.414
11961TIP3    H135840   3.651   0.071   6.502
11961TIP3    H235841   3.761   0.130   6.417
11962TIP3   OH235842   7.919   4.552   2.723
11962TIP3    H135843   7.936   4.497   2.646
11962TIP3    H235844   7.987   4.526   2.786
11963TIP3   OH235845   6.450   7.172   2.192
11963TIP3    H135846   6.436   7.200   2.282
11963TIP3    H235847   6.363   7.147   2.160
11964TIP3   OH235848   1.253   1.469   6.241
11964TIP3    H135849   1.189   1.516   6.187
11964TIP3    H235850   1.229   1.377   6.232
11965TIP3   OH235851   4.017   0.639   0.431
11965TIP3    H135852   4.012   0.545   0.451
11965TIP3    H235853   4.073   0.644   0.354
11966TIP3   OH235854   7.827   2.866   0.973
11966TIP3    H135855   7.873   2.859   0.889
11966TIP3    H235856   7.734   2.866   0.949
11967TIP3   OH235857   0.373   3.666   4.003
11967TIP3    H135858   0.283   3.659   3.971
11967TIP3    H235859   0.366   3.723   4.080
11968TIP3   OH235860   6.553   7.587   3.852
11968TIP3    H135861   6.564   7.630   3.937
11968TIP3    H235862   6.626   7.526   3.846
11969TIP3   OH235863   7.684   1.380   5.231
11969TIP3    H135864   7.613   1.442   5.214
11969TIP3    H235865   7.693   1.330   5.150
11970TIP3   OH235866   5.539   6.084   2.171
11970TIP3    H135867   5.632   6.059   2.165
11970TIP3    H235868   5.531   6.126   2.257
11971TIP3   OH235869   2.987   3.841   4.399
11971TIP3    H135870   2.996   3.887   4.315
11971TIP3    H235871   2.900   3.865   4.431
11972TIP3   OH235872   5.521   2.111   4.114
11972TIP3    H135873   5.464   2.148   4.047
11972TIP3    H235874   5.527   2.018   4.093
11973TIP3   OH235875   6.815   5.444   5.023
11973TIP3    H135876   6.815   5.536   5.049
11973TIP3    H235877   6.890   5.406   5.069
11974TIP3   OH235878   5.278   4.286   4.939
11974TIP3    H135879   5.239   4.210   4.981
11974TIP3    H235880   5.217   4.358   4.957
11975TIP3   OH235881   0.181   0.292   1.498
11975TIP3    H135882   0.238   0.299   1.575
11975TIP3    H235883   0.153   0.200   1.499
11976TIP3   OH235884   6.366   3.971   6.149
11976TIP3    H135885   6.314   3.921   6.212
11976TIP3    H235886   6.421   3.906   6.106
11977TIP3   OH235887   3.781   6.716   5.211
11977TIP3    H135888   3.855   6.778   5.214
11977TIP3    H235889   3.762   6.705   5.118
11978TIP3   OH235890   5.118   4.670   5.715
11978TIP3    H135891   5.146   4.689   5.626
11978TIP3    H235892   5.136   4.750   5.764
11979TIP3   OH235893   6.882   0.015   1.505
11979TIP3    H135894   6.787   0.012   1.500
11979TIP3    H235895   6.906   0.098   1.464
11980TIP3   OH235896   7.201   6.756   3.511
11980TIP3    H135897   7.107   6.754   3.493
11980TIP3    H235898   7.208   6.731   3.603
11981TIP3   OH235899   8.188   5.443   4.046
11981TIP3    H135900   8.118   5.397   4.092
11981TIP3    H235901   8.182   5.533   4.076
11982TIP3   OH235902   1.410   5.638   5.776
11982TIP3    H135903   1.484   5.695   5.797
11982TIP3    H235904   1.344   5.659   5.842
11983TIP3   OH235905   5.793   5.444   2.935
11983TIP3    H135906   5.746   5.393   3.002
11983TIP3    H235907   5.778   5.535   2.959
11984TIP3   OH235908   6.015   2.603   5.434
11984TIP3    H135909   6.026   2.676   5.495
11984TIP3    H235910   5.948   2.632   5.372
11985TIP3   OH235911   0.924   7.136   6.618
11985TIP3    H135912   0.904   7.156   6.526
11985TIP3    H235913   0.967   7.051   6.615
11986TIP3   OH235914   3.719   3.183   4.308
11986TIP3    H135915   3.811   3.203   4.322
11986TIP3    H235916   3.711   3.170   4.213
11987TIP3   OH235917   2.522   4.646   6.397
11987TIP3    H135918   2.537   4.716   6.334
11987TIP3    H235919   2.455   4.591   6.358
11988TIP3   OH235920   4.955   7.347   5.295
11988TIP3    H135921   4.885   7.297   5.335
11988TIP3    H235922   4.961   7.427   5.349
11989TIP3   OH235923   7.954   6.075   2.338
11989TIP3    H135924   7.859   6.079   2.325
11989TIP3    H235925   7.979   6.165   2.357
11990TIP3   OH235926   4.908   7.040   5.254
11990TIP3    H135927   4.864   7.125   5.264
11990TIP3    H235928   4.915   7.006   5.343
11991TIP3   OH235929   1.284   0.980   0.312
11991TIP3    H135930   1.240   0.901   0.282
11991TIP3    H235931   1.266   0.984   0.406
11992TIP3   OH235932   5.156   6.621   1.419
11992TIP3    H135933   5.160   6.591   1.328
11992TIP3    H235934   5.229   6.577   1.462
11993TIP3   OH235935   0.856   6.197   6.348
11993TIP3    H135936   0.946   6.206   6.318
11993TIP3    H235937   0.858   6.224   6.440
11994TIP3   OH235938   5.189   5.055   3.752
11994TIP3    H135939   5.125   4.985   3.766
11994TIP3    H235940   5.265   5.029   3.804
11995TIP3   OH235941   1.199   0.124   0.837
11995TIP3    H135942   1.216   0.216   0.814
11995TIP3    H235943   1.107   0.123   0.864
11996TIP3   OH235944   6.568   5.983   5.048
11996TIP3    H135945   6.623   6.051   5.008
11996TIP3    H235946   6.618   5.954   5.125
11997TIP3   OH235947   6.331   7.271   0.656
11997TIP3    H135948   6.274   7.205   0.617
11997TIP3    H235949   6.404   7.222   0.692
11998TIP3   OH235950   7.181   2.197   6.757
11998TIP3    H135951   7.262   2.247   6.759
11998TIP3    H235952   7.112   2.263   6.759
11999TIP3   OH235953   5.281   1.653   2.885
11999TIP3    H135954   5.335   1.582   2.852
11999TIP3    H235955   5.247   1.621   2.969
12000TIP3   OH235956   3.469   3.784   6.803
12000TIP3    H135957   3.453   3.769   6.710
12000TIP3    H235958   3.550   3.836   6.805
12001TIP3   OH235959   1.591   5.566   1.578
12001TIP3    H135960   1.679   5.535   1.558
12001TIP3    H235961   1.547   5.568   1.493
12002TIP3   OH235962   6.989   5.121   4.190
12002TIP3    H135963   6.902   5.106   4.152
12002TIP3    H235964   7.022   5.199   4.146
12003TIP3   OH235965   2.011   2.608   4.131
12003TIP3    H135966   2.071   2.534   4.131
12003TIP3    H235967   2.003   2.633   4.223
12004TIP3   OH235968   3.379   4.013   3.219
12004TIP3    H135969   3.418   4.089   3.263
12004TIP3    H235970   3.440   3.942   3.236
12005TIP3   OH235971   1.121   1.919   2.984
12005TIP3    H135972   1.180   1.928   3.059
12005TIP3    H235973   1.034   1.935   3.020
12006TIP3   OH235974   2.201   7.816   2.338
12006TIP3    H135975   2.259   7.890   2.354
12006TIP3    H235976   2.247   7.741   2.376
12007TIP3   OH235977   1.033   5.924   0.349
12007TIP3    H135978   0.972   5.853   0.369
12007TIP3    H235979   0.978   5.996   0.319
12008TIP3   OH235980   7.523   5.315   3.758
12008TIP3    H135981   7.465   5.382   3.795
12008TIP3    H235982   7.611   5.347   3.775
12009TIP3   OH235983   4.436   5.611   0.977
12009TIP3    H135984   4.341   5.622   0.966
12009TIP3    H235985   4.474   5.677   0.919
12010TIP3   OH235986   4.138   1.190   3.402
12010TIP3    H135987   4.054   1.168   3.441
12010TIP3    H235988   4.181   1.245   3.466
12011TIP3   OH235989   6.518   1.995   5.777
12011TIP3    H135990   6.581   1.929   5.808
12011TIP3    H235991   6.569   2.051   5.719
12012TIP3   OH235992   0.388   3.736   1.542
12012TIP3    H135993   0.381   3.669   1.610
12012TIP3    H235994   0.463   3.708   1.489
12013TIP3   OH235995   0.210   2.056   6.053
12013TIP3    H135996   0.225   1.981   6.111
12013TIP3    H235997   0.216   2.020   5.965
12014TIP3   OH235998   0.188   1.387   0.117
12014TIP3    H135999   0.251   1.343   0.174
12014TIP3    H236000   0.180   1.328   0.041
12015TIP3   OH236001   8.260   0.551   2.176
12015TIP3    H136002   8.235   0.590   2.260
12015TIP3    H236003   8.292   0.624   2.124
12016TIP3   OH236004   7.386   0.540   3.694
12016TIP3    H136005   7.418   0.457   3.730
12016TIP3    H236006   7.312   0.562   3.750
12017TIP3   OH236007   2.558   6.734   4.226
12017TIP3    H136008   2.501   6.657   4.222
12017TIP3    H236009   2.644   6.698   4.251
12018TIP3   OH236010   3.787   7.196   3.374
12018TIP3    H136011   3.879   7.221   3.384
12018TIP3    H236012   3.776   7.120   3.431
12019TIP3   OH236013   5.253   0.662   1.996
12019TIP3    H136014   5.224   0.576   1.966
12019TIP3    H236015   5.327   0.683   1.940
12020TIP3   OH236016   7.477   1.214   5.739
12020TIP3    H136017   7.483   1.278   5.669
12020TIP3    H236018   7.479   1.129   5.694
12021TIP3   OH236019   3.082   2.689   3.739
12021TIP3    H136020   2.987   2.702   3.735
12021TIP3    H236021   3.093   2.607   3.789
12022TIP3   OH236022   6.902   5.600   5.526
12022TIP3    H136023   6.835   5.650   5.572
12022TIP3    H236024   6.983   5.620   5.573
12023TIP3   OH236025   8.140   6.068   3.744
12023TIP3    H136026   8.065   6.126   3.741
12023TIP3    H236027   8.211   6.117   3.703
12024TIP3   OH236028   5.592   7.233   2.289
12024TIP3    H136029   5.552   7.300   2.233
12024TIP3    H236030   5.549   7.152   2.264
12025TIP3   OH236031   4.570   2.959   0.080
12025TIP3    H136032   4.618   3.004   0.149
12025TIP3    H236033   4.497   2.916   0.125
12026TIP3   OH236034   3.383   7.837   6.066
12026TIP3    H136035   3.400   7.776   5.994
12026TIP3    H236036   3.288   7.849   6.064
12027TIP3   OH236037   0.110   2.958   0.209
12027TIP3    H136038   0.044   2.921   0.269
12027TIP3    H236039   0.074   3.043   0.184
12028TIP3   OH236040   1.787   3.538   5.597
12028TIP3    H136041   1.813   3.606   5.660
12028TIP3    H236042   1.809   3.576   5.511
12029TIP3   OH236043   3.250   6.186   0.145
12029TIP3    H136044   3.282   6.267   0.103
12029TIP3    H236045   3.320   6.161   0.205
12030TIP3   OH236046   8.057   2.322   1.184
12030TIP3    H136047   8.069   2.229   1.163
12030TIP3    H236048   8.142   2.362   1.165
12031TIP3   OH236049   4.840   1.682   0.607
12031TIP3    H136050   4.776   1.751   0.628
12031TIP3    H236051   4.842   1.628   0.686
12032TIP3   OH236052   4.685   7.201   1.156
12032TIP3    H136053   4.612   7.260   1.172
12032TIP3    H236054   4.763   7.250   1.183
12033TIP3   OH236055   2.999   0.679   0.949
12033TIP3    H136056   2.956   0.601   0.913
12033TIP3    H236057   3.045   0.717   0.874
12034TIP3   OH236058   3.352   7.584   5.673
12034TIP3    H136059   3.349   7.640   5.750
12034TIP3    H236060   3.280   7.615   5.618
12035TIP3   OH236061   0.614   0.938   5.107
12035TIP3    H136062   0.578   1.012   5.058
12035TIP3    H236063   0.553   0.927   5.180
12036TIP3   OH236064   5.289   6.901   5.748
12036TIP3    H136065   5.237   6.822   5.761
12036TIP3    H236066   5.341   6.882   5.670
12037TIP3   OH236067   1.839   7.185   1.535
12037TIP3    H136068   1.823   7.152   1.446
12037TIP3    H236069   1.788   7.266   1.540
12038TIP3   OH236070   0.752   3.077   1.660
12038TIP3    H136071   0.782   3.023   1.587
12038TIP3    H236072   0.829   3.089   1.715
12039TIP3   OH236073   8.237   7.024   5.261
12039TIP3    H136074   8.150   7.009   5.223
12039TIP3    H236075   8.240   7.118   5.277
12040TIP3   OH236076   5.249   0.285   6.183
12040TIP3    H136077   5.311   0.259   6.251
12040TIP3    H236078   5.197   0.354   6.223
12041TIP3   OH236079   6.324   7.096   0.375
12041TIP3    H136080   6.269   7.030   0.416
12041TIP3    H236081   6.285   7.110   0.288
12042TIP3   OH236082   4.559   7.379   5.811
12042TIP3    H136083   4.572   7.354   5.903
12042TIP3    H236084   4.480   7.431   5.811
12043TIP3   OH236085   1.013   5.372   6.364
12043TIP3    H136086   1.007   5.419   6.447
12043TIP3    H236087   0.962   5.425   6.303
12044TIP3   OH236088   6.858   3.760   3.607
12044TIP3    H136089   6.768   3.794   3.601
12044TIP3    H236090   6.872   3.716   3.523
12045TIP3   OH236091   2.639   6.326   1.068
12045TIP3    H136092   2.584   6.306   1.144
12045TIP3    H236093   2.727   6.299   1.095
12046TIP3   OH236094   4.508   4.070   6.340
12046TIP3    H136095   4.537   4.138   6.401
12046TIP3    H236096   4.585   4.017   6.324
12047TIP3   OH236097   1.583   5.758   6.269
12047TIP3    H136098   1.494   5.780   6.241
12047TIP3    H236099   1.580   5.664   6.285
12048TIP3   OH236100   2.546   2.705   5.293
12048TIP3    H136101   2.476   2.726   5.231
12048TIP3    H236102   2.601   2.642   5.247
12049TIP3   OH236103   0.961   3.472   6.491
12049TIP3    H136104   1.040   3.513   6.526
12049TIP3    H236105   0.905   3.546   6.466
12050TIP3   OH236106   0.150   3.369   4.122
12050TIP3    H136107   0.196   3.434   4.174
12050TIP3    H236108   0.057   3.389   4.133
12051TIP3   OH236109   5.875   2.961   5.904
12051TIP3    H136110   5.904   2.984   5.993
12051TIP3    H236111   5.874   3.044   5.857
12052TIP3   OH236112   1.022   6.766   4.713
12052TIP3    H136113   0.960   6.782   4.784
12052TIP3    H236114   1.108   6.780   4.754
12053TIP3   OH236115   6.652   4.783   4.280
12053TIP3    H136116   6.676   4.695   4.311
12053TIP3    H236117   6.708   4.842   4.330
12054TIP3   OH236118   0.747   6.144   2.636
12054TIP3    H136119   0.724   6.235   2.617
12054TIP3    H236120   0.821   6.151   2.696
12055TIP3   OH236121   3.947   3.067   0.181
12055TIP3    H136122   3.978   3.078   0.271
12055TIP3    H236123   3.854   3.045   0.191
12056TIP3   OH236124   7.532   3.153   3.828
12056TIP3    H136125   7.477   3.116   3.760
12056TIP3    H236126   7.590   3.214   3.782
12057TIP3   OH236127   0.421   7.692   1.342
12057TIP3    H136128   0.361   7.641   1.397
12057TIP3    H236129   0.454   7.630   1.277
12058TIP3   OH236130   7.784   3.439   2.244
12058TIP3    H136131   7.849   3.403   2.185
12058TIP3    H236132   7.784   3.533   2.226
12059TIP3   OH236133   0.908   5.578   6.535
12059TIP3    H136134   0.824   5.620   6.519
12059TIP3    H236135   0.972   5.649   6.538
12060TIP3   OH236136   1.005   1.943   3.488
12060TIP3    H136137   1.054   1.943   3.571
12060TIP3    H236138   1.034   2.021   3.442
12061TIP3   OH236139   2.517   6.707   0.586
12061TIP3    H136140   2.606   6.679   0.610
12061TIP3    H236141   2.461   6.634   0.613
12062TIP3   OH236142   4.148   2.277   1.920
12062TIP3    H136143   4.133   2.309   2.009
12062TIP3    H236144   4.155   2.182   1.930
12063TIP3   OH236145   3.905   6.959   2.854
12063TIP3    H136146   3.914   6.866   2.830
12063TIP3    H236147   3.816   6.982   2.826
12064TIP3   OH236148   7.081   2.261   5.725
12064TIP3    H136149   7.127   2.301   5.799
12064TIP3    H236150   7.143   2.197   5.690
12065TIP3   OH236151   4.713   5.700   5.070
12065TIP3    H136152   4.716   5.617   5.117
12065TIP3    H236153   4.788   5.749   5.103
12066TIP3   OH236154   1.230   0.771   2.813
12066TIP3    H136155   1.240   0.864   2.794
12066TIP3    H236156   1.298   0.728   2.761
12067TIP3   OH236157   6.939   4.363   5.328
12067TIP3    H136158   6.998   4.290   5.309
12067TIP3    H236159   6.889   4.375   5.248
12068TIP3   OH236160   1.974   0.657   6.490
12068TIP3    H136161   1.914   0.719   6.531
12068TIP3    H236162   2.002   0.599   6.561
12069TIP3   OH236163   7.218   3.966   5.447
12069TIP3    H136164   7.167   3.999   5.520
12069TIP3    H236165   7.159   3.972   5.372
12070TIP3   OH236166   6.021   2.799   2.827
12070TIP3    H136167   5.929   2.813   2.849
12070TIP3    H236168   6.040   2.711   2.859
12071TIP3   OH236169   6.675   3.641   6.680
12071TIP3    H136170   6.586   3.640   6.714
12071TIP3    H236171   6.665   3.665   6.588
12072TIP3   OH236172   3.859   6.036   3.228
12072TIP3    H136173   3.853   6.029   3.133
12072TIP3    H236174   3.944   5.998   3.250
12073TIP3   OH236175   5.108   6.728   5.874
12073TIP3    H136176   5.112   6.668   5.948
12073TIP3    H236177   5.139   6.677   5.799
12074TIP3   OH236178   2.952   0.100   4.137
12074TIP3    H136179   3.015   0.059   4.077
12074TIP3    H236180   2.868   0.062   4.111
12075TIP3   OH236181   3.479   6.111   5.332
12075TIP3    H136182   3.520   6.078   5.412
12075TIP3    H236183   3.400   6.056   5.322
12076TIP3   OH236184   7.971   4.100   1.340
12076TIP3    H136185   7.885   4.077   1.374
12076TIP3    H236186   7.957   4.184   1.296
12077TIP3   OH236187   7.658   5.311   2.227
12077TIP3    H136188   7.607   5.341   2.151
12077TIP3    H236189   7.747   5.303   2.194
12078TIP3   OH236190   0.250   4.839   0.249
12078TIP3    H136191   0.221   4.904   0.313
12078TIP3    H236192   0.339   4.867   0.225
12079TIP3   OH236193   2.988   5.630   0.526
12079TIP3    H136194   3.025   5.687   0.459
12079TIP3    H236195   3.063   5.604   0.580
12080TIP3   OH236196   1.991   4.170   3.654
12080TIP3    H136197   2.005   4.087   3.700
12080TIP3    H236198   2.075   4.187   3.611
12081TIP3   OH236199   2.786   4.031   1.903
12081TIP3    H136200   2.804   4.084   1.981
12081TIP3    H236201   2.755   4.094   1.838
12082TIP3   OH236202   4.191   3.205   4.336
12082TIP3    H136203   4.245   3.199   4.257
12082TIP3    H236204   4.202   3.295   4.366
12083TIP3   OH236205   4.427   0.506   2.331
12083TIP3    H136206   4.381   0.514   2.415
12083TIP3    H236207   4.474   0.589   2.322
12084TIP3   OH236208   3.721   2.318   2.741
12084TIP3    H136209   3.802   2.299   2.789
12084TIP3    H236210   3.652   2.292   2.802
12085TIP3   OH236211   3.195   5.385   0.349
12085TIP3    H136212   3.259   5.342   0.405
12085TIP3    H236213   3.214   5.353   0.261
12086TIP3   OH236214   6.046   7.400   0.684
12086TIP3    H136215   5.997   7.453   0.621
12086TIP3    H236216   5.978   7.356   0.736
12087TIP3   OH236217   6.072   0.003   4.420
12087TIP3    H136218   6.051   0.091   4.451
12087TIP3    H236219   5.987  -0.034   4.396
12088TIP3   OH236220   5.473   2.232   3.123
12088TIP3    H136221   5.443   2.322   3.112
12088TIP3    H236222   5.467   2.215   3.217
12089TIP3   OH236223   7.926   3.406   1.457
12089TIP3    H136224   8.012   3.369   1.475
12089TIP3    H236225   7.932   3.437   1.367
12090TIP3   OH236226   2.358   4.416   3.002
12090TIP3    H136227   2.265   4.436   2.987
12090TIP3    H236228   2.361   4.321   3.007
12091TIP3   OH236229   1.241   4.673   3.551
12091TIP3    H136230   1.210   4.737   3.488
12091TIP3    H236231   1.201   4.700   3.634
12092TIP3   OH236232   3.559   6.045   5.616
12092TIP3    H136233   3.469   6.075   5.613
12092TIP3    H236234   3.560   5.977   5.684
12093TIP3   OH236235   4.612   1.150   6.043
12093TIP3    H136236   4.667   1.072   6.044
12093TIP3    H236237   4.612   1.181   6.134
12094TIP3   OH236238   7.874   1.988   2.511
12094TIP3    H136239   7.862   2.074   2.472
12094TIP3    H236240   7.965   1.965   2.492
12095TIP3   OH236241   3.268   5.735   0.809
12095TIP3    H136242   3.217   5.654   0.815
12095TIP3    H236243   3.222   5.796   0.867
12096TIP3   OH236244   0.580   5.848   4.171
12096TIP3    H136245   0.493   5.814   4.150
12096TIP3    H236246   0.625   5.775   4.214
12097TIP3   OH236247   5.178   4.640   3.299
12097TIP3    H136248   5.209   4.731   3.297
12097TIP3    H236249   5.258   4.588   3.304
12098TIP3   OH236250   0.114   2.131   2.371
12098TIP3    H136251   0.039   2.122   2.312
12098TIP3    H236252   0.103   2.218   2.410
12099TIP3   OH236253   6.486   0.089   5.339
12099TIP3    H136254   6.567   0.079   5.389
12099TIP3    H236255   6.516   0.099   5.248
12100TIP3   OH236256   3.261   7.043   0.407
12100TIP3    H136257   3.262   7.116   0.469
12100TIP3    H236258   3.290   6.968   0.458
12101TIP3   OH236259   6.653   0.514   2.839
12101TIP3    H136260   6.661   0.595   2.789
12101TIP3    H236261   6.679   0.538   2.928
12102TIP3   OH236262   6.986   2.029   3.637
12102TIP3    H136263   7.005   1.986   3.554
12102TIP3    H236264   6.902   2.071   3.623
12103TIP3   OH236265   4.454   6.458   0.526
12103TIP3    H136266   4.372   6.494   0.559
12103TIP3    H236267   4.510   6.451   0.603
12104TIP3   OH236268   5.072   4.634   6.384
12104TIP3    H136269   5.112   4.720   6.367
12104TIP3    H236270   5.102   4.612   6.473
12105TIP3   OH236271   6.400   6.266   0.667
12105TIP3    H136272   6.430   6.232   0.583
12105TIP3    H236273   6.435   6.204   0.731
12106TIP3   OH236274   1.987   1.714   0.107
12106TIP3    H136275   2.061   1.743   0.159
12106TIP3    H236276   1.911   1.753   0.149
12107TIP3   OH236277   1.151   6.736   3.573
12107TIP3    H136278   1.087   6.665   3.566
12107TIP3    H236279   1.138   6.787   3.493
12108TIP3   OH236280   2.128   0.221   0.511
12108TIP3    H136281   2.094   0.183   0.430
12108TIP3    H236282   2.190   0.288   0.481
12109TIP3   OH236283   0.181   3.423   6.483
12109TIP3    H136284   0.094   3.413   6.521
12109TIP3    H236285   0.237   3.450   6.556
12110TIP3   OH236286   6.697   5.352   6.576
12110TIP3    H136287   6.669   5.421   6.637
12110TIP3    H236288   6.646   5.275   6.602
12111TIP3   OH236289   7.619   6.376   2.984
12111TIP3    H136290   7.701   6.402   2.941
12111TIP3    H236291   7.559   6.357   2.912
12112TIP3   OH236292   0.114   3.900   5.076
12112TIP3    H136293   0.030   3.946   5.079
12112TIP3    H236294   0.161   3.933   5.153
12113TIP3   OH236295   5.627   5.863   4.779
12113TIP3    H136296   5.553   5.911   4.743
12113TIP3    H236297   5.671   5.823   4.703
12114TIP3   OH236298   3.966   5.408   3.975
12114TIP3    H136299   4.027   5.472   3.938
12114TIP3    H236300   3.936   5.358   3.899
12115TIP3   OH236301   6.045   6.921   1.090
12115TIP3    H136302   6.061   6.860   1.018
12115TIP3    H236303   6.086   7.003   1.061
12116TIP3   OH236304   5.646   5.352   0.279
12116TIP3    H136305   5.635   5.285   0.347
12116TIP3    H236306   5.577   5.416   0.297
12117TIP3   OH236307   7.704   7.413   2.778
12117TIP3    H136308   7.799   7.403   2.772
12117TIP3    H236309   7.684   7.490   2.724
12118TIP3   OH236310   3.365   2.741   6.139
12118TIP3    H136311   3.398   2.750   6.228
12118TIP3    H236312   3.444   2.728   6.086
12119TIP3   OH236313   6.756   5.633   1.740
12119TIP3    H136314   6.783   5.636   1.648
12119TIP3    H236315   6.694   5.560   1.743
12120TIP3   OH236316   5.271   4.976   5.263
12120TIP3    H136317   5.264   4.990   5.357
12120TIP3    H236318   5.351   4.926   5.251
12121TIP3   OH236319   0.986   1.058   1.724
12121TIP3    H136320   0.995   1.116   1.799
12121TIP3    H236321   0.892   1.044   1.716
12122TIP3   OH236322   1.967   0.898   4.941
12122TIP3    H136323   2.019   0.916   5.019
12122TIP3    H236324   1.991   0.808   4.917
12123TIP3   OH236325   4.866   1.290   2.424
12123TIP3    H136326   4.813   1.262   2.349
12123TIP3    H236327   4.874   1.385   2.414
12124TIP3   OH236328   3.508   2.236   2.931
12124TIP3    H136329   3.532   2.297   3.001
12124TIP3    H236330   3.434   2.187   2.967
12125TIP3   OH236331   7.758   4.199   6.365
12125TIP3    H136332   7.702   4.235   6.296
12125TIP3    H236333   7.844   4.191   6.325
12126TIP3   OH236334   5.195   2.006   1.627
12126TIP3    H136335   5.236   2.091   1.644
12126TIP3    H236336   5.111   2.028   1.586
12127TIP3   OH236337   0.726   5.138   0.741
12127TIP3    H136338   0.700   5.054   0.703
12127TIP3    H236339   0.662   5.154   0.810
12128TIP3   OH236340   2.762   6.302   6.426
12128TIP3    H136341   2.741   6.237   6.493
12128TIP3    H236342   2.799   6.252   6.354
12129TIP3   OH236343   4.853   6.190   3.296
12129TIP3    H136344   4.784   6.222   3.238
12129TIP3    H236345   4.840   6.238   3.378
12130TIP3   OH236346   6.642   7.387   4.401
12130TIP3    H136347   6.658   7.423   4.313
12130TIP3    H236348   6.553   7.414   4.422
12131TIP3   OH236349   4.323   3.850   5.404
12131TIP3    H136350   4.256   3.787   5.432
12131TIP3    H236351   4.297   3.875   5.315
12132TIP3   OH236352   2.379   7.503   4.904
12132TIP3    H136353   2.435   7.482   4.830
12132TIP3    H236354   2.291   7.511   4.866
12133TIP3   OH236355   1.251   7.307   2.618
12133TIP3    H136356   1.159   7.321   2.638
12133TIP3    H236357   1.291   7.394   2.626
12134TIP3   OH236358   2.605   4.684   5.165
12134TIP3    H136359   2.568   4.708   5.250
12134TIP3    H236360   2.697   4.665   5.184
12135TIP3   OH236361   5.041   7.212   6.747
12135TIP3    H136362   4.998   7.275   6.689
12135TIP3    H236363   5.133   7.212   6.719
12136TIP3   OH236364   6.915   6.801   5.272
12136TIP3    H136365   6.897   6.886   5.231
12136TIP3    H236366   6.853   6.796   5.345
12137TIP3   OH236367   7.687   6.449   2.415
12137TIP3    H136368   7.679   6.498   2.496
12137TIP3    H236369   7.602   6.407   2.403
12138TIP3   OH236370   1.043   0.085   5.970
12138TIP3    H136371   0.985   0.160   5.951
12138TIP3    H236372   1.103   0.083   5.895
12139TIP3   OH236373   7.095   6.972   6.546
12139TIP3    H136374   7.064   7.050   6.502
12139TIP3    H236375   7.094   6.994   6.639
12140TIP3   OH236376   6.834   0.752   5.852
12140TIP3    H136377   6.892   0.805   5.907
12140TIP3    H236378   6.865   0.662   5.864
12141TIP3   OH236379   1.392   2.832   0.897
12141TIP3    H136380   1.298   2.847   0.892
12141TIP3    H236381   1.430   2.920   0.904
12142TIP3   OH236382   7.467   4.671   2.106
12142TIP3    H136383   7.465   4.732   2.181
12142TIP3    H236384   7.427   4.720   2.035
12143TIP3   OH236385   1.201   5.796   5.910
12143TIP3    H136386   1.155   5.712   5.908
12143TIP3    H236387   1.169   5.842   5.833
12144TIP3   OH236388   5.919   0.531   0.836
12144TIP3    H136389   5.912   0.517   0.742
12144TIP3    H236390   5.859   0.603   0.854
12145TIP3   OH236391   4.614   4.378   2.825
12145TIP3    H136392   4.595   4.287   2.800
12145TIP3    H236393   4.675   4.370   2.899
12146TIP3   OH236394   2.916   1.263   2.818
12146TIP3    H136395   2.887   1.210   2.743
12146TIP3    H236396   2.874   1.221   2.894
12147TIP3   OH236397   6.211   0.181   2.679
12147TIP3    H136398   6.186   0.207   2.768
12147TIP3    H236399   6.304   0.203   2.673
12148TIP3   OH236400   4.503   5.390   3.758
12148TIP3    H136401   4.479   5.318   3.816
12148TIP3    H236402   4.583   5.426   3.796
12149TIP3   OH236403   1.065   6.896   3.360
12149TIP3    H136404   0.982   6.909   3.315
12149TIP3    H236405   1.122   6.854   3.296
12150TIP3   OH236406   4.501   5.637   3.306
12150TIP3    H136407   4.463   5.599   3.386
12150TIP3    H236408   4.594   5.643   3.325
12151TIP3   OH236409   2.855   2.161   3.162
12151TIP3    H136410   2.931   2.164   3.220
12151TIP3    H236411   2.877   2.095   3.096
12152TIP3   OH236412   2.043   0.454   2.999
12152TIP3    H136413   1.984   0.447   2.923
12152TIP3    H236414   2.018   0.536   3.041
12153TIP3   OH236415   6.898   4.463   6.747
12153TIP3    H136416   6.907   4.490   6.839
12153TIP3    H236417   6.971   4.505   6.702
12154TIP3   OH236418   4.500   1.666   0.256
12154TIP3    H136419   4.575   1.633   0.206
12154TIP3    H236420   4.452   1.588   0.282
12155TIP3   OH236421   4.078   0.186   3.728
12155TIP3    H136422   4.097   0.193   3.822
12155TIP3    H236423   3.982   0.194   3.723
12156TIP3   OH236424   7.839   7.261   1.522
12156TIP3    H136425   7.914   7.214   1.558
12156TIP3    H236426   7.816   7.213   1.442
12157TIP3   OH236427   0.990   3.536   3.639
12157TIP3    H136428   0.949   3.618   3.612
12157TIP3    H236429   0.990   3.538   3.734
12158TIP3   OH236430   5.343   4.218   6.660
12158TIP3    H136431   5.414   4.269   6.622
12158TIP3    H236432   5.264   4.254   6.620
12159TIP3   OH236433   6.925   6.674   2.305
12159TIP3    H136434   6.884   6.734   2.366
12159TIP3    H236435   7.017   6.700   2.304
12160TIP3   OH236436   6.863   4.539   0.642
12160TIP3    H136437   6.882   4.446   0.633
12160TIP3    H236438   6.839   4.567   0.554
12161TIP3   OH236439   8.273   2.207   5.595
12161TIP3    H136440   8.204   2.165   5.544
12161TIP3    H236441   8.351   2.197   5.541
12162TIP3   OH236442   7.433   2.972   4.455
12162TIP3    H136443   7.395   3.009   4.375
12162TIP3    H236444   7.372   2.998   4.524
12163TIP3   OH236445   3.476   6.517   5.958
12163TIP3    H136446   3.410   6.584   5.939
12163TIP3    H236447   3.545   6.532   5.894
12164TIP3   OH236448   6.669   1.571   5.296
12164TIP3    H136449   6.608   1.642   5.276
12164TIP3    H236450   6.644   1.500   5.238
12165TIP3   OH236451   5.886   1.892   1.704
12165TIP3    H136452   5.930   1.974   1.728
12165TIP3    H236453   5.893   1.888   1.609
12166TIP3   OH236454   8.119   3.682   1.541
12166TIP3    H136455   8.062   3.748   1.582
12166TIP3    H236456   8.109   3.605   1.596
12167TIP3   OH236457   5.656   1.466   3.611
12167TIP3    H136458   5.689   1.506   3.531
12167TIP3    H236459   5.594   1.530   3.647
12168TIP3   OH236460   2.264   4.027   1.876
12168TIP3    H136461   2.204   4.099   1.858
12168TIP3    H236462   2.261   4.016   1.971
12169TIP3   OH236463   3.039   2.244   4.194
12169TIP3    H136464   3.094   2.211   4.265
12169TIP3    H236465   2.992   2.167   4.163
12170TIP3   OH236466   3.508   1.232   4.017
12170TIP3    H136467   3.555   1.155   4.047
12170TIP3    H236468   3.436   1.197   3.964
12171TIP3   OH236469   3.745   3.690   4.540
12171TIP3    H136470   3.747   3.636   4.460
12171TIP3    H236471   3.689   3.764   4.517
12172TIP3   OH236472   0.980   5.334   3.764
12172TIP3    H136473   1.074   5.328   3.779
12172TIP3    H236474   0.945   5.250   3.795
12173TIP3   OH236475   0.217   7.102   0.151
12173TIP3    H136476   0.166   7.162   0.206
12173TIP3    H236477   0.172   7.018   0.159
12174TIP3   OH236478   1.975   0.638   4.376
12174TIP3    H136479   1.947   0.646   4.284
12174TIP3    H236480   1.955   0.547   4.399
12175TIP3   OH236481   5.999   6.035   1.790
12175TIP3    H136482   6.058   6.109   1.799
12175TIP3    H236483   5.996   5.995   1.877
12176TIP3   OH236484   1.392   3.033   1.203
12176TIP3    H136485   1.455   3.078   1.146
12176TIP3    H236486   1.437   2.954   1.230
12177TIP3   OH236487   7.348   4.012   1.801
12177TIP3    H136488   7.381   4.060   1.877
12177TIP3    H236489   7.282   4.070   1.763
12178TIP3   OH236490   6.354   1.373   0.391
12178TIP3    H136491   6.400   1.408   0.315
12178TIP3    H236492   6.304   1.299   0.356
12179TIP3   OH236493   1.733   7.442   3.321
12179TIP3    H136494   1.651   7.398   3.344
12179TIP3    H236495   1.789   7.373   3.287
12180TIP3   OH236496   6.732   2.596   1.944
12180TIP3    H136497   6.817   2.640   1.943
12180TIP3    H236498   6.671   2.663   1.976
12181TIP3   OH236499   8.261   6.192   5.396
12181TIP3    H136500   8.235   6.274   5.438
12181TIP3    H236501   8.183   6.162   5.349
12182TIP3   OH236502   7.268   6.784   0.254
12182TIP3    H136503   7.241   6.693   0.267
12182TIP3    H236504   7.284   6.791   0.160
12183TIP3   OH236505   1.055   0.332   4.014
12183TIP3    H136506   1.056   0.425   4.033
12183TIP3    H236507   1.133   0.318   3.960
12184TIP3   OH236508   2.669   2.386   5.441
12184TIP3    H136509   2.746   2.402   5.495
12184TIP3    H236510   2.690   2.429   5.358
12185TIP3   OH236511   2.392   7.631   5.756
12185TIP3    H136512   2.318   7.579   5.723
12185TIP3    H236513   2.466   7.606   5.700
12186TIP3   OH236514   1.834   5.203   3.815
12186TIP3    H136515   1.890   5.254   3.756
12186TIP3    H236516   1.747   5.240   3.803
12187TIP3   OH236517   0.896   4.493   4.640
12187TIP3    H136518   0.939   4.465   4.721
12187TIP3    H236519   0.876   4.412   4.594
12188TIP3   OH236520   3.063   2.754   5.475
12188TIP3    H136521   3.117   2.730   5.549
12188TIP3    H236522   2.974   2.759   5.511
12189TIP3   OH236523   4.210   1.763   1.218
12189TIP3    H136524   4.117   1.760   1.238
12189TIP3    H236525   4.239   1.849   1.248
12190TIP3   OH236526   4.789   0.004   1.320
12190TIP3    H136527   4.834  -0.031   1.242
12190TIP3    H236528   4.788   0.098   1.307
12191TIP3   OH236529   4.595   2.289   6.532
12191TIP3    H136530   4.683   2.262   6.559
12191TIP3    H236531   4.562   2.341   6.605
12192TIP3   OH236532   4.799   5.170   4.538
12192TIP3    H136533   4.807   5.237   4.605
12192TIP3    H236534   4.706   5.169   4.516
12193TIP3   OH236535   4.861   4.877   1.648
12193TIP3    H136536   4.772   4.846   1.667
12193TIP3    H236537   4.873   4.862   1.554
12194TIP3   OH236538   2.799   1.747   6.340
12194TIP3    H136539   2.717   1.795   6.353
12194TIP3    H236540   2.864   1.794   6.392
12195TIP3   OH236541   5.719   2.057   5.959
12195TIP3    H136542   5.768   2.139   5.948
12195TIP3    H236543   5.740   2.006   5.880
12196TIP3   OH236544   7.597   0.627   5.076
12196TIP3    H136545   7.683   0.631   5.116
12196TIP3    H236546   7.535   0.631   5.149
12197TIP3   OH236547   7.232   2.751   0.474
12197TIP3    H136548   7.248   2.685   0.541
12197TIP3    H236549   7.229   2.834   0.522
12198TIP3   OH236550   6.944   4.638   1.821
12198TIP3    H136551   6.850   4.628   1.838
12198TIP3    H236552   6.954   4.612   1.729
12199TIP3   OH236553   2.355   0.246   5.889
12199TIP3    H136554   2.427   0.285   5.840
12199TIP3    H236555   2.276   0.279   5.846
12200TIP3   OH236556   3.533   4.292   1.325
12200TIP3    H136557   3.458   4.239   1.353
12200TIP3    H236558   3.495   4.355   1.264
12201TIP3   OH236559   1.623   6.787   5.958
12201TIP3    H136560   1.558   6.852   5.934
12201TIP3    H236561   1.585   6.741   6.033
12202TIP3   OH236562   2.470   2.342   1.789
12202TIP3    H136563   2.401   2.362   1.853
12202TIP3    H236564   2.476   2.247   1.789
12203TIP3   OH236565   5.004   0.682   5.780
12203TIP3    H136566   4.955   0.699   5.861
12203TIP3    H236567   4.956   0.729   5.712
12204TIP3   OH236568   4.584   2.775   1.379
12204TIP3    H136569   4.635   2.696   1.361
12204TIP3    H236570   4.564   2.771   1.472
12205TIP3   OH236571   4.031   3.184   0.980
12205TIP3    H136572   4.009   3.277   0.969
12205TIP3    H236573   3.996   3.161   1.066
12206TIP3   OH236574   7.218   1.597   3.694
12206TIP3    H136575   7.269   1.558   3.623
12206TIP3    H236576   7.268   1.675   3.718
12207TIP3   OH236577   5.804   2.306   2.357
12207TIP3    H136578   5.764   2.382   2.315
12207TIP3    H236579   5.766   2.230   2.312
12208TIP3   OH236580   4.882   3.292   2.968
12208TIP3    H136581   4.923   3.303   3.054
12208TIP3    H236582   4.791   3.318   2.981
12209TIP3   OH236583   1.695   7.750   1.719
12209TIP3    H136584   1.695   7.688   1.792
12209TIP3    H236585   1.787   7.772   1.706
12210TIP3   OH236586   6.681   6.961   0.934
12210TIP3    H136587   6.696   6.886   0.992
12210TIP3    H236588   6.703   6.929   0.847
12211TIP3   OH236589   4.886   3.918   3.356
12211TIP3    H136590   4.870   3.864   3.279
12211TIP3    H236591   4.852   3.867   3.429
12212TIP3   OH236592   0.741   4.425   6.708
12212TIP3    H136593   0.835   4.422   6.692
12212TIP3    H236594   0.718   4.335   6.735
12213TIP3   OH236595   3.630   0.673   1.040
12213TIP3    H136596   3.636   0.761   1.078
12213TIP3    H236597   3.536   0.653   1.041
12214TIP3   OH236598   8.034   1.588   2.321
12214TIP3    H136599   7.944   1.618   2.332
12214TIP3    H236600   8.050   1.530   2.396
12215TIP3   OH236601   4.056   3.276   3.530
12215TIP3    H136602   4.131   3.220   3.510
12215TIP3    H236603   4.084   3.364   3.505
12216TIP3   OH236604   1.579   3.300   6.194
12216TIP3    H136605   1.582   3.396   6.192
12216TIP3    H236606   1.489   3.280   6.219
12217TIP3   OH236607   8.239   1.657   4.952
12217TIP3    H136608   8.291   1.688   5.026
12217TIP3    H236609   8.238   1.731   4.891
12218TIP3   OH236610   1.175   0.812   2.214
12218TIP3    H136611   1.140   0.841   2.129
12218TIP3    H236612   1.146   0.721   2.222
12219TIP3   OH236613   0.884   5.969   1.190
12219TIP3    H136614   0.947   5.913   1.235
12219TIP3    H236615   0.932   6.049   1.169
12220TIP3   OH236616   3.017   4.261   2.864
12220TIP3    H136617   3.089   4.235   2.922
12220TIP3    H236618   2.949   4.292   2.923
12221TIP3   OH236619   3.696   4.651   1.207
12221TIP3    H136620   3.679   4.726   1.150
12221TIP3    H236621   3.677   4.575   1.154
12222TIP3   OH236622   5.849   3.183   0.175
12222TIP3    H136623   5.905   3.143   0.108
12222TIP3    H236624   5.771   3.128   0.176
12223TIP3   OH236625   6.336   0.509   1.238
12223TIP3    H136626   6.324   0.575   1.306
12223TIP3    H236627   6.257   0.514   1.185
12224TIP3   OH236628   1.209   1.389   4.125
12224TIP3    H136629   1.253   1.319   4.077
12224TIP3    H236630   1.280   1.439   4.166
12225TIP3   OH236631   2.298   7.575   2.390
12225TIP3    H136632   2.233   7.519   2.348
12225TIP3    H236633   2.319   7.529   2.472
12226TIP3   OH236634   5.145   7.542   5.621
12226TIP3    H136635   5.186   7.488   5.554
12226TIP3    H236636   5.217   7.588   5.664
12227TIP3   OH236637   4.043   5.535   5.963
12227TIP3    H136638   3.969   5.475   5.966
12227TIP3    H236639   4.061   5.546   5.869
12228TIP3   OH236640   1.858   4.097   2.072
12228TIP3    H136641   1.864   4.190   2.051
12228TIP3    H236642   1.938   4.078   2.121
12229TIP3   OH236643   3.458   2.272   3.409
12229TIP3    H136644   3.503   2.350   3.439
12229TIP3    H236645   3.366   2.286   3.432
12230TIP3   OH236646   4.181   1.584   0.979
12230TIP3    H136647   4.220   1.523   1.042
12230TIP3    H236648   4.189   1.669   1.022
12231TIP3   OH236649   7.226   5.206   3.788
12231TIP3    H136650   7.186   5.217   3.702
12231TIP3    H236651   7.317   5.182   3.770
12232TIP3   OH236652   0.959   7.406   0.484
12232TIP3    H136653   0.979   7.336   0.546
12232TIP3    H236654   0.959   7.364   0.398
12233TIP3   OH236655   0.445   5.872   2.236
12233TIP3    H136656   0.364   5.825   2.217
12233TIP3    H236657   0.474   5.905   2.151
12234TIP3   OH236658   1.599   4.736   4.259
12234TIP3    H136659   1.566   4.789   4.187
12234TIP3    H236660   1.617   4.650   4.220
12235TIP3   OH236661   5.436   5.504   3.083
12235TIP3    H136662   5.470   5.508   2.994
12235TIP3    H236663   5.359   5.447   3.077
12236TIP3   OH236664   5.859   1.065   0.418
12236TIP3    H136665   5.828   1.000   0.355
12236TIP3    H236666   5.915   1.016   0.477
12237TIP3   OH236667   7.984   7.225   2.596
12237TIP3    H136668   8.001   7.133   2.576
12237TIP3    H236669   8.056   7.250   2.654
12238TIP3   OH236670   0.634   1.394   2.629
12238TIP3    H136671   0.658   1.371   2.719
12238TIP3    H236672   0.566   1.461   2.638
12239TIP3   OH236673   3.911   2.423   1.000
12239TIP3    H136674   3.961   2.502   1.019
12239TIP3    H236675   3.824   2.440   1.037
12240TIP3   OH236676   0.143   2.517   4.231
12240TIP3    H136677   0.215   2.457   4.211
12240TIP3    H236678   0.091   2.471   4.297
12241TIP3   OH236679   7.696   4.412   2.475
12241TIP3    H136680   7.674   4.497   2.515
12241TIP3    H236681   7.749   4.435   2.399
12242TIP3   OH236682   1.153   2.694   6.318
12242TIP3    H136683   1.084   2.651   6.268
12242TIP3    H236684   1.178   2.770   6.264
12243TIP3   OH236685   2.802   2.751   5.560
12243TIP3    H136686   2.765   2.812   5.496
12243TIP3    H236687   2.729   2.730   5.618
12244TIP3   OH236688   1.214   1.997   5.184
12244TIP3    H136689   1.213   1.974   5.277
12244TIP3    H236690   1.130   1.966   5.150
12245TIP3   OH236691   4.451   0.251   3.688
12245TIP3    H136692   4.520   0.187   3.705
12245TIP3    H236693   4.495   0.320   3.638
12246TIP3   OH236694   0.985   2.695   3.436
12246TIP3    H136695   0.987   2.599   3.445
12246TIP3    H236696   0.947   2.709   3.349
12247TIP3   OH236697   3.937   6.666   5.457
12247TIP3    H136698   4.024   6.631   5.437
12247TIP3    H236699   3.890   6.665   5.374
12248TIP3   OH236700   1.042   7.604   3.024
12248TIP3    H136701   1.018   7.619   3.115
12248TIP3    H236702   1.041   7.692   2.985
12249TIP3   OH236703   2.546   4.437   4.338
12249TIP3    H136704   2.491   4.511   4.362
12249TIP3    H236705   2.485   4.370   4.307
12250TIP3   OH236706   0.293   7.133   0.585
12250TIP3    H136707   0.372   7.097   0.545
12250TIP3    H236708   0.296   7.102   0.675
12251TIP3   OH236709   1.360   7.359   4.689
12251TIP3    H136710   1.339   7.357   4.782
12251TIP3    H236711   1.296   7.301   4.648
12252TIP3   OH236712   2.843   3.148   1.078
12252TIP3    H136713   2.789   3.183   1.148
12252TIP3    H236714   2.876   3.225   1.031
12253TIP3   OH236715   6.867   1.104   4.469
12253TIP3    H136716   6.802   1.033   4.465
12253TIP3    H236717   6.897   1.114   4.379
12254TIP3   OH236718   1.725   1.219   4.931
12254TIP3    H136719   1.661   1.148   4.926
12254TIP3    H236720   1.793   1.194   4.868
12255TIP3   OH236721   2.525   7.125   6.399
12255TIP3    H136722   2.438   7.095   6.373
12255TIP3    H236723   2.560   7.053   6.452
12256TIP3   OH236724   3.986   6.209   1.470
12256TIP3    H136725   4.041   6.204   1.548
12256TIP3    H236726   4.047   6.210   1.397
12257TIP3   OH236727   2.893   6.560   4.012
12257TIP3    H136728   2.892   6.490   4.077
12257TIP3    H236729   2.982   6.560   3.978
12258TIP3   OH236730   1.191   2.729   1.750
12258TIP3    H136731   1.128   2.658   1.761
12258TIP3    H236732   1.143   2.797   1.702
12259TIP3   OH236733   7.482   6.734   2.344
12259TIP3    H136734   7.475   6.683   2.425
12259TIP3    H236735   7.519   6.818   2.372
12260TIP3   OH236736   0.941   1.626   6.426
12260TIP3    H136737   0.859   1.674   6.415
12260TIP3    H236738   0.956   1.625   6.521
12261TIP3   OH236739   4.278   2.481   2.098
12261TIP3    H136740   4.256   2.556   2.043
12261TIP3    H236741   4.242   2.503   2.184
12262TIP3   OH236742   6.985   1.878   5.168
12262TIP3    H136743   7.040   1.938   5.118
12262TIP3    H236744   6.973   1.802   5.111
12263TIP3   OH236745   5.245   5.275   3.057
12263TIP3    H136746   5.304   5.232   3.118
12263TIP3    H236747   5.208   5.204   3.004
12264TIP3   OH236748   7.035   1.292   4.551
12264TIP3    H136749   6.982   1.214   4.535
12264TIP3    H236750   7.017   1.348   4.476
12265TIP3   OH236751   5.791   1.576   1.467
12265TIP3    H136752   5.767   1.613   1.552
12265TIP3    H236753   5.883   1.599   1.456
12266TIP3   OH236754   1.719   4.022   4.241
12266TIP3    H136755   1.745   4.096   4.187
12266TIP3    H236756   1.734   4.051   4.331
12267TIP3   OH236757   0.502   2.587   2.335
12267TIP3    H136758   0.492   2.594   2.241
12267TIP3    H236759   0.447   2.657   2.371
12268TIP3   OH236760   4.163   7.528   2.845
12268TIP3    H136761   4.242   7.581   2.851
12268TIP3    H236762   4.187   7.454   2.790
12269TIP3   OH236763   6.980   3.689   3.371
12269TIP3    H136764   7.055   3.630   3.384
12269TIP3    H236765   6.988   3.718   3.280
12270TIP3   OH236766   6.567   2.627   4.712
12270TIP3    H136767   6.614   2.605   4.632
12270TIP3    H236768   6.577   2.549   4.767
12271TIP3   OH236769   1.155   4.744   5.619
12271TIP3    H136770   1.214   4.784   5.683
12271TIP3    H236771   1.083   4.709   5.670
12272TIP3   OH236772   2.344   3.840   1.462
12272TIP3    H136773   2.388   3.759   1.438
12272TIP3    H236774   2.256   3.814   1.486
12273TIP3   OH236775   6.809   7.206   0.833
12273TIP3    H136776   6.854   7.182   0.752
12273TIP3    H236777   6.776   7.123   0.868
12274TIP3   OH236778   3.443   1.184   6.067
12274TIP3    H136779   3.480   1.199   5.980
12274TIP3    H236780   3.519   1.180   6.125
12275TIP3   OH236781   3.858   0.464   1.484
12275TIP3    H136782   3.925   0.474   1.417
12275TIP3    H236783   3.775   0.484   1.439
12276TIP3   OH236784   5.713   5.070   2.349
12276TIP3    H136785   5.701   4.999   2.286
12276TIP3    H236786   5.626   5.084   2.386
12277TIP3   OH236787   6.558   3.251   4.956
12277TIP3    H136788   6.626   3.184   4.959
12277TIP3    H236789   6.600   3.331   4.988
12278TIP3   OH236790   6.354   7.461   0.854
12278TIP3    H136791   6.420   7.392   0.862
12278TIP3    H236792   6.374   7.521   0.926
12279TIP3   OH236793   8.323   1.218   4.311
12279TIP3    H136794   8.298   1.174   4.230
12279TIP3    H236795   8.284   1.165   4.380
12280TIP3   OH236796   0.894   2.523   4.477
12280TIP3    H136797   0.951   2.446   4.472
12280TIP3    H236798   0.953   2.596   4.459
12281TIP3   OH236799   1.348   0.029   6.666
12281TIP3    H136800   1.257   0.004   6.680
12281TIP3    H236801   1.348   0.077   6.584
12282TIP3   OH236802   2.028   0.380   3.811
12282TIP3    H136803   2.068   0.364   3.896
12282TIP3    H236804   2.079   0.327   3.750
12283TIP3   OH236805   7.084   4.266   6.121
12283TIP3    H136806   7.024   4.315   6.178
12283TIP3    H236807   7.105   4.326   6.050
12284TIP3   OH236808   4.109   2.108   2.801
12284TIP3    H136809   4.128   2.116   2.895
12284TIP3    H236810   4.082   2.016   2.790
12285TIP3   OH236811   2.621   7.320   0.873
12285TIP3    H136812   2.563   7.336   0.947
12285TIP3    H236813   2.693   7.382   0.885
12286TIP3   OH236814   3.177   4.931   0.959
12286TIP3    H136815   3.140   4.940   0.871
12286TIP3    H236816   3.250   4.993   0.960
12287TIP3   OH236817   4.271   4.166   5.768
12287TIP3    H136818   4.317   4.108   5.707
12287TIP3    H236819   4.198   4.113   5.802
12288TIP3   OH236820   5.806   4.585   6.646
12288TIP3    H136821   5.824   4.635   6.567
12288TIP3    H236822   5.737   4.523   6.620
12289TIP3   OH236823   1.250   1.704   1.166
12289TIP3    H136824   1.195   1.755   1.225
12289TIP3    H236825   1.214   1.722   1.079
12290TIP3   OH236826   6.093   2.841   0.546
12290TIP3    H136827   6.020   2.792   0.584
12290TIP3    H236828   6.166   2.779   0.544
12291TIP3   OH236829   6.679   5.755   6.300
12291TIP3    H136830   6.748   5.706   6.344
12291TIP3    H236831   6.663   5.831   6.356
12292TIP3   OH236832   8.092   1.456   5.935
12292TIP3    H136833   8.037   1.522   5.893
12292TIP3    H236834   8.182   1.479   5.910
12293TIP3   OH236835   7.840   4.926   1.570
12293TIP3    H136836   7.909   4.859   1.570
12293TIP3    H236837   7.773   4.891   1.512
12294TIP3   OH236838   1.342   7.178   5.829
12294TIP3    H136839   1.311   7.214   5.746
12294TIP3    H236840   1.303   7.233   5.896
12295TIP3   OH236841   4.306   0.491   0.452
12295TIP3    H136842   4.368   0.520   0.520
12295TIP3    H236843   4.240   0.442   0.500
12296TIP3   OH236844   1.551   4.614   2.474
12296TIP3    H136845   1.552   4.603   2.569
12296TIP3    H236846   1.546   4.708   2.460
12297TIP3   OH236847   2.160   0.468   2.597
12297TIP3    H136848   2.075   0.488   2.558
12297TIP3    H236849   2.192   0.552   2.630
12298TIP3   OH236850   5.838   0.108   2.793
12298TIP3    H136851   5.776   0.123   2.864
12298TIP3    H236852   5.874   0.021   2.811
12299TIP3   OH236853   3.465   0.530   5.696
12299TIP3    H136854   3.484   0.569   5.781
12299TIP3    H236855   3.494   0.439   5.705
12300TIP3   OH236856   5.301   1.059   2.691
12300TIP3    H136857   5.237   1.111   2.740
12300TIP3    H236858   5.368   1.122   2.665
12301TIP3   OH236859   4.840   2.235   6.631
12301TIP3    H136860   4.834   2.215   6.724
12301TIP3    H236861   4.926   2.200   6.604
12302TIP3   OH236862   3.861   6.408   1.965
12302TIP3    H136863   3.940   6.462   1.957
12302TIP3    H236864   3.865   6.348   1.891
12303TIP3   OH236865   5.994   5.202   1.073
12303TIP3    H136866   6.078   5.247   1.088
12303TIP3    H236867   5.980   5.151   1.153
12304TIP3   OH236868   7.122   2.022   0.215
12304TIP3    H136869   7.083   2.012   0.302
12304TIP3    H236870   7.214   2.001   0.227
12305TIP3   OH236871   7.746   7.682   4.148
12305TIP3    H136872   7.763   7.762   4.098
12305TIP3    H236873   7.788   7.613   4.096
12306TIP3   OH236874   2.055   0.655   4.786
12306TIP3    H136875   1.963   0.671   4.767
12306TIP3    H236876   2.073   0.570   4.747
12307TIP3   OH236877   1.943   4.006   1.431
12307TIP3    H136878   1.948   4.077   1.495
12307TIP3    H236879   1.870   4.029   1.374
12308TIP3   OH236880   4.833   1.401   4.386
12308TIP3    H136881   4.846   1.391   4.481
12308TIP3    H236882   4.891   1.473   4.362
12309TIP3   OH236883   2.260   6.359   1.583
12309TIP3    H136884   2.267   6.268   1.557
12309TIP3    H236885   2.340   6.375   1.634
12310TIP3   OH236886   2.727   5.098   3.864
12310TIP3    H136887   2.634   5.076   3.861
12310TIP3    H236888   2.743   5.147   3.783
12311TIP3   OH236889   0.748   4.142   0.310
12311TIP3    H136890   0.718   4.202   0.378
12311TIP3    H236891   0.784   4.198   0.242
12312TIP3   OH236892   8.125   5.635   6.587
12312TIP3    H136893   8.084   5.625   6.501
12312TIP3    H236894   8.125   5.729   6.603
12313TIP3   OH236895   3.023   5.895   0.380
12313TIP3    H136896   2.991   5.979   0.412
12313TIP3    H236897   2.977   5.882   0.297
12314TIP3   OH236898   4.324   3.923   1.067
12314TIP3    H136899   4.386   3.963   1.128
12314TIP3    H236900   4.287   3.997   1.019
12315TIP3   OH236901   1.613   0.440   5.426
12315TIP3    H136902   1.687   0.483   5.382
12315TIP3    H236903   1.607   0.354   5.384
12316TIP3   OH236904   4.605   1.252   4.357
12316TIP3    H136905   4.538   1.298   4.307
12316TIP3    H236906   4.673   1.317   4.372
12317TIP3   OH236907   1.505   2.177   3.407
12317TIP3    H136908   1.433   2.229   3.442
12317TIP3    H236909   1.499   2.093   3.451
12318TIP3   OH236910   0.716   1.174   4.865
12318TIP3    H136911   0.697   1.087   4.832
12318TIP3    H236912   0.811   1.182   4.858
12319TIP3   OH236913   8.096   4.793   2.776
12319TIP3    H136914   8.088   4.822   2.686
12319TIP3    H236915   8.027   4.840   2.823
12320TIP3   OH236916   7.239   7.699   3.601
12320TIP3    H136917   7.269   7.788   3.622
12320TIP3    H236918   7.151   7.712   3.565
12321TIP3   OH236919   7.173   6.303   3.643
12321TIP3    H136920   7.150   6.245   3.571
12321TIP3    H236921   7.268   6.303   3.645
12322TIP3   OH236922   3.677   6.179   5.050
12322TIP3    H136923   3.618   6.164   5.125
12322TIP3    H236924   3.749   6.117   5.063
12323TIP3   OH236925   6.454   6.876   3.658
12323TIP3    H136926   6.451   6.847   3.749
12323TIP3    H236927   6.370   6.849   3.621
12324TIP3   OH236928   7.690   7.481   3.799
12324TIP3    H136929   7.772   7.478   3.848
12324TIP3    H236930   7.647   7.398   3.819
12325TIP3   OH236931   2.388   6.099   5.028
12325TIP3    H136932   2.473   6.112   4.986
12325TIP3    H236933   2.387   6.161   5.100
12326TIP3   OH236934   4.468   0.747   6.669
12326TIP3    H136935   4.447   0.828   6.622
12326TIP3    H236936   4.384   0.719   6.706
12327TIP3   OH236937   4.352   4.352   1.578
12327TIP3    H136938   4.269   4.312   1.605
12327TIP3    H236939   4.350   4.350   1.482
12328TIP3   OH236940   4.585   5.766   4.517
12328TIP3    H136941   4.493   5.744   4.502
12328TIP3    H236942   4.623   5.686   4.552
12329TIP3   OH236943   1.385   1.656   5.888
12329TIP3    H136944   1.423   1.575   5.921
12329TIP3    H236945   1.371   1.640   5.795
12330TIP3   OH236946   6.525   0.887   4.760
12330TIP3    H136947   6.459   0.936   4.810
12330TIP3    H236948   6.552   0.948   4.691
12331TIP3   OH236949   3.589   1.387   1.482
12331TIP3    H136950   3.649   1.409   1.411
12331TIP3    H236951   3.508   1.434   1.460
12332TIP3   OH236952   2.008   6.953   2.720
12332TIP3    H136953   1.915   6.973   2.717
12332TIP3    H236954   2.052   7.038   2.719
12333TIP3   OH236955   2.067   6.880   5.182
12333TIP3    H136956   2.039   6.793   5.154
12333TIP3    H236957   2.159   6.884   5.155
12334TIP3   OH236958   2.523   5.167   0.509
12334TIP3    H136959   2.427   5.171   0.512
12334TIP3    H236960   2.549   5.136   0.596
12335TIP3   OH236961   4.198   2.873   3.653
12335TIP3    H136962   4.179   2.944   3.591
12335TIP3    H236963   4.242   2.807   3.600
12336TIP3   OH236964   7.875   6.550   2.215
12336TIP3    H136965   7.908   6.618   2.274
12336TIP3    H236966   7.821   6.494   2.271
12337TIP3   OH236967   5.535   2.935   5.946
12337TIP3    H136968   5.606   2.998   5.943
12337TIP3    H236969   5.456   2.988   5.958
12338TIP3   OH236970   0.999   1.292   3.266
12338TIP3    H136971   0.923   1.263   3.315
12338TIP3    H236972   1.056   1.333   3.332
12339TIP3   OH236973   6.154   3.693   2.194
12339TIP3    H136974   6.084   3.661   2.137
12339TIP3    H236975   6.118   3.686   2.282
12340TIP3   OH236976   0.129   5.053   1.616
12340TIP3    H136977   0.063   5.083   1.678
12340TIP3    H236978   0.199   5.118   1.622
12341TIP3   OH236979   6.150   1.602   5.105
12341TIP3    H136980   6.214   1.531   5.102
12341TIP3    H236981   6.188   1.671   5.051
12342TIP3   OH236982   7.227   6.100   0.705
12342TIP3    H136983   7.187   6.043   0.770
12342TIP3    H236984   7.189   6.072   0.622
12343TIP3   OH236985   5.440   2.500   3.111
12343TIP3    H136986   5.420   2.574   3.169
12343TIP3    H236987   5.367   2.499   3.049
12344TIP3   OH236988   0.161   4.264   1.078
12344TIP3    H136989   0.095   4.323   1.114
12344TIP3    H236990   0.232   4.265   1.142
12345TIP3   OH236991   5.727   7.497   0.659
12345TIP3    H136992   5.641   7.506   0.618
12345TIP3    H236993   5.787   7.484   0.585
12346TIP3   OH236994   0.008   5.188   4.396
12346TIP3    H136995   0.054   5.174   4.479
12346TIP3    H236996   0.037   5.116   4.340
12347TIP3   OH236997   7.891   2.575   1.859
12347TIP3    H136998   7.844   2.546   1.781
12347TIP3    H236999   7.917   2.494   1.903
12348TIP3   OH237000   7.870   3.694   5.323
12348TIP3    H137001   7.834   3.647   5.248
12348TIP3    H237002   7.953   3.729   5.292
12349TIP3   OH237003   5.177   4.598   6.632
12349TIP3    H137004   5.248   4.659   6.649
12349TIP3    H237005   5.220   4.519   6.599
12350TIP3   OH237006   4.951   6.652   5.492
12350TIP3    H137007   5.006   6.577   5.513
12350TIP3    H237008   4.882   6.651   5.558
12351TIP3   OH237009   7.581   5.286   1.967
12351TIP3    H137010   7.672   5.298   1.942
12351TIP3    H237011   7.533   5.288   1.884
12352TIP3   OH237012   2.361   6.302   2.258
12352TIP3    H137013   2.309   6.301   2.339
12352TIP3    H237014   2.345   6.216   2.218
12353TIP3   OH237015   1.912   0.946   3.063
12353TIP3    H137016   1.872   1.030   3.038
12353TIP3    H237017   1.839   0.896   3.101
12354TIP3   OH237018   7.358   5.976   6.497
12354TIP3    H137019   7.309   5.968   6.578
12354TIP3    H237020   7.375   5.886   6.470
12355TIP3   OH237021   7.911   0.703   3.409
12355TIP3    H137022   7.999   0.741   3.409
12355TIP3    H237023   7.881   0.711   3.499
12356TIP3   OH237024   1.643   5.517   2.470
12356TIP3    H137025   1.578   5.451   2.446
12356TIP3    H237026   1.611   5.552   2.553
12357TIP3   OH237027   2.048   1.134   1.515
12357TIP3    H137028   1.995   1.142   1.595
12357TIP3    H237029   2.009   1.197   1.454
12358TIP3   OH237030   5.051   1.772   1.694
12358TIP3    H137031   5.111   1.846   1.695
12358TIP3    H237032   5.090   1.708   1.753
12359TIP3   OH237033   1.353   5.516   3.157
12359TIP3    H137034   1.283   5.452   3.171
12359TIP3    H237035   1.432   5.463   3.146
12360TIP3   OH237036   8.046   4.482   4.812
12360TIP3    H137037   7.995   4.558   4.785
12360TIP3    H237038   8.020   4.413   4.751
12361TIP3   OH237039   8.077   0.883   1.824
12361TIP3    H137040   8.048   0.845   1.741
12361TIP3    H237041   8.072   0.811   1.886
12362TIP3   OH237042   2.699   0.052   2.387
12362TIP3    H137043   2.668  -0.027   2.341
12362TIP3    H237044   2.745   0.018   2.463
12363TIP3   OH237045   5.525   4.108   3.153
12363TIP3    H137046   5.543   4.140   3.241
12363TIP3    H237047   5.480   4.180   3.109
12364TIP3   OH237048   3.481   3.234   0.327
12364TIP3    H137049   3.441   3.198   0.406
12364TIP3    H237050   3.418   3.297   0.293
12365TIP3   OH237051   0.662   0.491   1.497
12365TIP3    H137052   0.691   0.411   1.540
12365TIP3    H237053   0.611   0.537   1.563
12366TIP3   OH237054   4.951   1.218   4.877
12366TIP3    H137055   4.902   1.282   4.929
12366TIP3    H237056   5.035   1.261   4.860
12367TIP3   OH237057   6.022   7.722   6.400
12367TIP3    H137058   6.091   7.782   6.426
12367TIP3    H237059   6.067   7.639   6.381
12368TIP3   OH237060   4.503   7.169   0.912
12368TIP3    H137061   4.494   7.075   0.895
12368TIP3    H237062   4.535   7.174   1.002
12369TIP3   OH237063   6.373   4.591   0.139
12369TIP3    H137064   6.458   4.555   0.167
12369TIP3    H237065   6.355   4.661   0.202
12370TIP3   OH237066   7.857   0.929   4.014
12370TIP3    H137067   7.873   0.849   4.064
12370TIP3    H237068   7.839   0.995   4.080
12371TIP3   OH237069   3.207   0.753   2.208
12371TIP3    H137070   3.146   0.774   2.280
12371TIP3    H237071   3.200   0.828   2.149
12372TIP3   OH237072   2.886   6.054   0.884
12372TIP3    H137073   2.800   6.045   0.844
12372TIP3    H237074   2.901   6.149   0.886
12373TIP3   OH237075   2.467   3.228   0.401
12373TIP3    H137076   2.453   3.315   0.363
12373TIP3    H237077   2.379   3.194   0.417
12374TIP3   OH237078   0.695   2.295   3.215
12374TIP3    H137079   0.684   2.364   3.280
12374TIP3    H237080   0.667   2.334   3.133
12375TIP3   OH237081   4.620   1.541   3.358
12375TIP3    H137082   4.558   1.472   3.334
12375TIP3    H237083   4.646   1.580   3.275
12376TIP3   OH237084   7.380   6.370   2.371
12376TIP3    H137085   7.298   6.321   2.368
12376TIP3    H237086   7.372   6.426   2.448
12377TIP3   OH237087   7.886   7.064   4.185
12377TIP3    H137088   7.960   7.102   4.138
12377TIP3    H237089   7.856   7.134   4.243
12378TIP3   OH237090   8.270   1.314   6.078
12378TIP3    H137091   8.237   1.245   6.136
12378TIP3    H237092   8.196   1.337   6.022
12379TIP3   OH237093   7.473   7.053   1.425
12379TIP3    H137094   7.447   6.987   1.489
12379TIP3    H237095   7.517   7.121   1.477
12380TIP3   OH237096   3.403   7.526   3.136
12380TIP3    H137097   3.450   7.606   3.111
12380TIP3    H237098   3.396   7.475   3.055
12381TIP3   OH237099   2.729   3.509   1.930
12381TIP3    H137100   2.654   3.567   1.936
12381TIP3    H237101   2.703   3.430   1.978
12382TIP3   OH237102   5.408   2.532   2.087
12382TIP3    H137103   5.482   2.488   2.046
12382TIP3    H237104   5.428   2.533   2.181
12383TIP3   OH237105   3.338   0.295   0.721
12383TIP3    H137106   3.289   0.216   0.745
12383TIP3    H237107   3.383   0.272   0.640
12384TIP3   OH237108   6.178   2.967   5.712
12384TIP3    H137109   6.267   2.962   5.678
12384TIP3    H237110   6.143   3.048   5.674
12385TIP3   OH237111   5.010   2.640   3.017
12385TIP3    H137112   5.069   2.624   2.943
12385TIP3    H237113   4.961   2.718   2.992
12386TIP3   OH237114   0.034   7.469   2.427
12386TIP3    H137115   0.113   7.495   2.380
12386TIP3    H237116   0.041   7.374   2.437
12387TIP3   OH237117   1.038   2.260   5.002
12387TIP3    H137118   1.078   2.182   4.966
12387TIP3    H237119   1.008   2.234   5.089
12388TIP3   OH237120   2.117   1.804   2.330
12388TIP3    H137121   2.174   1.879   2.315
12388TIP3    H237122   2.141   1.742   2.262
12389TIP3   OH237123   6.468   7.548   3.066
12389TIP3    H137124   6.526   7.620   3.091
12389TIP3    H237125   6.403   7.588   3.008
12390TIP3   OH237126   1.920   7.510   3.836
12390TIP3    H137127   1.863   7.576   3.797
12390TIP3    H237128   1.920   7.530   3.929
12391TIP3   OH237129   6.140   7.279   5.059
12391TIP3    H137130   6.084   7.296   4.983
12391TIP3    H237131   6.185   7.362   5.075
12392TIP3   OH237132   6.144   3.145   4.803
12392TIP3    H137133   6.052   3.171   4.808
12392TIP3    H237134   6.189   3.205   4.862
12393TIP3   OH237135   2.355   0.285   2.633
12393TIP3    H137136   2.349   0.259   2.725
12393TIP3    H237137   2.283   0.347   2.620
12394TIP3   OH237138   2.179   3.495   2.657
12394TIP3    H137139   2.272   3.499   2.679
12394TIP3    H237140   2.143   3.432   2.720
12395TIP3   OH237141   1.390   3.465   0.306
12395TIP3    H137142   1.331   3.539   0.297
12395TIP3    H237143   1.334   3.391   0.327
12396TIP3   OH237144   7.527   0.163   0.460
12396TIP3    H137145   7.592   0.110   0.505
12396TIP3    H237146   7.568   0.186   0.377
12397TIP3   OH237147   8.103   4.857   1.891
12397TIP3    H137148   8.039   4.786   1.882
12397TIP3    H237149   8.149   4.859   1.807
12398TIP3   OH237150   4.484   1.461   3.855
12398TIP3    H137151   4.430   1.540   3.864
12398TIP3    H237152   4.435   1.393   3.901
12399TIP3   OH237153   7.797   7.686   3.565
12399TIP3    H137154   7.770   7.661   3.477
12399TIP3    H237155   7.795   7.604   3.615
12400TIP3   OH237156   1.484   0.290   5.651
12400TIP3    H137157   1.539   0.264   5.725
12400TIP3    H237158   1.537   0.353   5.602
12401TIP3   OH237159   1.493   5.446   0.970
12401TIP3    H137160   1.550   5.370   0.955
12401TIP3    H237161   1.473   5.478   0.883
12402TIP3   OH237162   3.868   4.364   0.127
12402TIP3    H137163   3.854   4.274   0.158
12402TIP3    H237164   3.924   4.404   0.194
12403TIP3   OH237165   7.284   5.464   5.352
12403TIP3    H137166   7.245   5.428   5.432
12403TIP3    H237167   7.312   5.552   5.376
12404TIP3   OH237168   4.227   2.340   2.696
12404TIP3    H137169   4.320   2.324   2.709
12404TIP3    H237170   4.185   2.259   2.724
12405TIP3   OH237171   6.192   4.903   1.866
12405TIP3    H137172   6.195   4.813   1.899
12405TIP3    H237173   6.127   4.947   1.920
12406TIP3   OH237174   1.199   1.791   1.579
12406TIP3    H137175   1.158   1.812   1.496
12406TIP3    H237176   1.126   1.782   1.641
12407TIP3   OH237177   0.816   4.762   4.556
12407TIP3    H137178   0.764   4.802   4.626
12407TIP3    H237179   0.842   4.677   4.591
12408TIP3   OH237180   7.443   2.338   2.554
12408TIP3    H137181   7.420   2.424   2.520
12408TIP3    H237182   7.502   2.356   2.627
12409TIP3   OH237183   3.118   4.473   1.295
12409TIP3    H137184   3.102   4.559   1.258
12409TIP3    H237185   3.120   4.414   1.220
12410TIP3   OH237186   1.160   0.745   1.299
12410TIP3    H137187   1.246   0.784   1.313
12410TIP3    H237188   1.105   0.818   1.270
12411TIP3   OH237189   3.059   1.293   0.596
12411TIP3    H137190   3.060   1.252   0.683
12411TIP3    H237191   3.055   1.387   0.614
12412TIP3   OH237192   7.608   6.006   2.180
12412TIP3    H137193   7.515   6.016   2.159
12412TIP3    H237194   7.637   5.933   2.125
12413TIP3   OH237195   6.295   5.511   1.003
12413TIP3    H137196   6.268   5.456   1.076
12413TIP3    H237197   6.216   5.558   0.978
12414TIP3   OH237198   7.552   7.712   6.694
12414TIP3    H137199   7.512   7.631   6.664
12414TIP3    H237200   7.629   7.723   6.637
12415TIP3   OH237201   0.234   4.005   3.975
12415TIP3    H137202   0.284   3.951   4.037
12415TIP3    H237203   0.245   3.961   3.891
12416TIP3   OH237204   7.082   0.702   6.138
12416TIP3    H137205   6.992   0.703   6.169
12416TIP3    H237206   7.135   0.723   6.215
12417TIP3   OH237207   3.683   6.915   6.030
12417TIP3    H137208   3.701   6.894   5.938
12417TIP3    H237209   3.764   6.895   6.076
12418TIP3   OH237210   7.495   6.816   1.569
12418TIP3    H137211   7.430   6.794   1.503
12418TIP3    H237212   7.568   6.757   1.552
12419TIP3   OH237213   1.446   5.566   5.033
12419TIP3    H137214   1.429   5.649   5.078
12419TIP3    H237215   1.424   5.583   4.942
12420TIP3   OH237216   7.575   1.218   3.637
12420TIP3    H137217   7.488   1.248   3.613
12420TIP3    H237218   7.565   1.184   3.726
12421TIP3   OH237219   0.397   5.041   5.678
12421TIP3    H137220   0.473   5.082   5.635
12421TIP3    H237221   0.436   4.979   5.740
12422TIP3   OH237222  -0.004   1.995   2.920
12422TIP3    H137223   0.030   1.956   3.001
12422TIP3    H237224   0.052   2.070   2.904
12423TIP3   OH237225   3.329   4.920   1.292
12423TIP3    H137226   3.359   4.993   1.347
12423TIP3    H237227   3.405   4.900   1.236
12424TIP3   OH237228   1.380   2.583   1.091
12424TIP3    H137229   1.399   2.654   1.030
12424TIP3    H237230   1.439   2.512   1.066
12425TIP3   OH237231   3.073   6.696   4.994
12425TIP3    H137232   3.152   6.692   5.048
12425TIP3    H237233   3.002   6.702   5.058
12426TIP3   OH237234   0.165   2.360   1.720
12426TIP3    H137235   0.154   2.330   1.811
12426TIP3    H237236   0.212   2.443   1.728
12427TIP3   OH237237   4.033   6.580   2.225
12427TIP3    H137238   3.947   6.621   2.236
12427TIP3    H237239   4.037   6.558   2.132
12428TIP3   OH237240   4.263   0.868   3.480
12428TIP3    H137241   4.280   0.884   3.572
12428TIP3    H237242   4.234   0.952   3.446
12429TIP3   OH237243   4.820   0.293   0.345
12429TIP3    H137244   4.846   0.201   0.354
12429TIP3    H237245   4.764   0.294   0.267
12430TIP3   OH237246   6.767   3.256   5.306
12430TIP3    H137247   6.858   3.234   5.326
12430TIP3    H237248   6.763   3.351   5.317
12431TIP3   OH237249   1.721   2.141   0.704
12431TIP3    H137250   1.801   2.095   0.730
12431TIP3    H237251   1.654   2.073   0.702
12432TIP3   OH237252   0.370   7.107   5.772
12432TIP3    H137253   0.301   7.046   5.796
12432TIP3    H237254   0.417   7.064   5.701
12433TIP3   OH237255   0.890   6.691   5.869
12433TIP3    H137256   0.853   6.776   5.847
12433TIP3    H237257   0.813   6.634   5.881
12434TIP3   OH237258   1.415   7.592   5.985
12434TIP3    H137259   1.399   7.638   6.068
12434TIP3    H237260   1.339   7.534   5.975
12435TIP3   OH237261   2.682   1.899   2.013
12435TIP3    H137262   2.697   1.826   1.953
12435TIP3    H237263   2.754   1.960   1.995
12436TIP3   OH237264   7.692   0.223   6.482
12436TIP3    H137265   7.609   0.222   6.433
12436TIP3    H237266   7.721   0.132   6.482
12437TIP3   OH237267   0.831   1.574   4.680
12437TIP3    H137268   0.890   1.599   4.609
12437TIP3    H237269   0.881   1.592   4.760
12438TIP3   OH237270   1.219   3.679   5.719
12438TIP3    H137271   1.307   3.692   5.682
12438TIP3    H237272   1.200   3.760   5.765
12439TIP3   OH237273   5.881   3.946   0.210
12439TIP3    H137274   5.875   3.949   0.114
12439TIP3    H237275   5.804   3.993   0.240
12440TIP3   OH237276   6.552   5.668   2.599
12440TIP3    H137277   6.558   5.574   2.582
12440TIP3    H237278   6.459   5.683   2.618
12441TIP3   OH237279   7.890   5.078   3.477
12441TIP3    H137280   7.931   5.157   3.442
12441TIP3    H237281   7.798   5.100   3.487
12442TIP3   OH237282   7.929   7.418   2.382
12442TIP3    H137283   7.972   7.361   2.446
12442TIP3    H237284   7.924   7.366   2.302
12443TIP3   OH237285   3.179   1.442   3.504
12443TIP3    H137286   3.165   1.502   3.431
12443TIP3    H237287   3.169   1.355   3.465
12444TIP3   OH237288   2.207   2.302   3.131
12444TIP3    H137289   2.199   2.256   3.048
12444TIP3    H237290   2.287   2.354   3.123
12445TIP3   OH237291   3.737   7.298   2.116
12445TIP3    H137292   3.710   7.390   2.109
12445TIP3    H237293   3.829   7.302   2.141
12446TIP3   OH237294   5.935   4.578   4.986
12446TIP3    H137295   5.862   4.521   4.964
12446TIP3    H237296   5.906   4.666   4.961
12447TIP3   OH237297   0.129   4.469   2.339
12447TIP3    H137298   0.199   4.446   2.399
12447TIP3    H237299   0.056   4.495   2.396
12448TIP3   OH237300   4.747   0.471   0.563
12448TIP3    H137301   4.832   0.462   0.607
12448TIP3    H237302   4.756   0.422   0.482
12449TIP3   OH237303   2.891   5.100   6.693
12449TIP3    H137304   2.839   5.020   6.698
12449TIP3    H237305   2.826   5.169   6.680
12450TIP3   OH237306   3.249   3.105   3.541
12450TIP3    H137307   3.323   3.164   3.555
12450TIP3    H237308   3.284   3.017   3.553
12451TIP3   OH237309   1.377   1.491   5.655
12451TIP3    H137310   1.460   1.445   5.672
12451TIP3    H237311   1.389   1.529   5.568
12452TIP3   OH237312   0.966   7.370   3.780
12452TIP3    H137313   1.020   7.449   3.775
12452TIP3    H237314   0.909   7.385   3.855
12453TIP3   OH237315   0.963   4.019   5.078
12453TIP3    H137316   0.920   3.936   5.097
12453TIP3    H237317   0.906   4.085   5.119
12454TIP3   OH237318   3.480   1.016   3.190
12454TIP3    H137319   3.466   0.928   3.155
12454TIP3    H237320   3.423   1.020   3.267
12455TIP3   OH237321   3.185   1.391   4.739
12455TIP3    H137322   3.125   1.374   4.811
12455TIP3    H237323   3.130   1.425   4.668
12456TIP3   OH237324   3.431   1.733   6.489
12456TIP3    H137325   3.490   1.790   6.440
12456TIP3    H237326   3.390   1.677   6.423
12457TIP3   OH237327   3.793   6.956   0.153
12457TIP3    H137328   3.727   7.002   0.205
12457TIP3    H237329   3.753   6.946   0.067
12458TIP3   OH237330   7.135   3.041   3.214
12458TIP3    H137331   7.100   2.998   3.136
12458TIP3    H237332   7.104   3.131   3.207
12459TIP3   OH237333   5.121   1.390   5.181
12459TIP3    H137334   5.035   1.378   5.220
12459TIP3    H237335   5.155   1.470   5.221
12460TIP3   OH237336   2.712   5.535   2.943
12460TIP3    H137337   2.768   5.497   3.010
12460TIP3    H237338   2.771   5.557   2.872
12461TIP3   OH237339   1.910   5.162   5.295
12461TIP3    H137340   1.943   5.073   5.303
12461TIP3    H237341   1.891   5.189   5.385
12462TIP3   OH237342   3.040   7.354   2.468
12462TIP3    H137343   3.074   7.398   2.391
12462TIP3    H237344   2.973   7.294   2.435
12463TIP3   OH237345   6.913   6.247   0.497
12463TIP3    H137346   6.957   6.325   0.464
12463TIP3    H237347   6.909   6.188   0.422
12464TIP3   OH237348   0.842   6.153   2.278
12464TIP3    H137349   0.853   6.063   2.247
12464TIP3    H237350   0.900   6.160   2.353
12465TIP3   OH237351   7.631   0.143   2.198
12465TIP3    H137352   7.557   0.199   2.176
12465TIP3    H237353   7.595   0.054   2.197
12466TIP3   OH237354   6.858   7.297   0.360
12466TIP3    H137355   6.784   7.342   0.320
12466TIP3    H237356   6.922   7.288   0.289
12467TIP3   OH237357   1.145   0.758   0.231
12467TIP3    H137358   1.158   0.664   0.216
12467TIP3    H237359   1.069   0.763   0.288
12468TIP3   OH237360   1.140   0.051   3.416
12468TIP3    H137361   1.229   0.049   3.450
12468TIP3    H237362   1.124   0.143   3.395
12469TIP3   OH237363   5.642   1.783   0.156
12469TIP3    H137364   5.617   1.698   0.193
12469TIP3    H237365   5.563   1.836   0.162
12470TIP3   OH237366   3.538   7.470   5.504
12470TIP3    H137367   3.502   7.543   5.553
12470TIP3    H237368   3.464   7.434   5.455
12471TIP3   OH237369   5.290   7.788   5.717
12471TIP3    H137370   5.198   7.816   5.715
12471TIP3    H237371   5.337   7.854   5.666
12472TIP3   OH237372   4.220   0.637   0.227
12472TIP3    H137373   4.277   0.591   0.289
12472TIP3    H237374   4.271   0.714   0.201
12473TIP3   OH237375   3.109   0.271   1.700
12473TIP3    H137376   3.136   0.273   1.608
12473TIP3    H237377   3.070   0.357   1.715
12474TIP3   OH237378   2.486   7.725   5.035
12474TIP3    H137379   2.444   7.647   4.998
12474TIP3    H237380   2.491   7.786   4.962
12475TIP3   OH237381   5.607   4.992   4.955
12475TIP3    H137382   5.538   4.930   4.931
12475TIP3    H237383   5.581   5.074   4.915
12476TIP3   OH237384   2.576   2.807   4.898
12476TIP3    H137385   2.507   2.836   4.839
12476TIP3    H237386   2.565   2.860   4.977
12477TIP3   OH237387   1.115   1.266   0.327
12477TIP3    H137388   1.094   1.359   0.332
12477TIP3    H237389   1.197   1.262   0.278
12478TIP3   OH237390   0.893   1.895   5.830
12478TIP3    H137391   0.813   1.939   5.855
12478TIP3    H237392   0.866   1.806   5.808
12479TIP3   OH237393   7.654   4.990   4.121
12479TIP3    H137394   7.562   4.981   4.143
12479TIP3    H237395   7.664   4.944   4.038
12480TIP3   OH237396   2.654   7.305   5.200
12480TIP3    H137397   2.715   7.276   5.132
12480TIP3    H237398   2.709   7.339   5.270
12481TIP3   OH237399   5.772   5.442   4.981
12481TIP3    H137400   5.829   5.513   5.012
12481TIP3    H237401   5.741   5.471   4.896
12482TIP3   OH237402   6.342   6.495   0.777
12482TIP3    H137403   6.427   6.540   0.770
12482TIP3    H237404   6.352   6.416   0.724
12483TIP3   OH237405   5.647   3.824   5.855
12483TIP3    H137406   5.595   3.809   5.934
12483TIP3    H237407   5.737   3.805   5.882
12484TIP3   OH237408   5.262   2.732   2.246
12484TIP3    H137409   5.288   2.663   2.185
12484TIP3    H237410   5.186   2.773   2.206
12485TIP3   OH237411   4.961   7.646   6.619
12485TIP3    H137412   4.877   7.690   6.630
12485TIP3    H237413   4.961   7.577   6.686
12486TIP3   OH237414   6.912   2.755   2.389
12486TIP3    H137415   6.823   2.769   2.356
12486TIP3    H237416   6.968   2.770   2.312
12487TIP3   OH237417   7.244   7.640   3.257
12487TIP3    H137418   7.319   7.644   3.316
12487TIP3    H237419   7.261   7.564   3.201
12488TIP3   OH237420   6.905   6.738   6.371
12488TIP3    H137421   6.857   6.787   6.438
12488TIP3    H237422   6.997   6.744   6.397
12489TIP3   OH237423   4.792   3.784   2.561
12489TIP3    H137424   4.887   3.771   2.560
12489TIP3    H237425   4.763   3.753   2.476
12490TIP3   OH237426   3.413   3.678   4.783
12490TIP3    H137427   3.344   3.623   4.746
12490TIP3    H237428   3.421   3.648   4.874
12491TIP3   OH237429   3.565   7.087   0.262
12491TIP3    H137430   3.491   7.030   0.239
12491TIP3    H237431   3.527   7.175   0.263
12492TIP3   OH237432   8.238   5.144   1.805
12492TIP3    H137433   8.262   5.221   1.855
12492TIP3    H237434   8.221   5.076   1.871
12493TIP3   OH237435   7.683   6.537   1.838
12493TIP3    H137436   7.705   6.581   1.920
12493TIP3    H237437   7.664   6.609   1.777
12494TIP3   OH237438   6.606   5.530   4.716
12494TIP3    H137439   6.640   5.470   4.650
12494TIP3    H237440   6.593   5.475   4.794
12495TIP3   OH237441   5.123   5.663   6.671
12495TIP3    H137442   5.062   5.670   6.597
12495TIP3    H237443   5.140   5.753   6.697
12496TIP3   OH237444   2.028   5.110   4.289
12496TIP3    H137445   2.117   5.113   4.254
12496TIP3    H237446   1.972   5.122   4.213
12497TIP3   OH237447   3.281   3.870   5.622
12497TIP3    H137448   3.330   3.849   5.701
12497TIP3    H237449   3.336   3.838   5.551
12498TIP3   OH237450   0.671   2.491   3.635
12498TIP3    H137451   0.640   2.403   3.657
12498TIP3    H237452   0.761   2.494   3.668
12499TIP3   OH237453   1.688   4.686   0.980
12499TIP3    H137454   1.748   4.747   1.023
12499TIP3    H237455   1.603   4.704   1.020
12500TIP3   OH237456   6.970   5.238   6.501
12500TIP3    H137457   6.884   5.275   6.524
12500TIP3    H237458   6.950   5.152   6.466
12501TIP3   OH237459   1.949   4.445   2.752
12501TIP3    H137460   1.866   4.422   2.794
12501TIP3    H237461   1.975   4.366   2.704
12502TIP3   OH237462   4.833   3.984   4.566
12502TIP3    H137463   4.915   3.995   4.518
12502TIP3    H237464   4.839   4.048   4.637
12503TIP3   OH237465   5.380   5.945   2.849
12503TIP3    H137466   5.446   6.012   2.835
12503TIP3    H237467   5.312   5.988   2.901
12504TIP3   OH237468   8.019   6.770   1.930
12504TIP3    H137469   8.000   6.742   1.841
12504TIP3    H237470   7.937   6.756   1.978
12505TIP3   OH237471   6.066   5.567   5.362
12505TIP3    H137472   6.157   5.537   5.368
12505TIP3    H237473   6.053   5.583   5.268
12506TIP3   OH237474   0.745   0.787   2.872
12506TIP3    H137475   0.834   0.768   2.902
12506TIP3    H237476   0.714   0.704   2.836
12507TIP3   OH237477   3.778   2.848   0.385
12507TIP3    H137478   3.790   2.763   0.427
12507TIP3    H237479   3.815   2.910   0.448
12508TIP3   OH237480   6.020   3.879   0.444
12508TIP3    H137481   6.108   3.913   0.458
12508TIP3    H237482   6.001   3.897   0.351
12509TIP3   OH237483   7.667   5.681   0.629
12509TIP3    H137484   7.593   5.742   0.624
12509TIP3    H237485   7.631   5.597   0.602
12510TIP3   OH237486   4.403   5.774   3.694
12510TIP3    H137487   4.368   5.840   3.634
12510TIP3    H237488   4.382   5.690   3.654
12511TIP3   OH237489   1.317   2.380   4.886
12511TIP3    H137490   1.264   2.420   4.954
12511TIP3    H237491   1.357   2.453   4.840
12512TIP3   OH237492   2.135   0.722   2.772
12512TIP3    H137493   2.121   0.680   2.857
12512TIP3    H237494   2.218   0.769   2.782
12513TIP3   OH237495   2.430   0.420   6.807
12513TIP3    H137496   2.520   0.388   6.816
12513TIP3    H237497   2.416   0.427   6.713
12514TIP3   OH237498   4.477   2.362   5.696
12514TIP3    H137499   4.422   2.440   5.703
12514TIP3    H237500   4.525   2.374   5.614
12515TIP3   OH237501   3.628   1.854   4.859
12515TIP3    H137502   3.669   1.877   4.776
12515TIP3    H237503   3.626   1.758   4.859
12516TIP3   OH237504   7.762   4.648   1.461
12516TIP3    H137505   7.743   4.713   1.393
12516TIP3    H237506   7.780   4.567   1.413
12517TIP3   OH237507   2.766   6.265   0.630
12517TIP3    H137508   2.711   6.198   0.670
12517TIP3    H237509   2.804   6.313   0.703
12518TIP3   OH237510   3.684   1.434   5.586
12518TIP3    H137511   3.594   1.464   5.583
12518TIP3    H237512   3.730   1.498   5.640
12519TIP3   OH237513   4.164   1.084   5.149
12519TIP3    H137514   4.134   1.046   5.067
12519TIP3    H237515   4.209   1.164   5.122
12520TIP3   OH237516   1.125   1.916   6.494
12520TIP3    H137517   1.188   1.844   6.487
12520TIP3    H237518   1.165   1.976   6.557
12521TIP3   OH237519   7.819   2.561   3.101
12521TIP3    H137520   7.897   2.520   3.140
12521TIP3    H237521   7.829   2.546   3.007
12522TIP3   OH237522   1.316   7.133   1.975
12522TIP3    H137523   1.389   7.157   1.917
12522TIP3    H237524   1.243   7.117   1.916
12523TIP3   OH237525   6.126   1.319   5.890
12523TIP3    H137526   6.183   1.251   5.927
12523TIP3    H237527   6.043   1.308   5.935
12524TIP3   OH237528   2.181   7.111   4.488
12524TIP3    H137529   2.156   7.023   4.459
12524TIP3    H237530   2.105   7.165   4.466
12525TIP3   OH237531   6.428   4.231   0.316
12525TIP3    H137532   6.332   4.224   0.310
12525TIP3    H237533   6.444   4.262   0.405
12526TIP3   OH237534   2.103   2.087   5.608
12526TIP3    H137535   2.117   2.039   5.690
12526TIP3    H237536   2.153   2.039   5.543
12527TIP3   OH237537   1.413   6.767   4.032
12527TIP3    H137538   1.403   6.824   3.956
12527TIP3    H237539   1.366   6.687   4.010
12528TIP3   OH237540   5.619   1.048   3.331
12528TIP3    H137541   5.647   0.957   3.328
12528TIP3    H237542   5.598   1.063   3.423
12529TIP3   OH237543   8.264   2.432   2.770
12529TIP3    H137544   8.172   2.412   2.754
12529TIP3    H237545   8.266   2.474   2.856
12530TIP3   OH237546   3.338   7.239   0.063
12530TIP3    H137547   3.348   7.298   0.137
12530TIP3    H237548   3.422   7.245   0.017
12531TIP3   OH237549   3.648   0.067   0.717
12531TIP3    H137550   3.629   0.042   0.626
12531TIP3    H237551   3.742   0.085   0.717
12532TIP3   OH237552   8.004   4.711   1.571
12532TIP3    H137553   8.035   4.683   1.657
12532TIP3    H237554   7.929   4.654   1.552
12533TIP3   OH237555   4.451   3.683   5.073
12533TIP3    H137556   4.523   3.732   5.115
12533TIP3    H237557   4.418   3.742   5.006
12534TIP3   OH237558   0.343   0.546   4.095
12534TIP3    H137559   0.260   0.528   4.137
12534TIP3    H237560   0.329   0.525   4.002
12535TIP3   OH237561   0.397   2.118   6.719
12535TIP3    H137562   0.374   2.039   6.768
12535TIP3    H237563   0.424   2.181   6.786
12536TIP3   OH237564   0.778   5.129   5.937
12536TIP3    H137565   0.759   5.135   6.030
12536TIP3    H237566   0.865   5.090   5.932
12537TIP3   OH237567   0.354   5.496   1.544
12537TIP3    H137568   0.288   5.511   1.477
12537TIP3    H237569   0.377   5.584   1.576
12538TIP3   OH237570   1.572   1.872   3.995
12538TIP3    H137571   1.658   1.889   4.032
12538TIP3    H237572   1.515   1.938   4.035
12539TIP3   OH237573   1.305   4.130   6.634
12539TIP3    H137574   1.274   4.209   6.591
12539TIP3    H237575   1.255   4.059   6.593
12540TIP3   OH237576   2.095   2.419   1.229
12540TIP3    H137577   2.019   2.470   1.201
12540TIP3    H237578   2.170   2.461   1.186
12541TIP3   OH237579   0.620   2.718   4.542
12541TIP3    H137580   0.650   2.799   4.584
12541TIP3    H237581   0.535   2.740   4.504
12542TIP3   OH237582   1.061   5.129   3.213
12542TIP3    H137583   1.094   5.162   3.296
12542TIP3    H237584   1.038   5.038   3.231
12543TIP3   OH237585   8.186   5.525   0.657
12543TIP3    H137586   8.269   5.514   0.704
12543TIP3    H237587   8.144   5.440   0.664
12544TIP3   OH237588   2.038   5.562   3.696
12544TIP3    H137589   2.054   5.469   3.679
12544TIP3    H237590   2.095   5.583   3.769
12545TIP3   OH237591   0.640   5.004   1.063
12545TIP3    H137592   0.680   4.928   1.021
12545TIP3    H237593   0.664   4.995   1.155
12546TIP3   OH237594   7.961   4.532   3.981
12546TIP3    H137595   7.961   4.628   3.986
12546TIP3    H237596   7.868   4.508   3.981
12547TIP3   OH237597   2.113   7.202   2.760
12547TIP3    H137598   2.198   7.211   2.804
12547TIP3    H237599   2.108   7.277   2.701
12548TIP3   OH237600   4.263   3.034   0.110
12548TIP3    H137601   4.345   3.080   0.124
12548TIP3    H237602   4.196   3.090   0.149
12549TIP3   OH237603   6.928   3.325   2.205
12549TIP3    H137604   6.917   3.334   2.300
12549TIP3    H237605   6.867   3.388   2.168
12550TIP3   OH237606   0.517   0.251   0.565
12550TIP3    H137607   0.435   0.202   0.569
12550TIP3    H237608   0.531   0.267   0.472
12551TIP3   OH237609   6.299   3.685   2.481
12551TIP3    H137610   6.363   3.691   2.552
12551TIP3    H237611   6.340   3.732   2.408
12552TIP3   OH237612   4.387   4.288   4.018
12552TIP3    H137613   4.402   4.351   3.947
12552TIP3    H237614   4.474   4.255   4.039
12553TIP3   OH237615   0.228   4.430   2.604
12553TIP3    H137616   0.240   4.494   2.674
12553TIP3    H237617   0.317   4.409   2.575
12554TIP3   OH237618   4.156   1.259   5.991
12554TIP3    H137619   4.063   1.254   5.971
12554TIP3    H237620   4.195   1.296   5.911
12555TIP3   OH237621   8.281   6.438   5.873
12555TIP3    H137622   8.271   6.518   5.822
12555TIP3    H237623   8.306   6.371   5.809
12556TIP3   OH237624   0.589   5.353   1.423
12556TIP3    H137625   0.499   5.383   1.434
12556TIP3    H237626   0.631   5.373   1.507
12557TIP3   OH237627   3.523   5.233   1.890
12557TIP3    H137628   3.482   5.159   1.846
12557TIP3    H237629   3.499   5.223   1.982
12558TIP3   OH237630   7.063   5.680   1.665
12558TIP3    H137631   7.107   5.743   1.608
12558TIP3    H237632   7.014   5.624   1.605
12559TIP3   OH237633   8.326   3.573   1.347
12559TIP3    H137634   8.287   3.501   1.298
12559TIP3    H237635   8.270   3.583   1.424
12560TIP3   OH237636   4.871   0.935  -0.034
12560TIP3    H137637   4.895   0.993   0.039
12560TIP3    H237638   4.937   0.953  -0.101
12561TIP3   OH237639   4.733   5.647   5.465
12561TIP3    H137640   4.807   5.697   5.497
12561TIP3    H237641   4.679   5.710   5.418
12562TIP3   OH237642   7.421   0.997   5.067
12562TIP3    H137643   7.342   0.949   5.041
12562TIP3    H237644   7.476   0.997   4.989
12563TIP3   OH237645   2.172   5.935   5.767
12563TIP3    H137646   2.120   5.858   5.745
12563TIP3    H237647   2.262   5.902   5.773
12564TIP3   OH237648   1.122   2.011   4.839
12564TIP3    H137649   1.039   1.987   4.797
12564TIP3    H237650   1.172   2.055   4.770
12565TIP3   OH237651   6.926   3.173   0.399
12565TIP3    H137652   6.954   3.247   0.453
12565TIP3    H237653   6.832   3.189   0.385
12566TIP3   OH237654   1.588   0.123   6.254
12566TIP3    H137655   1.566   0.072   6.176
12566TIP3    H237656   1.604   0.211   6.221
12567TIP3   OH237657   2.399   5.496   0.701
12567TIP3    H137658   2.445   5.422   0.741
12567TIP3    H237659   2.381   5.466   0.611
12568TIP3   OH237660   0.457   1.868   4.619
12568TIP3    H137661   0.506   1.867   4.701
12568TIP3    H237662   0.367   1.850   4.645
12569TIP3   OH237663   5.545   3.820   6.108
12569TIP3    H137664   5.584   3.792   6.190
12569TIP3    H237665   5.472   3.760   6.094
12570TIP3   OH237666   5.647   2.391   1.641
12570TIP3    H137667   5.591   2.381   1.719
12570TIP3    H237668   5.676   2.482   1.644
12571TIP3   OH237669   6.434   3.129   4.402
12571TIP3    H137670   6.517   3.096   4.436
12571TIP3    H237671   6.419   3.210   4.449
12572TIP3   OH237672   5.625   3.585   2.590
12572TIP3    H137673   5.718   3.584   2.614
12572TIP3    H237674   5.610   3.500   2.550
12573TIP3   OH237675   2.756   0.786   4.139
12573TIP3    H137676   2.702   0.712   4.109
12573TIP3    H237677   2.803   0.752   4.215
12574TIP3   OH237678   7.368   4.197   6.068
12574TIP3    H137679   7.407   4.119   6.108
12574TIP3    H237680   7.276   4.192   6.093
12575TIP3   OH237681   7.083   7.541   0.323
12575TIP3    H137682   7.008   7.556   0.380
12575TIP3    H237683   7.158   7.535   0.382
12576TIP3   OH237684   1.303   3.446   5.862
12576TIP3    H137685   1.376   3.429   5.802
12576TIP3    H237686   1.273   3.534   5.838
12577TIP3   OH237687   2.837   4.686   6.097
12577TIP3    H137688   2.829   4.747   6.170
12577TIP3    H237689   2.884   4.611   6.134
12578TIP3   OH237690   5.851   5.580   2.026
12578TIP3    H137691   5.815   5.566   1.938
12578TIP3    H237692   5.888   5.496   2.051
12579TIP3   OH237693   7.275   2.911   6.238
12579TIP3    H137694   7.249   2.841   6.297
12579TIP3    H237695   7.192   2.952   6.212
12580TIP3   OH237696   5.310   3.914   3.160
12580TIP3    H137697   5.274   3.960   3.085
12580TIP3    H237698   5.400   3.947   3.168
12581TIP3   OH237699   6.563   1.626   4.700
12581TIP3    H137700   6.565   1.710   4.655
12581TIP3    H237701   6.478   1.588   4.676
12582TIP3   OH237702   5.390   4.160   1.672
12582TIP3    H137703   5.345   4.155   1.587
12582TIP3    H237704   5.324   4.195   1.732
12583TIP3   OH237705   4.346   3.816   1.372
12583TIP3    H137706   4.359   3.730   1.412
12583TIP3    H237707   4.252   3.832   1.379
12584TIP3   OH237708   8.101   7.757   0.746
12584TIP3    H137709   8.184   7.802   0.732
12584TIP3    H237710   8.085   7.765   0.840
12585TIP3   OH237711   5.384   2.458   3.645
12585TIP3    H137712   5.477   2.477   3.637
12585TIP3    H237713   5.363   2.405   3.568
12586TIP3   OH237714   2.500   2.071   1.849
12586TIP3    H137715   2.425   2.013   1.858
12586TIP3    H237716   2.572   2.025   1.891
12587TIP3   OH237717   0.657   4.844   1.994
12587TIP3    H137718   0.644   4.935   2.022
12587TIP3    H237719   0.568   4.809   1.984
12588TIP3   OH237720   0.004   7.638   3.626
12588TIP3    H137721  -0.015   7.564   3.684
12588TIP3    H237722  -0.014   7.606   3.538
12589TIP3   OH237723   3.478   7.370   4.659
12589TIP3    H137724   3.385   7.368   4.681
12589TIP3    H237725   3.515   7.437   4.717
12590TIP3   OH237726   0.524   3.920   0.646
12590TIP3    H137727   0.551   3.974   0.720
12590TIP3    H237728   0.550   3.831   0.671
12591TIP3   OH237729   0.708   3.349   2.147
12591TIP3    H137730   0.697   3.444   2.143
12591TIP3    H237731   0.642   3.315   2.087
12592TIP3   OH237732   3.572   0.382   2.282
12592TIP3    H137733   3.667   0.374   2.292
12592TIP3    H237734   3.560   0.469   2.243
12593TIP3   OH237735   1.425   6.154   4.865
12593TIP3    H137736   1.379   6.186   4.942
12593TIP3    H237737   1.510   6.124   4.898
12594TIP3   OH237738   1.516   7.486   2.280
12594TIP3    H137739   1.510   7.550   2.351
12594TIP3    H237740   1.548   7.537   2.205
12595TIP3   OH237741   1.854   2.034   1.803
12595TIP3    H137742   1.775   2.087   1.796
12595TIP3    H237743   1.867   2.022   1.897
12596TIP3   OH237744   1.583   3.050   0.825
12596TIP3    H137745   1.674   3.020   0.829
12596TIP3    H237746   1.579   3.123   0.887
12597TIP3   OH237747   6.771   6.780   3.056
12597TIP3    H137748   6.836   6.725   3.100
12597TIP3    H237749   6.707   6.801   3.124
12598TIP3   OH237750   0.143   6.209   4.592
12598TIP3    H137751   0.217   6.262   4.622
12598TIP3    H237752   0.066   6.258   4.618
12599TIP3   OH237753   4.280   6.707   2.129
12599TIP3    H137754   4.235   6.699   2.046
12599TIP3    H237755   4.220   6.668   2.193
12600TIP3   OH237756   3.034   7.233   1.085
12600TIP3    H137757   3.007   7.307   1.032
12600TIP3    H237758   3.121   7.209   1.051
12601TIP3   OH237759   0.482   0.314   4.889
12601TIP3    H137760   0.497   0.273   4.804
12601TIP3    H237761   0.444   0.244   4.942
12602TIP3   OH237762   4.541   3.253   3.852
12602TIP3    H137763   4.465   3.293   3.895
12602TIP3    H237764   4.507   3.171   3.815
12603TIP3   OH237765   7.179   1.169   6.481
12603TIP3    H137766   7.202   1.262   6.479
12603TIP3    H237767   7.107   1.163   6.543
12604TIP3   OH237768   2.863   2.402   5.629
12604TIP3    H137769   2.930   2.369   5.568
12604TIP3    H237770   2.912   2.458   5.689
12605TIP3   OH237771   5.047   2.676   4.503
12605TIP3    H137772   5.014   2.639   4.421
12605TIP3    H237773   4.985   2.745   4.526
12606TIP3   OH237774   0.459   2.171   3.897
12606TIP3    H137775   0.390   2.188   3.833
12606TIP3    H237776   0.463   2.252   3.949
12607TIP3   OH237777   1.853   4.660   2.399
12607TIP3    H137778   1.777   4.651   2.456
12607TIP3    H237779   1.826   4.623   2.315
12608TIP3   OH237780   6.860   5.704   6.050
12608TIP3    H137781   6.947   5.708   6.091
12608TIP3    H237782   6.829   5.615   6.067
12609TIP3   OH237783   3.087   3.326   2.705
12609TIP3    H137784   3.116   3.342   2.616
12609TIP3    H237785   2.994   3.348   2.705
12610TIP3   OH237786   6.928   2.564   6.623
12610TIP3    H137787   6.848   2.611   6.644
12610TIP3    H237788   6.900   2.493   6.564
12611TIP3   OH237789   6.021   6.901   2.960
12611TIP3    H137790   6.028   6.930   3.050
12611TIP3    H237791   6.084   6.830   2.952
12612TIP3   OH237792   7.841   1.355   3.933
12612TIP3    H137793   7.853   1.265   3.901
12612TIP3    H237794   7.892   1.359   4.014
12613TIP3   OH237795   2.422   4.493   5.491
12613TIP3    H137796   2.454   4.411   5.453
12613TIP3    H237797   2.421   4.476   5.586
12614TIP3   OH237798   7.738   7.165   1.231
12614TIP3    H137799   7.736   7.124   1.145
12614TIP3    H237800   7.686   7.245   1.221
12615TIP3   OH237801   2.087   7.212   3.238
12615TIP3    H137802   2.036   7.179   3.164
12615TIP3    H237803   2.027   7.210   3.312
12616TIP3   OH237804   0.396   0.763   4.289
12616TIP3    H137805   0.321   0.822   4.284
12616TIP3    H237806   0.377   0.695   4.224
12617TIP3   OH237807   5.907   4.146   1.299
12617TIP3    H137808   5.893   4.110   1.386
12617TIP3    H237809   5.903   4.241   1.310
12618TIP3   OH237810   4.556   2.450   5.435
12618TIP3    H137811   4.607   2.387   5.384
12618TIP3    H237812   4.465   2.434   5.409
12619TIP3   OH237813   5.852   2.275   1.479
12619TIP3    H137814   5.902   2.347   1.438
12619TIP3    H237815   5.767   2.314   1.501
12620TIP3   OH237816   7.421   1.349   4.151
12620TIP3    H137817   7.339   1.312   4.185
12620TIP3    H237818   7.399   1.379   4.063
12621TIP3   OH237819   3.842   1.025   0.996
12621TIP3    H137820   3.778   0.987   1.056
12621TIP3    H237821   3.923   0.978   1.015
12622TIP3   OH237822   4.334   6.084   0.325
12622TIP3    H137823   4.244   6.105   0.299
12622TIP3    H237824   4.360   6.012   0.268
12623TIP3   OH237825   5.916   1.105   5.451
12623TIP3    H137826   5.846   1.072   5.395
12623TIP3    H237827   5.995   1.064   5.416
12624TIP3   OH237828   4.033   0.255   1.189
12624TIP3    H137829   3.974   0.220   1.256
12624TIP3    H237830   4.120   0.227   1.216
12625TIP3   OH237831   1.902   5.611   3.225
12625TIP3    H137832   1.975   5.634   3.282
12625TIP3    H237833   1.867   5.695   3.195
12626TIP3   OH237834   7.875   2.290   4.395
12626TIP3    H137835   7.951   2.284   4.338
12626TIP3    H237836   7.838   2.376   4.378
12627TIP3   OH237837   0.690   5.709   5.151
12627TIP3    H137838   0.712   5.792   5.194
12627TIP3    H237839   0.675   5.648   5.223
12628TIP3   OH237840   4.082   7.405   6.471
12628TIP3    H137841   4.092   7.314   6.496
12628TIP3    H237842   4.037   7.403   6.387
12629TIP3   OH237843   5.766   0.786   3.978
12629TIP3    H137844   5.776   0.710   3.921
12629TIP3    H237845   5.841   0.842   3.956
12630TIP3   OH237846   6.104   7.171   1.794
12630TIP3    H137847   6.091   7.109   1.723
12630TIP3    H237848   6.018   7.210   1.809
12631TIP3   OH237849   6.709   0.983   4.178
12631TIP3    H137850   6.696   0.944   4.265
12631TIP3    H237851   6.710   0.908   4.118
12632TIP3   OH237852   2.105   7.499   1.579
12632TIP3    H137853   2.132   7.423   1.631
12632TIP3    H237854   2.164   7.569   1.608
12633TIP3   OH237855   2.421   5.637   1.557
12633TIP3    H137856   2.510   5.671   1.570
12633TIP3    H237857   2.395   5.670   1.471
12634TIP3   OH237858   1.413   6.937   6.003
12634TIP3    H137859   1.397   7.029   5.984
12634TIP3    H237860   1.403   6.930   6.098
12635TIP3   OH237861   6.394   6.534   3.328
12635TIP3    H137862   6.441   6.518   3.410
12635TIP3    H237863   6.319   6.588   3.354
12636TIP3   OH237864   3.693   4.804   5.091
12636TIP3    H137865   3.718   4.753   5.013
12636TIP3    H237866   3.725   4.892   5.073
12637TIP3   OH237867   6.040   6.073   2.385
12637TIP3    H137868   5.952   6.046   2.357
12637TIP3    H237869   6.086   6.092   2.303
12638TIP3   OH237870   1.558   4.423   0.741
12638TIP3    H137871   1.548   4.370   0.819
12638TIP3    H237872   1.652   4.444   0.737
12639TIP3   OH237873   3.139   0.587   3.333
12639TIP3    H137874   3.194   0.556   3.405
12639TIP3    H237875   3.068   0.634   3.377
12640TIP3   OH237876   6.771   0.376   0.556
12640TIP3    H137877   6.730   0.462   0.566
12640TIP3    H237878   6.864   0.395   0.544
12641TIP3   OH237879   7.744   3.997   0.805
12641TIP3    H137880   7.806   4.050   0.754
12641TIP3    H237881   7.785   3.988   0.891
12642TIP3   OH237882   5.151   0.366   0.281
12642TIP3    H137883   5.075   0.355   0.224
12642TIP3    H237884   5.144   0.455   0.314
12643TIP3   OH237885   1.088   5.283   2.432
12643TIP3    H137886   1.181   5.306   2.432
12643TIP3    H237887   1.064   5.278   2.524
12644TIP3   OH237888   1.193   0.819   3.912
12644TIP3    H137889   1.150   0.900   3.883
12644TIP3    H237890   1.182   0.818   4.007
12645TIP3   OH237891   7.363   6.559   1.847
12645TIP3    H137892   7.394   6.594   1.930
12645TIP3    H237893   7.289   6.615   1.823
12646TIP3   OH237894   7.714   6.497   5.655
12646TIP3    H137895   7.808   6.492   5.670
12646TIP3    H237896   7.692   6.589   5.669
12647TIP3   OH237897   2.975   2.791   1.517
12647TIP3    H137898   2.972   2.725   1.448
12647TIP3    H237899   2.986   2.740   1.597
12648TIP3   OH237900   3.416   1.702   3.574
12648TIP3    H137901   3.347   1.700   3.508
12648TIP3    H237902   3.462   1.784   3.560
12649TIP3   OH237903   0.710   7.691   6.118
12649TIP3    H137904   0.746   7.663   6.202
12649TIP3    H237905   0.706   7.611   6.066
12650TIP3   OH237906   2.413   3.950   2.445
12650TIP3    H137907   2.465   4.015   2.397
12650TIP3    H237908   2.382   3.890   2.378
12651TIP3   OH237909   0.198   1.731   3.986
12651TIP3    H137910   0.163   1.652   4.027
12651TIP3    H237911   0.130   1.758   3.923
12652TIP3   OH237912   3.034   6.341   5.779
12652TIP3    H137913   3.008   6.424   5.820
12652TIP3    H237914   2.970   6.328   5.709
12653TIP3   OH237915   7.764   7.171   3.567
12653TIP3    H137916   7.759   7.075   3.566
12653TIP3    H237917   7.704   7.197   3.637
12654TIP3   OH237918   3.304   4.675   6.041
12654TIP3    H137919   3.301   4.762   6.081
12654TIP3    H237920   3.313   4.693   5.947
12655TIP3   OH237921   4.564   4.899   0.532
12655TIP3    H137922   4.589   4.991   0.533
12655TIP3    H237923   4.643   4.853   0.502
12656TIP3   OH237924   7.813   3.437   1.952
12656TIP3    H137925   7.744   3.502   1.964
12656TIP3    H237926   7.894   3.488   1.953
12657TIP3   OH237927   2.771   5.867   2.755
12657TIP3    H137928   2.819   5.920   2.818
12657TIP3    H237929   2.683   5.904   2.755
12658TIP3   OH237930   7.663   2.326   5.977
12658TIP3    H137931   7.737   2.284   5.934
12658TIP3    H237932   7.685   2.419   5.976
12659TIP3   OH237933   4.675   2.808   2.323
12659TIP3    H137934   4.714   2.814   2.236
12659TIP3    H237935   4.601   2.869   2.321
12660TIP3   OH237936   2.649   0.291   6.374
12660TIP3    H137937   2.679   0.365   6.321
12660TIP3    H237938   2.662   0.214   6.318
12661TIP3   OH237939   8.223   6.095   0.877
12661TIP3    H137940   8.297   6.134   0.924
12661TIP3    H237941   8.215   6.006   0.912
12662TIP3   OH237942   5.968   6.644   0.165
12662TIP3    H137943   5.875   6.623   0.161
12662TIP3    H237944   6.011   6.574   0.117
12663TIP3   OH237945   7.109   6.311   6.742
12663TIP3    H137946   7.038   6.354   6.696
12663TIP3    H237947   7.105   6.220   6.712
12664TIP3   OH237948   0.023   1.377   4.982
12664TIP3    H137949   0.024   1.344   4.892
12664TIP3    H237950  -0.007   1.467   4.975
12665TIP3   OH237951   5.619   4.776   2.215
12665TIP3    H137952   5.635   4.695   2.167
12665TIP3    H237953   5.568   4.830   2.155
12666TIP3   OH237954   0.304   0.613   2.789
12666TIP3    H137955   0.380   0.567   2.824
12666TIP3    H237956   0.316   0.611   2.694
12667TIP3   OH237957   4.767   5.777   0.698
12667TIP3    H137958   4.772   5.857   0.645
12667TIP3    H237959   4.742   5.807   0.785
12668TIP3   OH237960   3.175   6.384   5.056
12668TIP3    H137961   3.155   6.456   4.997
12668TIP3    H237962   3.226   6.323   5.004
12669TIP3   OH237963   3.871   0.000   6.633
12669TIP3    H137964   3.836   0.088   6.621
12669TIP3    H237965   3.807  -0.044   6.689
12670TIP3   OH237966   0.114   0.155   6.377
12670TIP3    H137967   0.113   0.115   6.464
12670TIP3    H237968   0.148   0.244   6.392
12671TIP3   OH237969   0.751   5.528   5.624
12671TIP3    H137970   0.705   5.516   5.541
12671TIP3    H237971   0.706   5.469   5.685
12672TIP3   OH237972   6.630   4.071   1.296
12672TIP3    H137973   6.562   4.017   1.256
12672TIP3    H237974   6.712   4.026   1.274
12673TIP3   OH237975   0.643   5.119   2.086
12673TIP3    H137976   0.576   5.166   2.035
12673TIP3    H237977   0.641   5.160   2.172
12674TIP3   OH237978   5.362   1.105   1.818
12674TIP3    H137979   5.365   1.015   1.785
12674TIP3    H237980   5.453   1.129   1.832
12675TIP3   OH237981   2.699   1.052   1.463
12675TIP3    H137982   2.671   1.009   1.383
12675TIP3    H237983   2.701   0.982   1.529
12676TIP3   OH237984   1.895   4.197   1.632
12676TIP3    H137985   1.923   4.234   1.548
12676TIP3    H237986   1.800   4.190   1.625
12677TIP3   OH237987   2.805   1.384   5.505
12677TIP3    H137988   2.868   1.316   5.482
12677TIP3    H237989   2.852   1.442   5.565
12678TIP3   OH237990   1.672   6.369   2.343
12678TIP3    H137991   1.713   6.294   2.386
12678TIP3    H237992   1.673   6.346   2.250
12679TIP3   OH237993   0.783   7.188   1.153
12679TIP3    H137994   0.689   7.173   1.157
12679TIP3    H237995   0.796   7.270   1.201
12680TIP3   OH237996   5.510   3.009   0.531
12680TIP3    H137997   5.446   2.996   0.461
12680TIP3    H237998   5.595   2.995   0.489
12681TIP3   OH237999   0.291   1.443   0.588
12681TIP3    H138000   0.209   1.462   0.542
12681TIP3    H238001   0.348   1.406   0.520
12682TIP3   OH238002   7.622   3.952   3.541
12682TIP3    H138003   7.568   4.021   3.579
12682TIP3    H238004   7.709   3.992   3.530
12683TIP3   OH238005   4.130   0.332   0.607
12683TIP3    H138006   4.073   0.290   0.542
12683TIP3    H238007   4.075   0.400   0.646
12684TIP3   OH238008   4.586   0.465   1.195
12684TIP3    H138009   4.514   0.526   1.181
12684TIP3    H238010   4.661   0.520   1.215
12685TIP3   OH238011   4.675   0.880   5.985
12685TIP3    H138012   4.757   0.865   6.031
12685TIP3    H238013   4.607   0.858   6.049
12686TIP3   OH238014   0.475   6.121   2.734
12686TIP3    H138015   0.565   6.116   2.701
12686TIP3    H238016   0.423   6.146   2.658
12687TIP3   OH238017   1.682   7.195   6.186
12687TIP3    H138018   1.738   7.120   6.206
12687TIP3    H238019   1.737   7.272   6.205
12688TIP3   OH238020   3.912   3.261   6.615
12688TIP3    H138021   3.883   3.208   6.541
12688TIP3    H238022   3.959   3.200   6.672
12689TIP3   OH238023   3.543   2.558   6.348
12689TIP3    H138024   3.637   2.548   6.332
12689TIP3    H238025   3.507   2.470   6.337
12690TIP3   OH238026   6.036   0.447   3.383
12690TIP3    H138027   6.126   0.459   3.414
12690TIP3    H238028   6.002   0.377   3.437
12691TIP3   OH238029   0.957   7.627   0.262
12691TIP3    H138030   0.902   7.569   0.209
12691TIP3    H238031   0.984   7.574   0.337
12692TIP3   OH238032   1.330   3.225   6.280
12692TIP3    H138033   1.313   3.143   6.326
12692TIP3    H238034   1.246   3.271   6.282
12693TIP3   OH238035   1.608   6.406   1.046
12693TIP3    H138036   1.689   6.421   1.095
12693TIP3    H238037   1.606   6.311   1.033
12694TIP3   OH238038   4.890   5.083   0.051
12694TIP3    H138039   4.825   5.013   0.056
12694TIP3    H238040   4.961   5.046   0.000
12695TIP3   OH238041   5.966   7.466   2.078
12695TIP3    H138042   5.961   7.416   1.997
12695TIP3    H238043   5.874   7.483   2.101
12696TIP3   OH238044   7.544   4.062   2.521
12696TIP3    H138045   7.594   4.121   2.577
12696TIP3    H238046   7.466   4.040   2.574
12697TIP3   OH238047   1.196   5.592   0.859
12697TIP3    H138048   1.115   5.547   0.882
12697TIP3    H238049   1.197   5.671   0.912
12698TIP3   OH238050   1.137   4.585   4.520
12698TIP3    H138051   1.199   4.517   4.546
12698TIP3    H238052   1.053   4.555   4.556
12699TIP3   OH238053   5.591   0.477   3.634
12699TIP3    H138054   5.563   0.568   3.633
12699TIP3    H238055   5.516   0.428   3.668
12700TIP3   OH238056   4.074   2.158   5.406
12700TIP3    H138057   4.154   2.133   5.451
12700TIP3    H238058   4.022   2.078   5.401
12701TIP3   OH238059   4.827   1.831   2.825
12701TIP3    H138060   4.833   1.859   2.734
12701TIP3    H238061   4.734   1.812   2.838
12702TIP3   OH238062   2.301   1.748   3.393
12702TIP3    H138063   2.298   1.659   3.358
12702TIP3    H238064   2.258   1.801   3.326
12703TIP3   OH238065   2.622   1.249   6.006
12703TIP3    H138066   2.673   1.203   6.073
12703TIP3    H238067   2.615   1.186   5.933
12704TIP3   OH238068   5.153   5.610   0.955
12704TIP3    H138069   5.072   5.576   0.993
12704TIP3    H238070   5.205   5.638   1.030
12705TIP3   OH238071   1.703   6.101   5.903
12705TIP3    H138072   1.697   6.031   5.969
12705TIP3    H238073   1.714   6.181   5.955
12706TIP3   OH238074   6.958   0.769   0.744
12706TIP3    H138075   6.966   0.808   0.657
12706TIP3    H238076   6.897   0.827   0.790
12707TIP3   OH238077   6.291   1.848   2.636
12707TIP3    H138078   6.375   1.803   2.646
12707TIP3    H238079   6.251   1.809   2.559
12708TIP3   OH238080   4.680   2.288   2.161
12708TIP3    H138081   4.594   2.276   2.201
12708TIP3    H238082   4.694   2.383   2.162
12709TIP3   OH238083   3.016   4.510   4.660
12709TIP3    H138084   2.982   4.516   4.571
12709TIP3    H238085   3.109   4.531   4.652
12710TIP3   OH238086   7.061   0.475   0.577
12710TIP3    H138087   7.065   0.541   0.508
12710TIP3    H238088   7.061   0.391   0.531
12711TIP3   OH238089   4.326   7.110   3.748
12711TIP3    H138090   4.352   7.030   3.794
12711TIP3    H238091   4.310   7.082   3.658
12712TIP3   OH238092   5.428   3.267   4.489
12712TIP3    H138093   5.425   3.182   4.445
12712TIP3    H238094   5.440   3.331   4.419
12713TIP3   OH238095   8.309   1.489   1.713
12713TIP3    H138096   8.320   1.489   1.618
12713TIP3    H238097   8.254   1.565   1.731
12714TIP3   OH238098   6.098   4.856   4.635
12714TIP3    H138099   6.156   4.791   4.595
12714TIP3    H238100   6.151   4.896   4.704
12715TIP3   OH238101   8.108   4.928   2.525
12715TIP3    H138102   8.020   4.894   2.511
12715TIP3    H238103   8.137   4.957   2.439
12716TIP3   OH238104   5.865   2.277   5.487
12716TIP3    H138105   5.822   2.241   5.409
12716TIP3    H238106   5.801   2.264   5.557
12717TIP3   OH238107   7.532   4.220   0.851
12717TIP3    H138108   7.580   4.166   0.788
12717TIP3    H238109   7.454   4.168   0.873
12718TIP3   OH238110   5.791   4.445   0.888
12718TIP3    H138111   5.863   4.405   0.937
12718TIP3    H238112   5.833   4.505   0.827
12719TIP3   OH238113   4.493   2.333   2.740
12719TIP3    H138114   4.522   2.312   2.651
12719TIP3    H238115   4.572   2.364   2.784
12720TIP3   OH238116   5.021   5.073   2.867
12720TIP3    H138117   4.993   5.000   2.812
12720TIP3    H238118   4.975   5.149   2.833
12721TIP3   OH238119   0.957   7.111   6.001
12721TIP3    H138120   0.902   7.187   5.979
12721TIP3    H238121   0.991   7.081   5.917
12722TIP3   OH238122   1.983   6.604   4.475
12722TIP3    H138123   2.057   6.546   4.488
12722TIP3    H238124   1.907   6.546   4.473
12723TIP3   OH238125   5.417   4.346   0.339
12723TIP3    H138126   5.440   4.436   0.361
12723TIP3    H238127   5.419   4.344   0.243
12724TIP3   OH238128   1.844   7.407   0.924
12724TIP3    H138129   1.930   7.398   0.964
12724TIP3    H238130   1.858   7.469   0.852
12725TIP3   OH238131   2.601   4.314   0.122
12725TIP3    H138132   2.594   4.257   0.046
12725TIP3    H238133   2.558   4.395   0.096
12726TIP3   OH238134   2.805   3.001   1.479
12726TIP3    H138135   2.847   2.917   1.498
12726TIP3    H238136   2.719   2.977   1.444
12727TIP3   OH238137   1.483   6.390   5.713
12727TIP3    H138138   1.436   6.456   5.661
12727TIP3    H238139   1.461   6.307   5.672
12728TIP3   OH238140   2.677   5.967   2.073
12728TIP3    H138141   2.685   5.879   2.111
12728TIP3    H238142   2.674   6.025   2.149
12729TIP3   OH238143   7.278   2.964   0.632
12729TIP3    H138144   7.227   2.944   0.711
12729TIP3    H238145   7.274   3.059   0.624
12730TIP3   OH238146   1.720   3.072   6.118
12730TIP3    H138147   1.755   3.004   6.175
12730TIP3    H238148   1.661   3.122   6.175
12731TIP3   OH238149   4.974   7.015   4.187
12731TIP3    H138150   4.984   6.972   4.272
12731TIP3    H238151   5.064   7.030   4.157
12732TIP3   OH238152   2.314   6.168   0.465
12732TIP3    H138153   2.394   6.126   0.433
12732TIP3    H238154   2.301   6.131   0.553
12733TIP3   OH238155   1.770   6.854   3.212
12733TIP3    H138156   1.831   6.835   3.284
12733TIP3    H238157   1.823   6.844   3.133
12734TIP3   OH238158   5.426   1.836   6.511
12734TIP3    H138159   5.491   1.900   6.482
12734TIP3    H238160   5.346   1.887   6.523
12735TIP3   OH238161   6.891   5.382   3.242
12735TIP3    H138162   6.852   5.459   3.200
12735TIP3    H238163   6.906   5.321   3.170
12736TIP3   OH238164   6.555   6.035   3.657
12736TIP3    H138165   6.518   6.117   3.622
12736TIP3    H238166   6.480   5.977   3.665
12737TIP3   OH238167   6.312   2.065   1.696
12737TIP3    H138168   6.306   2.157   1.719
12737TIP3    H238169   6.221   2.034   1.697
12738TIP3   OH238170   3.061   2.113   4.845
12738TIP3    H138171   3.112   2.162   4.910
12738TIP3    H238172   3.112   2.034   4.828
12739TIP3   OH238173   7.966   0.151   2.310
12739TIP3    H138174   8.021   0.203   2.369
12739TIP3    H238175   7.922   0.088   2.367
12740TIP3   OH238176   4.708   3.251   4.115
12740TIP3    H138177   4.704   3.336   4.160
12740TIP3    H238178   4.683   3.271   4.025
12741TIP3   OH238179   5.697   4.783   0.568
12741TIP3    H138180   5.605   4.802   0.585
12741TIP3    H238181   5.709   4.806   0.476
12742TIP3   OH238182   4.768   4.152   5.945
12742TIP3    H138183   4.832   4.143   6.016
12742TIP3    H238184   4.690   4.107   5.977
12743TIP3   OH238185   7.383   6.670   3.313
12743TIP3    H138186   7.317   6.668   3.383
12743TIP3    H238187   7.401   6.763   3.300
12744TIP3   OH238188   7.900   5.645   4.197
12744TIP3    H138189   7.910   5.602   4.282
12744TIP3    H238190   7.821   5.606   4.160
12745TIP3   OH238191   7.444   6.686   6.652
12745TIP3    H138192   7.412   6.600   6.626
12745TIP3    H238193   7.387   6.713   6.724
12746TIP3   OH238194   7.360   4.846   3.130
12746TIP3    H138195   7.334   4.847   3.222
12746TIP3    H238196   7.447   4.884   3.129
12747TIP3   OH238197   4.548   0.227   1.446
12747TIP3    H138198   4.614   0.232   1.377
12747TIP3    H238199   4.513   0.138   1.439
12748TIP3   OH238200   2.905   7.299   0.339
12748TIP3    H138201   2.846   7.225   0.324
12748TIP3    H238202   2.878   7.336   0.423
12749TIP3   OH238203   4.705   6.869   5.182
12749TIP3    H138204   4.790   6.913   5.178
12749TIP3    H238205   4.657   6.900   5.106
12750TIP3   OH238206   6.974   1.155   2.110
12750TIP3    H138207   7.008   1.156   2.200
12750TIP3    H238208   7.042   1.199   2.059
12751TIP3   OH238209   1.548   0.859   0.308
12751TIP3    H138210   1.618   0.901   0.358
12751TIP3    H238211   1.487   0.931   0.288
12752TIP3   OH238212   7.803   4.181   2.964
12752TIP3    H138213   7.730   4.228   2.924
12752TIP3    H238214   7.877   4.241   2.957
12753TIP3   OH238215   5.792   2.896   4.621
12753TIP3    H138216   5.720   2.842   4.655
12753TIP3    H238217   5.766   2.986   4.642
12754TIP3   OH238218   3.180   4.887   5.768
12754TIP3    H138219   3.128   4.807   5.775
12754TIP3    H238220   3.207   4.890   5.676
12755TIP3   OH238221   5.019   7.299   6.174
12755TIP3    H138222   5.029   7.251   6.257
12755TIP3    H238223   5.024   7.231   6.107
12756TIP3   OH238224   4.104   4.254   4.841
12756TIP3    H138225   4.085   4.342   4.808
12756TIP3    H238226   4.035   4.199   4.803
12757TIP3   OH238227   3.354   4.929   6.145
12757TIP3    H138228   3.262   4.954   6.139
12757TIP3    H238229   3.378   4.946   6.236
12758TIP3   OH238230   1.748   4.796   0.434
12758TIP3    H138231   1.719   4.817   0.522
12758TIP3    H238232   1.706   4.713   0.413
12759TIP3   OH238233   6.570   2.253   6.043
12759TIP3    H138234   6.647   2.236   5.988
12759TIP3    H238235   6.541   2.340   6.017
12760TIP3   OH238236   4.243   5.114   0.512
12760TIP3    H138237   4.201   5.131   0.428
12760TIP3    H238238   4.316   5.175   0.516
12761TIP3   OH238239   5.385   6.241   1.437
12761TIP3    H138240   5.353   6.152   1.427
12761TIP3    H238241   5.475   6.230   1.470
12762TIP3   OH238242   3.077   3.449   4.353
12762TIP3    H138243   3.029   3.384   4.301
12762TIP3    H238244   3.044   3.533   4.322
12763TIP3   OH238245   0.290   1.427   5.729
12763TIP3    H138246   0.298   1.422   5.825
12763TIP3    H238247   0.267   1.338   5.702
12764TIP3   OH238248   2.269   4.612   3.438
12764TIP3    H138249   2.205   4.582   3.503
12764TIP3    H238250   2.217   4.661   3.375
12765TIP3   OH238251   5.468   1.345   2.303
12765TIP3    H138252   5.386   1.342   2.351
12765TIP3    H238253   5.502   1.433   2.319
12766TIP3   OH238254   7.779   7.024   6.567
12766TIP3    H138255   7.728   6.957   6.521
12766TIP3    H238256   7.865   6.984   6.580
12767TIP3   OH238257   5.677   6.692   2.104
12767TIP3    H138258   5.741   6.638   2.057
12767TIP3    H238259   5.730   6.749   2.159
12768TIP3   OH238260   2.631   1.373   5.101
12768TIP3    H138261   2.714   1.341   5.134
12768TIP3    H238262   2.597   1.302   5.046
12769TIP3   OH238263   7.039   5.976   3.514
12769TIP3    H138264   6.956   6.013   3.544
12769TIP3    H238265   7.084   5.950   3.595
12770TIP3   OH238266   4.921   6.546   2.859
12770TIP3    H138267   4.958   6.605   2.924
12770TIP3    H238268   4.830   6.535   2.885
12771TIP3   OH238269   6.014   4.885   3.652
12771TIP3    H138270   6.012   4.850   3.562
12771TIP3    H238271   5.926   4.916   3.668
12772TIP3   OH238272   6.401   0.085   5.851
12772TIP3    H138273   6.337   0.152   5.873
12772TIP3    H238274   6.397   0.077   5.756
12773TIP3   OH238275   8.055   4.225   6.715
12773TIP3    H138276   8.079   4.170   6.639
12773TIP3    H238277   8.128   4.214   6.776
12774TIP3   OH238278   2.978   7.422   5.589
12774TIP3    H138279   2.972   7.397   5.681
12774TIP3    H238280   3.012   7.344   5.545
12775TIP3   OH238281   7.645   6.434   3.630
12775TIP3    H138282   7.686   6.425   3.717
12775TIP3    H238283   7.695   6.505   3.588
12776TIP3   OH238284   7.391   6.142   6.257
12776TIP3    H138285   7.378   6.106   6.345
12776TIP3    H238286   7.336   6.220   6.255
12777TIP3   OH238287   3.837   5.657   5.670
12777TIP3    H138288   3.856   5.725   5.735
12777TIP3    H238289   3.758   5.687   5.625
12778TIP3   OH238290   5.416   2.768   5.374
12778TIP3    H138291   5.356   2.797   5.442
12778TIP3    H238292   5.381   2.806   5.293
12779TIP3   OH238293   8.179   6.662   3.576
12779TIP3    H138294   8.119   6.587   3.567
12779TIP3    H238295   8.216   6.652   3.664
12780TIP3   OH238296   3.197   4.886   4.972
12780TIP3    H138297   3.204   4.967   5.024
12780TIP3    H238298   3.284   4.849   4.974
12781TIP3   OH238299   4.551   4.108   4.722
12781TIP3    H138300   4.498   4.152   4.788
12781TIP3    H238301   4.642   4.130   4.744
12782TIP3   OH238302   6.097   6.275   0.296
12782TIP3    H138303   6.084   6.366   0.323
12782TIP3    H238304   6.136   6.233   0.372
12783TIP3   OH238305   5.167   7.466   1.218
12783TIP3    H138306   5.128   7.409   1.152
12783TIP3    H238307   5.220   7.528   1.168
12784TIP3   OH238308   4.683   4.126   3.382
12784TIP3    H138309   4.628   4.111   3.305
12784TIP3    H238310   4.755   4.063   3.373
12785TIP3   OH238311   0.042   1.485   0.435
12785TIP3    H138312   0.010   1.397   0.412
12785TIP3    H238313  -0.015   1.545   0.386
12786TIP3   OH238314   2.398   3.481   0.315
12786TIP3    H138315   2.323   3.499   0.258
12786TIP3    H238316   2.385   3.537   0.391
12787TIP3   OH238317   3.475   7.521   2.838
12787TIP3    H138318   3.513   7.603   2.869
12787TIP3    H238319   3.445   7.540   2.750
12788TIP3   OH238320   7.111   4.356   5.621
12788TIP3    H138321   7.189   4.362   5.676
12788TIP3    H238322   7.144   4.328   5.536
12789TIP3   OH238323   2.993   7.481   1.450
12789TIP3    H138324   2.920   7.524   1.494
12789TIP3    H238325   2.975   7.388   1.458
12790TIP3   OH238326   7.757   7.406   0.056
12790TIP3    H138327   7.807   7.429   0.133
12790TIP3    H238328   7.822   7.376  -0.008
12791TIP3   OH238329   5.268   1.344   1.685
12791TIP3    H138330   5.346   1.400   1.686
12791TIP3    H238331   5.222   1.369   1.605
12792TIP3   OH238332   8.259   5.605   3.403
12792TIP3    H138333   8.193   5.604   3.472
12792TIP3    H238334   8.326   5.666   3.435
12793TIP3   OH238335   1.665   5.402   0.220
12793TIP3    H138336   1.707   5.475   0.266
12793TIP3    H238337   1.584   5.386   0.268
12794TIP3   OH238338   6.412   4.251   1.380
12794TIP3    H138339   6.488   4.197   1.357
12794TIP3    H238340   6.432   4.337   1.342
12795TIP3   OH238341   1.458   5.827   0.053
12795TIP3    H138342   1.388   5.828   0.118
12795TIP3    H238343   1.539   5.831   0.104
12796TIP3   OH238344   5.563   3.515   0.046
12796TIP3    H138345   5.584   3.548   0.134
12796TIP3    H238346   5.535   3.424   0.061
12797TIP3   OH238347   5.427   4.859   0.570
12797TIP3    H138348   5.452   4.942   0.610
12797TIP3    H238349   5.336   4.845   0.599
12798TIP3   OH238350   3.940   3.368   3.190
12798TIP3    H138351   4.025   3.408   3.209
12798TIP3    H238352   3.883   3.398   3.261
12799TIP3   OH238353   4.693   4.274   1.957
12799TIP3    H138354   4.618   4.216   1.971
12799TIP3    H238355   4.675   4.317   1.874
12800TIP3   OH238356   7.891   6.150   0.261
12800TIP3    H138357   7.856   6.146   0.350
12800TIP3    H238358   7.916   6.241   0.249
12801TIP3   OH238359   4.747   4.336   3.097
12801TIP3    H138360   4.706   4.367   3.178
12801TIP3    H238361   4.794   4.257   3.123
12802TIP3   OH238362   5.699   3.148   1.855
12802TIP3    H138363   5.639   3.079   1.883
12802TIP3    H238364   5.730   3.187   1.936
12803TIP3   OH238365   6.399   6.434   3.057
12803TIP3    H138366   6.478   6.461   3.009
12803TIP3    H238367   6.417   6.461   3.148
12804TIP3   OH238368   7.345   5.187   4.082
12804TIP3    H138369   7.287   5.228   4.017
12804TIP3    H238370   7.309   5.215   4.166
12805TIP3   OH238371   5.182   1.426   6.243
12805TIP3    H138372   5.227   1.475   6.311
12805TIP3    H238373   5.113   1.378   6.289
12806TIP3   OH238374   5.695   5.939   5.028
12806TIP3    H138375   5.656   5.895   4.952
12806TIP3    H238376   5.763   5.994   4.990
12807TIP3   OH238377   7.276   6.776   2.643
12807TIP3    H138378   7.318   6.828   2.574
12807TIP3    H238379   7.204   6.832   2.673
12808TIP3   OH238380   7.678   2.974   4.598
12808TIP3    H138381   7.591   2.973   4.558
12808TIP3    H238382   7.670   2.913   4.672
12809TIP3   OH238383   4.922   3.477   2.762
12809TIP3    H138384   4.918   3.397   2.814
12809TIP3    H238385   4.989   3.459   2.695
12810TIP3   OH238386   6.254   7.000   5.790
12810TIP3    H138387   6.222   7.073   5.738
12810TIP3    H238388   6.277   7.039   5.875
12811TIP3   OH238389   1.332   0.152   6.110
12811TIP3    H138390   1.337   0.215   6.038
12811TIP3    H238391   1.251   0.104   6.095
12812TIP3   OH238392   2.988   0.232   3.192
12812TIP3    H138393   3.055   0.283   3.148
12812TIP3    H238394   2.948   0.180   3.121
12813TIP3   OH238395   1.324   7.732   0.605
12813TIP3    H138396   1.365   7.707   0.523
12813TIP3    H238397   1.267   7.659   0.627
12814TIP3   OH238398   1.231   5.905   2.336
12814TIP3    H138399   1.242   5.891   2.430
12814TIP3    H238400   1.319   5.898   2.300
12815TIP3   OH238401   0.117   0.452   4.289
12815TIP3    H138402   0.026   0.454   4.259
12815TIP3    H238403   0.112   0.474   4.382
12816TIP3   OH238404   2.802   7.126   4.802
12816TIP3    H138405   2.850   7.043   4.811
12816TIP3    H238406   2.735   7.122   4.869
12817TIP3   OH238407   1.121   0.134   2.701
12817TIP3    H138408   1.115   0.199   2.631
12817TIP3    H238409   1.030   0.112   2.721
12818TIP3   OH238410   5.207   5.773   1.182
12818TIP3    H138411   5.141   5.742   1.244
12818TIP3    H238412   5.172   5.856   1.149
12819TIP3   OH238413   3.246   3.523   5.843
12819TIP3    H138414   3.332   3.539   5.803
12819TIP3    H238415   3.195   3.483   5.773
12820TIP3   OH238416   0.940   7.346   3.211
12820TIP3    H138417   0.845   7.334   3.212
12820TIP3    H238418   0.954   7.426   3.263
12821TIP3   OH238419   2.050   4.282   1.418
12821TIP3    H138420   2.075   4.367   1.454
12821TIP3    H238421   2.106   4.270   1.342
12822TIP3   OH238422   0.274   6.127   0.689
12822TIP3    H138423   0.194   6.173   0.717
12822TIP3    H238424   0.316   6.188   0.628
12823TIP3   OH238425   2.593   3.200   3.224
12823TIP3    H138426   2.651   3.130   3.196
12823TIP3    H238427   2.635   3.235   3.303
12824TIP3   OH238428   4.815   1.003   5.504
12824TIP3    H138429   4.866   1.053   5.441
12824TIP3    H238430   4.833   1.045   5.588
12825TIP3   OH238431   4.315   6.152   3.250
12825TIP3    H138432   4.259   6.202   3.190
12825TIP3    H238433   4.309   6.062   3.218
12826TIP3   OH238434   0.717   3.139   5.141
12826TIP3    H138435   0.790   3.108   5.087
12826TIP3    H238436   0.755   3.155   5.227
12827TIP3   OH238437   5.737   4.203   0.038
12827TIP3    H138438   5.685   4.126   0.015
12827TIP3    H238439   5.701   4.233   0.122
12828TIP3   OH238440   6.865   6.835   1.767
12828TIP3    H138441   6.885   6.773   1.697
12828TIP3    H238442   6.775   6.813   1.794
12829TIP3   OH238443   2.430   5.529   5.866
12829TIP3    H138444   2.418   5.612   5.912
12829TIP3    H238445   2.409   5.549   5.775
12830TIP3   OH238446   0.183   1.773   6.230
12830TIP3    H138447   0.092   1.799   6.243
12830TIP3    H238448   0.223   1.778   6.317
12831TIP3   OH238449   1.371   3.247   5.638
12831TIP3    H138450   1.466   3.257   5.636
12831TIP3    H238451   1.356   3.154   5.657
12832TIP3   OH238452   8.035   4.359   2.932
12832TIP3    H138453   8.066   4.284   2.882
12832TIP3    H238454   8.101   4.427   2.918
12833TIP3   OH238455   4.327   4.223   2.810
12833TIP3    H138456   4.250   4.175   2.778
12833TIP3    H238457   4.402   4.176   2.773
12834TIP3   OH238458   7.983   6.832   4.283
12834TIP3    H138459   7.975   6.917   4.241
12834TIP3    H238460   8.032   6.779   4.220
12835TIP3   OH238461   1.669   2.207   5.179
12835TIP3    H138462   1.670   2.287   5.232
12835TIP3    H238463   1.577   2.195   5.155
12836TIP3   OH238464   5.286   1.470   3.676
12836TIP3    H138465   5.295   1.559   3.640
12836TIP3    H238466   5.193   1.460   3.694
12837TIP3   OH238467   0.669   5.101   1.344
12837TIP3    H138468   0.713   5.085   1.428
12837TIP3    H238469   0.637   5.191   1.351
12838TIP3   OH238470   3.013   1.051   5.927
12838TIP3    H138471   2.945   0.987   5.906
12838TIP3    H238472   3.074   1.004   5.983
12839TIP3   OH238473   2.268   7.468   4.280
12839TIP3    H138474   2.347   7.468   4.225
12839TIP3    H238475   2.291   7.411   4.353
12840TIP3   OH238476   5.823   6.522   2.679
12840TIP3    H138477   5.808   6.616   2.668
12840TIP3    H238478   5.737   6.482   2.665
12841TIP3   OH238479   0.737   3.029   0.147
12841TIP3    H138480   0.720   2.935   0.149
12841TIP3    H238481   0.729   3.053   0.055
12842TIP3   OH238482   3.163   1.015   1.251
12842TIP3    H138483   3.111   1.092   1.231
12842TIP3    H238484   3.157   0.961   1.173
12843TIP3   OH238485   6.222   5.812   6.534
12843TIP3    H138486   6.155   5.802   6.467
12843TIP3    H238487   6.244   5.723   6.560
12844TIP3   OH238488   8.161   5.756   2.989
12844TIP3    H138489   8.119   5.842   3.000
12844TIP3    H238490   8.108   5.712   2.922
12845TIP3   OH238491   0.008   0.492   2.715
12845TIP3    H138492   0.084   0.444   2.749
12845TIP3    H238493  -0.066   0.458   2.763
12846TIP3   OH238494   1.276   3.746   1.564
12846TIP3    H138495   1.295   3.714   1.476
12846TIP3    H238496   1.200   3.803   1.553
12847TIP3   OH238497   5.131   7.443   4.092
12847TIP3    H138498   5.165   7.529   4.118
12847TIP3    H238499   5.039   7.445   4.117
12848TIP3   OH238500   1.483   2.097   3.742
12848TIP3    H138501   1.469   2.011   3.702
12848TIP3    H238502   1.539   2.079   3.818
12849TIP3   OH238503   3.669   7.687   0.060
12849TIP3    H138504   3.597   7.665   0.002
12849TIP3    H238505   3.711   7.603   0.080
12850TIP3   OH238506   5.118   0.107   4.454
12850TIP3    H138507   5.128   0.142   4.365
12850TIP3    H238508   5.186   0.151   4.505
12851TIP3   OH238509   3.875   5.944   4.856
12851TIP3    H138510   3.890   5.978   4.944
12851TIP3    H238511   3.868   5.849   4.868
12852TIP3   OH238512   0.743   7.642   3.351
12852TIP3    H138513   0.836   7.666   3.357
12852TIP3    H238514   0.734   7.567   3.410
12853TIP3   OH238515   0.476   7.572   0.766
12853TIP3    H138516   0.442   7.488   0.794
12853TIP3    H238517   0.554   7.586   0.820
12854TIP3   OH238518   7.020   7.091   2.980
12854TIP3    H138519   7.035   7.047   3.063
12854TIP3    H238520   7.026   7.184   3.000
12855TIP3   OH238521   4.877   6.993   6.740
12855TIP3    H138522   4.931   6.916   6.726
12855TIP3    H238523   4.931   7.052   6.793
12856TIP3   OH238524   3.481   7.676   1.549
12856TIP3    H138525   3.428   7.711   1.478
12856TIP3    H238526   3.570   7.704   1.527
12857TIP3   OH238527   6.454   5.968   6.266
12857TIP3    H138528   6.417   5.998   6.183
12857TIP3    H238529   6.458   6.047   6.320
12858TIP3   OH238530   4.727   2.226   1.896
12858TIP3    H138531   4.822   2.237   1.902
12858TIP3    H238532   4.693   2.274   1.971
12859TIP3   OH238533   1.025   3.464   3.095
12859TIP3    H138534   0.936   3.449   3.065
12859TIP3    H238535   1.034   3.560   3.100
12860TIP3   OH238536   2.844   6.153   6.217
12860TIP3    H138537   2.838   6.067   6.258
12860TIP3    H238538   2.931   6.155   6.177
12861TIP3   OH238539   3.296   5.476   5.075
12861TIP3    H138540   3.238   5.426   5.132
12861TIP3    H238541   3.317   5.416   5.004
12862TIP3   OH238542   4.922   4.714   6.688
12862TIP3    H138543   4.867   4.656   6.634
12862TIP3    H238544   5.011   4.680   6.677
12863TIP3   OH238545   6.883   6.025   0.705
12863TIP3    H138546   6.882   6.086   0.631
12863TIP3    H238547   6.968   5.982   0.699
12864TIP3   OH238548   6.049   2.009   5.370
12864TIP3    H138549   5.977   2.073   5.374
12864TIP3    H238550   6.014   1.938   5.317
12865TIP3   OH238551   5.890   5.327   4.437
12865TIP3    H138552   5.952   5.391   4.403
12865TIP3    H238553   5.805   5.369   4.428
12866TIP3   OH238554   5.584   6.429   2.184
12866TIP3    H138555   5.613   6.512   2.148
12866TIP3    H238556   5.489   6.439   2.193
12867TIP3   OH238557   3.234   2.339   1.993
12867TIP3    H138558   3.260   2.299   1.909
12867TIP3    H238559   3.271   2.280   2.059
12868TIP3   OH238560   3.121   5.092   2.239
12868TIP3    H138561   3.121   4.996   2.240
12868TIP3    H238562   3.172   5.117   2.316
12869TIP3   OH238563   2.760   5.796   3.216
12869TIP3    H138564   2.765   5.822   3.308
12869TIP3    H238565   2.678   5.746   3.210
12870TIP3   OH238566   3.690   5.840   1.191
12870TIP3    H138567   3.752   5.816   1.121
12870TIP3    H238568   3.744   5.884   1.257
12871TIP3   OH238569   5.660   4.459   0.566
12871TIP3    H138570   5.732   4.509   0.603
12871TIP3    H238571   5.623   4.516   0.498
12872TIP3   OH238572   4.961   4.236   1.920
12872TIP3    H138573   4.948   4.204   1.831
12872TIP3    H238574   4.872   4.253   1.952
12873TIP3   OH238575   2.890   5.882   6.334
12873TIP3    H138576   2.911   5.794   6.303
12873TIP3    H238577   2.849   5.868   6.419
12874TIP3   OH238578   5.300   2.482   6.121
12874TIP3    H138579   5.380   2.524   6.090
12874TIP3    H238580   5.236   2.553   6.124
12875TIP3   OH238581   2.690   1.639   6.663
12875TIP3    H138582   2.740   1.721   6.668
12875TIP3    H238583   2.602   1.663   6.691
12876TIP3   OH238584   1.695   1.489   4.917
12876TIP3    H138585   1.781   1.501   4.879
12876TIP3    H238586   1.685   1.394   4.927
12877TIP3   OH238587   2.391   6.541   2.475
12877TIP3    H138588   2.484   6.519   2.468
12877TIP3    H238589   2.388   6.636   2.461
12878TIP3   OH238590   5.915   1.092   5.746
12878TIP3    H138591   5.917   1.086   5.650
12878TIP3    H238592   5.894   1.003   5.775
12879TIP3   OH238593   1.587   2.070   2.940
12879TIP3    H138594   1.501   2.088   2.978
12879TIP3    H238595   1.644   2.138   2.977
12880TIP3   OH238596   4.628   6.119   5.337
12880TIP3    H138597   4.652   6.116   5.244
12880TIP3    H238598   4.662   6.203   5.368
12881TIP3   OH238599   5.853   1.273   2.354
12881TIP3    H138600   5.824   1.351   2.401
12881TIP3    H238601   5.914   1.306   2.288
12882TIP3   OH238602   6.523   4.196   4.131
12882TIP3    H138603   6.566   4.280   4.141
12882TIP3    H238604   6.513   4.186   4.036
12883TIP3   OH238605   7.298   0.894   2.326
12883TIP3    H138606   7.337   0.971   2.285
12883TIP3    H238607   7.276   0.837   2.253
12884TIP3   OH238608   4.122   1.715   1.675
12884TIP3    H138609   4.169   1.798   1.671
12884TIP3    H238610   4.109   1.690   1.583
12885TIP3   OH238611   5.175   3.184   4.572
12885TIP3    H138612   5.262   3.223   4.560
12885TIP3    H238613   5.166   3.174   4.667
12886TIP3   OH238614   0.598   5.851   2.787
12886TIP3    H138615   0.640   5.862   2.702
12886TIP3    H238616   0.512   5.891   2.778
12887TIP3   OH238617   0.917   1.608   5.539
12887TIP3    H138618   0.987   1.545   5.525
12887TIP3    H238619   0.878   1.583   5.622
12888TIP3   OH238620   4.821   1.205   1.492
12888TIP3    H138621   4.726   1.193   1.491
12888TIP3    H238622   4.835   1.288   1.538
12889TIP3   OH238623   7.052   3.669   3.769
12889TIP3    H138624   7.129   3.643   3.718
12889TIP3    H238625   6.989   3.697   3.702
12890TIP3   OH238626   4.521   2.433   1.517
12890TIP3    H138627   4.552   2.501   1.458
12890TIP3    H238628   4.426   2.442   1.516
12891TIP3   OH238629   1.899   6.932   0.410
12891TIP3    H138630   1.947   6.962   0.487
12891TIP3    H238631   1.808   6.928   0.439
12892TIP3   OH238632   2.523   7.037   5.295
12892TIP3    H138633   2.596   6.999   5.245
12892TIP3    H238634   2.525   7.130   5.271
12893TIP3   OH238635   7.947   4.713   5.145
12893TIP3    H138636   7.871   4.727   5.089
12893TIP3    H238637   8.022   4.731   5.088
12894TIP3   OH238638   3.753   1.334   5.272
12894TIP3    H138639   3.835   1.335   5.322
12894TIP3    H238640   3.759   1.254   5.219
12895TIP3   OH238641   4.929   4.141   3.204
12895TIP3    H138642   5.008   4.188   3.233
12895TIP3    H238643   4.931   4.059   3.253
12896TIP3   OH238644   0.094   3.640   3.603
12896TIP3    H138645   0.156   3.665   3.534
12896TIP3    H238646   0.059   3.556   3.574
12897TIP3   OH238647   1.031   5.336   1.225
12897TIP3    H138648   0.976   5.267   1.262
12897TIP3    H238649   1.088   5.363   1.297
12898TIP3   OH238650   5.392   7.607   5.914
12898TIP3    H138651   5.372   7.688   5.866
12898TIP3    H238652   5.311   7.556   5.910
12899TIP3   OH238653   1.829   1.865   0.276
12899TIP3    H138654   1.796   1.955   0.266
12899TIP3    H238655   1.921   1.876   0.298
12900TIP3   OH238656   7.302   5.607   1.992
12900TIP3    H138657   7.254   5.647   2.065
12900TIP3    H238658   7.239   5.546   1.953
12901TIP3   OH238659   6.066   2.340   3.335
12901TIP3    H138660   6.092   2.428   3.310
12901TIP3    H238661   5.970   2.343   3.337
12902TIP3   OH238662   3.712   6.082   4.565
12902TIP3    H138663   3.667   6.102   4.648
12902TIP3    H238664   3.794   6.130   4.570
12903TIP3   OH238665   6.760   3.618   5.449
12903TIP3    H138666   6.778   3.597   5.540
12903TIP3    H238667   6.823   3.686   5.427
12904TIP3   OH238668   3.610   3.229   5.469
12904TIP3    H138669   3.528   3.238   5.518
12904TIP3    H238670   3.667   3.179   5.527
12905TIP3   OH238671   7.328   3.806   2.387
12905TIP3    H138672   7.331   3.844   2.475
12905TIP3    H238673   7.405   3.751   2.382
12906TIP3   OH238674   2.596   7.662   6.313
12906TIP3    H138675   2.619   7.569   6.307
12906TIP3    H238676   2.580   7.689   6.222
12907TIP3   OH238677   2.223   6.855   6.380
12907TIP3    H138678   2.247   6.943   6.350
12907TIP3    H238679   2.290   6.799   6.342
12908TIP3   OH238680   1.896   5.123   0.170
12908TIP3    H138681   1.924   5.203   0.216
12908TIP3    H238682   1.903   5.145   0.077
12909TIP3   OH238683   0.073   5.886   2.099
12909TIP3    H138684   0.004   5.869   2.163
12909TIP3    H238685   0.144   5.827   2.125
12910TIP3   OH238686   7.423   6.368   3.488
12910TIP3    H138687   7.462   6.376   3.401
12910TIP3    H238688   7.497   6.378   3.548
12911TIP3   OH238689   4.507   2.837   2.725
12911TIP3    H138690   4.423   2.793   2.715
12911TIP3    H238691   4.501   2.914   2.669
12912TIP3   OH238692   5.300   2.768   0.795
12912TIP3    H138693   5.347   2.844   0.830
12912TIP3    H238694   5.330   2.760   0.704
12913TIP3   OH238695   7.072   7.811   5.357
12913TIP3    H138696   7.150   7.864   5.372
12913TIP3    H238697   7.075   7.743   5.425
12914TIP3   OH238698   5.745   6.161   5.382
12914TIP3    H138699   5.840   6.155   5.370
12914TIP3    H238700   5.715   6.215   5.309
12915TIP3   OH238701   5.554   3.240   4.026
12915TIP3    H138702   5.562   3.277   4.114
12915TIP3    H238703   5.520   3.311   3.972
12916TIP3   OH238704   2.491   1.688   5.452
12916TIP3    H138705   2.475   1.642   5.369
12916TIP3    H238706   2.587   1.691   5.459
12917TIP3   OH238707   1.347   5.393   2.443
12917TIP3    H138708   1.380   5.386   2.354
12917TIP3    H238709   1.392   5.322   2.490
12918TIP3   OH238710   5.526   4.110   3.773
12918TIP3    H138711   5.479   4.177   3.723
12918TIP3    H238712   5.467   4.088   3.845
12919TIP3   OH238713   4.262   1.051   5.658
12919TIP3    H138714   4.254   1.080   5.568
12919TIP3    H238715   4.336   1.101   5.693
12920TIP3   OH238716   8.131   0.992   6.797
12920TIP3    H138717   8.194   1.064   6.791
12920TIP3    H238718   8.124   0.957   6.708
12921TIP3   OH238719   7.160   6.969   5.036
12921TIP3    H138720   7.108   7.048   5.053
12921TIP3    H238721   7.164   6.924   5.120
12922TIP3   OH238722   4.979   6.314   1.122
12922TIP3    H138723   5.057   6.370   1.131
12922TIP3    H238724   4.993   6.265   1.041
12923TIP3   OH238725   5.077   2.080   2.190
12923TIP3    H138726   5.112   2.020   2.124
12923TIP3    H238727   4.983   2.062   2.191
12924TIP3   OH238728   2.203   6.978   3.109
12924TIP3    H138729   2.279   6.961   3.053
12924TIP3    H238730   2.193   7.074   3.107
12925TIP3   OH238731   3.205   7.087   6.298
12925TIP3    H138732   3.148   7.104   6.223
12925TIP3    H238733   3.267   7.020   6.268
12926TIP3   OH238734   3.344   2.476   2.288
12926TIP3    H138735   3.317   2.425   2.365
12926TIP3    H238736   3.405   2.541   2.322
12927TIP3   OH238737   6.996   2.993   2.613
12927TIP3    H138738   6.999   3.081   2.650
12927TIP3    H238739   7.062   2.994   2.543
12928TIP3   OH238740   8.224   1.395   0.155
12928TIP3    H138741   8.317   1.391   0.178
12928TIP3    H238742   8.214   1.480   0.110
12929TIP3   OH238743   4.523   3.659   3.800
12929TIP3    H138744   4.485   3.675   3.713
12929TIP3    H238745   4.453   3.615   3.849
12930TIP3   OH238746   0.201   6.537   4.845
12930TIP3    H138747   0.149   6.527   4.765
12930TIP3    H238748   0.221   6.447   4.871
12931TIP3   OH238749   0.925   7.364   2.087
12931TIP3    H138750   0.980   7.429   2.131
12931TIP3    H238751   0.925   7.390   1.995
12932TIP3   OH238752   7.755   3.146   4.799
12932TIP3    H138753   7.694   3.093   4.747
12932TIP3    H238754   7.825   3.169   4.738
12933TIP3   OH238755   6.364   0.085   1.777
12933TIP3    H138756   6.437   0.040   1.735
12933TIP3    H238757   6.402   0.126   1.854
12934TIP3   OH238758   8.297   4.327   1.763
12934TIP3    H138759   8.301   4.240   1.803
12934TIP3    H238760   8.283   4.386   1.836
12935TIP3   OH238761   0.185   1.769   1.351
12935TIP3    H138762   0.139   1.778   1.434
12935TIP3    H238763   0.125   1.807   1.286
12936TIP3   OH238764   1.446   6.959   5.693
12936TIP3    H138765   1.524   6.983   5.642
12936TIP3    H238766   1.417   7.041   5.731
12937TIP3   OH238767   2.708   2.392   1.094
12937TIP3    H138768   2.695   2.368   1.186
12937TIP3    H238769   2.654   2.329   1.046
12938TIP3   OH238770   0.261   3.809   3.381
12938TIP3    H138771   0.174   3.824   3.344
12938TIP3    H238772   0.319   3.798   3.305
12939TIP3   OH238773   0.779   3.392   1.871
12939TIP3    H138774   0.689   3.375   1.899
12939TIP3    H238775   0.774   3.394   1.775
12940TIP3   OH238776   0.833   0.288   5.074
12940TIP3    H138777   0.782   0.227   5.021
12940TIP3    H238778   0.768   0.348   5.111
12941TIP3   OH238779   6.334   7.248   1.146
12941TIP3    H138780   6.379   7.169   1.176
12941TIP3    H238781   6.256   7.254   1.201
12942TIP3   OH238782   7.167   3.723   0.218
12942TIP3    H138783   7.168   3.629   0.200
12942TIP3    H238784   7.248   3.756   0.178
12943TIP3   OH238785   0.560   6.377   0.276
12943TIP3    H138786   0.526   6.335   0.196
12943TIP3    H238787   0.655   6.372   0.266
12944TIP3   OH238788   7.877   0.776   6.133
12944TIP3    H138789   7.890   0.750   6.042
12944TIP3    H238790   7.808   0.718   6.165
12945TIP3   OH238791   6.986   0.653   0.365
12945TIP3    H138792   7.044   0.728   0.378
12945TIP3    H238793   6.991   0.634   0.271
12946TIP3   OH238794   1.598   3.190   3.537
12946TIP3    H138795   1.581   3.107   3.492
12946TIP3    H238796   1.542   3.253   3.493
12947TIP3   OH238797   1.962   7.169   2.989
12947TIP3    H138798   1.891   7.108   2.967
12947TIP3    H238799   2.021   7.164   2.914
12948TIP3   OH238800   0.508   3.564   4.738
12948TIP3    H138801   0.502   3.534   4.648
12948TIP3    H238802   0.587   3.523   4.772
12949TIP3   OH238803   1.854   5.496   2.166
12949TIP3    H138804   1.818   5.585   2.163
12949TIP3    H238805   1.802   5.447   2.103
12950TIP3   OH238806   2.681   0.378   2.934
12950TIP3    H138807   2.638   0.305   2.890
12950TIP3    H238808   2.739   0.416   2.868
12951TIP3   OH238809   1.660   3.385   4.988
12951TIP3    H138810   1.664   3.299   5.032
12951TIP3    H238811   1.745   3.425   5.008
12952TIP3   OH238812   5.931   0.748   4.956
12952TIP3    H138813   6.004   0.774   4.901
12952TIP3    H238814   5.904   0.828   5.000
12953TIP3   OH238815   4.012   4.388   5.972
12953TIP3    H138816   4.106   4.398   5.985
12953TIP3    H238817   3.976   4.475   5.986
12954TIP3   OH238818   4.796   0.270   1.275
12954TIP3    H138819   4.864   0.270   1.208
12954TIP3    H238820   4.738   0.342   1.251
12955TIP3   OH238821   0.234   3.279   2.431
12955TIP3    H138822   0.142   3.271   2.454
12955TIP3    H238823   0.263   3.189   2.417
12956TIP3   OH238824   4.239   2.289   3.250
12956TIP3    H138825   4.173   2.262   3.186
12956TIP3    H238826   4.300   2.215   3.254
12957TIP3   OH238827   3.397   3.837   5.125
12957TIP3    H138828   3.365   3.752   5.095
12957TIP3    H238829   3.492   3.827   5.127
12958TIP3   OH238830   1.090   1.275   1.543
12958TIP3    H138831   1.122   1.258   1.632
12958TIP3    H238832   1.045   1.195   1.517
12959TIP3   OH238833   8.105   3.833   4.561
12959TIP3    H138834   8.117   3.928   4.553
12959TIP3    H238835   8.116   3.800   4.472
12960TIP3   OH238836   4.803   3.239   4.977
12960TIP3    H138837   4.788   3.228   5.070
12960TIP3    H238838   4.720   3.273   4.943
12961TIP3   OH238839   1.488   4.862   5.479
12961TIP3    H138840   1.450   4.793   5.424
12961TIP3    H238841   1.509   4.819   5.561
12962TIP3   OH238842   4.393   1.806   4.537
12962TIP3    H138843   4.304   1.791   4.504
12962TIP3    H238844   4.433   1.864   4.473
12963TIP3   OH238845   4.270   0.343   2.176
12963TIP3    H138846   4.335   0.279   2.205
12963TIP3    H238847   4.274   0.413   2.241
12964TIP3   OH238848   6.499   0.178   6.132
12964TIP3    H138849   6.566   0.109   6.138
12964TIP3    H238850   6.449   0.155   6.054
12965TIP3   OH238851   2.905   0.681   4.361
12965TIP3    H138852   2.971   0.749   4.348
12965TIP3    H238853   2.938   0.605   4.315
12966TIP3   OH238854   5.741   4.317   3.344
12966TIP3    H138855   5.767   4.292   3.255
12966TIP3    H238856   5.710   4.236   3.384
12967TIP3   OH238857   5.596   3.416   4.246
12967TIP3    H138858   5.638   3.361   4.312
12967TIP3    H238859   5.667   3.437   4.185
12968TIP3   OH238860   0.645   3.989   5.691
12968TIP3    H138861   0.652   3.903   5.648
12968TIP3    H238862   0.718   4.040   5.655
12969TIP3   OH238863   2.918   3.013   4.426
12969TIP3    H138864   2.899   2.972   4.342
12969TIP3    H238865   2.901   2.944   4.490
12970TIP3   OH238866   0.604   4.418   6.236
12970TIP3    H138867   0.680   4.364   6.255
12970TIP3    H238868   0.562   4.376   6.162
12971TIP3   OH238869   0.215   6.967   4.014
12971TIP3    H138870   0.289   6.955   4.075
12971TIP3    H238871   0.151   6.901   4.042
12972TIP3   OH238872   7.469   6.734   5.344
12972TIP3    H138873   7.479   6.697   5.256
12972TIP3    H238874   7.376   6.758   5.349
12973TIP3   OH238875   1.373   4.627   0.713
12973TIP3    H138876   1.333   4.657   0.794
12973TIP3    H238877   1.435   4.560   0.740
12974TIP3   OH238878   1.844   6.645   0.540
12974TIP3    H138879   1.915   6.710   0.548
12974TIP3    H238880   1.846   6.598   0.623
12975TIP3   OH238881   4.760   7.088   2.043
12975TIP3    H138882   4.842   7.039   2.037
12975TIP3    H238883   4.726   7.067   2.130
12976TIP3   OH238884   8.005   0.009   6.004
12976TIP3    H138885   7.968   0.093   6.032
12976TIP3    H238886   7.983   0.003   5.911
12977TIP3   OH238887   7.911   2.574   4.372
12977TIP3    H138888   8.000   2.541   4.361
12977TIP3    H238889   7.917   2.636   4.446
12978TIP3   OH238890   1.624   2.827   3.806
12978TIP3    H138891   1.630   2.796   3.896
12978TIP3    H238892   1.667   2.913   3.808
12979TIP3   OH238893   7.171   6.756   6.404
12979TIP3    H138894   7.211   6.682   6.448
12979TIP3    H238895   7.168   6.825   6.470
12980TIP3   OH238896   3.926   1.538   0.909
12980TIP3    H138897   3.924   1.446   0.935
12980TIP3    H238898   4.014   1.567   0.930
12981TIP3   OH238899   8.125   5.849   4.720
12981TIP3    H138900   8.108   5.934   4.761
12981TIP3    H238901   8.185   5.805   4.781
12982TIP3   OH238902   6.388   3.706   3.803
12982TIP3    H138903   6.388   3.753   3.887
12982TIP3    H238904   6.460   3.644   3.811
12983TIP3   OH238905   1.830   3.043   5.696
12983TIP3    H138906   1.803   3.027   5.787
12983TIP3    H238907   1.925   3.041   5.698
12984TIP3   OH238908   5.086   4.953   4.343
12984TIP3    H138909   5.144   4.884   4.377
12984TIP3    H238910   5.143   5.029   4.335
12985TIP3   OH238911   7.567   3.819   0.679
12985TIP3    H138912   7.619   3.882   0.729
12985TIP3    H238913   7.571   3.852   0.589
12986TIP3   OH238914   3.033   5.697   2.453
12986TIP3    H138915   2.989   5.781   2.463
12986TIP3    H238916   3.056   5.671   2.543
12987TIP3   OH238917   1.981   4.372   6.387
12987TIP3    H138918   1.894   4.411   6.398
12987TIP3    H238919   2.010   4.354   6.476
12988TIP3   OH238920   6.979   0.612   1.101
12988TIP3    H138921   6.891   0.591   1.071
12988TIP3    H238922   7.036   0.586   1.029
12989TIP3   OH238923   1.393   7.749   4.843
12989TIP3    H138924   1.371   7.812   4.773
12989TIP3    H238925   1.441   7.801   4.907
12990TIP3   OH238926   6.234   3.018   3.754
12990TIP3    H138927   6.172   2.945   3.754
12990TIP3    H238928   6.240   3.045   3.846
12991TIP3   OH238929   2.044   1.930   3.271
12991TIP3    H138930   2.094   1.981   3.206
12991TIP3    H238931   1.958   1.918   3.230
12992TIP3   OH238932   2.198   0.073   5.111
12992TIP3    H138933   2.233   0.106   5.029
12992TIP3    H238934   2.229   0.135   5.177
12993TIP3   OH238935   5.982   5.879   0.549
12993TIP3    H138936   5.955   5.874   0.457
12993TIP3    H238937   5.931   5.951   0.586
12994TIP3   OH238938   4.797   1.004   5.107
12994TIP3    H138939   4.773   0.976   5.195
12994TIP3    H238940   4.718   1.043   5.072
12995TIP3   OH238941   1.129   2.470   6.017
12995TIP3    H138942   1.202   2.447   6.074
12995TIP3    H238943   1.171   2.500   5.936
12996TIP3   OH238944   4.415   6.647   4.567
12996TIP3    H138945   4.441   6.739   4.566
12996TIP3    H238946   4.448   6.611   4.485
12997TIP3   OH238947   7.805   3.927   2.428
12997TIP3    H138948   7.834   3.858   2.488
12997TIP3    H238949   7.735   3.972   2.475
12998TIP3   OH238950   7.693   2.576   5.893
12998TIP3    H138951   7.645   2.656   5.912
12998TIP3    H238952   7.658   2.546   5.808
12999TIP3   OH238953   3.797   0.426   2.618
12999TIP3    H138954   3.705   0.446   2.632
12999TIP3    H238955   3.843   0.476   2.685
13000TIP3   OH238956   5.476   1.537   1.636
13000TIP3    H138957   5.448   1.622   1.602
13000TIP3    H238958   5.552   1.557   1.692
13001TIP3   OH238959   4.611   2.507   1.807
13001TIP3    H138960   4.542   2.440   1.803
13001TIP3    H238961   4.661   2.485   1.886
13002TIP3   OH238962   1.647   0.157   1.886
13002TIP3    H138963   1.577   0.098   1.859
13002TIP3    H238964   1.705   0.103   1.940
13003TIP3   OH238965   6.571   2.260   4.603
13003TIP3    H138966   6.623   2.233   4.679
13003TIP3    H238967   6.612   2.215   4.529
13004TIP3   OH238968   0.039   3.972   6.061
13004TIP3    H138969  -0.034   3.916   6.036
13004TIP3    H238970   0.111   3.946   6.003
13005TIP3   OH238971   4.312   3.792   4.595
13005TIP3    H138972   4.391   3.758   4.638
13005TIP3    H238973   4.344   3.829   4.513
13006TIP3   OH238974   4.110   1.483   2.888
13006TIP3    H138975   4.050   1.453   2.820
13006TIP3    H238976   4.166   1.547   2.845
13007TIP3   OH238977   6.390   1.807   2.204
13007TIP3    H138978   6.450   1.873   2.169
13007TIP3    H238979   6.310   1.855   2.225
13008TIP3   OH238980   1.467   6.653   0.944
13008TIP3    H138981   1.513   6.670   0.862
13008TIP3    H238982   1.490   6.563   0.966
13009TIP3   OH238983   1.642   2.826   5.607
13009TIP3    H138984   1.692   2.899   5.643
13009TIP3    H238985   1.700   2.786   5.543
13010TIP3   OH238986   8.110   7.844   6.247
13010TIP3    H138987   8.130   7.812   6.335
13010TIP3    H238988   8.180   7.810   6.192
13011TIP3   OH238989   7.599   0.216   5.944
13011TIP3    H138990   7.615   0.296   5.894
13011TIP3    H238991   7.526   0.237   6.002
13012TIP3   OH238992   7.943   1.891   3.139
13012TIP3    H138993   7.971   1.837   3.213
13012TIP3    H238994   7.959   1.981   3.167
13013TIP3   OH238995   0.292   1.920   2.268
13013TIP3    H138996   0.369   1.971   2.244
13013TIP3    H238997   0.231   1.985   2.303
13014TIP3   OH238998   5.996   1.495   6.654
13014TIP3    H138999   6.086   1.469   6.672
13014TIP3    H239000   5.951   1.413   6.636
13015TIP3   OH239001   0.979   5.970   4.268
13015TIP3    H139002   0.896   5.983   4.315
13015TIP3    H239003   0.955   5.974   4.176
13016TIP3   OH239004   6.518   1.472   3.559
13016TIP3    H139005   6.558   1.558   3.554
13016TIP3    H239006   6.508   1.455   3.653
13017TIP3   OH239007   6.017   2.646   4.891
13017TIP3    H139008   6.028   2.552   4.900
13017TIP3    H239009   5.966   2.672   4.968
13018TIP3   OH239010   1.446   2.039   6.024
13018TIP3    H139011   1.520   2.088   5.989
13018TIP3    H239012   1.400   2.005   5.947
13019TIP3   OH239013   2.877   3.082   5.177
13019TIP3    H139014   2.926   3.138   5.117
13019TIP3    H239015   2.941   3.055   5.243
13020TIP3   OH239016   4.879   2.426   5.518
13020TIP3    H139017   4.905   2.339   5.488
13020TIP3    H239018   4.866   2.416   5.612
13021TIP3   OH239019   5.175   7.280   5.109
13021TIP3    H139020   5.097   7.294   5.163
13021TIP3    H239021   5.167   7.345   5.039
13022TIP3   OH239022   5.850   2.283   5.880
13022TIP3    H139023   5.837   2.268   5.786
13022TIP3    H239024   5.797   2.361   5.899
13023TIP3   OH239025   3.129   6.050   6.517
13023TIP3    H139026   3.217   6.068   6.484
13023TIP3    H239027   3.113   6.119   6.582
13024TIP3   OH239028   3.925   5.650   6.398
13024TIP3    H139029   3.982   5.622   6.470
13024TIP3    H239030   3.899   5.739   6.423
13025TIP3   OH239031   5.825   2.083   4.439
13025TIP3    H139032   5.774   2.155   4.477
13025TIP3    H239033   5.844   2.111   4.350
13026TIP3   OH239034   5.860   3.478   5.184
13026TIP3    H139035   5.801   3.429   5.242
13026TIP3    H239036   5.920   3.412   5.149
13027TIP3   OH239037   3.470   7.475   6.653
13027TIP3    H139038   3.529   7.497   6.581
13027TIP3    H239039   3.428   7.394   6.626
13028TIP3   OH239040   6.569   2.601   1.443
13028TIP3    H139041   6.520   2.523   1.415
13028TIP3    H239042   6.503   2.658   1.481
13029TIP3   OH239043   3.220   3.301   2.958
13029TIP3    H139044   3.286   3.371   2.960
13029TIP3    H239045   3.184   3.305   2.869
13030TIP3   OH239046   3.302   0.435   1.508
13030TIP3    H139047   3.292   0.345   1.476
13030TIP3    H239048   3.394   0.442   1.531
13031TIP3   OH239049   2.584   7.212   4.183
13031TIP3    H139050   2.565   7.124   4.216
13031TIP3    H239051   2.659   7.241   4.236
13032TIP3   OH239052   2.600   0.387   0.454
13032TIP3    H139053   2.639   0.446   0.519
13032TIP3    H239054   2.600   0.302   0.496
13033TIP3   OH239055   1.224   7.602   4.567
13033TIP3    H139056   1.213   7.670   4.633
13033TIP3    H239057   1.279   7.536   4.609
13034TIP3   OH239058   4.635   7.521   1.301
13034TIP3    H139059   4.674   7.527   1.388
13034TIP3    H239060   4.707   7.496   1.244
13035TIP3   OH239061   2.508   5.085   6.465
13035TIP3    H139062   2.554   5.026   6.405
13035TIP3    H239063   2.575   5.118   6.524
13036TIP3   OH239064   8.035   6.932   5.946
13036TIP3    H139065   8.122   6.969   5.964
13036TIP3    H239066   8.031   6.854   6.003
13037TIP3   OH239067   6.875   7.346   1.787
13037TIP3    H139068   6.815   7.284   1.828
13037TIP3    H239069   6.954   7.295   1.769
13038TIP3   OH239070   6.319   0.427   3.511
13038TIP3    H139071   6.298   0.434   3.604
13038TIP3    H239072   6.346   0.336   3.499
13039TIP3   OH239073   7.200   1.239   4.260
13039TIP3    H139074   7.147   1.167   4.227
13039TIP3    H239075   7.244   1.203   4.337
13040TIP3   OH239076   5.149   2.052   1.004
13040TIP3    H139077   5.125   1.981   0.945
13040TIP3    H239078   5.066   2.080   1.044
13041TIP3   OH239079   3.756   6.937   2.600
13041TIP3    H139080   3.684   6.974   2.548
13041TIP3    H239081   3.819   7.009   2.608
13042TIP3   OH239082   2.936   0.712   3.460
13042TIP3    H139083   2.858   0.740   3.412
13042TIP3    H239084   2.902   0.659   3.532
13043TIP3   OH239085   3.190   2.840   2.798
13043TIP3    H139086   3.215   2.760   2.752
13043TIP3    H239087   3.097   2.829   2.817
13044TIP3   OH239088   0.810   6.229   6.622
13044TIP3    H139089   0.751   6.288   6.669
13044TIP3    H239090   0.878   6.208   6.686
13045TIP3   OH239091   1.760   0.098   3.696
13045TIP3    H139092   1.852   0.086   3.673
13045TIP3    H239093   1.754   0.190   3.721
13046TIP3   OH239094   0.719   2.185   6.374
13046TIP3    H139095   0.650   2.142   6.424
13046TIP3    H239096   0.777   2.223   6.440
13047TIP3   OH239097   2.781   6.155   5.348
13047TIP3    H139098   2.786   6.105   5.267
13047TIP3    H239099   2.827   6.237   5.328
13048TIP3   OH239100   1.646   1.486   3.573
13048TIP3    H139101   1.564   1.523   3.606
13048TIP3    H239102   1.621   1.436   3.495
13049TIP3   OH239103   4.006   2.031   3.278
13049TIP3    H139104   3.974   2.102   3.334
13049TIP3    H239105   3.928   1.988   3.245
13050TIP3   OH239106   7.460   7.551   1.418
13050TIP3    H139107   7.539   7.596   1.449
13050TIP3    H239108   7.446   7.480   1.480
13051TIP3   OH239109   1.799   5.300   4.802
13051TIP3    H139110   1.854   5.253   4.865
13051TIP3    H239111   1.711   5.296   4.838
13052TIP3   OH239112   5.981   7.619   5.870
13052TIP3    H139113   5.909   7.651   5.924
13052TIP3    H239114   5.938   7.573   5.798
13053TIP3   OH239115   0.036   1.791   0.755
13053TIP3    H139116   0.077   1.823   0.836
13053TIP3    H239117   0.018   1.699   0.772
13054TIP3   OH239118   2.870   3.783   6.023
13054TIP3    H139119   2.829   3.696   6.015
13054TIP3    H239120   2.893   3.806   5.933
13055TIP3   OH239121   1.971   3.292   1.416
13055TIP3    H139122   2.020   3.367   1.450
13055TIP3    H239123   2.020   3.264   1.339
13056TIP3   OH239124   2.886   1.697   1.332
13056TIP3    H139125   2.794   1.717   1.350
13056TIP3    H239126   2.919   1.661   1.414
13057TIP3   OH239127   5.859   1.388   1.243
13057TIP3    H139128   5.851   1.434   1.326
13057TIP3    H239129   5.794   1.318   1.248
13058TIP3   OH239130   0.843   4.303   5.174
13058TIP3    H139131   0.888   4.387   5.179
13058TIP3    H239132   0.763   4.320   5.126
13059TIP3   OH239133   6.341   1.380   5.094
13059TIP3    H139134   6.321   1.291   5.121
13059TIP3    H239135   6.431   1.394   5.124
13060TIP3   OH239136   7.520   1.521   6.603
13060TIP3    H139137   7.610   1.519   6.634
13060TIP3    H239138   7.504   1.613   6.582
13061TIP3   OH239139   1.227   3.972   0.596
13061TIP3    H139140   1.246   3.898   0.653
13061TIP3    H239141   1.300   4.033   0.611
13062TIP3   OH239142   2.743   2.415   1.373
13062TIP3    H139143   2.754   2.379   1.461
13062TIP3    H239144   2.648   2.425   1.363
13063TIP3   OH239145   2.968   6.338   1.787
13063TIP3    H139146   2.974   6.324   1.881
13063TIP3    H239147   3.003   6.426   1.774
13064TIP3   OH239148   0.932   2.718   0.411
13064TIP3    H139149   0.956   2.780   0.342
13064TIP3    H239150   0.980   2.749   0.489
13065TIP3   OH239151   6.634   7.476   0.270
13065TIP3    H139152   6.632   7.445   0.180
13065TIP3    H239153   6.549   7.451   0.307
13066TIP3   OH239154   1.115   4.768   4.991
13066TIP3    H139155   1.073   4.850   5.013
13066TIP3    H239156   1.203   4.793   4.961
13067TIP3   OH239157   4.529   3.332   0.345
13067TIP3    H139158   4.442   3.320   0.384
13067TIP3    H239159   4.541   3.427   0.342
13068TIP3   OH239160   2.576   1.615   5.199
13068TIP3    H139161   2.666   1.624   5.230
13068TIP3    H239162   2.575   1.533   5.149
13069TIP3   OH239163   1.333   4.525   3.343
13069TIP3    H139164   1.253   4.518   3.292
13069TIP3    H239165   1.310   4.582   3.416
13070TIP3   OH239166   3.430   2.629   4.771
13070TIP3    H139167   3.522   2.648   4.786
13070TIP3    H239168   3.405   2.573   4.845
13071TIP3   OH239169   5.055   2.080   0.286
13071TIP3    H139170   5.063   2.165   0.243
13071TIP3    H239171   5.143   2.062   0.319
13072TIP3   OH239172   0.376   1.901   1.508
13072TIP3    H139173   0.316   1.834   1.476
13072TIP3    H239174   0.320   1.962   1.557
13073TIP3   OH239175   0.966   0.444   2.932
13073TIP3    H139176   0.919   0.443   3.015
13073TIP3    H239177   0.942   0.361   2.890
13074TIP3   OH239178   6.798   2.481   4.905
13074TIP3    H139179   6.779   2.391   4.930
13074TIP3    H239180   6.823   2.525   4.986
13075TIP3   OH239181   0.556   5.761   4.625
13075TIP3    H139182   0.633   5.809   4.595
13075TIP3    H239183   0.588   5.674   4.646
13076TIP3   OH239184   7.075   5.246   3.540
13076TIP3    H139185   7.131   5.281   3.471
13076TIP3    H239186   6.997   5.301   3.539
13077TIP3   OH239187   5.668   4.233   5.425
13077TIP3    H139188   5.605   4.179   5.377
13077TIP3    H239189   5.618   4.309   5.454
13078TIP3   OH239190   6.312   5.435   4.713
13078TIP3    H139191   6.332   5.403   4.626
13078TIP3    H239192   6.216   5.430   4.720
13079TIP3   OH239193   1.713   0.781   1.295
13079TIP3    H139194   1.627   0.751   1.264
13079TIP3    H239195   1.703   0.787   1.390
13080TIP3   OH239196   8.073   7.722   4.059
13080TIP3    H139197   8.055   7.630   4.038
13080TIP3    H239198   8.165   7.734   4.035
13081TIP3   OH239199   3.522   5.943   3.944
13081TIP3    H139200   3.434   5.958   3.909
13081TIP3    H239201   3.515   5.859   3.991
13082TIP3   OH239202   1.038   2.616   4.087
13082TIP3    H139203   0.961   2.659   4.050
13082TIP3    H239204   1.031   2.632   4.181
13083TIP3   OH239205   3.797   0.376   1.044
13083TIP3    H139206   3.709   0.413   1.048
13083TIP3    H239207   3.844   0.416   1.116
13084TIP3   OH239208   2.561   7.729   3.894
13084TIP3    H139209   2.587   7.747   3.984
13084TIP3    H239210   2.580   7.635   3.882
13085TIP3   OH239211   6.896   1.820   4.566
13085TIP3    H139212   6.918   1.887   4.631
13085TIP3    H239213   6.929   1.855   4.484
13086TIP3   OH239214   0.295   6.955   2.277
13086TIP3    H139215   0.356   7.011   2.325
13086TIP3    H239216   0.347   6.917   2.207
13087TIP3   OH239217   3.579   6.155   4.816
13087TIP3    H139218   3.596   6.177   4.907
13087TIP3    H239219   3.486   6.175   4.802
13088TIP3   OH239220   6.248   4.842   2.360
13088TIP3    H139221   6.302   4.877   2.289
13088TIP3    H239222   6.297   4.860   2.440
13089TIP3   OH239223   6.674   3.999   4.955
13089TIP3    H139224   6.605   3.979   5.017
13089TIP3    H239225   6.749   4.024   5.009
13090TIP3   OH239226   7.316   5.822   4.830
13090TIP3    H139227   7.227   5.829   4.865
13090TIP3    H239228   7.372   5.836   4.906
13091TIP3   OH239229   2.814   7.829   0.621
13091TIP3    H139230   2.858   7.860   0.700
13091TIP3    H239231   2.721   7.831   0.644
13092TIP3   OH239232   0.560   3.021   2.757
13092TIP3    H139233   0.467   3.009   2.778
13092TIP3    H239234   0.580   2.951   2.696
13093TIP3   OH239235   1.019   7.304   2.928
13093TIP3    H139236   0.970   7.334   3.005
13093TIP3    H239237   1.009   7.209   2.929
13094TIP3   OH239238   7.768   0.931   0.930
13094TIP3    H139239   7.791   0.989   0.857
13094TIP3    H239240   7.694   0.973   0.972
13095TIP3   OH239241   4.690   2.779   6.323
13095TIP3    H139242   4.653   2.698   6.290
13095TIP3    H239243   4.782   2.777   6.296
13096TIP3   OH239244   5.052   1.571   1.884
13096TIP3    H139245   4.959   1.547   1.883
13096TIP3    H239246   5.098   1.489   1.900
13097TIP3   OH239247   0.109   4.698   5.878
13097TIP3    H139248   0.128   4.650   5.958
13097TIP3    H239249   0.169   4.773   5.880
13098TIP3   OH239250   4.996   4.196   2.846
13098TIP3    H139251   4.954   4.279   2.869
13098TIP3    H239252   5.019   4.206   2.753
13099TIP3   OH239253   0.535   0.615   3.734
13099TIP3    H139254   0.456   0.577   3.773
13099TIP3    H239255   0.591   0.635   3.808
13100TIP3   OH239256   2.573   6.505   6.391
13100TIP3    H139257   2.605   6.546   6.472
13100TIP3    H239258   2.624   6.425   6.384
13101TIP3   OH239259   1.701   7.252   6.693
13101TIP3    H139260   1.794   7.242   6.674
13101TIP3    H239261   1.682   7.343   6.670
13102TIP3   OH239262   8.065   6.529   3.332
13102TIP3    H139263   7.993   6.492   3.281
13102TIP3    H239264   8.123   6.568   3.266
13103TIP3   OH239265   4.481   2.653   3.900
13103TIP3    H139266   4.418   2.605   3.847
13103TIP3    H239267   4.566   2.628   3.864
13104TIP3   OH239268   4.223   7.084   0.539
13104TIP3    H139269   4.282   7.035   0.481
13104TIP3    H239270   4.231   7.039   0.624
13105TIP3   OH239271   0.373   1.011   2.276
13105TIP3    H139272   0.380   1.084   2.337
13105TIP3    H239273   0.299   0.959   2.307
13106TIP3   OH239274   2.678   1.591   2.987
13106TIP3    H139275   2.594   1.547   2.974
13106TIP3    H239276   2.710   1.608   2.898
13107TIP3   OH239277   2.836   1.118   0.539
13107TIP3    H139278   2.770   1.123   0.470
13107TIP3    H239279   2.903   1.181   0.514
13108TIP3   OH239280   2.475   1.966   1.082
13108TIP3    H139281   2.423   2.045   1.095
13108TIP3    H239282   2.561   1.997   1.053
13109TIP3   OH239283   0.484   4.720   0.504
13109TIP3    H139284   0.555   4.749   0.561
13109TIP3    H239285   0.435   4.656   0.556
13110TIP3   OH239286   3.698   4.772   4.308
13110TIP3    H139287   3.744   4.850   4.338
13110TIP3    H239288   3.763   4.702   4.313
13111TIP3   OH239289   7.293   0.715   6.330
13111TIP3    H139290   7.375   0.757   6.306
13111TIP3    H239291   7.235   0.787   6.355
13112TIP3   OH239292   3.225   4.760   0.644
13112TIP3    H139293   3.313   4.798   0.641
13112TIP3    H239294   3.170   4.830   0.677
13113TIP3   OH239295   6.171   5.561   5.732
13113TIP3    H139296   6.222   5.520   5.802
13113TIP3    H239297   6.200   5.653   5.733
13114TIP3   OH239298   6.435   0.990   2.669
13114TIP3    H139299   6.411   0.992   2.577
13114TIP3    H239300   6.431   0.897   2.693
13115TIP3   OH239301   7.314   6.159   0.355
13115TIP3    H139302   7.245   6.116   0.406
13115TIP3    H239303   7.379   6.090   0.340
13116TIP3   OH239304   4.060   1.795   6.485
13116TIP3    H139305   4.080   1.832   6.399
13116TIP3    H239306   4.131   1.732   6.501
13117TIP3   OH239307   6.867   1.831   2.401
13117TIP3    H139308   6.909   1.775   2.465
13117TIP3    H239309   6.777   1.798   2.394
13118TIP3   OH239310   3.171   5.951   2.386
13118TIP3    H139311   3.257   5.960   2.427
13118TIP3    H239312   3.122   5.894   2.445
13119TIP3   OH239313   3.599   4.706   6.101
13119TIP3    H139314   3.615   4.642   6.170
13119TIP3    H239315   3.522   4.673   6.054
13120TIP3   OH239316   4.479   3.793   0.203
13120TIP3    H139317   4.504   3.778   0.111
13120TIP3    H239318   4.447   3.707   0.232
13121TIP3   OH239319   6.406   2.258   2.624
13121TIP3    H139320   6.445   2.288   2.706
13121TIP3    H239321   6.318   2.228   2.649
13122TIP3   OH239322   1.217   2.494   3.314
13122TIP3    H139323   1.132   2.453   3.303
13122TIP3    H239324   1.212   2.538   3.399
13123TIP3   OH239325   4.777   5.613   1.387
13123TIP3    H139326   4.729   5.530   1.380
13123TIP3    H239327   4.716   5.679   1.356
13124TIP3   OH239328   5.622   1.083   2.874
13124TIP3    H139329   5.651   1.063   2.785
13124TIP3    H239330   5.658   1.170   2.892
13125TIP3   OH239331   6.172   2.611   3.348
13125TIP3    H139332   6.140   2.658   3.271
13125TIP3    H239333   6.158   2.672   3.421
13126TIP3   OH239334   7.412   7.522   3.754
13126TIP3    H139335   7.374   7.609   3.765
13126TIP3    H239336   7.507   7.537   3.753
13127TIP3   OH239337   6.836   4.394   3.692
13127TIP3    H139338   6.772   4.333   3.656
13127TIP3    H239339   6.880   4.344   3.761
13128TIP3   OH239340   0.813   4.294   3.460
13128TIP3    H139341   0.803   4.270   3.552
13128TIP3    H239342   0.762   4.375   3.451
13129TIP3   OH239343   1.274   1.145   2.132
13129TIP3    H139344   1.302   1.113   2.046
13129TIP3    H239345   1.200   1.089   2.155
13130TIP3   OH239346   8.018   1.205   6.591
13130TIP3    H139347   8.106   1.232   6.565
13130TIP3    H239348   8.014   1.222   6.685
13131TIP3   OH239349   2.967   7.469   0.985
13131TIP3    H139350   2.956   7.551   0.938
13131TIP3    H239351   3.007   7.494   1.069
13132TIP3   OH239352   3.824   5.823   4.585
13132TIP3    H139353   3.770   5.900   4.571
13132TIP3    H239354   3.761   5.752   4.601
13133TIP3   OH239355   7.810   0.888   1.210
13133TIP3    H139356   7.756   0.832   1.266
13133TIP3    H239357   7.768   0.883   1.124
13134TIP3   OH239358   4.552   4.484   0.852
13134TIP3    H139359   4.551   4.407   0.795
13134TIP3    H239360   4.540   4.558   0.792
13135TIP3   OH239361   6.077   2.218   3.575
13135TIP3    H139362   6.102   2.291   3.631
13135TIP3    H239363   6.070   2.256   3.487
13136TIP3   OH239364   0.093   7.416   3.804
13136TIP3    H139365   0.011   7.425   3.853
13136TIP3    H239366   0.161   7.415   3.871
13137TIP3   OH239367   8.178   4.486   0.715
13137TIP3    H139368   8.152   4.394   0.724
13137TIP3    H239369   8.135   4.531   0.787
13138TIP3   OH239370   5.786   1.720   2.593
13138TIP3    H139371   5.715   1.689   2.649
13138TIP3    H239372   5.830   1.788   2.646
13139TIP3   OH239373   6.679   6.459   1.885
13139TIP3    H139374   6.603   6.516   1.873
13139TIP3    H239375   6.719   6.490   1.966
13140TIP3   OH239376   1.527   3.345   2.499
13140TIP3    H139377   1.577   3.337   2.580
13140TIP3    H239378   1.483   3.430   2.505
13141TIP3   OH239379   1.770   2.453   0.016
13141TIP3    H139380   1.692   2.442  -0.038
13141TIP3    H239381   1.737   2.463   0.105
13142TIP3   OH239382   5.347   6.833   1.175
13142TIP3    H139383   5.330   6.755   1.122
13142TIP3    H239384   5.429   6.814   1.221
13143TIP3   OH239385   5.497   7.152   6.239
13143TIP3    H139386   5.451   7.229   6.272
13143TIP3    H239387   5.473   7.082   6.299
13144TIP3   OH239388   5.588   3.413   0.736
13144TIP3    H139389   5.680   3.429   0.756
13144TIP3    H239390   5.550   3.384   0.818
13145TIP3   OH239391   5.191   3.624   3.205
13145TIP3    H139392   5.217   3.709   3.169
13145TIP3    H239393   5.120   3.595   3.148
13146TIP3   OH239394   2.309   1.570   4.043
13146TIP3    H139395   2.377   1.553   3.978
13146TIP3    H239396   2.232   1.594   3.992
13147TIP3   OH239397   5.895   4.245   0.469
13147TIP3    H139398   5.886   4.218   0.560
13147TIP3    H239399   5.834   4.188   0.421
13148TIP3   OH239400   7.070   6.477   1.678
13148TIP3    H139401   7.001   6.412   1.692
13148TIP3    H239402   7.106   6.493   1.766
13149TIP3   OH239403   5.485   6.918   5.223
13149TIP3    H139404   5.539   6.859   5.171
13149TIP3    H239405   5.396   6.884   5.214
13150TIP3   OH239406   5.763   7.124   2.998
13150TIP3    H139407   5.768   7.039   3.043
13150TIP3    H239408   5.849   7.164   3.013
13151TIP3   OH239409   2.763   2.089   3.792
13151TIP3    H139410   2.804   2.009   3.760
13151TIP3    H239411   2.709   2.062   3.866
13152TIP3   OH239412   4.380   7.349   3.881
13152TIP3    H139413   4.290   7.382   3.883
13152TIP3    H239414   4.372   7.263   3.838
13153TIP3   OH239415   7.215   7.516   4.523
13153TIP3    H139416   7.132   7.499   4.478
13153TIP3    H239417   7.268   7.438   4.508
13154TIP3   OH239418   1.115   3.297   0.401
13154TIP3    H139419   1.033   3.261   0.366
13154TIP3    H239420   1.166   3.220   0.426
13155TIP3   OH239421   4.445   5.624   1.571
13155TIP3    H139422   4.488   5.684   1.632
13155TIP3    H239423   4.470   5.537   1.601
13156TIP3   OH239424   1.744   2.750   2.915
13156TIP3    H139425   1.769   2.667   2.956
13156TIP3    H239426   1.649   2.744   2.907
13157TIP3   OH239427   0.741   4.367   0.475
13157TIP3    H139428   0.802   4.384   0.547
13157TIP3    H239429   0.657   4.352   0.518
13158TIP3   OH239430   0.399   1.834   0.307
13158TIP3    H139431   0.446   1.793   0.234
13158TIP3    H239432   0.467   1.850   0.373
13159TIP3   OH239433   0.016   6.210   3.590
13159TIP3    H139434   0.085   6.144   3.585
13159TIP3    H239435   0.029   6.264   3.512
13160TIP3   OH239436   4.143   7.432   0.111
13160TIP3    H139437   4.125   7.349   0.155
13160TIP3    H239438   4.167   7.407   0.022
13161TIP3   OH239439   6.932   1.744   2.121
13161TIP3    H139440   6.889   1.793   2.191
13161TIP3    H239441   6.877   1.759   2.044
13162TIP3   OH239442   3.023   1.438   5.703
13162TIP3    H139443   3.093   1.451   5.638
13162TIP3    H239444   3.049   1.494   5.776
13163TIP3   OH239445   3.986   1.397   5.734
13163TIP3    H139446   3.974   1.492   5.745
13163TIP3    H239447   3.931   1.358   5.802
13164TIP3   OH239448   1.275   4.975   1.918
13164TIP3    H139449   1.259   5.031   1.842
13164TIP3    H239450   1.198   4.988   1.974
13165TIP3   OH239451   3.451   2.521   3.179
13165TIP3    H139452   3.397   2.560   3.247
13165TIP3    H239453   3.392   2.509   3.104
13166TIP3   OH239454   5.311   6.032   5.440
13166TIP3    H139455   5.405   6.027   5.460
13166TIP3    H239456   5.305   6.010   5.347
13167TIP3   OH239457   3.384   4.312   0.893
13167TIP3    H139458   3.414   4.275   0.810
13167TIP3    H239459   3.310   4.368   0.868
13168TIP3   OH239460   0.752   5.358   0.557
13168TIP3    H139461   0.797   5.423   0.611
13168TIP3    H239462   0.712   5.298   0.619
13169TIP3   OH239463   1.577   6.138   0.973
13169TIP3    H139464   1.632   6.065   0.943
13169TIP3    H239465   1.525   6.101   1.044
13170TIP3   OH239466   7.620   4.024   6.148
13170TIP3    H139467   7.605   4.115   6.174
13170TIP3    H239468   7.610   3.974   6.229
13171TIP3   OH239469   0.389   7.192   2.409
13171TIP3    H139470   0.368   7.134   2.482
13171TIP3    H239471   0.485   7.188   2.402
13172TIP3   OH239472   1.141   3.105   1.163
13172TIP3    H139473   1.223   3.066   1.192
13172TIP3    H239474   1.122   3.062   1.079
13173TIP3   OH239475   6.277   2.046   2.357
13173TIP3    H139476   6.350   2.088   2.312
13173TIP3    H239477   6.201   2.100   2.335
13174TIP3   OH239478   1.758   2.781   5.317
13174TIP3    H139479   1.843   2.740   5.335
13174TIP3    H239480   1.755   2.790   5.221
13175TIP3   OH239481   1.820   4.854   1.173
13175TIP3    H139482   1.874   4.821   1.245
13175TIP3    H239483   1.880   4.904   1.118
13176TIP3   OH239484   6.339   1.002   0.026
13176TIP3    H139485   6.305   0.960   0.105
13176TIP3    H239486   6.296   1.088   0.023
13177TIP3   OH239487   1.978   2.193   0.911
13177TIP3    H139488   2.048   2.258   0.908
13177TIP3    H239489   2.022   2.111   0.929
13178TIP3   OH239490   6.306   7.774   6.548
13178TIP3    H139491   6.393   7.742   6.575
13178TIP3    H239492   6.317   7.797   6.456
13179TIP3   OH239493   3.550   4.947   2.698
13179TIP3    H139494   3.514   5.028   2.663
13179TIP3    H239495   3.644   4.964   2.706
13180TIP3   OH239496   1.504   4.899   6.235
13180TIP3    H139497   1.412   4.894   6.259
13180TIP3    H239498   1.551   4.893   6.318
13181TIP3   OH239499   2.174   1.593   1.248
13181TIP3    H139500   2.248   1.652   1.262
13181TIP3    H239501   2.118   1.606   1.325
13182TIP3   OH239502   0.657   6.068   4.327
13182TIP3    H139503   0.576   6.077   4.377
13182TIP3    H239504   0.638   6.002   4.261
13183TIP3   OH239505   6.615   2.133   4.866
13183TIP3    H139506   6.576   2.060   4.818
13183TIP3    H239507   6.602   2.112   4.958
13184TIP3   OH239508   1.393   1.567   1.569
13184TIP3    H139509   1.433   1.562   1.482
13184TIP3    H239510   1.366   1.658   1.578
13185TIP3   OH239511   3.959   7.166   4.634
13185TIP3    H139512   4.045   7.152   4.673
13185TIP3    H239513   3.927   7.079   4.613
13186TIP3   OH239514   6.118   5.677   3.199
13186TIP3    H139515   6.099   5.696   3.107
13186TIP3    H239516   6.214   5.671   3.202
13187TIP3   OH239517   2.432   0.909   5.095
13187TIP3    H139518   2.439   0.826   5.047
13187TIP3    H239519   2.518   0.950   5.085
13188TIP3   OH239520   2.297   5.455   0.138
13188TIP3    H139521   2.352   5.530   0.115
13188TIP3    H239522   2.270   5.419   0.053
13189TIP3   OH239523   7.206   3.468   5.470
13189TIP3    H139524   7.179   3.426   5.389
13189TIP3    H239525   7.224   3.395   5.530
13190TIP3   OH239526   0.495   7.427   1.890
13190TIP3    H139527   0.534   7.438   1.803
13190TIP3    H239528   0.401   7.441   1.876
13191TIP3   OH239529   1.003   2.062   0.541
13191TIP3    H139530   0.963   2.110   0.468
13191TIP3    H239531   0.992   2.120   0.617
13192TIP3   OH239532   7.823   5.323   3.123
13192TIP3    H139533   7.784   5.254   3.177
13192TIP3    H239534   7.895   5.279   3.077
13193TIP3   OH239535   4.075   5.380   2.555
13193TIP3    H139536   4.147   5.432   2.591
13193TIP3    H239537   4.115   5.331   2.484
13194TIP3   OH239538   5.280   4.488   1.204
13194TIP3    H139539   5.364   4.518   1.170
13194TIP3    H239540   5.215   4.534   1.151
13195TIP3   OH239541   5.461   0.926   2.035
13195TIP3    H139542   5.423   0.860   2.093
13195TIP3    H239543   5.409   1.005   2.052
13196TIP3   OH239544   2.843   3.348   4.656
13196TIP3    H139545   2.875   3.258   4.668
13196TIP3    H239546   2.876   3.373   4.570
13197TIP3   OH239547   0.345   5.237   1.595
13197TIP3    H139548   0.327   5.205   1.506
13197TIP3    H239549   0.355   5.332   1.584
13198TIP3   OH239550   4.485   0.153   5.580
13198TIP3    H139551   4.567   0.203   5.573
13198TIP3    H239552   4.509   0.076   5.631
13199TIP3   OH239553   8.077   3.132   2.394
13199TIP3    H139554   8.039   3.194   2.332
13199TIP3    H239555   8.166   3.166   2.410
13200TIP3   OH239556   5.689   0.872   6.191
13200TIP3    H139557   5.605   0.899   6.152
13200TIP3    H239558   5.664   0.813   6.262
13201TIP3   OH239559   1.643   5.741   4.273
13201TIP3    H139560   1.659   5.669   4.334
13201TIP3    H239561   1.558   5.719   4.233
13202TIP3   OH239562   3.925   2.270   5.793
13202TIP3    H139563   3.952   2.246   5.881
13202TIP3    H239564   3.870   2.198   5.764
13203TIP3   OH239565   7.023   2.011   1.122
13203TIP3    H139566   7.105   2.054   1.096
13203TIP3    H239567   6.972   2.080   1.164
13204TIP3   OH239568   0.511   0.461   1.227
13204TIP3    H139569   0.425   0.500   1.244
13204TIP3    H239570   0.568   0.496   1.295
13205TIP3   OH239571   1.943   0.533   2.465
13205TIP3    H139572   1.909   0.526   2.376
13205TIP3    H239573   1.882   0.591   2.510
13206TIP3   OH239574   0.955   3.994   3.077
13206TIP3    H139575   1.025   3.928   3.076
13206TIP3    H239576   0.998   4.074   3.049
13207TIP3   OH239577   1.313   1.706   0.060
13207TIP3    H139578   1.248   1.777   0.062
13207TIP3    H239579   1.397   1.751   0.067
13208TIP3   OH239580   0.447   3.717   5.947
13208TIP3    H139581   0.417   3.799   5.985
13208TIP3    H239582   0.446   3.732   5.852
13209TIP3   OH239583   2.442   2.661   4.150
13209TIP3    H139584   2.370   2.600   4.134
13209TIP3    H239585   2.515   2.606   4.176
13210TIP3   OH239586   4.280   0.967   2.638
13210TIP3    H139587   4.291   0.907   2.712
13210TIP3    H239588   4.288   1.054   2.677
13211TIP3   OH239589   3.920   7.772   6.595
13211TIP3    H139590   3.856   7.817   6.651
13211TIP3    H239591   3.921   7.824   6.514
13212TIP3   OH239592   7.743   6.223   1.288
13212TIP3    H139593   7.715   6.179   1.369
13212TIP3    H239594   7.662   6.258   1.251
13213TIP3   OH239595   0.513   4.792   5.088
13213TIP3    H139596   0.426   4.756   5.105
13213TIP3    H239597   0.572   4.739   5.142
13214TIP3   OH239598   5.786   2.848   2.272
13214TIP3    H139599   5.816   2.791   2.343
13214TIP3    H239600   5.732   2.914   2.315
13215TIP3   OH239601   0.719   6.387   5.732
13215TIP3    H139602   0.789   6.419   5.675
13215TIP3    H239603   0.682   6.466   5.771
13216TIP3   OH239604   4.509   6.844   2.563
13216TIP3    H139605   4.487   6.853   2.656
13216TIP3    H239606   4.601   6.817   2.562
13217TIP3   OH239607   2.315   4.928   5.151
13217TIP3    H139608   2.307   4.883   5.236
13217TIP3    H239609   2.382   4.877   5.104
13218TIP3   OH239610   4.910   7.289   1.924
13218TIP3    H139611   4.842   7.224   1.940
13218TIP3    H239612   4.919   7.336   2.007
13219TIP3   OH239613   4.301   7.479   2.378
13219TIP3    H139614   4.206   7.493   2.381
13219TIP3    H239615   4.316   7.437   2.294
13220TIP3   OH239616   6.042   1.845   6.714
13220TIP3    H139617   6.067   1.917   6.772
13220TIP3    H239618   6.117   1.834   6.656
13221TIP3   OH239619   1.151   0.817   3.177
13221TIP3    H139620   1.113   0.803   3.090
13221TIP3    H239621   1.079   0.856   3.228
13222TIP3   OH239622   6.475   2.385   0.659
13222TIP3    H139623   6.420   2.328   0.712
13222TIP3    H239624   6.546   2.412   0.717
13223TIP3   OH239625   4.496   5.212   4.460
13223TIP3    H139626   4.423   5.180   4.407
13223TIP3    H239627   4.488   5.308   4.457
13224TIP3   OH239628   2.294   1.435   1.599
13224TIP3    H139629   2.355   1.362   1.610
13224TIP3    H239630   2.265   1.456   1.687
13225TIP3   OH239631   8.261   1.523   3.728
13225TIP3    H139632   8.167   1.543   3.726
13225TIP3    H239633   8.301   1.592   3.676
13226TIP3   OH239634   7.439   4.706   5.843
13226TIP3    H139635   7.534   4.694   5.854
13226TIP3    H239636   7.416   4.772   5.909
13227TIP3   OH239637   5.524   0.789   5.112
13227TIP3    H139638   5.462   0.744   5.170
13227TIP3    H239639   5.602   0.801   5.167
13228TIP3   OH239640   7.338   4.361   2.968
13228TIP3    H139641   7.408   4.408   3.013
13228TIP3    H239642   7.353   4.377   2.875
13229TIP3   OH239643   1.440   1.004   0.965
13229TIP3    H139644   1.401   1.064   1.029
13229TIP3    H239645   1.385   0.926   0.970
13230TIP3   OH239646   1.181   7.143   3.729
13230TIP3    H139647   1.129   7.222   3.749
13230TIP3    H239648   1.182   7.139   3.634
13231TIP3   OH239649   6.577   5.273   4.352
13231TIP3    H139650   6.563   5.201   4.290
13231TIP3    H239651   6.592   5.349   4.297
13232TIP3   OH239652   8.327   4.595   4.070
13232TIP3    H139653   8.261   4.637   4.126
13232TIP3    H239654   8.317   4.638   3.985
13233TIP3   OH239655   7.109   6.170   1.091
13233TIP3    H139656   7.137   6.254   1.055
13233TIP3    H239657   7.029   6.191   1.140
13234TIP3   OH239658   5.404   4.824   4.856
13234TIP3    H139659   5.395   4.750   4.916
13234TIP3    H239660   5.466   4.793   4.789
13235TIP3   OH239661   6.034   1.120   4.991
13235TIP3    H139662   6.020   1.074   5.073
13235TIP3    H239663   5.978   1.198   4.997
13236TIP3   OH239664   1.666   5.401   5.051
13236TIP3    H139665   1.669   5.353   5.134
13236TIP3    H239666   1.581   5.445   5.052
13237TIP3   OH239667   0.761   2.156   2.326
13237TIP3    H139668   0.744   2.198   2.410
13237TIP3    H239669   0.824   2.087   2.346
13238TIP3   OH239670   2.974   1.935   4.086
13238TIP3    H139671   3.004   1.874   4.018
13238TIP3    H239672   2.984   1.886   4.167
13239TIP3   OH239673   0.825   1.937   5.360
13239TIP3    H139674   0.903   1.965   5.311
13239TIP3    H239675   0.780   1.877   5.301
13240TIP3   OH239676   0.622   1.092   3.994
13240TIP3    H139677   0.549   1.087   4.056
13240TIP3    H239678   0.647   1.001   3.979
13241TIP3   OH239679   6.323   6.420   5.398
13241TIP3    H139680   6.264   6.492   5.419
13241TIP3    H239681   6.336   6.375   5.482
13242TIP3   OH239682   6.598   4.923   5.010
13242TIP3    H139683   6.532   4.884   4.952
13242TIP3    H239684   6.554   4.928   5.095
13243TIP3   OH239685   3.299   6.394   6.198
13243TIP3    H139686   3.394   6.384   6.187
13243TIP3    H239687   3.282   6.486   6.176
13244TIP3   OH239688   2.248   3.861   4.739
13244TIP3    H139689   2.295   3.795   4.790
13244TIP3    H239690   2.298   3.870   4.658
13245TIP3   OH239691   7.627   4.090   5.080
13245TIP3    H139692   7.665   4.042   5.154
13245TIP3    H239693   7.703   4.123   5.033
13246TIP3   OH239694   3.716   5.726   4.266
13246TIP3    H139695   3.803   5.754   4.294
13246TIP3    H239696   3.707   5.638   4.303
13247TIP3   OH239697   6.519   7.715   2.105
13247TIP3    H139698   6.554   7.667   2.030
13247TIP3    H239699   6.495   7.801   2.071
13248TIP3   OH239700   7.891   6.481   1.281
13248TIP3    H139701   7.817   6.539   1.264
13248TIP3    H239702   7.855   6.413   1.339
13249TIP3   OH239703   3.864   6.389   4.693
13249TIP3    H139704   3.909   6.306   4.677
13249TIP3    H239705   3.855   6.394   4.788
13250TIP3   OH239706   2.166   7.229   0.361
13250TIP3    H139707   2.175   7.252   0.453
13250TIP3    H239708   2.255   7.212   0.332
13251TIP3   OH239709   6.539   1.687   3.946
13251TIP3    H139710   6.526   1.599   3.911
13251TIP3    H239711   6.457   1.733   3.930
13252TIP3   OH239712   0.302   3.350   3.419
13252TIP3    H139713   0.237   3.420   3.414
13252TIP3    H239714   0.292   3.302   3.337
13253TIP3   OH239715   1.591   0.688   3.498
13253TIP3    H139716   1.651   0.749   3.454
13253TIP3    H239717   1.642   0.608   3.510
13254TIP3   OH239718   6.700   2.337   1.680
13254TIP3    H139719   6.769   2.375   1.734
13254TIP3    H239720   6.678   2.255   1.723
13255TIP3   OH239721   6.465   1.981   1.904
13255TIP3    H139722   6.413   1.997   1.825
13255TIP3    H239723   6.544   2.034   1.891
13256TIP3   OH239724   4.985   0.230   4.038
13256TIP3    H139725   5.058   0.190   4.085
13256TIP3    H239726   5.027   0.286   3.972
13257TIP3   OH239727   0.300   7.345   3.571
13257TIP3    H139728   0.235   7.337   3.502
13257TIP3    H239729   0.259   7.401   3.637
13258TIP3   OH239730   2.595   7.052   2.710
13258TIP3    H139731   2.677   7.015   2.741
13258TIP3    H239732   2.583   7.132   2.762
13259TIP3   OH239733   3.674   4.033   4.273
13259TIP3    H139734   3.632   3.972   4.334
13259TIP3    H239735   3.603   4.092   4.246
13260TIP3   OH239736   5.045   5.754   1.392
13260TIP3    H139737   5.049   5.789   1.481
13260TIP3    H239738   4.982   5.682   1.397
13261TIP3   OH239739   6.386   0.138   3.994
13261TIP3    H139740   6.343   0.218   3.963
13261TIP3    H239741   6.358   0.128   4.084
13262TIP3   OH239742   0.079   5.729   4.800
13262TIP3    H139743   0.073   5.750   4.893
13262TIP3    H239744   0.143   5.791   4.765
13263TIP3   OH239745   5.436   1.467   2.774
13263TIP3    H139746   5.475   1.405   2.712
13263TIP3    H239747   5.387   1.413   2.835
13264TIP3   OH239748   0.658   3.110   2.295
13264TIP3    H139749   0.705   3.190   2.271
13264TIP3    H239750   0.714   3.067   2.359
13265TIP3   OH239751   0.740   3.335   0.813
13265TIP3    H139752   0.797   3.409   0.835
13265TIP3    H239753   0.719   3.347   0.720
13266TIP3   OH239754   5.569   5.436   2.558
13266TIP3    H139755   5.555   5.525   2.526
13266TIP3    H239756   5.531   5.380   2.491
13267TIP3   OH239757   0.894   5.214   0.147
13267TIP3    H139758   0.846   5.146   0.193
13267TIP3    H239759   0.914   5.280   0.213
13268TIP3   OH239760   2.463   3.757   6.267
13268TIP3    H139761   2.489   3.840   6.227
13268TIP3    H239762   2.440   3.701   6.193
13269TIP3   OH239763   0.063   7.469   3.123
13269TIP3    H139764   0.060   7.531   3.049
13269TIP3    H239765   0.064   7.525   3.200
13270TIP3   OH239766   7.081   0.963   5.886
13270TIP3    H139767   7.100   1.014   5.965
13270TIP3    H239768   7.077   1.027   5.816
13271TIP3   OH239769   5.153   2.835   3.453
13271TIP3    H139770   5.109   2.916   3.427
13271TIP3    H239771   5.129   2.772   3.385
13272TIP3   OH239772   7.238   3.117   1.491
13272TIP3    H139773   7.210   3.184   1.552
13272TIP3    H239774   7.319   3.150   1.454
13273TIP3   OH239775   6.604   3.657   2.393
13273TIP3    H139776   6.542   3.643   2.321
13273TIP3    H239777   6.593   3.749   2.416
13274TIP3   OH239778   3.600   0.812   3.937
13274TIP3    H139779   3.660   0.737   3.935
13274TIP3    H239780   3.532   0.786   3.999
13275TIP3   OH239781   2.798   7.560   5.058
13275TIP3    H139782   2.768   7.500   5.127
13275TIP3    H239783   2.802   7.506   4.979
13276TIP3   OH239784   0.190   0.927   5.660
13276TIP3    H139785   0.224   0.853   5.709
13276TIP3    H239786   0.107   0.897   5.624
13277TIP3   OH239787   7.205   3.560   0.659
13277TIP3    H139788   7.123   3.516   0.634
13277TIP3    H239789   7.256   3.564   0.578
13278TIP3   OH239790   6.845   1.745   5.407
13278TIP3    H139791   6.794   1.690   5.348
13278TIP3    H239792   6.892   1.805   5.349
13279TIP3   OH239793   0.512   5.809   1.112
13279TIP3    H139794   0.521   5.810   1.207
13279TIP3    H239795   0.590   5.853   1.080
13280TIP3   OH239796   5.371   0.594   5.874
13280TIP3    H139797   5.354   0.520   5.816
13280TIP3    H239798   5.452   0.633   5.842
13281TIP3   OH239799   8.175   2.329   4.026
13281TIP3    H139800   8.104   2.290   3.975
13281TIP3    H239801   8.254   2.313   3.975
13282TIP3   OH239802   2.357   2.649   2.297
13282TIP3    H139803   2.367   2.675   2.205
13282TIP3    H239804   2.306   2.720   2.336
13283TIP3   OH239805   6.436   5.826   0.277
13283TIP3    H139806   6.356   5.860   0.237
13283TIP3    H239807   6.457   5.748   0.226
13284TIP3   OH239808   1.310   4.859   3.910
13284TIP3    H139809   1.248   4.788   3.919
13284TIP3    H239810   1.364   4.835   3.835
13285TIP3   OH239811   3.751   0.801   3.288
13285TIP3    H139812   3.844   0.821   3.282
13285TIP3    H239813   3.719   0.809   3.199
13286TIP3   OH239814   5.145   7.274   0.571
13286TIP3    H139815   5.233   7.284   0.606
13286TIP3    H239816   5.101   7.214   0.632
13287TIP3   OH239817   4.683   3.704   2.864
13287TIP3    H139818   4.745   3.775   2.848
13287TIP3    H239819   4.599   3.748   2.876
13288TIP3   OH239820   5.973   6.795   4.646
13288TIP3    H139821   5.992   6.849   4.723
13288TIP3    H239822   5.988   6.706   4.676
13289TIP3   OH239823   5.222   5.789   3.328
13289TIP3    H139824   5.201   5.700   3.301
13289TIP3    H239825   5.138   5.834   3.332
13290TIP3   OH239826   3.206   2.926   4.500
13290TIP3    H139827   3.125   2.882   4.475
13290TIP3    H239828   3.273   2.885   4.444
13291TIP3   OH239829   6.124   1.579   4.183
13291TIP3    H139830   6.065   1.628   4.240
13291TIP3    H239831   6.212   1.601   4.214
13292TIP3   OH239832   6.178   0.774   3.591
13292TIP3    H139833   6.158   0.786   3.498
13292TIP3    H239834   6.164   0.860   3.630
13293TIP3   OH239835   0.347   5.943   0.422
13293TIP3    H139836   0.340   5.903   0.508
13293TIP3    H239837   0.268   5.997   0.414
13294TIP3   OH239838   6.334   3.771   5.256
13294TIP3    H139839   6.318   3.781   5.349
13294TIP3    H239840   6.248   3.750   5.219
13295TIP3   OH239841   4.658   3.426   2.912
13295TIP3    H139842   4.563   3.431   2.915
13295TIP3    H239843   4.688   3.515   2.928
13296TIP3   OH239844   4.339   2.692   4.134
13296TIP3    H139845   4.397   2.672   4.061
13296TIP3    H239846   4.372   2.774   4.169
13297TIP3   OH239847   5.535   2.770   5.687
13297TIP3    H139848   5.620   2.784   5.729
13297TIP3    H239849   5.552   2.783   5.594
13298TIP3   OH239850   7.041   0.194   5.283
13298TIP3    H139851   7.074   0.281   5.261
13298TIP3    H239852   7.096   0.134   5.231
13299TIP3   OH239853   2.872   6.852   6.728
13299TIP3    H139854   2.782   6.869   6.699
13299TIP3    H239855   2.867   6.854   6.823
13300TIP3   OH239856   8.306   5.585   4.366
13300TIP3    H139857   8.270   5.665   4.405
13300TIP3    H239858   8.231   5.546   4.321
13301TIP3   OH239859   1.160   6.606   3.219
13301TIP3    H139860   1.110   6.533   3.255
13301TIP3    H239861   1.124   6.619   3.131
13302TIP3   OH239862   5.337   6.246   3.751
13302TIP3    H139863   5.383   6.273   3.672
13302TIP3    H239864   5.251   6.216   3.719
13303TIP3   OH239865   7.434   2.083   0.192
13303TIP3    H139866   7.387   2.018   0.244
13303TIP3    H239867   7.503   2.033   0.149
13304TIP3   OH239868   1.218   7.257   3.211
13304TIP3    H139869   1.227   7.231   3.120
13304TIP3    H239870   1.139   7.311   3.213
13305TIP3   OH239871   6.949   1.110   6.654
13305TIP3    H139872   6.921   1.095   6.564
13305TIP3    H239873   6.904   1.042   6.705
13306TIP3   OH239874   4.324   3.641   4.195
13306TIP3    H139875   4.390   3.639   4.265
13306TIP3    H239876   4.255   3.582   4.226
13307TIP3   OH239877   7.702   2.030   0.847
13307TIP3    H139878   7.670   1.945   0.878
13307TIP3    H239879   7.784   2.042   0.894
13308TIP3   OH239880   4.813   2.498   0.168
13308TIP3    H139881   4.862   2.568   0.125
13308TIP3    H239882   4.722   2.527   0.164
13309TIP3   OH239883   3.804   0.857   4.696
13309TIP3    H139884   3.863   0.788   4.729
13309TIP3    H239885   3.716   0.826   4.717
13310TIP3   OH239886   7.003   4.378   4.463
13310TIP3    H139887   7.041   4.465   4.458
13310TIP3    H239888   6.934   4.385   4.529
13311TIP3   OH239889   4.839   1.040   2.538
13311TIP3    H139890   4.861   1.118   2.485
13311TIP3    H239891   4.744   1.042   2.544
13312TIP3   OH239892   7.295   6.654   4.783
13312TIP3    H139893   7.289   6.744   4.749
13312TIP3    H239894   7.322   6.665   4.874
13313TIP3   OH239895   4.480   4.742   0.725
13313TIP3    H139896   4.516   4.782   0.646
13313TIP3    H239897   4.390   4.772   0.729
13314TIP3   OH239898   4.600   1.561   4.792
13314TIP3    H139899   4.516   1.557   4.838
13314TIP3    H239900   4.592   1.636   4.734
13315TIP3   OH239901   1.638   4.683   5.183
13315TIP3    H139902   1.575   4.667   5.254
13315TIP3    H239903   1.713   4.629   5.205
13316TIP3   OH239904   1.310   3.842   4.802
13316TIP3    H139905   1.253   3.775   4.841
13316TIP3    H239906   1.351   3.884   4.877
13317TIP3   OH239907   2.197   3.828   6.455
13317TIP3    H139908   2.268   3.828   6.391
13317TIP3    H239909   2.118   3.844   6.402
13318TIP3   OH239910   4.232   4.865   5.782
13318TIP3    H139911   4.291   4.793   5.759
13318TIP3    H239912   4.154   4.821   5.817
13319TIP3   OH239913   8.231   2.582   6.682
13319TIP3    H139914   8.163   2.545   6.739
13319TIP3    H239915   8.304   2.602   6.741
13320TIP3   OH239916   6.936   7.558   1.039
13320TIP3    H139917   6.953   7.472   1.077
13320TIP3    H239918   6.923   7.541   0.945
13321TIP3   OH239919   0.282   1.900   6.455
13321TIP3    H139920   0.220   1.897   6.529
13321TIP3    H239921   0.239   1.955   6.390
13322TIP3   OH239922   5.400   2.084   4.767
13322TIP3    H139923   5.396   2.042   4.852
13322TIP3    H239924   5.361   2.170   4.781
13323TIP3   OH239925   0.573   1.513   0.561
13323TIP3    H139926   0.649   1.509   0.619
13323TIP3    H239927   0.532   1.597   0.581
13324TIP3   OH239928   6.494   2.608   6.700
13324TIP3    H139929   6.563   2.582   6.760
13324TIP3    H239930   6.534   2.601   6.613
13325TIP3   OH239931   7.135   3.294   5.234
13325TIP3    H139932   7.208   3.310   5.174
13325TIP3    H239933   7.157   3.212   5.278
13326TIP3   OH239934   4.146   3.311   0.155
13326TIP3    H139935   4.159   3.341   0.065
13326TIP3    H239936   4.079   3.369   0.191
13327TIP3   OH239937   3.715   4.304   4.430
13327TIP3    H139938   3.639   4.346   4.469
13327TIP3    H239939   3.712   4.214   4.463
13328TIP3   OH239940   2.525   6.199   3.975
13328TIP3    H139941   2.446   6.249   3.996
13328TIP3    H239942   2.512   6.170   3.885
13329TIP3   OH239943   2.815   0.296   1.603
13329TIP3    H139944   2.815   0.271   1.696
13329TIP3    H239945   2.868   0.376   1.600
13330TIP3   OH239946   8.204   7.714   5.493
13330TIP3    H139947   8.175   7.738   5.581
13330TIP3    H239948   8.226   7.797   5.450
13331TIP3   OH239949   3.697   3.940   3.089
13331TIP3    H139950   3.772   3.999   3.083
13331TIP3    H239951   3.646   3.958   3.009
13332TIP3   OH239952   2.106   4.601   2.352
13332TIP3    H139953   2.016   4.612   2.382
13332TIP3    H239954   2.159   4.650   2.416
13333TIP3   OH239955  -0.002   4.935   4.197
13333TIP3    H139956   0.071   4.873   4.199
13333TIP3    H239957  -0.079   4.881   4.213
13334TIP3   OH239958   0.681   4.585   1.402
13334TIP3    H139959   0.606   4.549   1.354
13334TIP3    H239960   0.757   4.548   1.357
13335TIP3   OH239961   5.851   6.097   4.860
13335TIP3    H139962   5.908   6.143   4.921
13335TIP3    H239963   5.903   6.086   4.781
13336TIP3   OH239964   4.534   5.315   2.456
13336TIP3    H139965   4.546   5.282   2.367
13336TIP3    H239966   4.573   5.402   2.455
13337TIP3   OH239967   6.650   4.692   0.233
13337TIP3    H139968   6.735   4.679   0.275
13337TIP3    H239969   6.609   4.763   0.282
13338TIP3   OH239970   1.732   0.303   1.648
13338TIP3    H139971   1.790   0.231   1.623
13338TIP3    H239972   1.690   0.272   1.728
13339TIP3   OH239973   5.466   6.622   0.916
13339TIP3    H139974   5.403   6.577   0.859
13339TIP3    H239975   5.533   6.557   0.934
13340TIP3   OH239976   1.358   5.653   4.300
13340TIP3    H139977   1.273   5.694   4.313
13340TIP3    H239978   1.347   5.563   4.330
13341TIP3   OH239979   6.487   6.052   4.550
13341TIP3    H139980   6.513   5.967   4.585
13341TIP3    H239981   6.408   6.075   4.599
13342TIP3   OH239982   3.264   6.973   1.084
13342TIP3    H139983   3.265   7.069   1.080
13342TIP3    H239984   3.208   6.953   1.159
13343TIP3   OH239985   6.326   7.146   3.237
13343TIP3    H139986   6.351   7.235   3.264
13343TIP3    H239987   6.333   7.094   3.317
13344TIP3   OH239988   7.543   2.907   6.160
13344TIP3    H139989   7.528   2.864   6.244
13344TIP3    H239990   7.455   2.927   6.126
13345TIP3   OH239991   2.861   1.261   5.155
13345TIP3    H139992   2.876   1.229   5.244
13345TIP3    H239993   2.825   1.185   5.109
13346TIP3   OH239994   5.638   4.195   4.292
13346TIP3    H139995   5.558   4.168   4.247
13346TIP3    H239996   5.616   4.279   4.331
13347TIP3   OH239997   4.411   1.256   3.165
13347TIP3    H139998   4.322   1.243   3.131
13347TIP3    H239999   4.401   1.323   3.232
13348TIP3   OH240000   0.830   6.032   5.523
13348TIP3    H140001   0.890   5.965   5.557
13348TIP3    H240002   0.756   6.030   5.584
13349TIP3   OH240003   3.936   2.628   3.113
13349TIP3    H140004   4.002   2.685   3.153
13349TIP3    H240005   3.855   2.648   3.160
13350TIP3   OH240006   1.650   2.065   2.482
13350TIP3    H140007   1.579   2.026   2.532
13350TIP3    H240008   1.729   2.040   2.530
13351TIP3   OH240009   1.485   2.369   1.965
13351TIP3    H140010   1.401   2.411   1.987
13351TIP3    H240011   1.521   2.425   1.896
13352TIP3   OH240012   6.920   1.129   2.721
13352TIP3    H140013   6.911   1.156   2.629
13352TIP3    H240014   6.846   1.169   2.765
13353TIP3   OH240015   3.561   5.002   0.922
13353TIP3    H140016   3.652   4.978   0.939
13353TIP3    H240017   3.567   5.087   0.879
13354TIP3   OH240018   4.955   4.802   2.746
13354TIP3    H140019   4.915   4.817   2.660
13354TIP3    H240020   5.037   4.756   2.726
13355TIP3   OH240021   0.474   2.126   0.874
13355TIP3    H140022   0.540   2.159   0.813
13355TIP3    H240023   0.398   2.107   0.819
13356TIP3   OH240024   4.164   5.463   0.148
13356TIP3    H140025   4.214   5.532   0.105
13356TIP3    H240026   4.222   5.429   0.216
13357TIP3   OH240027   3.292   2.696   5.622
13357TIP3    H140028   3.291   2.791   5.620
13357TIP3    H240029   3.371   2.673   5.672
13358TIP3   OH240030   2.446   5.877   2.277
13358TIP3    H140031   2.493   5.921   2.348
13358TIP3    H240032   2.437   5.945   2.210
13359TIP3   OH240033   6.156   5.071   3.798
13359TIP3    H140034   6.225   5.021   3.841
13359TIP3    H240035   6.127   5.014   3.726
13360TIP3   OH240036   6.501   2.546   1.754
13360TIP3    H140037   6.569   2.544   1.822
13360TIP3    H240038   6.536   2.491   1.684
13361TIP3   OH240039   6.088   0.586   5.664
13361TIP3    H140040   6.059   0.503   5.627
13361TIP3    H240041   6.086   0.573   5.758
13362TIP3   OH240042   2.644   1.481   6.442
13362TIP3    H140043   2.714   1.498   6.504
13362TIP3    H240044   2.649   1.553   6.379
13363TIP3   OH240045   5.217   0.690   6.070
13363TIP3    H140046   5.279   0.678   5.998
13363TIP3    H240047   5.159   0.759   6.040
13364TIP3   OH240048   6.522   6.606   6.582
13364TIP3    H140049   6.569   6.690   6.574
13364TIP3    H240050   6.503   6.598   6.675
13365TIP3   OH240051   4.905   6.873   5.761
13365TIP3    H140052   4.943   6.867   5.849
13365TIP3    H240053   4.833   6.811   5.762
13366TIP3   OH240054   7.390   3.232   3.132
13366TIP3    H140055   7.483   3.210   3.139
13366TIP3    H240056   7.352   3.160   3.081
13367TIP3   OH240057   1.778   3.949   5.810
13367TIP3    H140058   1.779   3.951   5.714
13367TIP3    H240059   1.762   4.040   5.835
13368TIP3   OH240060   5.073   3.116   2.860
13368TIP3    H140061   5.015   3.172   2.912
13368TIP3    H240062   5.063   3.029   2.899
13369TIP3   OH240063   0.141   6.549   5.196
13369TIP3    H140064   0.137   6.620   5.132
13369TIP3    H240065   0.226   6.509   5.182
13370TIP3   OH240066   6.160   2.368   1.455
13370TIP3    H140067   6.196   2.394   1.370
13370TIP3    H240068   6.143   2.274   1.446
13371TIP3   OH240069   7.258   2.367   2.901
13371TIP3    H140070   7.300   2.434   2.848
13371TIP3    H240071   7.270   2.286   2.851
13372TIP3   OH240072   4.556   7.614   6.429
13372TIP3    H140073   4.496   7.687   6.424
13372TIP3    H240074   4.500   7.536   6.430
13373TIP3   OH240075   5.202   4.628   1.525
13373TIP3    H140076   5.110   4.649   1.538
13373TIP3    H240077   5.204   4.533   1.518
13374TIP3   OH240078   1.314   6.959   1.609
13374TIP3    H140079   1.320   7.055   1.606
13374TIP3    H240080   1.323   6.932   1.518
13375TIP3   OH240081   7.656   3.292   4.068
13375TIP3    H140082   7.615   3.248   3.993
13375TIP3    H240083   7.643   3.386   4.050
13376TIP3   OH240084   8.155   1.928   5.133
13376TIP3    H140085   8.148   1.853   5.191
13376TIP3    H240086   8.064   1.952   5.113
13377TIP3   OH240087   3.231   2.667   0.706
13377TIP3    H140088   3.320   2.695   0.728
13377TIP3    H240089   3.178   2.746   0.711
13378TIP3   OH240090   3.503   1.956   6.295
13378TIP3    H140091   3.593   1.948   6.326
13378TIP3    H240092   3.495   2.047   6.267
13379TIP3   OH240093   7.301   0.814   2.956
13379TIP3    H140094   7.272   0.902   2.931
13379TIP3    H240095   7.268   0.757   2.887
13380TIP3   OH240096   0.725   1.615   6.166
13380TIP3    H140097   0.662   1.599   6.237
13380TIP3    H240098   0.792   1.548   6.178
13381TIP3   OH240099   1.379   6.943   3.830
13381TIP3    H140100   1.370   6.889   3.751
13381TIP3    H240101   1.300   6.996   3.832
13382TIP3   OH240102   3.908   5.526   5.228
13382TIP3    H140103   3.847   5.486   5.166
13382TIP3    H240104   3.932   5.456   5.288
13383TIP3   OH240105   3.016   1.088   3.761
13383TIP3    H140106   3.022   1.044   3.676
13383TIP3    H240107   2.987   1.020   3.821
13384TIP3   OH240108   3.778   4.043   1.339
13384TIP3    H140109   3.770   4.050   1.434
13384TIP3    H240110   3.689   4.030   1.308
13385TIP3   OH240111   5.300   1.599   6.434
13385TIP3    H140112   5.358   1.533   6.470
13385TIP3    H240113   5.338   1.683   6.462
13386TIP3   OH240114   2.803   7.344   6.071
13386TIP3    H140115   2.803   7.367   6.163
13386TIP3    H240116   2.777   7.252   6.069
13387TIP3   OH240117   5.900   3.845   6.005
13387TIP3    H140118   5.931   3.910   6.067
13387TIP3    H240119   5.968   3.840   5.939
13388TIP3   OH240120   7.654   0.610   4.110
13388TIP3    H140121   7.673   0.653   4.026
13388TIP3    H240122   7.600   0.673   4.157
13389TIP3   OH240123   1.616   0.862   5.338
13389TIP3    H140124   1.685   0.821   5.390
13389TIP3    H240125   1.643   0.847   5.247
13390TIP3   OH240126   1.222   6.662   0.105
13390TIP3    H140127   1.192   6.573   0.125
13390TIP3    H240128   1.214   6.709   0.188
13391TIP3   OH240129   6.676   7.699   3.216
13391TIP3    H140130   6.658   7.767   3.281
13391TIP3    H240131   6.719   7.746   3.144
13392TIP3   OH240132   8.014   3.525   4.190
13392TIP3    H140133   7.933   3.532   4.240
13392TIP3    H240134   8.081   3.565   4.246
13393TIP3   OH240135   3.359   3.877   0.353
13393TIP3    H140136   3.367   3.971   0.362
13393TIP3    H240137   3.289   3.852   0.414
13394TIP3   OH240138   5.892   0.045   1.945
13394TIP3    H140139   5.931  -0.031   1.902
13394TIP3    H240140   5.809   0.059   1.900
13395TIP3   OH240141   7.090   4.060   6.373
13395TIP3    H140142   7.115   4.150   6.353
13395TIP3    H240143   6.997   4.056   6.350
13396TIP3   OH240144   3.743   0.027   1.687
13396TIP3    H140145   3.810  -0.013   1.743
13396TIP3    H240146   3.755   0.121   1.698
13397TIP3   OH240147   2.804   6.870   6.037
13397TIP3    H140148   2.802   6.917   6.120
13397TIP3    H240149   2.785   6.937   5.971
13398TIP3   OH240150   6.009   5.522   2.503
13398TIP3    H140151   5.986   5.603   2.550
13398TIP3    H240152   6.078   5.482   2.556
13399TIP3   OH240153   0.352   1.491   1.705
13399TIP3    H140154   0.350   1.422   1.638
13399TIP3    H240155   0.273   1.543   1.688
13400TIP3   OH240156   4.104   3.681   0.552
13400TIP3    H140157   4.136   3.744   0.486
13400TIP3    H240158   4.009   3.688   0.546
13401TIP3   OH240159   0.634   7.028   6.720
13401TIP3    H140160   0.677   7.009   6.637
13401TIP3    H240161   0.541   7.019   6.701
13402TIP3   OH240162   3.849   1.857   2.817
13402TIP3    H140163   3.834   1.938   2.865
13402TIP3    H240164   3.769   1.806   2.831
13403TIP3   OH240165   5.234   3.389   5.182
13403TIP3    H140166   5.307   3.327   5.181
13403TIP3    H240167   5.175   3.359   5.113
13404TIP3   OH240168   2.542   0.309   3.697
13404TIP3    H140169   2.599   0.232   3.700
13404TIP3    H240170   2.565   0.353   3.616
13405TIP3   OH240171   6.650   1.750   5.819
13405TIP3    H140172   6.721   1.727   5.879
13405TIP3    H240173   6.666   1.698   5.741
13406TIP3   OH240174   2.571   5.482   5.478
13406TIP3    H140175   2.653   5.431   5.482
13406TIP3    H240176   2.588   5.557   5.535
13407TIP3   OH240177   7.173   1.227   5.493
13407TIP3    H140178   7.109   1.160   5.469
13407TIP3    H240179   7.250   1.177   5.523
13408TIP3   OH240180   2.179   7.802   1.646
13408TIP3    H140181   2.185   7.734   1.713
13408TIP3    H240182   2.098   7.849   1.666
13409TIP3   OH240183   3.798   2.524   6.306
13409TIP3    H140184   3.810   2.617   6.286
13409TIP3    H240185   3.887   2.491   6.319
13410TIP3   OH240186   1.599   2.556   4.191
13410TIP3    H140187   1.645   2.548   4.275
13410TIP3    H240188   1.667   2.582   4.129
13411TIP3   OH240189   4.995   0.640   3.899
13411TIP3    H140190   5.020   0.726   3.865
13411TIP3    H240191   4.902   0.649   3.922
13412TIP3   OH240192   3.394   0.676   5.461
13412TIP3    H140193   3.315   0.730   5.456
13412TIP3    H240194   3.388   0.633   5.547
13413TIP3   OH240195   3.141   0.395   0.309
13413TIP3    H140196   3.154   0.485   0.337
13413TIP3    H240197   3.058   0.369   0.348
13414TIP3   OH240198   0.358   3.887   0.395
13414TIP3    H140199   0.383   3.846   0.479
13414TIP3    H240200   0.365   3.981   0.411
13415TIP3   OH240201   2.321   6.898   0.176
13415TIP3    H140202   2.383   6.952   0.126
13415TIP3    H240203   2.235   6.933   0.152
13416TIP3   OH240204   4.780   4.744   0.446
13416TIP3    H140205   4.869   4.779   0.435
13416TIP3    H240206   4.785   4.655   0.412
13417TIP3   OH240207   5.485   4.184   2.174
13417TIP3    H140208   5.477   4.147   2.262
13417TIP3    H240209   5.395   4.199   2.145
13418TIP3   OH240210   2.100   4.416   2.160
13418TIP3    H140211   2.113   4.329   2.199
13418TIP3    H240212   2.096   4.475   2.235
13419TIP3   OH240213   5.228   3.457   5.869
13419TIP3    H140214   5.283   3.450   5.791
13419TIP3    H240215   5.138   3.449   5.837
13420TIP3   OH240216   7.721   2.095   4.532
13420TIP3    H140217   7.772   2.014   4.527
13420TIP3    H240218   7.773   2.159   4.485
13421TIP3   OH240219   3.613   0.760   2.024
13421TIP3    H140220   3.572   0.801   1.948
13421TIP3    H240221   3.540   0.725   2.076
13422TIP3   OH240222   5.201   5.153   0.505
13422TIP3    H140223   5.193   5.222   0.571
13422TIP3    H240224   5.234   5.197   0.428
13423TIP3   OH240225   8.152   5.415   6.007
13423TIP3    H140226   8.224   5.394   5.947
13423TIP3    H240227   8.079   5.437   5.950
13424TIP3   OH240228   2.973   5.763   3.019
13424TIP3    H140229   2.976   5.848   2.976
13424TIP3    H240230   2.916   5.775   3.094
13425TIP3   OH240231   7.260   1.762   6.433
13425TIP3    H140232   7.192   1.798   6.489
13425TIP3    H240233   7.341   1.775   6.483
13426TIP3   OH240234   5.824   1.154   0.138
13426TIP3    H140235   5.730   1.149   0.153
13426TIP3    H240236   5.853   1.231   0.187
13427TIP3   OH240237   4.462   0.091   4.253
13427TIP3    H140238   4.426   0.006   4.228
13427TIP3    H240239   4.525   0.071   4.322
13428TIP3   OH240240   4.575   2.309   5.950
13428TIP3    H140241   4.504   2.278   6.005
13428TIP3    H240242   4.538   2.310   5.861
13429TIP3   OH240243   5.809   2.204   4.203
13429TIP3    H140244   5.733   2.162   4.163
13429TIP3    H240245   5.776   2.287   4.236
13430TIP3   OH240246   1.071   7.097   1.299
13430TIP3    H140247   1.153   7.105   1.250
13430TIP3    H240248   1.057   7.184   1.337
13431TIP3   OH240249   7.157   3.852   0.899
13431TIP3    H140250   7.110   3.857   0.817
13431TIP3    H240251   7.235   3.799   0.879
13432TIP3   OH240252   7.368   4.141   1.478
13432TIP3    H140253   7.434   4.207   1.500
13432TIP3    H240254   7.293   4.162   1.534
13433TIP3   OH240255   0.549   1.675   1.626
13433TIP3    H140256   0.488   1.740   1.591
13433TIP3    H240257   0.493   1.603   1.656
13434TIP3   OH240258   3.385   0.741   4.103
13434TIP3    H140259   3.375   0.726   4.197
13434TIP3    H240260   3.303   0.783   4.077
13435TIP3   OH240261   2.533   2.828   3.935
13435TIP3    H140262   2.457   2.866   3.889
13435TIP3    H240263   2.497   2.753   3.983
13436TIP3   OH240264   4.972   7.620   5.877
13436TIP3    H140265   5.046   7.562   5.895
13436TIP3    H240266   5.007   7.686   5.817
13437TIP3   OH240267   1.416   3.080   4.460
13437TIP3    H140268   1.402   3.030   4.541
13437TIP3    H240269   1.359   3.156   4.469
13438TIP3   OH240270   0.510   1.523   4.987
13438TIP3    H140271   0.592   1.475   4.983
13438TIP3    H240272   0.442   1.458   4.970
13439TIP3   OH240273   4.327   4.163   4.544
13439TIP3    H140274   4.410   4.132   4.580
13439TIP3    H240275   4.261   4.102   4.577
13440TIP3   OH240276   7.502   1.540   3.022
13440TIP3    H140277   7.511   1.505   2.933
13440TIP3    H240278   7.571   1.606   3.029
13441TIP3   OH240279   6.685   1.244   0.730
13441TIP3    H140280   6.721   1.288   0.653
13441TIP3    H240281   6.743   1.270   0.802
13442TIP3   OH240282   7.693   3.326   3.691
13442TIP3    H140283   7.767   3.354   3.745
13442TIP3    H240284   7.674   3.402   3.636
13443TIP3   OH240285   2.984   1.759   5.707
13443TIP3    H140286   3.035   1.765   5.626
13443TIP3    H240287   3.046   1.727   5.773
13444TIP3   OH240288   5.428   6.324   1.815
13444TIP3    H140289   5.400   6.293   1.901
13444TIP3    H240290   5.402   6.417   1.813
13445TIP3   OH240291   0.622   3.641   2.335
13445TIP3    H140292   0.537   3.684   2.325
13445TIP3    H240293   0.674   3.674   2.261
13446TIP3   OH240294   6.510   0.351   6.442
13446TIP3    H140295   6.550   0.416   6.500
13446TIP3    H240296   6.492   0.399   6.362
13447TIP3   OH240297   5.121   0.143   0.658
13447TIP3    H140298   5.164   0.215   0.705
13447TIP3    H240299   5.029   0.167   0.658
13448TIP3   OH240300   4.650   2.992   5.053
13448TIP3    H140301   4.571   3.028   5.012
13448TIP3    H240302   4.648   2.899   5.032
13449TIP3   OH240303   1.938   5.981   0.597
13449TIP3    H140304   1.994   6.032   0.539
13449TIP3    H240305   1.947   6.024   0.682
13450TIP3   OH240306   4.373   6.982   3.506
13450TIP3    H140307   4.440   7.046   3.483
13450TIP3    H240308   4.415   6.897   3.495
13451TIP3   OH240309   1.862   3.920   1.712
13451TIP3    H140310   1.791   3.932   1.776
13451TIP3    H240311   1.868   4.004   1.667
13452TIP3   OH240312   1.550   3.352   0.122
13452TIP3    H140313   1.500   3.393   0.193
13452TIP3    H240314   1.573   3.424   0.064
13453TIP3   OH240315   6.818   3.417   6.483
13453TIP3    H140316   6.759   3.402   6.557
13453TIP3    H240317   6.826   3.512   6.477
13454TIP3   OH240318   4.326   7.786   4.893
13454TIP3    H140319   4.316   7.691   4.882
13454TIP3    H240320   4.236   7.818   4.903
13455TIP3   OH240321   1.572   4.399   0.355
13455TIP3    H140322   1.487   4.429   0.388
13455TIP3    H240323   1.608   4.348   0.428
13456TIP3   OH240324   3.794   6.067   0.388
13456TIP3    H140325   3.703   6.094   0.376
13456TIP3    H240326   3.831   6.133   0.446
13457TIP3   OH240327   3.589   5.847   4.798
13457TIP3    H140328   3.526   5.900   4.750
13457TIP3    H240329   3.645   5.910   4.842
13458TIP3   OH240330   4.719   3.457   2.339
13458TIP3    H140331   4.671   3.509   2.275
13458TIP3    H240332   4.702   3.500   2.423
13459TIP3   OH240333   6.368   3.693   0.415
13459TIP3    H140334   6.396   3.759   0.479
13459TIP3    H240335   6.339   3.744   0.339
13460TIP3   OH240336   2.740   7.108   0.275
13460TIP3    H140337   2.728   7.047   0.202
13460TIP3    H240338   2.734   7.054   0.354
13461TIP3   OH240339   2.432   6.511   4.092
13461TIP3    H140340   2.378   6.476   4.022
13461TIP3    H240341   2.454   6.436   4.146
13462TIP3   OH240342   8.174   6.073   4.927
13462TIP3    H140343   8.119   6.073   5.005
13462TIP3    H240344   8.165   6.162   4.892
13463TIP3   OH240345   0.373   5.499   5.705
13463TIP3    H140346   0.350   5.479   5.614
13463TIP3    H240347   0.353   5.419   5.752
13464TIP3   OH240348   7.905   1.411   3.241
13464TIP3    H140349   7.900   1.443   3.151
13464TIP3    H240350   7.969   1.340   3.238
13465TIP3   OH240351   2.208   6.119   2.768
13465TIP3    H140352   2.114   6.115   2.751
13465TIP3    H240353   2.215   6.141   2.861
13466TIP3   OH240354   0.809   0.125   0.263
13466TIP3    H140355   0.840   0.046   0.308
13466TIP3    H240356   0.722   0.140   0.299
13467TIP3   OH240357   2.523   4.669   1.975
13467TIP3    H140358   2.540   4.626   2.058
13467TIP3    H240359   2.439   4.634   1.946
13468TIP3   OH240360   6.219   0.513   1.639
13468TIP3    H140361   6.280   0.473   1.700
13468TIP3    H240362   6.143   0.537   1.693
13469TIP3   OH240363   4.141   7.044   2.082
13469TIP3    H140364   4.101   7.033   1.996
13469TIP3    H240365   4.085   6.994   2.142
13470TIP3   OH240366   6.692   0.158   3.920
13470TIP3    H140367   6.774   0.110   3.912
13470TIP3    H240368   6.624   0.091   3.920
13471TIP3   OH240369   6.592   5.847   6.024
13471TIP3    H140370   6.540   5.821   6.101
13471TIP3    H240371   6.683   5.828   6.049
13472TIP3   OH240372   7.425   6.071   5.708
13472TIP3    H140373   7.499   6.016   5.684
13472TIP3    H240374   7.465   6.154   5.734
13473TIP3   OH240375   0.702   1.292   6.498
13473TIP3    H140376   0.715   1.385   6.513
13473TIP3    H240377   0.718   1.281   6.404
13474TIP3   OH240378   5.899   1.044   3.238
13474TIP3    H140379   5.931   1.119   3.187
13474TIP3    H240380   5.814   1.072   3.272
13475TIP3   OH240381   3.409   2.795   2.970
13475TIP3    H140382   3.327   2.823   2.931
13475TIP3    H240383   3.417   2.702   2.946
13476TIP3   OH240384   1.188   3.108   2.297
13476TIP3    H140385   1.122   3.174   2.277
13476TIP3    H240386   1.234   3.142   2.374
13477TIP3   OH240387   5.638   7.337   6.081
13477TIP3    H140388   5.573   7.286   6.130
13477TIP3    H240389   5.649   7.290   5.999
13478TIP3   OH240390   0.322   0.996   1.989
13478TIP3    H140391   0.229   1.017   1.997
13478TIP3    H240392   0.355   0.999   2.079
13479TIP3   OH240393   3.371   4.136   4.698
13479TIP3    H140394   3.304   4.104   4.638
13479TIP3    H240395   3.348   4.096   4.782
13480TIP3   OH240396   5.360   6.489   0.412
13480TIP3    H140397   5.439   6.524   0.454
13480TIP3    H240398   5.345   6.547   0.337
13481TIP3   OH240399   5.363   4.909   2.870
13481TIP3    H140400   5.319   4.912   2.784
13481TIP3    H240401   5.295   4.935   2.932
13482TIP3   OH240402   1.964   5.803   2.014
13482TIP3    H140403   2.039   5.774   1.963
13482TIP3    H240404   1.969   5.899   2.011
13483TIP3   OH240405   8.025   2.930   5.815
13483TIP3    H140406   7.959   2.940   5.747
13483TIP3    H240407   7.993   2.984   5.888
13484TIP3   OH240408   2.475   5.133   1.793
13484TIP3    H140409   2.526   5.163   1.718
13484TIP3    H240410   2.421   5.209   1.816
13485TIP3   OH240411   5.112   4.420   2.330
13485TIP3    H140412   5.205   4.444   2.330
13485TIP3    H240413   5.084   4.434   2.239
13486TIP3   OH240414   5.104   5.503   6.263
13486TIP3    H140415   5.067   5.591   6.266
13486TIP3    H240416   5.082   5.464   6.348
13487TIP3   OH240417   0.183   6.521   4.194
13487TIP3    H140418   0.187   6.526   4.289
13487TIP3    H240419   0.227   6.600   4.163
13488TIP3   OH240420   5.449   4.708   4.270
13488TIP3    H140421   5.494   4.624   4.282
13488TIP3    H240422   5.519   4.773   4.276
13489TIP3   OH240423   1.943   7.595   5.737
13489TIP3    H140424   1.864   7.622   5.690
13489TIP3    H240425   1.913   7.529   5.800
13490TIP3   OH240426   1.860   6.900   5.986
13490TIP3    H140427   1.856   6.947   5.903
13490TIP3    H240428   1.784   6.841   5.984
13491TIP3   OH240429   0.106   2.367   5.831
13491TIP3    H140430   0.052   2.359   5.910
13491TIP3    H240431   0.047   2.342   5.759
13492TIP3   OH240432   3.142   2.899   6.710
13492TIP3    H140433   3.229   2.937   6.696
13492TIP3    H240434   3.148   2.856   6.795
13493TIP3   OH240435   3.707   1.042   4.132
13493TIP3    H140436   3.702   0.961   4.082
13493TIP3    H240437   3.721   1.014   4.223
13494TIP3   OH240438   3.305   1.109   0.746
13494TIP3    H140439   3.360   1.126   0.670
13494TIP3    H240440   3.366   1.098   0.819
13495TIP3   OH240441   2.100   3.098   5.585
13495TIP3    H140442   2.102   3.193   5.583
13495TIP3    H240443   2.169   3.074   5.647
13496TIP3   OH240444   4.590   3.939   4.487
13496TIP3    H140445   4.554   3.985   4.562
13496TIP3    H240446   4.685   3.940   4.501
13497TIP3   OH240447   0.665   2.648   3.085
13497TIP3    H140448   0.731   2.693   3.138
13497TIP3    H240449   0.684   2.675   2.995
13498TIP3   OH240450   5.079   6.253   6.363
13498TIP3    H140451   5.116   6.169   6.337
13498TIP3    H240452   5.096   6.311   6.289
13499TIP3   OH240453   6.392   3.590   4.653
13499TIP3    H140454   6.362   3.678   4.677
13499TIP3    H240455   6.350   3.532   4.717
13500TIP3   OH240456   6.728   3.850   5.222
13500TIP3    H140457   6.802   3.833   5.163
13500TIP3    H240458   6.693   3.763   5.241
13501TIP3   OH240459   4.103   6.402   3.462
13501TIP3    H140460   4.181   6.348   3.451
13501TIP3    H240461   4.035   6.341   3.490
13502TIP3   OH240462   2.403   2.703   3.343
13502TIP3    H140463   2.443   2.670   3.423
13502TIP3    H240464   2.328   2.645   3.328
13503TIP3   OH240465   5.354   3.721   5.575
13503TIP3    H140466   5.439   3.765   5.577
13503TIP3    H240467   5.291   3.791   5.590
13504TIP3   OH240468   0.534   0.750   6.146
13504TIP3    H140469   0.508   0.690   6.076
13504TIP3    H240470   0.452   0.786   6.179
13505TIP3   OH240471   4.749   5.537   6.355
13505TIP3    H140472   4.662   5.566   6.328
13505TIP3    H240473   4.774   5.471   6.290
13506TIP3   OH240474   3.520   6.337   2.633
13506TIP3    H140475   3.580   6.396   2.677
13506TIP3    H240476   3.574   6.292   2.568
13507TIP3   OH240477   5.004   3.548   3.414
13507TIP3    H140478   4.951   3.618   3.376
13507TIP3    H240479   5.065   3.593   3.473
13508TIP3   OH240480   1.735   3.733   1.137
13508TIP3    H140481   1.747   3.777   1.053
13508TIP3    H240482   1.820   3.693   1.155
13509TIP3   OH240483   1.953   4.911   5.735
13509TIP3    H140484   2.015   4.982   5.720
13509TIP3    H240485   1.884   4.925   5.669
13510TIP3   OH240486   3.232   6.779   5.364
13510TIP3    H140487   3.272   6.757   5.280
13510TIP3    H240488   3.234   6.875   5.367
13511TIP3   OH240489   7.635   3.775   4.940
13511TIP3    H140490   7.549   3.747   4.971
13511TIP3    H240491   7.619   3.805   4.850
13512TIP3   OH240492   3.751   0.305   1.710
13512TIP3    H140493   3.731   0.329   1.801
13512TIP3    H240494   3.757   0.389   1.664
13513TIP3   OH240495   3.737   7.490   3.637
13513TIP3    H140496   3.717   7.396   3.636
13513TIP3    H240497   3.753   7.510   3.729
13514TIP3   OH240498   0.499   5.595   6.298
13514TIP3    H140499   0.440   5.528   6.332
13514TIP3    H240500   0.583   5.550   6.289
13515TIP3   OH240501   3.436   3.477   2.897
13515TIP3    H140502   3.410   3.564   2.929
13515TIP3    H240503   3.531   3.474   2.912
13516TIP3   OH240504   7.988   4.819   0.818
13516TIP3    H140505   7.989   4.845   0.911
13516TIP3    H240506   7.948   4.733   0.817
13517TIP3   OH240507   3.230   1.144   0.129
13517TIP3    H140508   3.177   1.175   0.203
13517TIP3    H240509   3.184   1.067   0.096
13518TIP3   OH240510   5.514   4.004   5.657
13518TIP3    H140511   5.563   3.947   5.716
13518TIP3    H240512   5.422   3.985   5.677
13519TIP3   OH240513   2.983   4.043   3.163
13519TIP3    H140514   2.902   3.994   3.151
13519TIP3    H240515   3.039   4.014   3.091
13520TIP3   OH240516   3.911   6.251   0.059
13520TIP3    H140517   3.855   6.259  -0.018
13520TIP3    H240518   3.861   6.290   0.130
13521TIP3   OH240519   1.988   5.131   4.956
13521TIP3    H140520   1.967   5.190   5.029
13521TIP3    H240521   2.014   5.049   4.998
13522TIP3   OH240522   2.190   1.354   1.120
13522TIP3    H140523   2.105   1.317   1.144
13522TIP3    H240524   2.195   1.436   1.169
13523TIP3   OH240525   1.347   4.091   4.649
13523TIP3    H140526   1.401   4.063   4.575
13523TIP3    H240527   1.350   4.017   4.710
13524TIP3   OH240528   2.098   5.811   4.362
13524TIP3    H140529   2.095   5.715   4.364
13524TIP3    H240530   2.134   5.835   4.447
13525TIP3   OH240531   5.953   3.268   2.525
13525TIP3    H140532   5.905   3.254   2.606
13525TIP3    H240533   5.987   3.357   2.533
13526TIP3   OH240534   7.585   5.878   3.009
13526TIP3    H140535   7.609   5.851   3.097
13526TIP3    H240536   7.633   5.960   2.995
13527TIP3   OH240537   3.173   6.618   4.088
13527TIP3    H140538   3.122   6.698   4.078
13527TIP3    H240539   3.161   6.593   4.179
13528TIP3   OH240540   5.982   1.292   0.598
13528TIP3    H140541   6.027   1.233   0.657
13528TIP3    H240542   5.904   1.320   0.647
13529TIP3   OH240543   7.672   0.741   1.416
13529TIP3    H140544   7.670   0.659   1.465
13529TIP3    H240545   7.605   0.795   1.458
13530TIP3   OH240546   3.116   3.342   3.737
13530TIP3    H140547   3.042   3.375   3.687
13530TIP3    H240548   3.192   3.355   3.680
13531TIP3   OH240549   3.597   5.364   0.529
13531TIP3    H140550   3.538   5.440   0.534
13531TIP3    H240551   3.562   5.312   0.456
13532TIP3   OH240552   1.912   1.824   5.709
13532TIP3    H140553   1.878   1.774   5.783
13532TIP3    H240554   1.992   1.778   5.683
13533TIP3   OH240555   4.928   6.627   3.447
13533TIP3    H140556   4.947   6.535   3.465
13533TIP3    H240557   4.902   6.663   3.532
13534TIP3   OH240558   5.786   3.086   5.218
13534TIP3    H140559   5.842   3.020   5.178
13534TIP3    H240560   5.737   3.125   5.145
13535TIP3   OH240561   1.871   0.466   5.933
13535TIP3    H140562   1.914   0.381   5.922
13535TIP3    H240563   1.941   0.525   5.960
13536TIP3   OH240564   7.037   1.104   3.311
13536TIP3    H140565   7.106   1.170   3.302
13536TIP3    H240566   6.965   1.137   3.257
13537TIP3   OH240567   1.372   7.145   1.247
13537TIP3    H140568   1.448   7.192   1.280
13537TIP3    H240569   1.387   7.054   1.273
13538TIP3   OH240570   5.964   1.571   3.591
13538TIP3    H140571   5.942   1.520   3.668
13538TIP3    H240572   5.904   1.540   3.523
13539TIP3   OH240573   6.485   2.106   6.411
13539TIP3    H140574   6.482   2.032   6.350
13539TIP3    H240575   6.554   2.083   6.472
13540TIP3   OH240576   8.324   7.174   4.099
13540TIP3    H140577   8.398   7.113   4.111
13540TIP3    H240578   8.252   7.118   4.071
13541TIP3   OH240579   5.591   6.851   0.955
13541TIP3    H140580   5.603   6.859   1.049
13541TIP3    H240581   5.517   6.790   0.945
13542TIP3   OH240582   4.853   0.299   2.782
13542TIP3    H140583   4.860   0.388   2.816
13542TIP3    H240584   4.865   0.243   2.859
13543TIP3   OH240585   6.365   2.592   5.694
13543TIP3    H140586   6.441   2.538   5.716
13543TIP3    H240587   6.292   2.550   5.739
13544TIP3   OH240588   6.053   4.057   5.364
13544TIP3    H140589   6.010   4.106   5.434
13544TIP3    H240590   6.118   4.003   5.409
13545TIP3   OH240591   0.292   0.114   0.469
13545TIP3    H140592   0.248   0.046   0.418
13545TIP3    H240593   0.222   0.170   0.501
13546TIP3   OH240594   3.516   7.233   1.099
13546TIP3    H140595   3.497   7.223   1.192
13546TIP3    H240596   3.431   7.224   1.056
13547TIP3   OH240597   3.277   6.692   0.970
13547TIP3    H140598   3.305   6.783   0.980
13547TIP3    H240599   3.181   6.697   0.967
13548TIP3   OH240600   4.702   5.150   5.389
13548TIP3    H140601   4.616   5.193   5.390
13548TIP3    H240602   4.762   5.216   5.426
13549TIP3   OH240603   1.422   3.441   4.471
13549TIP3    H140604   1.402   3.527   4.508
13549TIP3    H240605   1.339   3.410   4.436
13550TIP3   OH240606   7.652   0.259   2.471
13550TIP3    H140607   7.683   0.347   2.449
13550TIP3    H240608   7.659   0.210   2.389
13551TIP3   OH240609   5.670   5.993   3.184
13551TIP3    H140610   5.708   6.006   3.098
13551TIP3    H240611   5.584   5.955   3.168
13552TIP3   OH240612   5.946   4.431   1.470
13552TIP3    H140613   5.922   4.486   1.544
13552TIP3    H240614   6.032   4.464   1.442
13553TIP3   OH240615   7.741   2.223   5.450
13553TIP3    H140616   7.652   2.191   5.462
13553TIP3    H240617   7.795   2.144   5.454
13554TIP3   OH240618   6.156   3.414   0.987
13554TIP3    H140619   6.125   3.475   1.054
13554TIP3    H240620   6.083   3.352   0.974
13555TIP3   OH240621   3.432   4.958   0.274
13555TIP3    H140622   3.441   4.909   0.356
13555TIP3    H240623   3.415   4.891   0.208
13556TIP3   OH240624   1.541   2.783   3.185
13556TIP3    H140625   1.450   2.768   3.209
13556TIP3    H240626   1.579   2.695   3.178
13557TIP3   OH240627   6.708   6.566   2.612
13557TIP3    H140628   6.617   6.593   2.606
13557TIP3    H240629   6.757   6.636   2.569
13558TIP3   OH240630   4.896   7.587   3.545
13558TIP3    H140631   4.869   7.555   3.459
13558TIP3    H240632   4.939   7.511   3.586
13559TIP3   OH240633   5.577   0.115   3.609
13559TIP3    H140634   5.566   0.041   3.550
13559TIP3    H240635   5.598   0.189   3.552
13560TIP3   OH240636   1.036   6.291   4.520
13560TIP3    H140637   1.068   6.266   4.606
13560TIP3    H240638   0.956   6.239   4.508
13561TIP3   OH240639   4.255   0.661   3.258
13561TIP3    H140640   4.301   0.728   3.207
13561TIP3    H240641   4.318   0.589   3.265
13562TIP3   OH240642   1.714   7.331   2.761
13562TIP3    H140643   1.779   7.359   2.825
13562TIP3    H240644   1.670   7.257   2.803
13563TIP3   OH240645   4.408   2.019   3.935
13563TIP3    H140646   4.455   2.102   3.946
13563TIP3    H240647   4.402   1.983   4.023
13564TIP3   OH240648   7.812   0.996   5.814
13564TIP3    H140649   7.878   1.063   5.833
13564TIP3    H240650   7.799   1.002   5.719
13565TIP3   OH240651   1.957   1.500   2.708
13565TIP3    H140652   1.903   1.422   2.699
13565TIP3    H240653   1.949   1.546   2.624
13566TIP3   OH240654   3.888   2.875   5.351
13566TIP3    H140655   3.811   2.850   5.402
13566TIP3    H240656   3.926   2.948   5.399
13567TIP3   OH240657   4.008   7.773   2.318
13567TIP3    H140658   4.038   7.683   2.326
13567TIP3    H240659   4.042   7.817   2.396
13568TIP3   OH240660   6.464   5.044   5.271
13568TIP3    H140661   6.407   5.121   5.263
13568TIP3    H240662   6.548   5.080   5.300
13569TIP3   OH240663   1.556   7.500   0.632
13569TIP3    H140664   1.508   7.578   0.606
13569TIP3    H240665   1.648   7.523   0.619
13570TIP3   OH240666   0.105   2.023   4.201
13570TIP3    H140667   0.032   1.978   4.159
13570TIP3    H240668   0.083   2.023   4.294
13571TIP3   OH240669   6.775   1.638   0.896
13571TIP3    H140670   6.796   1.604   0.983
13571TIP3    H240671   6.747   1.728   0.911
13572TIP3   OH240672   5.838   3.526   0.751
13572TIP3    H140673   5.789   3.604   0.725
13572TIP3    H240674   5.929   3.547   0.732
13573TIP3   OH240675   7.877   7.763   3.835
13573TIP3    H140676   7.917   7.746   3.750
13573TIP3    H240677   7.935   7.718   3.897
13574TIP3   OH240678   1.969   7.376   4.657
13574TIP3    H140679   1.933   7.418   4.579
13574TIP3    H240680   1.992   7.288   4.629
13575TIP3   OH240681   3.051   1.608   5.136
13575TIP3    H140682   3.056   1.605   5.041
13575TIP3    H240683   3.129   1.561   5.165
13576TIP3   OH240684   1.897   3.309   6.318
13576TIP3    H140685   1.833   3.255   6.364
13576TIP3    H240686   1.887   3.285   6.226
13577TIP3   OH240687   0.631   2.314   5.021
13577TIP3    H140688   0.567   2.321   4.950
13577TIP3    H240689   0.580   2.287   5.097
13578TIP3   OH240690   3.151   7.663   5.536
13578TIP3    H140691   3.097   7.628   5.466
13578TIP3    H240692   3.089   7.688   5.604
13579TIP3   OH240693   7.012   0.179   6.486
13579TIP3    H140694   7.097   0.136   6.489
13579TIP3    H240695   7.033   0.271   6.470
13580TIP3   OH240696   1.133   6.912   6.622
13580TIP3    H140697   1.141   6.877   6.534
13580TIP3    H240698   1.213   6.884   6.667
13581TIP3   OH240699   4.376   2.329   6.284
13581TIP3    H140700   4.292   2.371   6.302
13581TIP3    H240701   4.415   2.315   6.370
13582TIP3   OH240702   7.565   1.635   0.375
13582TIP3    H140703   7.598   1.693   0.306
13582TIP3    H240704   7.642   1.585   0.403
13583TIP3   OH240705   5.493   4.604   0.420
13583TIP3    H140706   5.509   4.656   0.340
13583TIP3    H240707   5.438   4.660   0.474
13584TIP3   OH240708   4.854   1.732   0.119
13584TIP3    H140709   4.920   1.743   0.187
13584TIP3    H240710   4.802   1.813   0.122
13585TIP3   OH240711   7.658   5.867   1.625
13585TIP3    H140712   7.601   5.793   1.603
13585TIP3    H240713   7.686   5.901   1.541
13586TIP3   OH240714   3.244   3.903   6.300
13586TIP3    H140715   3.217   3.814   6.325
13586TIP3    H240716   3.340   3.899   6.297
13587TIP3   OH240717   7.929   4.834   3.971
13587TIP3    H140718   7.946   4.863   4.060
13587TIP3    H240719   7.915   4.915   3.922
13588TIP3   OH240720   1.624   2.707   0.449
13588TIP3    H140721   1.593   2.794   0.473
13588TIP3    H240722   1.594   2.650   0.520
13589TIP3   OH240723   0.223   0.012   0.220
13589TIP3    H140724   0.194   0.094   0.181
13589TIP3    H240725   0.316   0.007   0.199
13590TIP3   OH240726   4.009   7.069   1.820
13590TIP3    H140727   3.915   7.051   1.825
13590TIP3    H240728   4.016   7.164   1.827
13591TIP3   OH240729   0.491   2.938   1.640
13591TIP3    H140730   0.559   3.004   1.635
13591TIP3    H240731   0.451   2.951   1.726
13592TIP3   OH240732   1.029   5.641   2.800
13592TIP3    H140733   0.996   5.581   2.866
13592TIP3    H240734   1.121   5.653   2.822
13593TIP3   OH240735   0.627   6.979   1.477
13593TIP3    H140736   0.721   6.965   1.464
13593TIP3    H240737   0.586   6.900   1.441
13594TIP3   OH240738   1.967   4.285   0.906
13594TIP3    H140739   1.917   4.351   0.954
13594TIP3    H240740   1.985   4.217   0.972
13595TIP3   OH240741   4.727   5.670   4.769
13595TIP3    H140742   4.650   5.617   4.749
13595TIP3    H240743   4.718   5.692   4.861
13596TIP3   OH240744   5.996   1.012   1.332
13596TIP3    H140745   5.918   1.065   1.347
13596TIP3    H240746   5.966   0.922   1.337
13597TIP3   OH240747   5.102   1.519   6.619
13597TIP3    H140748   5.106   1.587   6.552
13597TIP3    H240749   5.011   1.491   6.621
13598TIP3   OH240750   1.120   7.552   2.200
13598TIP3    H140751   1.194   7.492   2.188
13598TIP3    H240752   1.112   7.562   2.295
13599TIP3   OH240753   1.266   0.909   4.147
13599TIP3    H140754   1.245   0.913   4.240
13599TIP3    H240755   1.361   0.896   4.145
13600TIP3   OH240756   6.922   5.844   3.218
13600TIP3    H140757   6.990   5.900   3.181
13600TIP3    H240758   6.850   5.904   3.237
13601TIP3   OH240759   3.054   4.213   5.380
13601TIP3    H140760   3.112   4.200   5.305
13601TIP3    H240761   2.966   4.211   5.344
13602TIP3   OH240762   4.722   7.555   2.834
13602TIP3    H140763   4.708   7.461   2.846
13602TIP3    H240764   4.798   7.575   2.888
13603TIP3   OH240765   5.925   2.685   2.444
13603TIP3    H140766   5.984   2.641   2.505
13603TIP3    H240767   5.858   2.619   2.424
13604TIP3   OH240768   3.505   5.823   0.420
13604TIP3    H140769   3.570   5.765   0.380
13604TIP3    H240770   3.507   5.901   0.365
13605TIP3   OH240771   3.607   6.930   2.038
13605TIP3    H140772   3.643   6.969   2.118
13605TIP3    H240773   3.662   6.853   2.022
13606TIP3   OH240774   6.885   3.961   2.865
13606TIP3    H140775   6.846   3.965   2.778
13606TIP3    H240776   6.970   3.918   2.852
13607TIP3   OH240777   7.437   6.382   0.460
13607TIP3    H140778   7.491   6.361   0.537
13607TIP3    H240779   7.393   6.299   0.439
13608TIP3   OH240780   5.576   1.430   0.906
13608TIP3    H140781   5.632   1.502   0.935
13608TIP3    H240782   5.577   1.369   0.980
13609TIP3   OH240783   7.670   2.791   5.425
13609TIP3    H140784   7.747   2.802   5.369
13609TIP3    H240785   7.634   2.706   5.399
13610TIP3   OH240786   3.458   5.736   3.251
13610TIP3    H140787   3.486   5.828   3.243
13610TIP3    H240788   3.363   5.738   3.240
13611TIP3   OH240789   2.776   6.529   0.169
13611TIP3    H140790   2.707   6.516   0.235
13611TIP3    H240791   2.857   6.508   0.214
13612TIP3   OH240792   2.874   4.799   5.243
13612TIP3    H140793   2.873   4.816   5.149
13612TIP3    H240794   2.960   4.829   5.272
13613TIP3   OH240795   3.695   2.728   3.965
13613TIP3    H140796   3.613   2.769   3.935
13613TIP3    H240797   3.679   2.634   3.954
13614TIP3   OH240798   6.591   3.103   0.892
13614TIP3    H140799   6.588   3.191   0.931
13614TIP3    H240800   6.650   3.054   0.949
13615TIP3   OH240801   0.676   4.777   4.101
13615TIP3    H140802   0.632   4.704   4.059
13615TIP3    H240803   0.710   4.830   4.029
13616TIP3   OH240804   0.514   7.685   4.361
13616TIP3    H140805   0.537   7.608   4.309
13616TIP3    H240806   0.420   7.694   4.349
13617TIP3   OH240807   3.668   1.287   4.841
13617TIP3    H140808   3.599   1.284   4.774
13617TIP3    H240809   3.676   1.197   4.872
13618TIP3   OH240810   5.204   1.157   5.460
13618TIP3    H140811   5.281   1.138   5.406
13618TIP3    H240812   5.133   1.169   5.398
13619TIP3   OH240813   5.054   5.460   2.983
13619TIP3    H140814   5.106   5.382   2.999
13619TIP3    H240815   5.093   5.500   2.905
13620TIP3   OH240816   8.109   6.102   5.947
13620TIP3    H140817   8.053   6.160   5.999
13620TIP3    H240818   8.072   6.105   5.859
13621TIP3   OH240819   7.947   2.566   0.304
13621TIP3    H140820   8.020   2.569   0.241
13621TIP3    H240821   7.989   2.575   0.390
13622TIP3   OH240822   3.033   7.797   3.776
13622TIP3    H140823   3.055   7.734   3.844
13622TIP3    H240824   2.985   7.747   3.710
13623TIP3   OH240825   1.838   6.294   2.610
13623TIP3    H140826   1.871   6.361   2.671
13623TIP3    H240827   1.892   6.303   2.532
13624TIP3   OH240828   1.596   1.580   2.213
13624TIP3    H140829   1.610   1.576   2.308
13624TIP3    H240830   1.582   1.673   2.195
13625TIP3   OH240831   2.811   5.951   5.165
13625TIP3    H140832   2.761   5.985   5.090
13625TIP3    H240833   2.756   5.880   5.200
13626TIP3   OH240834   2.009   2.873   3.486
13626TIP3    H140835   1.920   2.878   3.450
13626TIP3    H240836   2.066   2.889   3.411
13627TIP3   OH240837   4.015   4.532   0.307
13627TIP3    H140838   4.005   4.627   0.308
13627TIP3    H240839   4.109   4.517   0.300
13628TIP3   OH240840   3.075   1.010   1.848
13628TIP3    H140841   3.021   1.040   1.775
13628TIP3    H240842   3.130   0.942   1.811
13629TIP3   OH240843   1.648   6.971   0.005
13629TIP3    H140844   1.584   6.964  -0.066
13629TIP3    H240845   1.599   7.013   0.076
13630TIP3   OH240846   6.508   5.787   4.630
13630TIP3    H140847   6.413   5.772   4.625
13630TIP3    H240848   6.544   5.701   4.654
13631TIP3   OH240849   1.150   5.530   0.160
13631TIP3    H140850   1.080   5.497   0.217
13631TIP3    H240851   1.105   5.562   0.082
13632TIP3   OH240852   1.106   0.144   4.461
13632TIP3    H140853   1.091   0.151   4.556
13632TIP3    H240854   1.025   0.176   4.422
13633TIP3   OH240855   4.408   1.741   3.333
13633TIP3    H140856   4.470   1.684   3.379
13633TIP3    H240857   4.336   1.752   3.395
13634TIP3   OH240858   2.662   6.083   4.974
13634TIP3    H140859   2.720   6.159   4.969
13634TIP3    H240860   2.649   6.057   4.882
13635TIP3   OH240861   0.199   5.287   3.908
13635TIP3    H140862   0.213   5.203   3.953
13635TIP3    H240863   0.124   5.271   3.850
13636TIP3   OH240864   5.002   5.758   5.157
13636TIP3    H140865   5.034   5.831   5.210
13636TIP3    H240866   5.042   5.772   5.071
13637TIP3   OH240867   1.242   0.135   3.844
13637TIP3    H140868   1.311   0.085   3.799
13637TIP3    H240869   1.186   0.069   3.883
13638TIP3   OH240870   2.517   2.943   2.804
13638TIP3    H140871   2.450   2.989   2.854
13638TIP3    H240872   2.592   2.936   2.863
13639TIP3   OH240873   8.127   7.536   1.950
13639TIP3    H140874   8.186   7.577   1.887
13639TIP3    H240875   8.113   7.448   1.916
13640TIP3   OH240876   7.817   0.390   3.528
13640TIP3    H140877   7.772   0.461   3.573
13640TIP3    H240878   7.765   0.373   3.449
13641TIP3   OH240879   4.452   0.073   2.076
13641TIP3    H140880   4.489   0.138   2.135
13641TIP3    H240881   4.406   0.125   2.009
13642TIP3   OH240882   4.570   6.509   2.691
13642TIP3    H140883   4.488   6.532   2.734
13642TIP3    H240884   4.638   6.543   2.749
13643TIP3   OH240885   3.230   0.157   5.382
13643TIP3    H140886   3.164   0.217   5.346
13643TIP3    H240887   3.232   0.177   5.476
13644TIP3   OH240888   2.030   3.358   2.842
13644TIP3    H140889   1.970   3.374   2.915
13644TIP3    H240890   2.100   3.305   2.880
13645TIP3   OH240891   7.888   2.376   5.244
13645TIP3    H140892   7.820   2.367   5.177
13645TIP3    H240893   7.852   2.333   5.321
13646TIP3   OH240894   4.832   7.218   0.231
13646TIP3    H140895   4.849   7.272   0.308
13646TIP3    H240896   4.885   7.140   0.243
13647TIP3   OH240897   5.422   3.648   1.889
13647TIP3    H140898   5.498   3.703   1.908
13647TIP3    H240899   5.403   3.665   1.797
13648TIP3   OH240900   6.702   0.431   5.627
13648TIP3    H140901   6.747   0.466   5.550
13648TIP3    H240902   6.715   0.497   5.695
13649TIP3   OH240903   7.040   7.321   5.942
13649TIP3    H140904   7.001   7.378   6.009
13649TIP3    H240905   6.988   7.338   5.863
13650TIP3   OH240906   0.033   3.735   1.047
13650TIP3    H140907   0.110   3.682   1.027
13650TIP3    H240908   0.041   3.756   1.140
13651TIP3   OH240909   2.075   4.219   1.843
13651TIP3    H140910   2.022   4.196   1.767
13651TIP3    H240911   2.013   4.259   1.905
13652TIP3   OH240912   2.996   0.141   6.167
13652TIP3    H140913   3.074   0.091   6.189
13652TIP3    H240914   2.925   0.096   6.212
13653TIP3   OH240915   1.803   2.217   2.754
13653TIP3    H140916   1.796   2.122   2.747
13653TIP3    H240917   1.888   2.232   2.795
13654TIP3   OH240918   1.869   0.449   6.333
13654TIP3    H140919   1.784   0.485   6.309
13654TIP3    H240920   1.916   0.523   6.373
13655TIP3   OH240921   4.794   1.401   5.010
13655TIP3    H140922   4.802   1.403   5.106
13655TIP3    H240923   4.729   1.468   4.990
13656TIP3   OH240924   1.303   3.365   2.812
13656TIP3    H140925   1.222   3.400   2.776
13656TIP3    H240926   1.276   3.288   2.861
13657TIP3   OH240927   4.360   3.535   1.508
13657TIP3    H140928   4.324   3.473   1.444
13657TIP3    H240929   4.448   3.503   1.525
13658TIP3   OH240930   6.335   6.093   3.027
13658TIP3    H140931   6.352   6.180   2.988
13658TIP3    H240932   6.336   6.034   2.952
13659TIP3   OH240933   6.147   7.034   5.222
13659TIP3    H140934   6.144   7.124   5.190
13659TIP3    H240935   6.056   7.005   5.218
13660TIP3   OH240936   2.916   0.951   0.825
13660TIP3    H140937   2.982   0.901   0.777
13660TIP3    H240938   2.887   0.891   0.894
13661TIP3   OH240939   0.693   3.354   5.476
13661TIP3    H140940   0.664   3.287   5.538
13661TIP3    H240941   0.788   3.354   5.483
13662TIP3   OH240942   8.298   6.831   4.064
13662TIP3    H140943   8.312   6.781   3.984
13662TIP3    H240944   8.204   6.826   4.079
13663TIP3   OH240945   1.865   4.085   2.883
13663TIP3    H140946   1.773   4.108   2.893
13663TIP3    H240947   1.894   4.134   2.807
13664TIP3   OH240948   2.666   5.698   5.216
13664TIP3    H140949   2.651   5.681   5.309
13664TIP3    H240950   2.579   5.705   5.178
13665TIP3   OH240951   8.017   2.768   1.710
13665TIP3    H140952   7.984   2.688   1.750
13665TIP3    H240953   8.111   2.754   1.701
13666TIP3   OH240954   2.961   5.090   3.389
13666TIP3    H140955   2.974   5.038   3.310
13666TIP3    H240956   2.989   5.033   3.460
13667TIP3   OH240957   0.565   0.299   2.840
13667TIP3    H140958   0.540   0.386   2.870
13667TIP3    H240959   0.621   0.315   2.764
13668TIP3   OH240960   3.241   6.917   1.867
13668TIP3    H140961   3.219   7.008   1.845
13668TIP3    H240962   3.216   6.867   1.789
13669TIP3   OH240963   7.367   6.993   1.745
13669TIP3    H140964   7.415   6.916   1.715
13669TIP3    H240965   7.275   6.969   1.734
13670TIP3   OH240966   4.420   4.868   3.603
13670TIP3    H140967   4.463   4.953   3.610
13670TIP3    H240968   4.415   4.851   3.508
13671TIP3   OH240969   7.284   1.652   4.429
13671TIP3    H140970   7.280   1.747   4.426
13671TIP3    H240971   7.311   1.631   4.518
13672TIP3   OH240972   7.908   4.883   6.109
13672TIP3    H140973   7.909   4.978   6.095
13672TIP3    H240974   7.992   4.853   6.075
13673TIP3   OH240975   5.115   6.720   3.021
13673TIP3    H140976   5.203   6.690   3.044
13673TIP3    H240977   5.060   6.689   3.093
13674TIP3   OH240978   5.110   6.999   2.289
13674TIP3    H140979   5.091   7.078   2.339
13674TIP3    H240980   5.024   6.961   2.270
13675TIP3   OH240981   6.687   4.852   1.412
13675TIP3    H140982   6.726   4.764   1.414
13675TIP3    H240983   6.735   4.901   1.479
13676TIP3   OH240984   0.779   2.054   1.411
13676TIP3    H140985   0.857   2.035   1.358
13676TIP3    H240986   0.793   2.007   1.493
13677TIP3   OH240987   1.054   4.931   3.665
13677TIP3    H140988   0.989   4.965   3.603
13677TIP3    H240989   1.009   4.935   3.750
13678TIP3   OH240990   2.397   3.847   4.512
13678TIP3    H140991   2.473   3.834   4.569
13678TIP3    H240992   2.403   3.775   4.449
13679TIP3   OH240993   3.249   7.274   2.636
13679TIP3    H140994   3.195   7.353   2.643
13679TIP3    H240995   3.237   7.245   2.546
13680TIP3   OH240996   0.163   4.532   6.452
13680TIP3    H140997   0.216   4.561   6.378
13680TIP3    H240998   0.225   4.519   6.523
13681TIP3   OH240999   6.948   0.063   1.777
13681TIP3    H141000   6.884   0.128   1.806
13681TIP3    H241001   6.927   0.048   1.685
13682TIP3   OH241002   3.217   1.772   1.882
13682TIP3    H141003   3.259   1.739   1.803
13682TIP3    H241004   3.135   1.723   1.887
13683TIP3   OH241005   7.203   7.379   0.772
13683TIP3    H141006   7.190   7.291   0.808
13683TIP3    H241007   7.250   7.426   0.841
13684TIP3   OH241008   3.750   4.606   5.702
13684TIP3    H141009   3.699   4.637   5.628
13684TIP3    H241010   3.688   4.558   5.756
13685TIP3   OH241011   4.554   2.569   0.141
13685TIP3    H141012   4.547   2.660   0.171
13685TIP3    H241013   4.466   2.545   0.113
13686TIP3   OH241014   0.168   2.458   4.933
13686TIP3    H141015   0.096   2.441   4.872
13686TIP3    H241016   0.234   2.504   4.880
13687TIP3   OH241017   1.858   1.512   3.780
13687TIP3    H141018   1.902   1.427   3.780
13687TIP3    H241019   1.769   1.493   3.751
13688TIP3   OH241020   5.105   3.440   4.346
13688TIP3    H141021   5.064   3.356   4.363
13688TIP3    H241022   5.047   3.504   4.386
13689TIP3   OH241023   0.475   2.844   0.622
13689TIP3    H141024   0.534   2.843   0.546
13689TIP3    H241025   0.510   2.777   0.680
13690TIP3   OH241026   2.489   2.043   6.603
13690TIP3    H141027   2.398   2.072   6.593
13690TIP3    H241028   2.534   2.116   6.645
13691TIP3   OH241029   0.510   2.441   6.485
13691TIP3    H141030   0.520   2.486   6.400
13691TIP3    H241031   0.574   2.483   6.542
13692TIP3   OH241032   6.552   2.752   2.527
13692TIP3    H141033   6.616   2.691   2.564
13692TIP3    H241034   6.470   2.730   2.571
13693TIP3   OH241035   2.770   6.131   1.804
13693TIP3    H141036   2.777   6.218   1.843
13693TIP3    H241037   2.701   6.088   1.856
13694TIP3   OH241038   2.327   4.441   0.189
13694TIP3    H141039   2.276   4.392   0.124
13694TIP3    H241040   2.372   4.508   0.139
13695TIP3   OH241041   2.176   5.255   3.904
13695TIP3    H141042   2.210   5.343   3.922
13695TIP3    H241043   2.220   5.198   3.967
13696TIP3   OH241044   4.371   7.713   2.563
13696TIP3    H141045   4.364   7.654   2.487
13696TIP3    H241046   4.416   7.661   2.630
13697TIP3   OH241047   0.505   0.978   5.617
13697TIP3    H141048   0.509   1.042   5.545
13697TIP3    H241049   0.419   0.991   5.655
13698TIP3   OH241050   1.208   0.834   2.477
13698TIP3    H141051   1.173   0.922   2.490
13698TIP3    H241052   1.212   0.824   2.381
13699TIP3   OH241053   2.084   0.893   6.637
13699TIP3    H141054   2.062   0.889   6.730
13699TIP3    H241055   2.160   0.835   6.628
13700TIP3   OH241056   4.230   1.607   3.593
13700TIP3    H141057   4.165   1.675   3.573
13700TIP3    H241058   4.304   1.655   3.630
13701TIP3   OH241059   0.737   3.645   1.688
13701TIP3    H141060   0.701   3.624   1.602
13701TIP3    H241061   0.714   3.571   1.744
13702TIP3   OH241062   0.356   6.057   5.115
13702TIP3    H141063   0.272   6.069   5.158
13702TIP3    H241064   0.410   6.130   5.145
13703TIP3   OH241065   3.944   4.380   6.256
13703TIP3    H141066   3.975   4.366   6.166
13703TIP3    H241067   3.850   4.398   6.246
13704TIP3   OH241068   4.613   4.518   3.621
13704TIP3    H141069   4.647   4.607   3.612
13704TIP3    H241070   4.631   4.477   3.537
13705TIP3   OH241071   1.614   6.545   1.939
13705TIP3    H141072   1.708   6.556   1.948
13705TIP3    H241073   1.577   6.601   2.007
13706TIP3   OH241074   6.437   2.649   0.066
13706TIP3    H141075   6.369   2.602   0.017
13706TIP3    H241076   6.519   2.625   0.021
13707TIP3   OH241077   3.485   7.059   1.559
13707TIP3    H141078   3.404   7.060   1.508
13707TIP3    H241079   3.486   6.974   1.602
13708TIP3   OH241080   5.202   7.327   1.447
13708TIP3    H141081   5.121   7.278   1.432
13708TIP3    H241082   5.215   7.376   1.366
13709TIP3   OH241083   1.829   5.508   1.447
13709TIP3    H141084   1.872   5.593   1.437
13709TIP3    H241085   1.901   5.445   1.442
13710TIP3   OH241086   7.635   1.366   2.247
13710TIP3    H141087   7.637   1.323   2.333
13710TIP3    H241088   7.598   1.301   2.188
13711TIP3   OH241089   1.535   7.317   4.137
13711TIP3    H141090   1.528   7.239   4.083
13711TIP3    H241091   1.487   7.385   4.088
13712TIP3   OH241092   4.198   4.380   6.364
13712TIP3    H141093   4.200   4.357   6.457
13712TIP3    H241094   4.106   4.399   6.346
13713TIP3   OH241095   3.664   4.700   0.709
13713TIP3    H141096   3.600   4.688   0.779
13713TIP3    H241097   3.744   4.727   0.753
13714TIP3   OH241098   7.690   5.561   6.163
13714TIP3    H141099   7.689   5.565   6.259
13714TIP3    H241100   7.722   5.647   6.136
13715TIP3   OH241101   3.755   0.828   3.026
13715TIP3    H141102   3.709   0.820   2.942
13715TIP3    H241103   3.824   0.893   3.010
13716TIP3   OH241104   3.805   7.016   4.915
13716TIP3    H141105   3.741   6.946   4.926
13716TIP3    H241106   3.820   7.019   4.821
13717TIP3   OH241107   5.444   1.351   3.855
13717TIP3    H141108   5.407   1.407   3.787
13717TIP3    H241109   5.507   1.408   3.900
13718TIP3   OH241110   0.156   6.966   2.767
13718TIP3    H141111   0.135   6.987   2.677
13718TIP3    H241112   0.203   7.042   2.800
13719TIP3   OH241113   6.649   1.078   1.463
13719TIP3    H141114   6.623   1.034   1.544
13719TIP3    H241115   6.656   1.171   1.487
13720TIP3   OH241116   0.294   7.166   3.249
13720TIP3    H141117   0.288   7.247   3.199
13720TIP3    H241118   0.345   7.107   3.193
13721TIP3   OH241119   0.878   1.399   6.265
13721TIP3    H141120   0.917   1.475   6.308
13721TIP3    H241121   0.944   1.330   6.273
13722TIP3   OH241122   2.785   0.395   0.928
13722TIP3    H141123   2.844   0.325   0.959
13722TIP3    H241124   2.698   0.366   0.955
13723TIP3   OH241125   3.214   5.571   6.169
13723TIP3    H141126   3.182   5.482   6.184
13723TIP3    H241127   3.176   5.596   6.085
13724TIP3   OH241128   7.477   2.327   3.062
13724TIP3    H141129   7.398   2.335   3.010
13724TIP3    H241130   7.458   2.376   3.143
13725TIP3   OH241131   0.309   1.105   6.271
13725TIP3    H141132   0.319   1.128   6.178
13725TIP3    H241133   0.355   1.174   6.318
13726TIP3   OH241134   0.066   1.476   4.024
13726TIP3    H141135   0.043   1.456   3.934
13726TIP3    H241136   0.132   1.410   4.047
13727TIP3   OH241137   5.334   4.569   0.671
13727TIP3    H141138   5.403   4.507   0.648
13727TIP3    H241139   5.362   4.606   0.755
13728TIP3   OH241140   4.362   5.683   4.254
13728TIP3    H141141   4.281   5.727   4.228
13728TIP3    H241142   4.403   5.658   4.172
13729TIP3   OH241143   2.035   6.646   3.760
13729TIP3    H141144   2.007   6.634   3.851
13729TIP3    H241145   1.955   6.667   3.713
13730TIP3   OH241146   2.273   7.360   1.944
13730TIP3    H141147   2.216   7.284   1.954
13730TIP3    H241148   2.338   7.350   2.014
13731TIP3   OH241149   7.833   0.537   1.862
13731TIP3    H141150   7.837   0.456   1.811
13731TIP3    H241151   7.918   0.540   1.907
13732TIP3   OH241152   4.267   5.430   5.373
13732TIP3    H141153   4.195   5.391   5.323
13732TIP3    H241154   4.259   5.524   5.357
13733TIP3   OH241155   1.728   2.735   6.460
13733TIP3    H141156   1.760   2.647   6.443
13733TIP3    H241157   1.653   2.722   6.519
13734TIP3   OH241158   3.928   4.078   0.051
13734TIP3    H141159   4.015   4.113   0.071
13734TIP3    H241160   3.911   4.013   0.119
13735TIP3   OH241161   7.193   1.228   4.868
13735TIP3    H141162   7.172   1.317   4.840
13735TIP3    H241163   7.288   1.224   4.865
13736TIP3   OH241164   3.741   2.193   5.363
13736TIP3    H141165   3.776   2.281   5.378
13736TIP3    H241166   3.666   2.187   5.422
13737TIP3   OH241167   8.181   3.487   5.303
13737TIP3    H141168   8.184   3.513   5.211
13737TIP3    H241169   8.269   3.453   5.321
13738TIP3   OH241170   1.329   7.516   3.592
13738TIP3    H141171   1.393   7.471   3.646
13738TIP3    H241172   1.316   7.600   3.635
13739TIP3   OH241173   1.519   3.919   1.521
13739TIP3    H141174   1.554   3.995   1.569
13739TIP3    H241175   1.547   3.933   1.431
13740TIP3   OH241176   0.502   4.292   4.378
13740TIP3    H141177   0.473   4.383   4.377
13740TIP3    H241178   0.518   4.272   4.470
13741TIP3   OH241179   2.198   5.605   5.159
13741TIP3    H141180   2.106   5.580   5.153
13741TIP3    H241181   2.245   5.521   5.158
13742TIP3   OH241182   7.572   4.991   2.065
13742TIP3    H141183   7.546   5.081   2.045
13742TIP3    H241184   7.506   4.961   2.128
13743TIP3   OH241185   8.031   3.935   6.124
13743TIP3    H141186   8.032   4.014   6.178
13743TIP3    H241187   7.968   3.955   6.055
13744TIP3   OH241188   4.286   7.578   5.475
13744TIP3    H141189   4.200   7.539   5.462
13744TIP3    H241190   4.276   7.633   5.553
13745TIP3   OH241191   6.120   7.548   5.018
13745TIP3    H141192   6.026   7.556   5.031
13745TIP3    H241193   6.133   7.566   4.924
13746TIP3   OH241194   0.966   2.257   6.017
13746TIP3    H141195   1.027   2.331   6.015
13746TIP3    H241196   0.980   2.217   6.103
13747TIP3   OH241197   6.205   6.125   1.485
13747TIP3    H141198   6.293   6.088   1.480
13747TIP3    H241199   6.152   6.067   1.430
13748TIP3   OH241200   4.762   1.714   6.667
13748TIP3    H141201   4.803   1.707   6.754
13748TIP3    H241202   4.762   1.624   6.634
13749TIP3   OH241203   0.089   3.808   2.149
13749TIP3    H141204   0.042   3.869   2.206
13749TIP3    H241205   0.170   3.788   2.196
13750TIP3   OH241206   0.374   7.126   0.865
13750TIP3    H141207   0.464   7.124   0.833
13750TIP3    H241208   0.374   7.069   0.942
13751TIP3   OH241209   3.679   0.346   0.681
13751TIP3    H141210   3.717   0.416   0.733
13751TIP3    H241211   3.742   0.274   0.688
13752TIP3   OH241212   4.765   1.549   6.110
13752TIP3    H141213   4.853   1.511   6.103
13752TIP3    H241214   4.777   1.628   6.162
13753TIP3   OH241215   7.575   6.846   6.474
13753TIP3    H141216   7.518   6.793   6.530
13753TIP3    H241217   7.585   6.795   6.394
13754TIP3   OH241218   7.007   5.095   0.292
13754TIP3    H141219   7.008   5.125   0.201
13754TIP3    H241220   7.099   5.081   0.314
13755TIP3   OH241221   1.343   1.246   1.432
13755TIP3    H141222   1.261   1.277   1.470
13755TIP3    H241223   1.411   1.300   1.473
13756TIP3   OH241224   5.474   1.006   5.679
13756TIP3    H141225   5.505   1.082   5.629
13756TIP3    H241226   5.380   1.003   5.662
13757TIP3   OH241227   0.926   1.133   6.045
13757TIP3    H141228   0.879   1.143   5.963
13757TIP3    H241229   0.897   1.049   6.080
13758TIP3   OH241230   4.377   3.030   2.968
13758TIP3    H141231   4.315   2.958   2.969
13758TIP3    H241232   4.410   3.033   2.879
13759TIP3   OH241233   3.007   3.263   5.032
13759TIP3    H141234   2.944   3.335   5.027
13759TIP3    H241235   3.091   3.307   5.047
13760TIP3   OH241236   2.330   6.096   0.768
13760TIP3    H141237   2.247   6.144   0.760
13760TIP3    H241238   2.311   6.027   0.831
13761TIP3   OH241239   0.527   3.422   3.560
13761TIP3    H141240   0.493   3.391   3.644
13761TIP3    H241241   0.461   3.394   3.495
13762TIP3   OH241242   2.998   5.513   4.161
13762TIP3    H141243   3.079   5.563   4.153
13762TIP3    H241244   3.027   5.422   4.174
13763TIP3   OH241245   0.956   0.780   0.459
13763TIP3    H141246   0.903   0.756   0.535
13763TIP3    H241247   0.934   0.872   0.442
13764TIP3   OH241248   6.853   7.691   6.089
13764TIP3    H141249   6.859   7.758   6.158
13764TIP3    H241250   6.919   7.626   6.114
13765TIP3   OH241251   2.588   5.315   0.774
13765TIP3    H141252   2.608   5.337   0.865
13765TIP3    H241253   2.596   5.219   0.771
13766TIP3   OH241254   2.545   3.998   2.083
13766TIP3    H141255   2.601   3.925   2.107
13766TIP3    H241256   2.569   4.018   1.992
13767TIP3   OH241257   2.001   0.275   6.167
13767TIP3    H141258   2.000   0.188   6.207
13767TIP3    H241259   1.928   0.321   6.208
13768TIP3   OH241260   1.259   4.523   1.123
13768TIP3    H141261   1.197   4.496   1.191
13768TIP3    H241262   1.300   4.441   1.094
13769TIP3   OH241263   6.811   2.252   5.854
13769TIP3    H141264   6.906   2.242   5.847
13769TIP3    H241265   6.775   2.185   5.795
13770TIP3   OH241266   7.706   4.428   4.912
13770TIP3    H141267   7.620   4.388   4.901
13770TIP3    H241268   7.762   4.356   4.942
13771TIP3   OH241269   6.816   0.855   5.598
13771TIP3    H141270   6.814   0.819   5.687
13771TIP3    H241271   6.841   0.781   5.543
13772TIP3   OH241272   2.042   1.439   0.240
13772TIP3    H141273   1.985   1.448   0.164
13772TIP3    H241274   2.045   1.526   0.279
13773TIP3   OH241275   5.312   4.006   4.005
13773TIP3    H141276   5.395   3.992   4.051
13773TIP3    H241277   5.297   3.925   3.956
13774TIP3   OH241278   4.865   7.408   6.362
13774TIP3    H141279   4.782   7.446   6.333
13774TIP3    H241280   4.914   7.394   6.282
13775TIP3   OH241281   6.319   1.138   6.011
13775TIP3    H141282   6.299   1.064   6.068
13775TIP3    H241283   6.387   1.105   5.951
13776TIP3   OH241284   2.005   7.398   4.356
13776TIP3    H141285   1.986   7.476   4.407
13776TIP3    H241286   2.088   7.417   4.313
13777TIP3   OH241287   5.855   2.389   5.184
13777TIP3    H141288   5.877   2.297   5.201
13777TIP3    H241289   5.770   2.402   5.227
13778TIP3   OH241290   4.760   3.645   5.578
13778TIP3    H141291   4.828   3.670   5.516
13778TIP3    H241292   4.764   3.549   5.581
13779TIP3   OH241293   2.592   7.194   4.603
13779TIP3    H141294   2.661   7.222   4.543
13779TIP3    H241295   2.639   7.172   4.684
13780TIP3   OH241296   2.568   4.082   3.178
13780TIP3    H141297   2.476   4.054   3.176
13780TIP3    H241298   2.617   4.000   3.183
13781TIP3   OH241299   7.033   2.017   1.479
13781TIP3    H141300   7.076   2.099   1.506
13781TIP3    H241301   6.940   2.036   1.483
13782TIP3   OH241302   1.417   6.221   4.206
13782TIP3    H141303   1.460   6.147   4.251
13782TIP3    H241304   1.325   6.215   4.233
13783TIP3   OH241305   0.065   6.472   5.480
13783TIP3    H141306   0.077   6.475   5.385
13783TIP3    H241307   0.139   6.524   5.515
13784TIP3   OH241308   0.882   5.119   3.497
13784TIP3    H141309   0.848   5.208   3.500
13784TIP3    H241310   0.827   5.070   3.557
13785TIP3   OH241311   3.204   1.715   3.391
13785TIP3    H141312   3.186   1.678   3.305
13785TIP3    H241313   3.125   1.697   3.443
13786TIP3   OH241314   4.348   4.421   1.915
13786TIP3    H141315   4.351   4.509   1.950
13786TIP3    H241316   4.436   4.405   1.881
13787TIP3   OH241317   2.993   2.440   1.052
13787TIP3    H141318   3.009   2.366   0.994
13787TIP3    H241319   2.900   2.435   1.072
13788TIP3   OH241320   6.364   7.508   2.536
13788TIP3    H141321   6.407   7.524   2.452
13788TIP3    H241322   6.271   7.526   2.519
13789TIP3   OH241323   6.514   6.590   0.181
13789TIP3    H141324   6.460   6.511   0.182
13789TIP3    H241325   6.451   6.662   0.184
13790TIP3   OH241326   7.198   6.429   1.446
13790TIP3    H141327   7.135   6.462   1.511
13790TIP3    H241328   7.284   6.446   1.484
13791TIP3   OH241329   0.536   4.289   6.009
13791TIP3    H141330   0.541   4.198   5.981
13791TIP3    H241331   0.474   4.329   5.948
13792TIP3   OH241332   8.080   3.342   2.188
13792TIP3    H141333   8.102   3.282   2.117
13792TIP3    H241334   8.098   3.429   2.152
13793TIP3   OH241335   7.695   2.179   2.955
13793TIP3    H141336   7.635   2.225   3.013
13793TIP3    H241337   7.659   2.090   2.950
13794TIP3   OH241338   2.887   5.605   4.419
13794TIP3    H141339   2.922   5.538   4.360
13794TIP3    H241340   2.795   5.580   4.431
13795TIP3   OH241341   7.922   1.482   2.949
13795TIP3    H141342   7.980   1.558   2.947
13795TIP3    H241343   7.943   1.433   2.869
13796TIP3   OH241344   5.229   7.022   5.036
13796TIP3    H141345   5.224   7.114   5.064
13796TIP3    H241346   5.314   7.015   4.992
13797TIP3   OH241347   5.076   7.381   2.137
13797TIP3    H141348   5.102   7.437   2.064
13797TIP3    H241349   5.140   7.310   2.137
13798TIP3   OH241350   2.062   6.791   4.679
13798TIP3    H141351   2.141   6.764   4.726
13798TIP3    H241352   2.032   6.712   4.634
13799TIP3   OH241353   4.734   6.343   3.026
13799TIP3    H141354   4.687   6.305   3.100
13799TIP3    H241355   4.670   6.402   2.985
13800TIP3   OH241356   5.690   3.160   4.731
13800TIP3    H141357   5.622   3.103   4.767
13800TIP3    H241358   5.645   3.244   4.717
13801TIP3   OH241359   5.778   7.261   5.588
13801TIP3    H141360   5.703   7.214   5.551
13801TIP3    H241361   5.854   7.221   5.546
13802TIP3   OH241362   8.083   1.562   4.007
13802TIP3    H141363   8.040   1.498   4.063
13802TIP3    H241364   8.175   1.538   4.009
13803TIP3   OH241365   5.086   3.744   2.492
13803TIP3    H141366   5.109   3.681   2.424
13803TIP3    H241367   5.119   3.704   2.573
13804TIP3   OH241368   5.054   3.328   1.008
13804TIP3    H141369   5.115   3.363   1.072
13804TIP3    H241370   5.094   3.246   0.979
13805TIP3   OH241371   3.182   7.671   6.613
13805TIP3    H141372   3.217   7.758   6.636
13805TIP3    H241373   3.259   7.622   6.584
13806TIP3   OH241374   7.988   5.649   0.506
13806TIP3    H141375   7.914   5.589   0.490
13806TIP3    H241376   8.059   5.591   0.533
13807TIP3   OH241377   0.018   3.014   4.449
13807TIP3    H141378   0.077   2.994   4.377
13807TIP3    H241379  -0.060   2.960   4.432
13808TIP3   OH241380   5.762   6.190   6.238
13808TIP3    H141381   5.805   6.250   6.299
13808TIP3    H241382   5.673   6.223   6.231
13809TIP3   OH241383   4.817   3.816   0.980
13809TIP3    H141384   4.756   3.841   0.910
13809TIP3    H241385   4.864   3.740   0.945
13810TIP3   OH241386   6.838   0.657   1.352
13810TIP3    H141387   6.805   0.738   1.313
13810TIP3    H241388   6.930   0.675   1.370
13811TIP3   OH241389   0.857   4.357   4.270
13811TIP3    H141390   0.812   4.346   4.354
13811TIP3    H241391   0.869   4.452   4.262
13812TIP3   OH241392   0.588   0.570   0.130
13812TIP3    H141393   0.642   0.636   0.172
13812TIP3    H241394   0.584   0.598   0.038
13813TIP3   OH241395   1.418   4.059   5.052
13813TIP3    H141396   1.493   4.011   5.087
13813TIP3    H241397   1.431   4.149   5.081
13814TIP3   OH241398   8.230   2.497   6.382
13814TIP3    H141399   8.255   2.581   6.342
13814TIP3    H241400   8.254   2.507   6.474
13815TIP3   OH241401   3.417   5.144   2.580
13815TIP3    H141402   3.426   5.238   2.596
13815TIP3    H241403   3.322   5.130   2.574
13816TIP3   OH241404   3.311   4.560   3.246
13816TIP3    H141405   3.382   4.598   3.193
13816TIP3    H241406   3.278   4.488   3.193
13817TIP3   OH241407   4.154   1.827   3.082
13817TIP3    H141408   4.169   1.893   3.150
13817TIP3    H241409   4.073   1.784   3.108
13818TIP3   OH241410   7.742   5.491   3.828
13818TIP3    H141411   7.721   5.498   3.921
13818TIP3    H241412   7.702   5.568   3.788
13819TIP3   OH241413   5.396   0.003   1.348
13819TIP3    H141414   5.396   0.065   1.275
13819TIP3    H241415   5.304  -0.001   1.375
13820TIP3   OH241416   6.287   5.016   4.770
13820TIP3    H141417   6.358   5.050   4.715
13820TIP3    H241418   6.275   5.082   4.838
13821TIP3   OH241419   3.483   0.963   5.542
13821TIP3    H141420   3.570   0.985   5.509
13821TIP3    H241421   3.494   0.877   5.583
13822TIP3   OH241422   5.431   2.301   1.809
13822TIP3    H141423   5.445   2.342   1.894
13822TIP3    H241424   5.342   2.327   1.785
13823TIP3   OH241425   8.044   4.293   0.066
13823TIP3    H141426   7.992   4.331  -0.004
13823TIP3    H241427   7.980   4.261   0.130
13824TIP3   OH241428   6.168   1.068   1.581
13824TIP3    H141429   6.187   1.032   1.495
13824TIP3    H241430   6.162   1.163   1.567
13825TIP3   OH241431   6.798   7.103   3.800
13825TIP3    H141432   6.726   7.053   3.840
13825TIP3    H241433   6.876   7.052   3.821
13826TIP3   OH241434   1.842   6.087   1.829
13826TIP3    H141435   1.770   6.061   1.888
13826TIP3    H241436   1.811   6.169   1.789
13827TIP3   OH241437   8.050   7.738   1.047
13827TIP3    H141438   8.024   7.807   1.109
13827TIP3    H241439   8.129   7.701   1.085
13828TIP3   OH241440   2.013   0.489   6.734
13828TIP3    H141441   2.062   0.408   6.745
13828TIP3    H241442   1.953   0.492   6.809
13829TIP3   OH241443   8.236   7.580   2.719
13829TIP3    H141444   8.257   7.519   2.648
13829TIP3    H241445   8.289   7.550   2.792
13830TIP3   OH241446   6.457   0.876   5.111
13830TIP3    H141447   6.495   0.792   5.139
13830TIP3    H241448   6.366   0.873   5.141
13831TIP3   OH241449   8.266   2.847   5.609
13831TIP3    H141450   8.339   2.807   5.657
13831TIP3    H241451   8.195   2.853   5.673
13832TIP3   OH241452   1.640   7.430   5.441
13832TIP3    H141453   1.704   7.390   5.382
13832TIP3    H241454   1.555   7.401   5.408
13833TIP3   OH241455   0.126   4.732   5.368
13833TIP3    H141456   0.085   4.749   5.453
13833TIP3    H241457   0.086   4.650   5.338
13834TIP3   OH241458   8.094   5.920   0.479
13834TIP3    H141459   8.149   5.941   0.554
13834TIP3    H241460   8.058   5.834   0.499
13835TIP3   OH241461   5.755   0.552   3.851
13835TIP3    H141462   5.788   0.471   3.889
13835TIP3    H241463   5.714   0.525   3.768
13836TIP3   OH241464   6.119   5.764   3.505
13836TIP3    H141465   6.029   5.780   3.477
13836TIP3    H241466   6.127   5.669   3.508
13837TIP3   OH241467   1.742   5.320   1.984
13837TIP3    H141468   1.795   5.291   1.910
13837TIP3    H241469   1.671   5.371   1.943
13838TIP3   OH241470   4.324   7.315   5.664
13838TIP3    H141471   4.236   7.280   5.673
13838TIP3    H241472   4.313   7.410   5.663
13839TIP3   OH241473   3.509   5.631   1.408
13839TIP3    H141474   3.462   5.548   1.410
13839TIP3    H241475   3.598   5.608   1.383
13840TIP3   OH241476   7.694   1.788   4.618
13840TIP3    H141477   7.785   1.810   4.639
13840TIP3    H241478   7.695   1.768   4.524
13841TIP3   OH241479   0.907   1.089   1.397
13841TIP3    H141480   0.821   1.046   1.392
13841TIP3    H241481   0.959   1.046   1.329
13842TIP3   OH241482   4.074   4.472   3.400
13842TIP3    H141483   4.113   4.527   3.332
13842TIP3    H241484   4.016   4.531   3.448
13843TIP3   OH241485   2.051   6.729   6.174
13843TIP3    H141486   2.041   6.807   6.120
13843TIP3    H241487   2.090   6.761   6.255
13844TIP3   OH241488   0.426   7.009   2.615
13844TIP3    H141489   0.398   6.927   2.654
13844TIP3    H241490   0.412   7.074   2.684
13845TIP3   OH241491   2.093   4.477   2.974
13845TIP3    H141492   2.058   4.444   3.056
13845TIP3    H241493   2.028   4.452   2.908
13846TIP3   OH241494   1.393   1.573   0.764
13846TIP3    H141495   1.365   1.588   0.674
13846TIP3    H241496   1.479   1.531   0.757
13847TIP3   OH241497   4.635   0.814   1.764
13847TIP3    H141498   4.678   0.807   1.850
13847TIP3    H241499   4.543   0.793   1.782
13848TIP3   OH241500   0.769   6.313   5.353
13848TIP3    H141501   0.804   6.252   5.419
13848TIP3    H241502   0.677   6.324   5.377
13849TIP3   OH241503   0.598   5.929   5.680
13849TIP3    H141504   0.515   5.889   5.705
13849TIP3    H241505   0.665   5.872   5.717
13850TIP3   OH241506   5.993   0.661   4.070
13850TIP3    H141507   6.018   0.686   3.981
13850TIP3    H241508   5.913   0.610   4.060
13851TIP3   OH241509   2.616   1.073   5.817
13851TIP3    H141510   2.567   1.111   5.744
13851TIP3    H241511   2.625   0.980   5.795
13852TIP3   OH241512   0.229   0.950   4.016
13852TIP3    H141513   0.236   0.913   3.928
13852TIP3    H241514   0.142   0.925   4.046
13853TIP3   OH241515   0.038   6.640   3.789
13853TIP3    H141516   0.125   6.642   3.749
13853TIP3    H241517   0.024   6.548   3.812
13854TIP3   OH241518   6.676   4.198   2.025
13854TIP3    H141519   6.674   4.290   2.053
13854TIP3    H241520   6.640   4.200   1.936
13855TIP3   OH241521   6.788   1.013   3.012
13855TIP3    H141522   6.822   0.954   3.079
13855TIP3    H241523   6.835   1.095   3.025
13856TIP3   OH241524   2.357   1.504   4.356
13856TIP3    H141525   2.396   1.449   4.288
13856TIP3    H241526   2.388   1.466   4.438
13857TIP3   OH241527   2.044   5.257   3.670
13857TIP3    H141528   2.115   5.262   3.734
13857TIP3    H241529   2.070   5.186   3.611
13858TIP3   OH241530   0.613   3.912   1.259
13858TIP3    H141531   0.686   3.974   1.248
13858TIP3    H241532   0.575   3.905   1.171
13859TIP3   OH241533   6.360   1.730   4.969
13859TIP3    H141534   6.445   1.687   4.957
13859TIP3    H241535   6.350   1.785   4.892
13860TIP3   OH241536   2.615   3.349   1.420
13860TIP3    H141537   2.598   3.442   1.403
13860TIP3    H241538   2.689   3.349   1.480
13861TIP3   OH241539   0.802   1.714   0.178
13861TIP3    H141540   0.797   1.741   0.087
13861TIP3    H241541   0.794   1.618   0.176
13862TIP3   OH241542   1.241   4.822   4.398
13862TIP3    H141543   1.261   4.767   4.322
13862TIP3    H241544   1.202   4.762   4.461
13863TIP3   OH241545   7.294   2.096   3.171
13863TIP3    H141546   7.306   2.101   3.077
13863TIP3    H241547   7.306   2.003   3.192
13864TIP3   OH241548   7.646   4.898   2.388
13864TIP3    H141549   7.741   4.897   2.394
13864TIP3    H241550   7.621   4.987   2.413
13865TIP3   OH241551   3.510   4.232   4.189
13865TIP3    H141552   3.506   4.324   4.213
13865TIP3    H241553   3.566   4.229   4.111
13866TIP3   OH241554   1.729   6.244   4.170
13866TIP3    H141555   1.803   6.207   4.121
13866TIP3    H241556   1.672   6.170   4.187
13867TIP3   OH241557   2.464   3.163   2.151
13867TIP3    H141558   2.475   3.079   2.195
13867TIP3    H241559   2.373   3.186   2.165
13868TIP3   OH241560   0.616   6.453   0.954
13868TIP3    H141561   0.580   6.365   0.951
13868TIP3    H241562   0.651   6.462   1.043
13869TIP3   OH241563   7.466   1.939   4.776
13869TIP3    H141564   7.508   1.891   4.705
13869TIP3    H241565   7.431   2.018   4.734
13870TIP3   OH241566   6.213   1.153   4.268
13870TIP3    H141567   6.197   1.059   4.255
13870TIP3    H241568   6.228   1.161   4.362
13871TIP3   OH241569   2.932   2.746   1.000
13871TIP3    H141570   2.924   2.740   0.905
13871TIP3    H241571   2.986   2.670   1.024
13872TIP3   OH241572   7.968   3.000   0.722
13872TIP3    H141573   7.977   3.050   0.641
13872TIP3    H241574   7.926   2.918   0.695
13873TIP3   OH241575   1.883   4.734   3.097
13873TIP3    H141576   1.803   4.766   3.139
13873TIP3    H241577   1.883   4.777   3.011
13874TIP3   OH241578   4.592   3.908   1.467
13874TIP3    H141579   4.631   3.839   1.521
13874TIP3    H241580   4.510   3.870   1.436
13875TIP3   OH241581   7.424   0.937   3.918
13875TIP3    H141582   7.367   0.883   3.864
13875TIP3    H241583   7.464   0.876   3.980
13876TIP3   OH241584   4.499   5.118   3.507
13876TIP3    H141585   4.437   5.175   3.462
13876TIP3    H241586   4.574   5.175   3.527
13877TIP3   OH241587   4.041   7.471   5.396
13877TIP3    H141588   4.013   7.555   5.359
13877TIP3    H241589   3.997   7.405   5.342
13878TIP3   OH241590   8.206   3.380   1.190
13878TIP3    H141591   8.212   3.289   1.218
13878TIP3    H241592   8.237   3.379   1.099
13879TIP3   OH241593   5.892   6.925   1.341
13879TIP3    H141594   5.859   7.015   1.349
13879TIP3    H241595   5.962   6.931   1.276
13880TIP3   OH241596   2.088   1.069   2.080
13880TIP3    H141597   2.156   1.077   2.013
13880TIP3    H241598   2.027   1.004   2.044
13881TIP3   OH241599   4.199   1.751   5.336
13881TIP3    H141600   4.250   1.827   5.365
13881TIP3    H241601   4.205   1.690   5.409
13882TIP3   OH241602   7.218   6.931   4.078
13882TIP3    H141603   7.244   6.951   3.988
13882TIP3    H241604   7.126   6.957   4.083
13883TIP3   OH241605   6.251   2.656   6.044
13883TIP3    H141606   6.165   2.640   6.005
13883TIP3    H241607   6.286   2.730   5.995
13884TIP3   OH241608   8.248   3.773   0.277
13884TIP3    H141609   8.277   3.819   0.198
13884TIP3    H241610   8.173   3.824   0.309
13885TIP3   OH241611   4.967   7.609   5.071
13885TIP3    H141612   4.995   7.616   5.163
13885TIP3    H241613   5.045   7.578   5.025
13886TIP3   OH241614   2.320   1.023   1.915
13886TIP3    H141615   2.348   0.955   1.976
13886TIP3    H241616   2.338   0.987   1.828
13887TIP3   OH241617   8.054   2.028   1.656
13887TIP3    H141618   7.961   2.006   1.667
13887TIP3    H241619   8.058   2.074   1.573
13888TIP3   OH241620   3.224   3.198   0.976
13888TIP3    H141621   3.297   3.257   0.958
13888TIP3    H241622   3.231   3.178   1.070
13889TIP3   OH241623   7.813   2.216   3.392
13889TIP3    H141624   7.874   2.264   3.448
13889TIP3    H241625   7.730   2.263   3.401
13890TIP3   OH241626   6.113   2.792   3.857
13890TIP3    H141627   6.142   2.766   3.944
13890TIP3    H241628   6.033   2.741   3.842
13891TIP3   OH241629   4.145   2.854   1.210
13891TIP3    H141630   4.198   2.896   1.277
13891TIP3    H241631   4.198   2.857   1.131
13892TIP3   OH241632   1.448   2.756   5.818
13892TIP3    H141633   1.486   2.799   5.895
13892TIP3    H241634   1.494   2.795   5.744
13893TIP3   OH241635   0.052   6.353   3.071
13893TIP3    H141636   0.130   6.377   3.121
13893TIP3    H241637   0.049   6.417   3.000
13894TIP3   OH241638   8.225   1.015   1.003
13894TIP3    H141639   8.317   1.017   0.977
13894TIP3    H241640   8.194   1.105   0.991
13895TIP3   OH241641   1.677   4.613   6.673
13895TIP3    H141642   1.716   4.700   6.661
13895TIP3    H241643   1.739   4.566   6.728
13896TIP3   OH241644   2.641   6.444   0.413
13896TIP3    H141645   2.558   6.457   0.459
13896TIP3    H241646   2.707   6.478   0.474
13897TIP3   OH241647   8.268   6.814   0.390
13897TIP3    H141648   8.357   6.842   0.412
13897TIP3    H241649   8.242   6.760   0.465
13898TIP3   OH241650   0.085   1.891   3.177
13898TIP3    H141651   0.170   1.908   3.217
13898TIP3    H241652   0.052   1.814   3.222
13899TIP3   OH241653   6.720   6.498   3.088
13899TIP3    H141654   6.779   6.493   3.013
13899TIP3    H241655   6.667   6.576   3.072
13900TIP3   OH241656   0.540   1.344   1.381
13900TIP3    H141657   0.465   1.353   1.440
13900TIP3    H241658   0.535   1.253   1.350
13901TIP3   OH241659   2.794   0.204   4.462
13901TIP3    H141660   2.786   0.142   4.389
13901TIP3    H241661   2.741   0.279   4.436
13902TIP3   OH241662   3.065   6.101   3.273
13902TIP3    H141663   3.130   6.171   3.260
13902TIP3    H241664   3.002   6.139   3.334
13903TIP3   OH241665   4.959   3.061   3.954
13903TIP3    H141666   5.024   3.092   3.891
13903TIP3    H241667   5.011   3.023   4.025
13904TIP3   OH241668   5.109   2.153   3.892
13904TIP3    H141669   5.090   2.063   3.866
13904TIP3    H241670   5.138   2.196   3.811
13905TIP3   OH241671   1.796   6.458   1.294
13905TIP3    H141672   1.880   6.498   1.317
13905TIP3    H241673   1.730   6.518   1.329
13906TIP3   OH241674   7.933   1.736   0.245
13906TIP3    H141675   7.847   1.760   0.211
13906TIP3    H241676   7.974   1.819   0.268
13907TIP3   OH241677   2.318   2.950   6.435
13907TIP3    H141678   2.364   2.879   6.390
13907TIP3    H241679   2.370   2.967   6.513
13908TIP3   OH241680   3.705   3.008   5.189
13908TIP3    H141681   3.784   2.976   5.231
13908TIP3    H241682   3.667   2.930   5.147
13909TIP3   OH241683   6.892   6.066   2.510
13909TIP3    H141684   6.832   6.139   2.494
13909TIP3    H241685   6.885   6.011   2.432
13910TIP3   OH241686   1.099   3.517   2.665
13910TIP3    H141687   1.022   3.489   2.715
13910TIP3    H241688   1.069   3.594   2.617
13911TIP3   OH241689   1.662   3.683   3.313
13911TIP3    H141690   1.679   3.744   3.385
13911TIP3    H241691   1.714   3.718   3.240
13912TIP3   OH241692   5.327   0.240   3.672
13912TIP3    H141693   5.377   0.183   3.613
13912TIP3    H241694   5.259   0.184   3.709
13913TIP3   OH241695   7.678   4.061   1.315
13913TIP3    H141696   7.697   4.143   1.271
13913TIP3    H241697   7.623   4.013   1.254
13914TIP3   OH241698   7.073   5.688   2.853
13914TIP3    H141699   7.060   5.772   2.899
13914TIP3    H241700   7.042   5.705   2.764
13915TIP3   OH241701   3.041   5.507   1.531
13915TIP3    H141702   3.000   5.425   1.503
13915TIP3    H241703   3.131   5.482   1.552
13916TIP3   OH241704   3.074  -0.009   1.068
13916TIP3    H141705   3.161  -0.002   1.028
13916TIP3    H241706   3.090  -0.034   1.159
13917TIP3   OH241707   2.139   5.447   0.630
13917TIP3    H141708   2.079   5.382   0.666
13917TIP3    H241709   2.105   5.465   0.543
13918TIP3   OH241710   5.182   5.001   1.458
13918TIP3    H141711   5.230   5.026   1.379
13918TIP3    H241712   5.098   4.968   1.425
13919TIP3   OH241713   0.089   6.986   5.563
13919TIP3    H141714   0.118   7.052   5.500
13919TIP3    H241715   0.076   6.907   5.511
13920TIP3   OH241716   0.595   4.032   0.120
13920TIP3    H141717   0.577   4.116   0.078
13920TIP3    H241718   0.625   4.054   0.208
13921TIP3   OH241719   0.579   5.578   0.932
13921TIP3    H141720   0.552   5.656   0.981
13921TIP3    H241721   0.603   5.515   1.000
13922TIP3   OH241722   1.654   4.141   2.401
13922TIP3    H141723   1.576   4.179   2.441
13922TIP3    H241724   1.636   4.142   2.307
13923TIP3   OH241725   1.828   7.017   2.336
13923TIP3    H141726   1.876   7.096   2.364
13923TIP3    H241727   1.757   7.051   2.281
13924TIP3   OH241728   3.958   4.051   3.006
13924TIP3    H141729   4.030   4.104   3.042
13924TIP3    H241730   3.941   4.089   2.920
13925TIP3   OH241731   6.034   0.513   1.428
13925TIP3    H141732   6.112   0.514   1.484
13925TIP3    H241733   6.052   0.445   1.363
13926TIP3   OH241734   1.898   2.503   1.721
13926TIP3    H141735   1.810   2.535   1.741
13926TIP3    H241736   1.884   2.433   1.658
13927TIP3   OH241737   0.828   5.337   4.597
13927TIP3    H141738   0.783   5.253   4.610
13927TIP3    H241739   0.759   5.402   4.611
13928TIP3   OH241740   7.863   6.893   5.222
13928TIP3    H141741   7.881   6.801   5.206
13928TIP3    H241742   7.793   6.892   5.287
13929TIP3   OH241743   7.812   3.121   1.147
13929TIP3    H141744   7.900   3.099   1.179
13929TIP3    H241745   7.798   3.062   1.073
13930TIP3   OH241746   8.030   7.024   3.311
13930TIP3    H141747   7.959   7.019   3.248
13930TIP3    H241748   8.107   7.047   3.259
13931TIP3   OH241749   1.550   6.322   3.221
13931TIP3    H141750   1.591   6.296   3.303
13931TIP3    H241751   1.524   6.413   3.235
13932TIP3   OH241752   0.834   2.772   3.656
13932TIP3    H141753   0.839   2.852   3.603
13932TIP3    H241754   0.895   2.711   3.612
13933TIP3   OH241755   2.565   7.207   5.860
13933TIP3    H141756   2.490   7.162   5.821
13933TIP3    H241757   2.527   7.262   5.929
13934TIP3   OH241758   3.362   7.089   3.550
13934TIP3    H141759   3.393   7.052   3.633
13934TIP3    H241760   3.387   7.025   3.484
13935TIP3   OH241761   8.132   3.222   1.534
13935TIP3    H141762   8.077   3.144   1.528
13935TIP3    H241763   8.222   3.189   1.528
13936TIP3   OH241764   6.917   1.568   6.302
13936TIP3    H141765   6.913   1.641   6.240
13936TIP3    H241766   6.994   1.518   6.275
13937TIP3   OH241767   4.781   7.517   6.063
13937TIP3    H141768   4.760   7.593   6.118
13937TIP3    H241769   4.842   7.551   5.997
13938TIP3   OH241770   5.368   4.995   3.975
13938TIP3    H141771   5.380   5.062   4.042
13938TIP3    H241772   5.286   4.952   4.000
13939TIP3   OH241773   3.497   1.376   4.261
13939TIP3    H141774   3.490   1.350   4.169
13939TIP3    H241775   3.574   1.432   4.264
13940TIP3   OH241776   3.212   7.677   4.079
13940TIP3    H141777   3.168   7.599   4.046
13940TIP3    H241778   3.279   7.697   4.014
13941TIP3   OH241779   3.775   0.941   2.634
13941TIP3    H141780   3.820   0.873   2.584
13941TIP3    H241781   3.753   1.008   2.570
13942TIP3   OH241782   3.013   6.161   4.830
13942TIP3    H141783   2.982   6.248   4.804
13942TIP3    H241784   3.014   6.111   4.748
13943TIP3   OH241785   2.713   6.189   2.623
13943TIP3    H141786   2.806   6.184   2.647
13943TIP3    H241787   2.676   6.250   2.687
13944TIP3   OH241788   3.670   5.076   4.795
13944TIP3    H141789   3.718   5.068   4.712
13944TIP3    H241790   3.739   5.080   4.862
13945TIP3   OH241791   0.738   2.626   2.578
13945TIP3    H141792   0.694   2.545   2.551
13945TIP3    H241793   0.824   2.622   2.536
13946TIP3   OH241794   2.713   7.043   0.572
13946TIP3    H141795   2.633   6.993   0.587
13946TIP3    H241796   2.685   7.134   0.574
13947TIP3   OH241797   7.381   1.403   1.106
13947TIP3    H141798   7.298   1.365   1.135
13947TIP3    H241799   7.442   1.329   1.107
13948TIP3   OH241800   3.101   4.736   1.884
13948TIP3    H141801   3.016   4.733   1.928
13948TIP3    H241802   3.141   4.817   1.917
13949TIP3   OH241803   5.108   1.295   2.659
13949TIP3    H141804   5.084   1.204   2.641
13949TIP3    H241805   5.076   1.312   2.748
13950TIP3   OH241806   5.371   2.593   2.801
13950TIP3    H141807   5.393   2.644   2.723
13950TIP3    H241808   5.277   2.605   2.812
13951TIP3   OH241809   4.690   1.986   5.571
13951TIP3    H141810   4.738   1.904   5.561
13951TIP3    H241811   4.697   2.007   5.664
13952TIP3   OH241812   0.577   4.643   6.636
13952TIP3    H141813   0.640   4.714   6.648
13952TIP3    H241814   0.626   4.564   6.657
13953TIP3   OH241815   0.113   6.298   2.635
13953TIP3    H141816   0.200   6.313   2.596
13953TIP3    H241817   0.107   6.203   2.645
13954TIP3   OH241818   4.407   3.976   5.638
13954TIP3    H141819   4.459   3.900   5.662
13954TIP3    H241820   4.359   3.949   5.560
13955TIP3   OH241821   3.094   3.264   5.405
13955TIP3    H141822   3.077   3.175   5.373
13955TIP3    H241823   3.033   3.319   5.356
13956TIP3   OH241824   6.367   0.834   3.233
13956TIP3    H141825   6.336   0.921   3.205
13956TIP3    H241826   6.411   0.798   3.155
13957TIP3   OH241827   6.079   0.991   0.599
13957TIP3    H141828   6.091   1.060   0.664
13957TIP3    H241829   6.168   0.967   0.571
13958TIP3   OH241830   7.018   2.596   1.253
13958TIP3    H141831   7.024   2.663   1.321
13958TIP3    H241832   6.932   2.555   1.267
13959TIP3   OH241833   2.114   1.011   0.365
13959TIP3    H141834   2.019   1.023   0.368
13959TIP3    H241835   2.149   1.100   0.369
13960TIP3   OH241836   0.740   1.448   3.117
13960TIP3    H141837   0.701   1.497   3.044
13960TIP3    H241838   0.733   1.356   3.091
13961TIP3   OH241839   7.774   0.601   0.888
13961TIP3    H141840   7.685   0.566   0.879
13961TIP3    H241841   7.762   0.683   0.936
13962TIP3   OH241842   7.483   3.961   5.450
13962TIP3    H141843   7.469   3.877   5.494
13962TIP3    H241844   7.396   3.999   5.441
13963TIP3   OH241845   3.054   4.824   2.338
13963TIP3    H141846   2.963   4.835   2.311
13963TIP3    H241847   3.051   4.813   2.433
13964TIP3   OH241848   6.528   7.798   2.416
13964TIP3    H141849   6.606   7.742   2.423
13964TIP3    H241850   6.537   7.841   2.331
13965TIP3   OH241851   1.927   3.681   2.018
13965TIP3    H141852   1.898   3.604   2.067
13965TIP3    H241853   1.927   3.653   1.926
13966TIP3   OH241854   6.366   4.561   4.758
13966TIP3    H141855   6.347   4.649   4.789
13966TIP3    H241856   6.281   4.518   4.753
13967TIP3   OH241857   4.688   1.167   3.797
13967TIP3    H141858   4.676   1.156   3.702
13967TIP3    H241859   4.647   1.090   3.835
13968TIP3   OH241860   5.877   3.656   6.268
13968TIP3    H141861   5.821   3.704   6.207
13968TIP3    H241862   5.897   3.720   6.337
13969TIP3   OH241863   6.176   1.188   0.362
13969TIP3    H141864   6.109   1.161   0.424
13969TIP3    H241865   6.181   1.117   0.298
13970TIP3   OH241866   7.187   3.447   0.176
13970TIP3    H141867   7.096   3.419   0.163
13970TIP3    H241868   7.239   3.382   0.129
13971TIP3   OH241869   1.319   5.830   6.180
13971TIP3    H141870   1.245   5.890   6.166
13971TIP3    H241871   1.316   5.770   6.106
13972TIP3   OH241872   5.620   7.811   4.606
13972TIP3    H141873   5.651   7.804   4.696
13972TIP3    H241874   5.535   7.767   4.607
13973TIP3   OH241875   1.535   1.105   2.601
13973TIP3    H141876   1.568   1.118   2.690
13973TIP3    H241877   1.440   1.103   2.610
13974TIP3   OH241878   3.504   1.736   0.912
13974TIP3    H141879   3.438   1.673   0.882
13974TIP3    H241880   3.453   1.811   0.942
13975TIP3   OH241881   3.118   1.534   4.215
13975TIP3    H141882   3.067   1.517   4.135
13975TIP3    H241883   3.209   1.529   4.186
13976TIP3   OH241884   0.379   7.566   6.101
13976TIP3    H141885   0.432   7.503   6.150
13976TIP3    H241886   0.333   7.512   6.036
13977TIP3   OH241887   2.981   6.146   2.629
13977TIP3    H141888   3.058   6.130   2.683
13977TIP3    H241889   3.007   6.115   2.542
13978TIP3   OH241890   0.608   5.669   6.700
13978TIP3    H141891   0.679   5.731   6.684
13978TIP3    H241892   0.606   5.658   6.795
13979TIP3   OH241893   5.465   3.895   0.348
13979TIP3    H141894   5.418   3.812   0.356
13979TIP3    H241895   5.398   3.958   0.324
13980TIP3   OH241896   2.121   5.452   2.037
13980TIP3    H141897   2.043   5.465   2.090
13980TIP3    H241898   2.088   5.417   1.954
13981TIP3   OH241899   5.540   4.434   3.515
13981TIP3    H141900   5.598   4.392   3.452
13981TIP3    H241901   5.483   4.489   3.461
13982TIP3   OH241902   2.457   5.181   0.069
13982TIP3    H141903   2.523   5.167   0.138
13982TIP3    H241904   2.375   5.154   0.109
13983TIP3   OH241905   1.632   5.520   4.472
13983TIP3    H141906   1.572   5.461   4.518
13983TIP3    H241907   1.707   5.528   4.531
13984TIP3   OH241908   8.256   4.506   1.055
13984TIP3    H141909   8.214   4.578   1.101
13984TIP3    H241910   8.332   4.545   1.013
13985TIP3   OH241911   2.577   3.691   3.427
13985TIP3    H141912   2.562   3.634   3.351
13985TIP3    H241913   2.492   3.694   3.472
13986TIP3   OH241914   0.503   3.444   4.207
13986TIP3    H141915   0.512   3.517   4.145
13986TIP3    H241916   0.414   3.453   4.241
13987TIP3   OH241917   7.555   2.502   0.746
13987TIP3    H141918   7.526   2.587   0.712
13987TIP3    H241919   7.579   2.520   0.836
13988TIP3   OH241920   3.073   2.129   0.303
13988TIP3    H141921   3.004   2.195   0.303
13988TIP3    H241922   3.136   2.161   0.369
13989TIP3   OH241923   1.615   4.234   5.948
13989TIP3    H141924   1.647   4.210   6.035
13989TIP3    H241925   1.520   4.226   5.954
13990TIP3   OH241926   6.285   0.081   5.622
13990TIP3    H141927   6.249   0.025   5.553
13990TIP3    H241928   6.225   0.155   5.626
13991TIP3   OH241929   0.196   3.137   6.500
13991TIP3    H141930   0.244   3.219   6.512
13991TIP3    H241931   0.105   3.161   6.515
13992TIP3   OH241932   5.657   7.794   4.902
13992TIP3    H141933   5.578   7.764   4.947
13992TIP3    H241934   5.676   7.880   4.939
13993TIP3   OH241935   0.252   5.372   2.464
13993TIP3    H141936   0.320   5.372   2.532
13993TIP3    H241937   0.263   5.288   2.420
13994TIP3   OH241938   8.078   3.049   5.263
13994TIP3    H141939   8.143   3.084   5.323
13994TIP3    H241940   8.088   3.101   5.183
13995TIP3   OH241941   6.076   5.823   1.598
13995TIP3    H141942   6.125   5.785   1.670
13995TIP3    H241943   6.029   5.897   1.637
13996TIP3   OH241944   7.122   5.387   0.576
13996TIP3    H141945   7.094   5.299   0.600
13996TIP3    H241946   7.128   5.434   0.660
13997TIP3   OH241947   6.390   0.734   2.714
13997TIP3    H141948   6.374   0.743   2.620
13997TIP3    H241949   6.357   0.647   2.737
13998TIP3   OH241950   3.184   6.082   4.063
13998TIP3    H141951   3.238   6.146   4.016
13998TIP3    H241952   3.241   6.006   4.074
13999TIP3   OH241953   1.802   4.704   2.110
13999TIP3    H141954   1.878   4.662   2.070
13999TIP3    H241955   1.735   4.702   2.041
14000TIP3   OH241956   4.986   3.866   1.761
14000TIP3    H141957   5.071   3.866   1.805
14000TIP3    H241958   4.981   3.952   1.719
14001TIP3   OH241959   6.056   4.049   6.108
14001TIP3    H141960   6.114   3.994   6.160
14001TIP3    H241961   6.018   4.110   6.171
14002TIP3   OH241962   2.118   3.199   4.290
14002TIP3    H141963   2.121   3.136   4.218
14002TIP3    H241964   2.065   3.272   4.257
14003TIP3   OH241965   1.997   0.396   2.018
14003TIP3    H141966   2.049   0.459   2.066
14003TIP3    H241967   1.954   0.447   1.949
14004TIP3   OH241968   7.962   5.899   5.560
14004TIP3    H141969   7.940   5.973   5.504
14004TIP3    H241970   7.906   5.828   5.529
14005TIP3   OH241971   4.506   3.841   4.059
14005TIP3    H141972   4.454   3.783   4.115
14005TIP3    H241973   4.547   3.783   3.995
14006TIP3   OH241974   5.748   0.229   4.286
14006TIP3    H141975   5.653   0.234   4.274
14006TIP3    H241976   5.779   0.178   4.210
14007TIP3   OH241977   7.551   6.673   0.829
14007TIP3    H141978   7.577   6.686   0.738
14007TIP3    H241979   7.463   6.711   0.834
14008TIP3   OH241980   0.289   1.257   4.341
14008TIP3    H141981   0.301   1.288   4.431
14008TIP3    H241982   0.196   1.271   4.323
14009TIP3   OH241983   8.052   3.030   1.230
14009TIP3    H141984   8.141   3.059   1.210
14009TIP3    H241985   8.053   3.013   1.324
14010TIP3   OH241986   6.518   0.447   2.468
14010TIP3    H141987   6.602   0.440   2.513
14010TIP3    H241988   6.535   0.506   2.395
14011TIP3   OH241989   2.600   5.453   2.436
14011TIP3    H141990   2.607   5.530   2.493
14011TIP3    H241991   2.609   5.488   2.348
14012TIP3   OH241992   6.312   5.464   5.464
14012TIP3    H141993   6.265   5.480   5.546
14012TIP3    H241994   6.399   5.501   5.478
14013TIP3   OH241995   4.043   0.432   6.515
14013TIP3    H141996   4.074   0.515   6.480
14013TIP3    H241997   4.116   0.400   6.568
14014TIP3   OH241998   4.577   0.875   3.142
14014TIP3    H141999   4.597   0.853   3.233
14014TIP3    H242000   4.653   0.844   3.093
14015TIP3   OH242001   5.710   3.333   5.363
14015TIP3    H142002   5.681   3.249   5.327
14015TIP3    H242003   5.631   3.387   5.365
14016TIP3   OH242004   3.108   7.139   6.054
14016TIP3    H142005   3.179   7.135   5.990
14016TIP3    H242006   3.039   7.189   6.009
14017TIP3   OH242007   1.472   6.675   5.605
14017TIP3    H142008   1.567   6.675   5.617
14017TIP3    H242009   1.443   6.757   5.644
14018TIP3   OH242010   4.195   7.154   4.783
14018TIP3    H142011   4.271   7.185   4.733
14018TIP3    H242012   4.205   7.193   4.870
14019TIP3   OH242013   2.049   1.864   1.136
14019TIP3    H142014   2.106   1.820   1.200
14019TIP3    H242015   2.040   1.953   1.170
14020TIP3   OH242016   3.224   6.006   4.944
14020TIP3    H142017   3.137   6.019   4.905
14020TIP3    H242018   3.225   5.915   4.971
14021TIP3   OH242019   5.245   2.282   2.074
14021TIP3    H142020   5.288   2.320   2.150
14021TIP3    H242021   5.164   2.244   2.110
14022TIP3   OH242022   0.525   1.478   2.387
14022TIP3    H142023   0.585   1.434   2.448
14022TIP3    H242024   0.565   1.563   2.372
14023TIP3   OH242025   6.186   1.002   5.695
14023TIP3    H142026   6.251   1.071   5.680
14023TIP3    H242027   6.129   1.037   5.764
14024TIP3   OH242028   2.154   0.442   5.821
14024TIP3    H142029   2.209   0.425   5.745
14024TIP3    H242030   2.199   0.513   5.867
14025TIP3   OH242031   2.168   0.975   5.137
14025TIP3    H142032   2.252   0.938   5.112
14025TIP3    H242033   2.188   1.033   5.210
14026TIP3   OH242034   6.367   5.616   1.296
14026TIP3    H142035   6.326   5.697   1.267
14026TIP3    H242036   6.368   5.622   1.392
14027TIP3   OH242037   4.996   0.793   0.563
14027TIP3    H142038   4.931   0.790   0.633
14027TIP3    H242039   5.032   0.881   0.566
14028TIP3   OH242040   7.551   7.783   2.213
14028TIP3    H142041   7.634   7.829   2.226
14028TIP3    H242042   7.560   7.703   2.266
14029TIP3   OH242043   3.936   4.130   2.368
14029TIP3    H142044   3.901   4.043   2.387
14029TIP3    H242045   4.021   4.131   2.411
14030TIP3   OH242046   3.507   2.901   0.383
14030TIP3    H142047   3.501   2.899   0.478
14030TIP3    H242048   3.601   2.900   0.365
14031TIP3   OH242049   6.837   1.544   1.575
14031TIP3    H142050   6.858   1.480   1.644
14031TIP3    H242051   6.840   1.629   1.619
14032TIP3   OH242052   5.865   5.481   1.130
14032TIP3    H142053   5.925   5.539   1.083
14032TIP3    H242054   5.885   5.393   1.098
14033TIP3   OH242055   6.773   0.084   4.553
14033TIP3    H142056   6.834   0.139   4.601
14033TIP3    H242057   6.749   0.015   4.615
14034TIP3   OH242058   4.393   1.765   0.482
14034TIP3    H142059   4.420   1.696   0.542
14034TIP3    H242060   4.421   1.733   0.396
14035TIP3   OH242061   1.739   7.326   3.761
14035TIP3    H142062   1.817   7.292   3.806
14035TIP3    H242063   1.763   7.416   3.738
14036TIP3   OH242064   2.308   1.399   2.015
14036TIP3    H142065   2.338   1.330   1.956
14036TIP3    H242066   2.360   1.387   2.095
14037TIP3   OH242067   6.703   6.881   3.912
14037TIP3    H142068   6.621   6.848   3.949
14037TIP3    H242069   6.731   6.813   3.850
14038TIP3   OH242070   2.863   0.464   6.593
14038TIP3    H142071   2.817   0.380   6.603
14038TIP3    H242072   2.944   0.441   6.547
14039TIP3   OH242073   3.135   1.756   5.452
14039TIP3    H142074   3.151   1.787   5.363
14039TIP3    H242075   3.161   1.830   5.508
14040TIP3   OH242076   0.399   1.709   5.568
14040TIP3    H142077   0.369   1.742   5.483
14040TIP3    H242078   0.402   1.614   5.557
14041TIP3   OH242079   7.254   4.276   5.383
14041TIP3    H142080   7.332   4.265   5.328
14041TIP3    H242081   7.200   4.200   5.364
14042TIP3   OH242082   5.019   1.520   4.925
14042TIP3    H142083   4.927   1.492   4.927
14042TIP3    H242084   5.058   1.477   5.001
14043TIP3   OH242085   0.918   1.691   3.386
14043TIP3    H142086   0.986   1.662   3.325
14043TIP3    H242087   0.940   1.783   3.403
14044TIP3   OH242088   6.565   0.754   6.741
14044TIP3    H142089   6.503   0.794   6.681
14044TIP3    H242090   6.599   0.678   6.694
14045TIP3   OH242091   5.401   3.643   2.996
14045TIP3    H142092   5.491   3.613   2.978
14045TIP3    H242093   5.401   3.660   3.090
14046TIP3   OH242094   3.813   2.890   5.862
14046TIP3    H142095   3.870   2.884   5.938
14046TIP3    H242096   3.867   2.861   5.789
14047TIP3   OH242097   1.517   0.680   4.875
14047TIP3    H142098   1.530   0.636   4.791
14047TIP3    H242099   1.426   0.660   4.899
14048TIP3   OH242100   4.130   4.973   3.680
14048TIP3    H142101   4.108   5.047   3.624
14048TIP3    H242102   4.222   4.956   3.663
14049TIP3   OH242103   6.232   1.136   1.996
14049TIP3    H142104   6.294   1.125   1.924
14049TIP3    H242105   6.203   1.227   1.989
14050TIP3   OH242106   0.706   4.943   3.661
14050TIP3    H142107   0.633   4.914   3.716
14050TIP3    H242108   0.773   4.972   3.724
14051TIP3   OH242109   7.800   3.371   3.307
14051TIP3    H142110   7.723   3.330   3.348
14051TIP3    H242111   7.871   3.309   3.323
14052TIP3   OH242112   7.952   5.793   3.266
14052TIP3    H142113   7.992   5.816   3.182
14052TIP3    H242114   8.026   5.773   3.323
14053TIP3   OH242115   8.262   4.585   2.563
14053TIP3    H142116   8.338   4.642   2.576
14053TIP3    H242117   8.241   4.553   2.651
14054TIP3   OH242118   0.319   3.192   2.013
14054TIP3    H142119   0.303   3.132   2.086
14054TIP3    H242120   0.401   3.162   1.974
14055TIP3   OH242121   3.647   4.451   6.196
14055TIP3    H142122   3.588   4.424   6.266
14055TIP3    H242123   3.622   4.396   6.121
14056TIP3   OH242124   1.819   1.070   5.691
14056TIP3    H142125   1.785   0.980   5.688
14056TIP3    H242126   1.809   1.097   5.782
14057TIP3   OH242127   6.235   3.609   1.534
14057TIP3    H142128   6.219   3.635   1.443
14057TIP3    H242129   6.148   3.608   1.574
14058TIP3   OH242130   5.221   3.994   5.366
14058TIP3    H142131   5.188   3.998   5.456
14058TIP3    H242132   5.278   3.916   5.364
14059TIP3   OH242133   0.901   6.169   1.398
14059TIP3    H142134   0.824   6.152   1.451
14059TIP3    H242135   0.871   6.159   1.308
14060TIP3   OH242136   5.846   4.449   4.559
14060TIP3    H142137   5.874   4.470   4.648
14060TIP3    H242138   5.889   4.366   4.539
14061TIP3   OH242139   1.741   6.760   5.615
14061TIP3    H142140   1.831   6.755   5.648
14061TIP3    H242141   1.733   6.685   5.556
14062TIP3   OH242142   6.995   3.790   5.390
14062TIP3    H142143   7.050   3.837   5.452
14062TIP3    H242144   7.057   3.749   5.329
14063TIP3   OH242145   1.689   4.981   3.366
14063TIP3    H142146   1.640   4.921   3.422
14063TIP3    H242147   1.709   5.056   3.423
14064TIP3   OH242148   6.976   2.276   1.229
14064TIP3    H142149   7.062   2.280   1.273
14064TIP3    H242150   6.918   2.324   1.288
14065TIP3   OH242151   6.859   1.000   6.140
14065TIP3    H142152   6.844   0.913   6.104
14065TIP3    H242153   6.780   1.049   6.118
14066TIP3   OH242154   4.560   1.811   1.547
14066TIP3    H142155   4.503   1.752   1.498
14066TIP3    H242156   4.645   1.767   1.549
14067TIP3   OH242157   6.074   7.524   1.598
14067TIP3    H142158   6.032   7.607   1.620
14067TIP3    H242159   6.003   7.469   1.563
14068TIP3   OH242160   5.631   1.241   5.612
14068TIP3    H142161   5.645   1.324   5.567
14068TIP3    H242162   5.720   1.208   5.629
14069TIP3   OH242163   2.794   3.403   6.312
14069TIP3    H142164   2.751   3.350   6.246
14069TIP3    H242165   2.739   3.482   6.318
14070TIP3   OH242166   1.021   1.077   2.502
14070TIP3    H142167   0.958   1.016   2.465
14070TIP3    H242168   0.978   1.163   2.495
14071TIP3   OH242169   2.895   7.371   4.895
14071TIP3    H142170   2.875   7.305   4.828
14071TIP3    H242171   2.916   7.321   4.973
14072TIP3   OH242172   2.284   1.460   2.386
14072TIP3    H142173   2.203   1.443   2.339
14072TIP3    H242174   2.291   1.387   2.447
14073TIP3   OH242175   2.315   7.740   5.455
14073TIP3    H142176   2.273   7.817   5.494
14073TIP3    H242177   2.244   7.676   5.450
14074TIP3   OH242178   5.654   2.761   5.234
14074TIP3    H142179   5.569   2.750   5.277
14074TIP3    H242180   5.702   2.820   5.291
14075TIP3   OH242181   5.672   7.021   5.718
14075TIP3    H142182   5.586   7.003   5.756
14075TIP3    H242183   5.717   7.074   5.783
14076TIP3   OH242184   1.959   4.762   3.471
14076TIP3    H142185   2.014   4.743   3.395
14076TIP3    H242186   1.925   4.676   3.498
14077TIP3   OH242187   1.597   5.569   6.554
14077TIP3    H142188   1.669   5.588   6.494
14077TIP3    H242189   1.521   5.610   6.515
14078TIP3   OH242190   1.635   7.301   4.635
14078TIP3    H142191   1.541   7.305   4.656
14078TIP3    H242192   1.638   7.295   4.540
14079TIP3   OH242193   4.595   4.701   1.547
14079TIP3    H142194   4.544   4.630   1.510
14079TIP3    H242195   4.655   4.727   1.477
14080TIP3   OH242196   0.325   3.722   2.223
14080TIP3    H142197   0.404   3.752   2.178
14080TIP3    H242198   0.313   3.632   2.194
14081TIP3   OH242199   3.455   4.463   5.221
14081TIP3    H142200   3.415   4.435   5.139
14081TIP3    H242201   3.484   4.553   5.205
14082TIP3   OH242202   0.953   7.274   4.465
14082TIP3    H142203   0.906   7.347   4.505
14082TIP3    H242204   0.936   7.199   4.523
14083TIP3   OH242205   1.222   6.392   0.895
14083TIP3    H142206   1.135   6.408   0.933
14083TIP3    H242207   1.283   6.405   0.968
14084TIP3   OH242208   4.059   0.656   4.935
14084TIP3    H142209   4.000   0.655   4.860
14084TIP3    H242210   4.141   0.691   4.900
14085TIP3   OH242211   6.553   0.843   2.420
14085TIP3    H142212   6.551   0.875   2.330
14085TIP3    H242213   6.473   0.791   2.429
14086TIP3   OH242214   5.390   0.860   1.713
14086TIP3    H142215   5.334   0.829   1.641
14086TIP3    H242216   5.396   0.786   1.772
14087TIP3   OH242217   1.311   1.710   3.931
14087TIP3    H142218   1.397   1.747   3.947
14087TIP3    H242219   1.301   1.713   3.836
14088TIP3   OH242220   1.344   1.151   5.051
14088TIP3    H142221   1.408   1.098   5.004
14088TIP3    H242222   1.325   1.223   4.991
14089TIP3   OH242223   7.384   6.641   5.066
14089TIP3    H142224   7.446   6.568   5.058
14089TIP3    H242225   7.310   6.605   5.115
14090TIP3   OH242226   0.809   5.766   1.813
14090TIP3    H142227   0.843   5.836   1.868
14090TIP3    H242228   0.882   5.743   1.756
14091TIP3   OH242229   5.157   7.613   0.535
14091TIP3    H142230   5.230   7.642   0.480
14091TIP3    H242231   5.136   7.525   0.502
14092TIP3   OH242232   1.802   3.103   3.671
14092TIP3    H142233   1.852   3.172   3.627
14092TIP3    H242234   1.718   3.102   3.625
14093TIP3   OH242235   5.540   2.902   0.785
14093TIP3    H142236   5.586   2.827   0.747
14093TIP3    H242237   5.543   2.969   0.718
14094TIP3   OH242238   0.377   6.811   5.474
14094TIP3    H142239   0.333   6.777   5.551
14094TIP3    H242240   0.318   6.789   5.401
14095TIP3   OH242241   2.179   1.403   0.592
14095TIP3    H142242   2.184   1.403   0.687
14095TIP3    H242243   2.196   1.494   0.567
14096TIP3   OH242244   7.792   4.191   1.824
14096TIP3    H142245   7.861   4.180   1.758
14096TIP3    H242246   7.744   4.108   1.824
14097TIP3   OH242247   7.749   2.862   2.185
14097TIP3    H142248   7.767   2.891   2.274
14097TIP3    H242249   7.784   2.773   2.181
14098TIP3   OH242250   5.777   2.556   2.216
14098TIP3    H142251   5.710   2.590   2.157
14098TIP3    H242252   5.846   2.621   2.215
14099TIP3   OH242253   0.806   3.941   5.451
14099TIP3    H142254   0.857   3.865   5.480
14099TIP3    H242255   0.844   4.015   5.500
14100TIP3   OH242256   0.104   2.127   4.753
14100TIP3    H142257   0.075   2.215   4.727
14100TIP3    H242258   0.077   2.119   4.844
14101TIP3   OH242259   6.973   5.939   2.912
14101TIP3    H142260   6.906   5.915   2.848
14101TIP3    H242261   6.942   6.020   2.951
14102TIP3   OH242262   1.125   4.623   4.196
14102TIP3    H142263   1.103   4.683   4.125
14102TIP3    H242264   1.041   4.598   4.233
14103TIP3   OH242265   0.156   7.602   5.173
14103TIP3    H142266   0.160   7.629   5.081
14103TIP3    H242267   0.213   7.526   5.179
14104TIP3   OH242268   3.371   5.752   5.462
14104TIP3    H142269   3.320   5.702   5.397
14104TIP3    H242270   3.305   5.792   5.518
14105TIP3   OH242271   0.981   5.481   0.992
14105TIP3    H142272   1.000   5.418   1.062
14105TIP3    H242273   0.953   5.560   1.038
14106TIP3   OH242274   6.134   2.762   2.222
14106TIP3    H142275   6.082   2.813   2.284
14106TIP3    H242276   6.105   2.792   2.136
14107TIP3   OH242277   7.271   0.610   2.734
14107TIP3    H142278   7.279   0.655   2.650
14107TIP3    H242279   7.360   0.582   2.756
14108TIP3   OH242280   3.811   1.339   4.442
14108TIP3    H142281   3.826   1.248   4.467
14108TIP3    H242282   3.894   1.383   4.458
14109TIP3   OH242283   5.637   0.110   5.657
14109TIP3    H142284   5.561   0.142   5.608
14109TIP3    H242285   5.629   0.014   5.653
14110TIP3   OH242286   2.188   0.214   1.176
14110TIP3    H142287   2.268   0.187   1.130
14110TIP3    H242288   2.183   0.155   1.251
14111TIP3   OH242289   7.147   0.125   6.094
14111TIP3    H142290   7.130   0.092   6.005
14111TIP3    H242291   7.090   0.202   6.102
14112TIP3   OH242292   7.184   0.229   3.610
14112TIP3    H142293   7.267   0.208   3.651
14112TIP3    H242294   7.197   0.210   3.517
14113TIP3   OH242295   6.857   0.054   0.095
14113TIP3    H142296   6.855   0.101   0.012
14113TIP3    H242297   6.765   0.042   0.118
14114TIP3   OH242298   2.199   6.321   1.909
14114TIP3    H142299   2.263   6.324   1.838
14114TIP3    H242300   2.207   6.406   1.952
14115TIP3   OH242301   4.612   3.810   0.507
14115TIP3    H142302   4.549   3.877   0.480
14115TIP3    H242303   4.565   3.727   0.495
14116TIP3   OH242304   8.158   0.330   1.285
14116TIP3    H142305   8.119   0.348   1.370
14116TIP3    H242306   8.084   0.317   1.226
14117TIP3   OH242307   2.771   2.076   1.194
14117TIP3    H142308   2.777   2.156   1.247
14117TIP3    H242309   2.736   2.011   1.254
14118TIP3   OH242310   2.414   6.884   4.018
14118TIP3    H142311   2.377   6.843   3.940
14118TIP3    H242312   2.451   6.811   4.068
14119TIP3   OH242313   5.310   1.225   3.569
14119TIP3    H142314   5.403   1.206   3.558
14119TIP3    H242315   5.308   1.318   3.591
14120TIP3   OH242316   6.943   2.436   2.271
14120TIP3    H142317   6.997   2.503   2.313
14120TIP3    H242318   6.992   2.412   2.192
14121TIP3   OH242319   4.417   0.748   6.302
14121TIP3    H142320   4.462   0.824   6.339
14121TIP3    H242321   4.416   0.764   6.208
14122TIP3   OH242322   4.605   6.767   3.271
14122TIP3    H142323   4.590   6.785   3.364
14122TIP3    H242324   4.701   6.767   3.262
14123TIP3   OH242325   0.076   1.182   5.520
14123TIP3    H142326   0.041   1.116   5.460
14123TIP3    H242327   0.052   1.266   5.480
14124TIP3   OH242328   3.515   5.290   0.847
14124TIP3    H142329   3.531   5.382   0.871
14124TIP3    H242330   3.546   5.283   0.757
14125TIP3   OH242331   3.734   7.306   1.820
14125TIP3    H142332   3.681   7.284   1.896
14125TIP3    H242333   3.676   7.289   1.745
14126TIP3   OH242334   4.804   6.494   6.259
14126TIP3    H142335   4.870   6.518   6.324
14126TIP3    H242336   4.777   6.406   6.284
14127TIP3   OH242337   1.761   6.572   3.475
14127TIP3    H142338   1.697   6.592   3.406
14127TIP3    H242339   1.777   6.656   3.518
14128TIP3   OH242340   2.369   3.186   4.416
14128TIP3    H142341   2.451   3.143   4.392
14128TIP3    H242342   2.302   3.139   4.365
14129TIP3   OH242343   5.648   6.027   6.003
14129TIP3    H142344   5.572   5.970   6.001
14129TIP3    H242345   5.668   6.038   6.096
14130TIP3   OH242346   0.006   6.298   0.679
14130TIP3    H142347   0.051   6.351   0.613
14130TIP3    H242348  -0.086   6.305   0.656
14131TIP3   OH242349   0.587   0.606   2.709
14131TIP3    H142350   0.569   0.568   2.622
14131TIP3    H242351   0.566   0.699   2.700
14132TIP3   OH242352   4.916   2.763   0.052
14132TIP3    H142353   4.858   2.797  -0.016
14132TIP3    H242354   4.947   2.841   0.097
14133TIP3   OH242355   4.826   5.363   2.797
14133TIP3    H142356   4.744   5.313   2.806
14133TIP3    H242357   4.838   5.404   2.883
14134TIP3   OH242358   4.843   7.263   4.456
14134TIP3    H142359   4.827   7.180   4.502
14134TIP3    H242360   4.938   7.276   4.463
14135TIP3   OH242361   5.199   1.381   4.382
14135TIP3    H142362   5.227   1.305   4.434
14135TIP3    H242363   5.180   1.345   4.295
14136TIP3   OH242364   3.551   6.751   6.216
14136TIP3    H142365   3.464   6.739   6.178
14136TIP3    H242366   3.598   6.805   6.153
14137TIP3   OH242367   2.622   1.223   1.085
14137TIP3    H142368   2.626   1.147   1.143
14137TIP3    H242369   2.587   1.187   1.003
14138TIP3   OH242370   6.519   4.217   5.794
14138TIP3    H142371   6.438   4.198   5.842
14138TIP3    H242372   6.512   4.310   5.771
14139TIP3   OH242373   7.987   4.203   3.227
14139TIP3    H142374   7.909   4.167   3.185
14139TIP3    H242375   8.060   4.173   3.172
14140TIP3   OH242376   0.086   3.004   6.739
14140TIP3    H142377   0.093   3.063   6.814
14140TIP3    H242378   0.148   3.039   6.675
14141TIP3   OH242379   2.632   5.897   3.459
14141TIP3    H142380   2.559   5.848   3.499
14141TIP3    H242381   2.662   5.956   3.528
14142TIP3   OH242382   2.483   6.135   3.704
14142TIP3    H142383   2.498   6.222   3.666
14142TIP3    H242384   2.389   6.121   3.695
14143TIP3   OH242385   2.271   4.503   4.387
14143TIP3    H142386   2.199   4.563   4.404
14143TIP3    H242387   2.229   4.421   4.360
14144TIP3   OH242388   4.696   2.102   6.347
14144TIP3    H142389   4.772   2.158   6.331
14144TIP3    H242390   4.631   2.160   6.386
14145TIP3   OH242391   6.592   0.658   0.045
14145TIP3    H142392   6.554   0.743   0.069
14145TIP3    H242393   6.571   0.601   0.119
14146TIP3   OH242394   7.853   1.740   0.969
14146TIP3    H142395   7.761   1.742   0.997
14146TIP3    H242396   7.892   1.816   1.012
14147TIP3   OH242397   7.056   4.429   3.521
14147TIP3    H142398   7.130   4.392   3.569
14147TIP3    H242399   6.981   4.414   3.578
14148TIP3   OH242400   0.440   4.301   4.055
14148TIP3    H142401   0.366   4.333   4.108
14148TIP3    H242402   0.404   4.228   4.004
14149TIP3   OH242403   1.858   3.124   0.722
14149TIP3    H142404   1.838   3.214   0.696
14149TIP3    H242405   1.832   3.071   0.647
14150TIP3   OH242406   6.262   2.173   4.232
14150TIP3    H142407   6.345   2.126   4.232
14150TIP3    H242408   6.196   2.105   4.246
14151TIP3   OH242409   0.292   2.217   3.678
14151TIP3    H142410   0.292   2.312   3.684
14151TIP3    H242411   0.201   2.192   3.698
14152TIP3   OH242412   1.238   5.781   1.038
14152TIP3    H142413   1.263   5.768   1.129
14152TIP3    H242414   1.306   5.837   1.001
14153TIP3   OH242415   2.560   5.079   4.207
14153TIP3    H142416   2.577   5.001   4.260
14153TIP3    H242417   2.626   5.142   4.235
14154TIP3   OH242418   5.936   7.309   6.129
14154TIP3    H142419   5.988   7.381   6.165
14154TIP3    H242420   5.850   7.319   6.171
14155TIP3   OH242421   5.374   5.914   4.671
14155TIP3    H142422   5.362   5.925   4.577
14155TIP3    H242423   5.287   5.894   4.705
14156TIP3   OH242424   6.335   0.210   0.009
14156TIP3    H142425   6.394   0.276  -0.027
14156TIP3    H242426   6.313   0.154  -0.065
14157TIP3   OH242427   5.480   3.069   2.885
14157TIP3    H142428   5.469   3.022   2.802
14157TIP3    H242429   5.439   3.011   2.950
14158TIP3   OH242430   0.108   0.140   0.782
14158TIP3    H142431   0.203   0.134   0.776
14158TIP3    H242432   0.089   0.233   0.778
14159TIP3   OH242433   4.343   3.552   0.263
14159TIP3    H142434   4.363   3.540   0.170
14159TIP3    H242435   4.283   3.480   0.284
14160TIP3   OH242436   3.533   0.685   0.118
14160TIP3    H142437   3.496   0.602   0.151
14160TIP3    H242438   3.460   0.727   0.073
14161TIP3   OH242439   2.575   3.592   3.123
14161TIP3    H142440   2.518   3.624   3.053
14161TIP3    H242441   2.635   3.531   3.080
14162TIP3   OH242442   4.849   5.395   5.433
14162TIP3    H142443   4.812   5.480   5.457
14162TIP3    H242444   4.917   5.416   5.369
14163TIP3   OH242445   7.448   2.065   5.199
14163TIP3    H142446   7.498   2.017   5.134
14163TIP3    H242447   7.374   2.008   5.220
14164TIP3   OH242448   6.639   3.104   1.464
14164TIP3    H142449   6.689   3.172   1.419
14164TIP3    H242450   6.698   3.071   1.532
14165TIP3   OH242451   0.867   6.737   1.294
14165TIP3    H142452   0.861   6.805   1.228
14165TIP3    H242453   0.886   6.783   1.375
14166TIP3   OH242454   5.234   7.626   6.605
14166TIP3    H142455   5.154   7.657   6.646
14166TIP3    H242456   5.205   7.581   6.526
14167TIP3   OH242457   7.599   1.894   5.034
14167TIP3    H142458   7.580   1.930   4.948
14167TIP3    H242459   7.680   1.845   5.023
14168TIP3   OH242460   7.332   2.390   5.471
14168TIP3    H142461   7.258   2.357   5.421
14168TIP3    H242462   7.403   2.328   5.453
14169TIP3   OH242463   7.233   7.612   2.871
14169TIP3    H142464   7.252   7.588   2.781
14169TIP3    H242465   7.140   7.635   2.871
14170TIP3   OH242466   4.014   7.236   2.356
14170TIP3    H142467   4.051   7.153   2.328
14170TIP3    H242468   3.971   7.216   2.439
14171TIP3   OH242469   4.910   7.703   2.072
14171TIP3    H142470   4.838   7.667   2.021
14171TIP3    H242471   4.988   7.686   2.019
14172TIP3   OH242472   1.995   7.445   1.176
14172TIP3    H142473   2.030   7.403   1.255
14172TIP3    H242474   1.922   7.498   1.208
14173TIP3   OH242475   6.824   3.490   2.538
14173TIP3    H142476   6.775   3.417   2.498
14173TIP3    H242477   6.916   3.467   2.524
14174TIP3   OH242478   3.895   0.368   5.696
14174TIP3    H142479   3.832   0.352   5.625
14174TIP3    H242480   3.972   0.317   5.671
14175TIP3   OH242481   4.088   1.828   0.642
14175TIP3    H142482   4.030   1.842   0.717
14175TIP3    H242483   4.175   1.818   0.680
14176TIP3   OH242484   4.523   1.325   2.763
14176TIP3    H142485   4.545   1.256   2.826
14176TIP3    H242486   4.608   1.354   2.730
14177TIP3   OH242487   8.250   5.448   3.777
14177TIP3    H142488   8.235   5.461   3.870
14177TIP3    H242489   8.220   5.358   3.760
14178TIP3   OH242490   6.502   2.048   4.207
14178TIP3    H142491   6.566   2.043   4.278
14178TIP3    H242492   6.545   2.007   4.132
14179TIP3   OH242493   4.024   3.739   6.572
14179TIP3    H142494   4.027   3.653   6.531
14179TIP3    H242495   4.116   3.764   6.584
14180TIP3   OH242496   1.026   3.335   4.829
14180TIP3    H142497   0.947   3.293   4.865
14180TIP3    H242498   1.098   3.280   4.860
14181TIP3   OH242499   3.233   3.873   0.850
14181TIP3    H142500   3.174   3.946   0.869
14181TIP3    H242501   3.175   3.801   0.826
14182TIP3   OH242502   0.995   3.100   6.477
14182TIP3    H142503   0.941   3.096   6.398
14182TIP3    H242504   1.081   3.068   6.449
14183TIP3   OH242505   2.087   0.274   3.206
14183TIP3    H142506   2.078   0.329   3.128
14183TIP3    H242507   2.182   0.268   3.220
14184TIP3   OH242508   4.575   3.040   5.302
14184TIP3    H142509   4.590   2.976   5.233
14184TIP3    H242510   4.646   3.103   5.294
14185TIP3   OH242511   2.943   0.623   2.275
14185TIP3    H142512   3.013   0.565   2.246
14185TIP3    H242513   2.977   0.663   2.355
14186TIP3   OH242514   2.581   2.658   1.154
14186TIP3    H142515   2.658   2.613   1.118
14186TIP3    H242516   2.598   2.751   1.139
14187TIP3   OH242517   2.418   5.770   5.118
14187TIP3    H142518   2.323   5.763   5.113
14187TIP3    H242519   2.448   5.751   5.029
14188TIP3   OH242520   5.011   2.913   1.376
14188TIP3    H142521   5.052   2.883   1.295
14188TIP3    H242522   4.940   2.970   1.347
14189TIP3   OH242523   0.040   7.109   3.731
14189TIP3    H142524  -0.028   7.071   3.787
14189TIP3    H242525   0.038   7.202   3.753
14190TIP3   OH242526   2.402   0.146   4.016
14190TIP3    H142527   2.387   0.063   3.970
14190TIP3    H242528   2.490   0.136   4.054
14191TIP3   OH242529   2.812   4.485   0.973
14191TIP3    H142530   2.852   4.459   1.056
14191TIP3    H242531   2.750   4.554   0.997
14192TIP3   OH242532   4.678   5.765   3.734
14192TIP3    H142533   4.687   5.724   3.820
14192TIP3    H242534   4.590   5.802   3.734
14193TIP3   OH242535   0.824   6.922   5.415
14193TIP3    H142536   0.807   6.879   5.331
14193TIP3    H242537   0.816   6.853   5.480
14194TIP3   OH242538   7.266   3.043   1.981
14194TIP3    H142539   7.209   3.062   2.055
14194TIP3    H242540   7.354   3.062   2.013
14195TIP3   OH242541   5.751   4.403   4.885
14195TIP3    H142542   5.690   4.405   4.811
14195TIP3    H242543   5.707   4.349   4.950
14196TIP3   OH242544   0.141   0.689   1.881
14196TIP3    H142545   0.112   0.671   1.791
14196TIP3    H242546   0.125   0.783   1.893
14197TIP3   OH242547   3.747   7.731   1.515
14197TIP3    H142548   3.795   7.757   1.594
14197TIP3    H242549   3.776   7.793   1.448
14198TIP3   OH242550   5.950   5.213   2.863
14198TIP3    H142551   6.025   5.212   2.922
14198TIP3    H242552   5.905   5.296   2.882
14199TIP3   OH242553   7.466   2.897   5.259
14199TIP3    H142554   7.452   2.808   5.225
14199TIP3    H242555   7.548   2.891   5.308
14200TIP3   OH242556   5.009   0.839   1.391
14200TIP3    H142557   5.074   0.907   1.377
14200TIP3    H242558   4.942   0.879   1.446
14201TIP3   OH242559   0.266   3.782   6.563
14201TIP3    H142560   0.330   3.722   6.526
14201TIP3    H242561   0.318   3.856   6.597
14202TIP3   OH242562   4.083   4.083   0.505
14202TIP3    H142563   4.142   4.029   0.558
14202TIP3    H242564   4.115   4.173   0.518
14203TIP3   OH242565   7.603   2.974   4.119
14203TIP3    H142566   7.536   3.039   4.142
14203TIP3    H242567   7.623   2.931   4.202
14204TIP3   OH242568   0.503   2.207   5.905
14204TIP3    H142569   0.545   2.234   5.987
14204TIP3    H242570   0.550   2.128   5.879
14205TIP3   OH242571   7.239   0.169   4.735
14205TIP3    H142572   7.221   0.263   4.734
14205TIP3    H242573   7.171   0.133   4.792
14206TIP3   OH242574   3.422   6.900   4.844
14206TIP3    H142575   3.371   6.890   4.763
14206TIP3    H242576   3.414   6.993   4.865
14207TIP3   OH242577   1.424   3.655   3.216
14207TIP3    H142578   1.515   3.668   3.243
14207TIP3    H242579   1.387   3.743   3.213
14208TIP3   OH242580   5.726   5.687   5.230
14208TIP3    H142581   5.649   5.729   5.193
14208TIP3    H242582   5.722   5.707   5.324
14209TIP3   OH242583   2.026   5.531   4.069
14209TIP3    H142584   2.007   5.619   4.037
14209TIP3    H242585   2.100   5.502   4.016
14210TIP3   OH242586   4.730   7.782   6.177
14210TIP3    H142587   4.696   7.872   6.176
14210TIP3    H242588   4.803   7.784   6.239
14211TIP3   OH242589   4.744   2.367   3.142
14211TIP3    H142590   4.706   2.428   3.079
14211TIP3    H242591   4.699   2.386   3.224
14212TIP3   OH242592   2.828   2.219   5.159
14212TIP3    H142593   2.752   2.277   5.164
14212TIP3    H242594   2.895   2.271   5.116
14213TIP3   OH242595   5.162   0.331   3.241
14213TIP3    H142596   5.131   0.399   3.301
14213TIP3    H242597   5.176   0.255   3.297
14214TIP3   OH242598   6.722   6.058   3.104
14214TIP3    H142599   6.716   6.095   3.193
14214TIP3    H242600   6.779   6.119   3.057
14215TIP3   OH242601   0.958   4.110   2.465
14215TIP3    H142602   0.904   4.118   2.544
14215TIP3    H242603   1.041   4.074   2.497
14216TIP3   OH242604   8.213   1.850   6.254
14216TIP3    H142605   8.171   1.884   6.333
14216TIP3    H242606   8.144   1.852   6.188
14217TIP3   OH242607   1.971   3.791   4.019
14217TIP3    H142608   1.968   3.749   4.105
14217TIP3    H242609   1.880   3.815   4.001
14218TIP3   OH242610   8.281   6.841   6.120
14218TIP3    H142611   8.282   6.869   6.212
14218TIP3    H242612   8.268   6.746   6.124
14219TIP3   OH242613   5.865   6.232   1.178
14219TIP3    H142614   5.804   6.161   1.194
14219TIP3    H242615   5.828   6.307   1.225
14220TIP3   OH242616   5.223   6.391   0.060
14220TIP3    H142617   5.307   6.346   0.051
14220TIP3    H242618   5.246   6.475   0.101
14221TIP3   OH242619   2.495   1.276   4.207
14221TIP3    H142620   2.562   1.229   4.157
14221TIP3    H242621   2.412   1.242   4.175
14222TIP3   OH242622   5.644   6.860   1.225
14222TIP3    H142623   5.596   6.924   1.279
14222TIP3    H242624   5.734   6.865   1.256
14223TIP3   OH242625   3.552   1.486   0.115
14223TIP3    H142626   3.569   1.580   0.105
14223TIP3    H242627   3.467   1.472   0.073
14224TIP3   OH242628   1.725   5.438   0.655
14224TIP3    H142629   1.788   5.469   0.720
14224TIP3    H242630   1.662   5.510   0.646
14225TIP3   OH242631   2.852   3.881   5.745
14225TIP3    H142632   2.849   3.949   5.678
14225TIP3    H242633   2.927   3.826   5.720
14226TIP3   OH242634   5.543   3.313   2.700
14226TIP3    H142635   5.615   3.320   2.763
14226TIP3    H242636   5.464   3.311   2.754
14227TIP3   OH242637   5.869   2.157   1.028
14227TIP3    H142638   5.786   2.197   1.004
14227TIP3    H242639   5.846   2.094   1.096
14228TIP3   OH242640   0.952   2.414   3.360
14228TIP3    H142641   0.941   2.338   3.418
14228TIP3    H242642   0.866   2.456   3.359
14229TIP3   OH242643   3.692   3.436   1.435
14229TIP3    H142644   3.777   3.421   1.478
14229TIP3    H242645   3.629   3.436   1.507
14230TIP3   OH242646   2.536   0.988   4.579
14230TIP3    H142647   2.489   0.943   4.509
14230TIP3    H242648   2.582   1.060   4.535
14231TIP3   OH242649   1.736   5.950   1.484
14231TIP3    H142650   1.701   5.894   1.554
14231TIP3    H242651   1.721   6.039   1.516
14232TIP3   OH242652   2.204   3.140   0.590
14232TIP3    H142653   2.147   3.143   0.667
14232TIP3    H242654   2.187   3.223   0.545
14233TIP3   OH242655   3.763   3.701   5.524
14233TIP3    H142656   3.688   3.641   5.525
14233TIP3    H242657   3.785   3.713   5.617
14234TIP3   OH242658   6.433   2.527   3.350
14234TIP3    H142659   6.344   2.550   3.323
14234TIP3    H242660   6.421   2.472   3.428
14235TIP3   OH242661   3.142   7.665   3.377
14235TIP3    H142662   3.216   7.679   3.436
14235TIP3    H242663   3.133   7.748   3.329
14236TIP3   OH242664   7.918   1.294   5.361
14236TIP3    H142665   7.832   1.272   5.325
14236TIP3    H242666   7.978   1.281   5.287
14237TIP3   OH242667   1.776   3.881   6.088
14237TIP3    H142668   1.767   3.916   5.999
14237TIP3    H242669   1.738   3.794   6.084
14238TIP3   OH242670   3.443   2.089   0.604
14238TIP3    H142671   3.429   2.035   0.526
14238TIP3    H242672   3.534   2.117   0.597
14239TIP3   OH242673   7.549   2.712   4.013
14239TIP3    H142674   7.562   2.805   4.035
14239TIP3    H242675   7.536   2.712   3.918
14240TIP3   OH242676   7.955   1.235   2.632
14240TIP3    H142677   8.040   1.268   2.601
14240TIP3    H242678   7.902   1.314   2.644
14241TIP3   OH242679   2.338   2.383   1.522
14241TIP3    H142680   2.367   2.395   1.613
14241TIP3    H242681   2.307   2.469   1.495
14242TIP3   OH242682   1.149   7.175   5.113
14242TIP3    H142683   1.118   7.167   5.203
14242TIP3    H242684   1.232   7.129   5.111
14243TIP3   OH242685   0.355   4.602   4.674
14243TIP3    H142686   0.349   4.695   4.696
14243TIP3    H242687   0.312   4.557   4.746
14244TIP3   OH242688   3.806   5.259   2.761
14244TIP3    H142689   3.719   5.246   2.800
14244TIP3    H242690   3.863   5.198   2.808
14245TIP3   OH242691   4.799   2.386   4.756
14245TIP3    H142692   4.754   2.461   4.715
14245TIP3    H242693   4.845   2.344   4.684
14246TIP3   OH242694   8.070   4.621   2.367
14246TIP3    H142695   8.118   4.638   2.286
14246TIP3    H242696   8.138   4.613   2.434
14247TIP3   OH242697   4.642   7.211   1.510
14247TIP3    H142698   4.629   7.254   1.595
14247TIP3    H242699   4.597   7.269   1.447
14248TIP3   OH242700   5.711   4.716   3.601
14248TIP3    H142701   5.720   4.809   3.623
14248TIP3    H242702   5.626   4.691   3.636
14249TIP3   OH242703   5.773   2.161   4.726
14249TIP3    H142704   5.866   2.141   4.717
14249TIP3    H242705   5.754   2.219   4.653
14250TIP3   OH242706   1.873   7.387  -0.014
14250TIP3    H142707   1.821   7.366   0.063
14250TIP3    H242708   1.881   7.304  -0.061
14251TIP3   OH242709   6.098   7.005   3.202
14251TIP3    H142710   6.035   7.052   3.257
14251TIP3    H242711   6.179   7.054   3.211
14252TIP3   OH242712   2.015   2.167   2.362
14252TIP3    H142713   2.040   2.259   2.375
14252TIP3    H242714   2.091   2.127   2.320
14253TIP3   OH242715   5.173   3.954   5.633
14253TIP3    H142716   5.110   4.019   5.665
14253TIP3    H242717   5.150   3.874   5.680
14254TIP3   OH242718   6.943   2.919   2.986
14254TIP3    H142719   6.914   2.881   2.903
14254TIP3    H242720   6.863   2.938   3.034
14255TIP3   OH242721   3.969   7.792   5.024
14255TIP3    H142722   3.887   7.840   5.030
14255TIP3    H242723   4.003   7.790   5.114
14256TIP3   OH242724   5.945   2.946   0.017
14256TIP3    H142725   5.926   2.951   0.111
14256TIP3    H242726   5.948   2.852  -0.002
14257TIP3   OH242727   4.083   0.657   5.723
14257TIP3    H142728   4.081   0.752   5.709
14257TIP3    H242729   4.009   0.639   5.781
14258TIP3   OH242730   5.011   3.935   2.298
14258TIP3    H142731   5.002   3.918   2.392
14258TIP3    H242732   5.022   3.849   2.258
14259TIP3   OH242733   5.200   5.963   5.775
14259TIP3    H142734   5.163   5.880   5.802
14259TIP3    H242735   5.280   5.939   5.727
14260TIP3   OH242736   7.302   5.227   1.290
14260TIP3    H142737   7.277   5.222   1.198
14260TIP3    H242738   7.243   5.293   1.327
14261TIP3   OH242739   6.301   6.639   5.755
14261TIP3    H142740   6.284   6.562   5.809
14261TIP3    H242741   6.294   6.713   5.815
14262TIP3   OH242742   0.237   7.307   5.598
14262TIP3    H142743   0.294   7.270   5.665
14262TIP3    H242744   0.191   7.378   5.643
14263TIP3   OH242745   5.386   0.479   2.229
14263TIP3    H142746   5.345   0.528   2.158
14263TIP3    H242747   5.440   0.413   2.186
14264TIP3   OH242748   2.822   5.398   0.633
14264TIP3    H142749   2.733   5.408   0.666
14264TIP3    H242750   2.853   5.488   0.619
14265TIP3   OH242751   1.597   5.197   5.224
14265TIP3    H142752   1.670   5.135   5.221
14265TIP3    H242753   1.618   5.255   5.297
14266TIP3   OH242754   4.824   7.442   3.289
14266TIP3    H142755   4.730   7.426   3.287
14266TIP3    H242756   4.841   7.501   3.216
14267TIP3   OH242757   7.187   2.634   0.700
14267TIP3    H142758   7.214   2.668   0.786
14267TIP3    H242759   7.094   2.613   0.711
14268TIP3   OH242760   6.416   0.930   4.314
14268TIP3    H142761   6.472   1.005   4.331
14268TIP3    H242762   6.443   0.899   4.227
14269TIP3   OH242763   1.408   0.325   0.115
14269TIP3    H142764   1.415   0.229   0.116
14269TIP3    H242765   1.487   0.355   0.161
14270TIP3   OH242766   2.015   7.790   2.543
14270TIP3    H142767   2.069   7.824   2.472
14270TIP3    H242768   1.943   7.852   2.551
14271TIP3   OH242769   4.919   2.176   3.049
14271TIP3    H142770   5.006   2.207   3.022
14271TIP3    H242771   4.887   2.244   3.109
14272TIP3   OH242772   2.994   6.486   1.204
14272TIP3    H142773   3.087   6.495   1.223
14272TIP3    H242774   2.972   6.397   1.231
14273TIP3   OH242775   4.803   5.155   1.743
14273TIP3    H142776   4.828   5.108   1.664
14273TIP3    H242777   4.815   5.091   1.814
14274TIP3   OH242778   2.777   2.780   6.328
14274TIP3    H142779   2.850   2.813   6.381
14274TIP3    H242780   2.810   2.785   6.238
14275TIP3   OH242781   4.931   3.333   4.688
14275TIP3    H142782   5.005   3.376   4.645
14275TIP3    H242783   4.879   3.297   4.616
14276TIP3   OH242784   8.281   5.980   0.649
14276TIP3    H142785   8.246   6.043   0.712
14276TIP3    H242786   8.306   5.904   0.701
14277TIP3   OH242787   8.260   3.681   6.318
14277TIP3    H142788   8.178   3.690   6.270
14277TIP3    H242789   8.311   3.619   6.266
14278TIP3   OH242790   5.148   2.197   3.232
14278TIP3    H142791   5.061   2.221   3.263
14278TIP3    H242792   5.160   2.107   3.261
14279TIP3   OH242793   6.862   2.310   6.504
14279TIP3    H142794   6.933   2.250   6.527
14279TIP3    H242795   6.838   2.287   6.415
14280TIP3   OH242796   3.294   0.233   2.689
14280TIP3    H142797   3.277   0.305   2.629
14280TIP3    H242798   3.208   0.197   2.710
14281TIP3   OH242799   0.438   0.539   0.655
14281TIP3    H142800   0.469   0.463   0.605
14281TIP3    H242801   0.441   0.510   0.746
14282TIP3   OH242802   0.888   5.684   0.429
14282TIP3    H142803   0.942   5.677   0.508
14282TIP3    H242804   0.904   5.602   0.382
14283TIP3   OH242805   6.023   4.531   1.022
14283TIP3    H142806   5.946   4.558   1.071
14283TIP3    H242807   6.068   4.612   1.000
14284TIP3   OH242808   6.821   6.611   2.056
14284TIP3    H142809   6.861   6.633   2.140
14284TIP3    H242810   6.879   6.652   1.991
14285TIP3   OH242811   1.476   1.654   3.010
14285TIP3    H142812   1.515   1.609   3.085
14285TIP3    H242813   1.543   1.715   2.981
14286TIP3   OH242814   6.328   0.967   2.212
14286TIP3    H142815   6.305   1.028   2.142
14286TIP3    H242816   6.254   0.906   2.217
14287TIP3   OH242817   6.004   1.429   6.164
14287TIP3    H142818   5.942   1.357   6.153
14287TIP3    H242819   5.969   1.478   6.239
14288TIP3   OH242820   4.860   7.823   0.149
14288TIP3    H142821   4.868   7.912   0.185
14288TIP3    H242822   4.907   7.768   0.211
14289TIP3   OH242823   7.203   1.873   1.633
14289TIP3    H142824   7.125   1.893   1.580
14289TIP3    H242825   7.168   1.842   1.717
14290TIP3   OH242826   1.244   2.876   5.211
14290TIP3    H142827   1.246   2.817   5.286
14290TIP3    H242828   1.319   2.934   5.224
14291TIP3   OH242829   6.728   4.185   2.728
14291TIP3    H142830   6.675   4.115   2.767
14291TIP3    H242831   6.665   4.242   2.684
14292TIP3   OH242832   0.528   4.964   5.896
14292TIP3    H142833   0.570   5.050   5.894
14292TIP3    H242834   0.508   4.950   5.989
14293TIP3   OH242835   5.295   3.248   1.632
14293TIP3    H142836   5.211   3.260   1.675
14293TIP3    H242837   5.295   3.310   1.560
14294TIP3   OH242838   1.741   1.318   4.310
14294TIP3    H142839   1.765   1.376   4.238
14294TIP3    H242840   1.811   1.253   4.314
14295TIP3   OH242841   4.606   3.868   5.220
14295TIP3    H142842   4.567   3.937   5.273
14295TIP3    H242843   4.671   3.913   5.165
14296TIP3   OH242844   2.392   4.420   3.270
14296TIP3    H142845   2.382   4.452   3.180
14296TIP3    H242846   2.352   4.488   3.324
14297TIP3   OH242847   1.674   6.895   0.949
14297TIP3    H142848   1.580   6.896   0.932
14297TIP3    H242849   1.713   6.935   0.871
14298TIP3   OH242850   7.348   2.030   3.483
14298TIP3    H142851   7.260   2.064   3.465
14298TIP3    H242852   7.404   2.107   3.477
14299TIP3   OH242853   5.575   3.127   0.153
14299TIP3    H142854   5.516   3.068   0.199
14299TIP3    H242855   5.538   3.214   0.167
14300TIP3   OH242856   4.952   6.933   5.498
14300TIP3    H142857   4.931   6.940   5.591
14300TIP3    H242858   4.967   6.840   5.483
14301TIP3   OH242859   3.497   5.271   0.038
14301TIP3    H142860   3.547   5.198   0.001
14301TIP3    H242861   3.464   5.319  -0.038
14302TIP3   OH242862   5.297   4.083   0.262
14302TIP3    H142863   5.292   4.178   0.264
14302TIP3    H242864   5.212   4.053   0.293
14303TIP3   OH242865   0.310   2.147   1.143
14303TIP3    H142866   0.384   2.126   1.200
14303TIP3    H242867   0.349   2.155   1.056
14304TIP3   OH242868   1.880   1.479   4.120
14304TIP3    H142869   1.962   1.434   4.137
14304TIP3    H242870   1.900   1.540   4.049
14305TIP3   OH242871   7.897   4.034   3.573
14305TIP3    H142872   7.920   3.958   3.628
14305TIP3    H242873   7.896   4.108   3.634
14306TIP3   OH242874   5.672   2.569   1.211
14306TIP3    H142875   5.668   2.657   1.249
14306TIP3    H242876   5.585   2.555   1.174
14307TIP3   OH242877   1.314   1.604   4.422
14307TIP3    H142878   1.403   1.608   4.458
14307TIP3    H242879   1.320   1.540   4.352
14308TIP3   OH242880   6.759   1.903   0.954
14308TIP3    H142881   6.844   1.924   0.992
14308TIP3    H242882   6.697   1.957   1.003
14309TIP3   OH242883   0.135   1.021   6.724
14309TIP3    H142884   0.133   0.996   6.632
14309TIP3    H242885   0.069   1.091   6.731
14310TIP3   OH242886   2.613   7.816   5.284
14310TIP3    H142887   2.642   7.739   5.333
14310TIP3    H242888   2.563   7.781   5.211
14311TIP3   OH242889   1.610   7.647   4.290
14311TIP3    H142890   1.588   7.579   4.226
14311TIP3    H242891   1.534   7.650   4.348
14312TIP3   OH242892   2.654   5.211   0.252
14312TIP3    H142893   2.742   5.231   0.284
14312TIP3    H242894   2.609   5.175   0.328
14313TIP3   OH242895   0.071   6.687   2.246
14313TIP3    H142896   0.015   6.700   2.170
14313TIP3    H242897   0.147   6.743   2.230
14314TIP3   OH242898   4.331   7.288   0.412
14314TIP3    H142899   4.279   7.249   0.482
14314TIP3    H242900   4.345   7.217   0.349
14315TIP3   OH242901   7.435   0.679   0.419
14315TIP3    H142902   7.466   0.746   0.480
14315TIP3    H242903   7.432   0.599   0.471
14316TIP3   OH242904   6.972   6.019   6.713
14316TIP3    H142905   6.917   6.090   6.746
14316TIP3    H242906   6.914   5.943   6.712
14317TIP3   OH242907   1.916   6.120   0.160
14317TIP3    H142908   1.893   6.201   0.115
14317TIP3    H242909   1.970   6.072   0.097
14318TIP3   OH242910   4.361   1.830   4.134
14318TIP3    H142911   4.312   1.780   4.199
14318TIP3    H242912   4.373   1.770   4.061
14319TIP3   OH242913   8.155   6.347   4.517
14319TIP3    H142914   8.066   6.373   4.493
14319TIP3    H242915   8.187   6.297   4.443
14320TIP3   OH242916   5.604   4.809   6.012
14320TIP3    H142917   5.660   4.775   5.942
14320TIP3    H242918   5.516   4.779   5.990
14321TIP3   OH242919   0.234   2.790   0.490
14321TIP3    H142920   0.324   2.803   0.521
14321TIP3    H242921   0.180   2.840   0.551
14322TIP3   OH242922   7.196   3.695   2.731
14322TIP3    H142923   7.105   3.717   2.711
14322TIP3    H242924   7.247   3.744   2.666
14323TIP3   OH242925   4.526   4.520   5.250
14323TIP3    H142926   4.484   4.533   5.335
14323TIP3    H242927   4.456   4.530   5.186
14324TIP3   OH242928   0.547   3.171   3.868
14324TIP3    H142929   0.458   3.197   3.843
14324TIP3    H242930   0.553   3.079   3.843
14325TIP3   OH242931   6.638   6.484   4.018
14325TIP3    H142932   6.709   6.440   4.065
14325TIP3    H242933   6.583   6.413   3.985
14326TIP3   OH242934   4.112   3.763   0.101
14326TIP3    H142935   4.021   3.786   0.084
14326TIP3    H242936   4.157   3.780   0.017
14327TIP3   OH242937   0.394   6.439   3.927
14327TIP3    H142938   0.465   6.377   3.942
14327TIP3    H242939   0.416   6.515   3.980
14328TIP3   OH242940   5.848   5.111   3.463
14328TIP3    H142941   5.771   5.073   3.506
14328TIP3    H242942   5.912   5.040   3.462
14329TIP3   OH242943   1.124   2.388   0.511
14329TIP3    H142944   1.069   2.440   0.570
14329TIP3    H242945   1.133   2.442   0.433
14330TIP3   OH242946   5.703   1.156   1.216
14330TIP3    H142947   5.722   1.149   1.309
14330TIP3    H242948   5.692   1.065   1.187
14331TIP3   OH242949   3.944   4.949   3.418
14331TIP3    H142950   3.880   4.974   3.351
14331TIP3    H242951   3.950   5.026   3.475
14332TIP3   OH242952   2.379   0.855   1.247
14332TIP3    H142953   2.338   0.864   1.161
14332TIP3    H242954   2.305   0.851   1.308
14333TIP3   OH242955   0.883   6.969   1.460
14333TIP3    H142956   0.909   7.034   1.395
14333TIP3    H242957   0.942   6.985   1.534
14334TIP3   OH242958   4.966   2.381   3.881
14334TIP3    H142959   5.022   2.306   3.899
14334TIP3    H242960   4.936   2.411   3.966
14335TIP3   OH242961   7.059   4.007   5.667
14335TIP3    H142962   7.121   4.063   5.714
14335TIP3    H242963   6.973   4.035   5.700
14336TIP3   OH242964   6.701   4.568   6.395
14336TIP3    H142965   6.712   4.623   6.317
14336TIP3    H242966   6.616   4.593   6.430
14337TIP3   OH242967   1.120   2.257   3.771
14337TIP3    H142968   1.071   2.235   3.850
14337TIP3    H242969   1.169   2.336   3.795
14338TIP3   OH242970   6.435   7.294   5.471
14338TIP3    H142971   6.342   7.275   5.477
14338TIP3    H242972   6.446   7.377   5.515
14339TIP3   OH242973   2.349   0.627   2.468
14339TIP3    H142974   2.289   0.552   2.468
14339TIP3    H242975   2.417   0.604   2.405
14340TIP3   OH242976   3.095   7.211   3.234
14340TIP3    H142977   3.025   7.196   3.298
14340TIP3    H242978   3.137   7.292   3.263
14341TIP3   OH242979   0.075   5.407   2.690
14341TIP3    H142980  -0.009   5.398   2.646
14341TIP3    H242981   0.140   5.397   2.621
14342TIP3   OH242982   5.305   5.362   2.341
14342TIP3    H142983   5.283   5.452   2.318
14342TIP3    H242984   5.298   5.359   2.436
14343TIP3   OH242985   6.063   2.892   1.583
14343TIP3    H142986   6.083   2.827   1.517
14343TIP3    H242987   6.082   2.976   1.541
14344TIP3   OH242988   1.284   5.636   4.007
14344TIP3    H142989   1.270   5.645   4.101
14344TIP3    H242990   1.282   5.541   3.992
14345TIP3   OH242991   5.860   7.654   4.369
14345TIP3    H142992   5.886   7.631   4.279
14345TIP3    H242993   5.834   7.746   4.364
14346TIP3   OH242994   7.603   2.400   6.617
14346TIP3    H142995   7.614   2.420   6.524
14346TIP3    H242996   7.692   2.395   6.652
14347TIP3   OH242997   6.451   5.068   2.954
14347TIP3    H142998   6.486   4.988   2.992
14347TIP3    H242999   6.520   5.100   2.896
14348TIP3   OH243000   1.130   2.708   1.063
14348TIP3    H143001   1.074   2.635   1.039
14348TIP3    H243002   1.219   2.672   1.059
14349TIP3   OH243003   4.903   3.457   6.126
14349TIP3    H143004   4.850   3.429   6.201
14349TIP3    H243005   4.993   3.438   6.151
14350TIP3   OH243006   0.899   5.629   6.147
14350TIP3    H143007   0.843   5.693   6.105
14350TIP3    H243008   0.963   5.605   6.080
14351TIP3   OH243009   2.854   0.703   1.817
14351TIP3    H143010   2.944   0.734   1.828
14351TIP3    H243011   2.818   0.703   1.906
14352TIP3   OH243012   4.076   7.571   6.675
14352TIP3    H143013   4.020   7.646   6.655
14352TIP3    H243014   4.077   7.518   6.595
14353TIP3   OH243015   0.746   3.503   0.584
14353TIP3    H143016   0.829   3.529   0.543
14353TIP3    H243017   0.682   3.509   0.513
14354TIP3   OH243018   8.163   5.503   4.855
14354TIP3    H143019   8.225   5.503   4.782
14354TIP3    H243020   8.078   5.487   4.814
14355TIP3   OH243021   4.615   4.892   5.444
14355TIP3    H143022   4.675   4.967   5.449
14355TIP3    H243023   4.528   4.932   5.436
14356TIP3   OH243024   7.144   7.137   4.723
14356TIP3    H143025   7.084   7.187   4.778
14356TIP3    H243026   7.231   7.157   4.759
14357TIP3   OH243027   4.911   7.504   0.675
14357TIP3    H143028   5.003   7.506   0.703
14357TIP3    H243029   4.863   7.483   0.755
14358TIP3   OH243030   5.108   2.526   2.796
14358TIP3    H143031   5.086   2.443   2.839
14358TIP3    H243032   5.058   2.524   2.714
14359TIP3   OH243033   1.714   4.492   6.417
14359TIP3    H143034   1.653   4.420   6.436
14359TIP3    H243035   1.730   4.533   6.502
14360TIP3   OH243036   4.622   1.954   6.613
14360TIP3    H143037   4.691   1.888   6.622
14360TIP3    H243038   4.667   2.032   6.581
14361TIP3   OH243039   1.931   1.972   4.792
14361TIP3    H143040   1.890   2.020   4.865
14361TIP3    H243041   1.966   1.893   4.833
14362TIP3   OH243042   3.128   5.584   5.594
14362TIP3    H143043   3.156   5.617   5.509
14362TIP3    H243044   3.208   5.579   5.646
14363TIP3   OH243045   1.625   0.581   6.373
14363TIP3    H143046   1.583   0.666   6.389
14363TIP3    H243047   1.660   0.556   6.458
14364TIP3   OH243048   1.563   1.456   5.184
14364TIP3    H143049   1.631   1.402   5.224
14364TIP3    H243050   1.589   1.463   5.092
14365TIP3   OH243051   2.507   3.759   5.945
14365TIP3    H143052   2.420   3.747   5.984
14365TIP3    H243053   2.559   3.687   5.981
14366TIP3   OH243054   0.739   2.239   5.613
14366TIP3    H143055   0.682   2.226   5.536
14366TIP3    H243056   0.828   2.236   5.578
14367TIP3   OH243057   2.944   1.945   5.046
14367TIP3    H143058   2.971   2.003   4.974
14367TIP3    H243059   2.946   1.857   5.008
14368TIP3   OH243060   5.257   0.673   3.680
14368TIP3    H143061   5.190   0.702   3.618
14368TIP3    H243062   5.244   0.729   3.757
14369TIP3   OH243063   4.597   4.080   2.848
14369TIP3    H143064   4.552   3.999   2.869
14369TIP3    H243065   4.687   4.054   2.830
14370TIP3   OH243066   2.897   2.851   1.893
14370TIP3    H143067   2.871   2.760   1.907
14370TIP3    H243068   2.831   2.903   1.939
14371TIP3   OH243069   5.967   7.253   3.742
14371TIP3    H143070   5.933   7.228   3.828
14371TIP3    H243071   6.039   7.193   3.726
14372TIP3   OH243072   6.362   7.360   4.713
14372TIP3    H143073   6.382   7.368   4.619
14372TIP3    H243074   6.334   7.269   4.723
14373TIP3   OH243075   1.657   4.185   4.799
14373TIP3    H143076   1.678   4.259   4.857
14373TIP3    H243077   1.566   4.200   4.774
14374TIP3   OH243078   5.568   0.307   1.648
14374TIP3    H143079   5.473   0.320   1.645
14374TIP3    H243080   5.603   0.380   1.597
14375TIP3   OH243081   0.390   4.497   3.255
14375TIP3    H143082   0.333   4.485   3.179
14375TIP3    H243083   0.340   4.461   3.328
14376TIP3   OH243084   1.184   4.736   5.963
14376TIP3    H143085   1.159   4.773   6.048
14376TIP3    H243086   1.101   4.720   5.918
14377TIP3   OH243087   1.387   7.741   6.212
14377TIP3    H143088   1.304   7.740   6.260
14377TIP3    H243089   1.444   7.795   6.267
14378TIP3   OH243090   3.475   2.730   2.453
14378TIP3    H143091   3.538   2.797   2.426
14378TIP3    H243092   3.389   2.771   2.440
14379TIP3   OH243093   6.380   3.254   0.087
14379TIP3    H143094   6.297   3.207   0.097
14379TIP3    H243095   6.425   3.210   0.015
14380TIP3   OH243096   4.558   4.218   0.465
14380TIP3    H143097   4.500   4.155   0.424
14380TIP3    H243098   4.519   4.236   0.551
14381TIP3   OH243099   0.077   3.825   1.292
14381TIP3    H143100   0.072   3.888   1.364
14381TIP3    H243101   0.053   3.741   1.331
14382TIP3   OH243102   2.946   7.048   1.544
14382TIP3    H143103   2.946   7.057   1.639
14382TIP3    H243104   2.855   7.067   1.519
14383TIP3   OH243105   8.022   6.675   5.822
14383TIP3    H143106   8.113   6.652   5.803
14383TIP3    H243107   8.008   6.756   5.772
14384TIP3   OH243108   2.546   0.676   2.711
14384TIP3    H143109   2.517   0.714   2.794
14384TIP3    H243110   2.489   0.715   2.645
14385TIP3   OH243111   3.475   4.184   5.477
14385TIP3    H143112   3.433   4.191   5.391
14385TIP3    H243113   3.406   4.207   5.540
14386TIP3   OH243114   6.333   6.281   4.206
14386TIP3    H143115   6.343   6.358   4.150
14386TIP3    H243116   6.318   6.208   4.145
14387TIP3   OH243117   0.240   5.621   3.495
14387TIP3    H143118   0.330   5.623   3.526
14387TIP3    H243119   0.188   5.639   3.573
14388TIP3   OH243120   2.745   6.483   1.714
14388TIP3    H143121   2.748   6.574   1.742
14388TIP3    H243122   2.822   6.442   1.753
14389TIP3   OH243123   7.105   2.587   2.516
14389TIP3    H143124   7.114   2.620   2.606
14389TIP3    H243125   7.058   2.656   2.470
14390TIP3   OH243126   4.230   0.029   3.422
14390TIP3    H143127   4.136   0.028   3.404
14390TIP3    H243128   4.248   0.120   3.447
14391TIP3   OH243129   6.575   6.221   1.778
14391TIP3    H143130   6.618   6.204   1.862
14391TIP3    H243131   6.566   6.317   1.776
14392TIP3   OH243132   5.799   5.581   1.740
14392TIP3    H143133   5.887   5.543   1.738
14392TIP3    H243134   5.745   5.519   1.690
14393TIP3   OH243135   3.164   6.456   4.342
14393TIP3    H143136   3.083   6.417   4.309
14393TIP3    H243137   3.186   6.406   4.420
14394TIP3   OH243138   3.457   4.498   4.259
14394TIP3    H143139   3.478   4.583   4.220
14394TIP3    H243140   3.366   4.506   4.288
14395TIP3   OH243141   3.452   3.951   6.117
14395TIP3    H143142   3.514   3.958   6.190
14395TIP3    H243143   3.397   4.029   6.125
14396TIP3   OH243144   1.036   1.727   2.550
14396TIP3    H143145   0.960   1.786   2.556
14396TIP3    H243146   1.033   1.676   2.630
14397TIP3   OH243147   3.388   5.362   1.438
14397TIP3    H143148   3.470   5.335   1.479
14397TIP3    H243149   3.329   5.379   1.512
14398TIP3   OH243150   2.626   3.296   0.640
14398TIP3    H143151   2.579   3.257   0.713
14398TIP3    H243152   2.574   3.273   0.563
14399TIP3   OH243153   7.686   4.692   2.670
14399TIP3    H143154   7.633   4.695   2.750
14399TIP3    H243155   7.745   4.618   2.684
14400TIP3   OH243156   1.922   1.375   5.362
14400TIP3    H143157   1.976   1.317   5.416
14400TIP3    H243158   1.895   1.321   5.288
14401TIP3   OH243159   3.258   3.339   0.232
14401TIP3    H143160   3.184   3.383   0.274
14401TIP3    H243161   3.240   3.344   0.138
14402TIP3   OH243162   7.039   0.288   0.399
14402TIP3    H143163   7.044   0.313   0.307
14402TIP3    H243164   6.982   0.211   0.399
14403TIP3   OH243165   2.472   7.528   6.729
14403TIP3    H143166   2.560   7.509   6.696
14403TIP3    H243167   2.479   7.515   6.824
14404TIP3   OH243168   4.930   4.213   3.736
14404TIP3    H143169   4.988   4.165   3.678
14404TIP3    H243170   4.848   4.222   3.686
14405TIP3   OH243171   4.913   6.593   3.165
14405TIP3    H143172   4.851   6.525   3.137
14405TIP3    H243173   4.914   6.587   3.260
14406TIP3   OH243174   5.599   5.713   4.534
14406TIP3    H143175   5.545   5.766   4.476
14406TIP3    H243176   5.536   5.659   4.582
14407TIP3   OH243177   7.463   2.836   5.614
14407TIP3    H143178   7.404   2.761   5.620
14407TIP3    H243179   7.527   2.810   5.547
14408TIP3   OH243180   3.479   5.952   0.673
14408TIP3    H143181   3.457   5.894   0.600
14408TIP3    H243182   3.557   5.998   0.645
14409TIP3   OH243183   0.704   2.426   1.085
14409TIP3    H143184   0.709   2.423   1.181
14409TIP3    H243185   0.618   2.465   1.067
14410TIP3   OH243186   3.749   5.904   3.790
14410TIP3    H143187   3.778   5.813   3.779
14410TIP3    H243188   3.715   5.929   3.704
14411TIP3   OH243189   4.771   3.685   0.306
14411TIP3    H143190   4.696   3.738   0.331
14411TIP3    H243191   4.800   3.643   0.387
14412TIP3   OH243192   3.357   3.098   6.744
14412TIP3    H143193   3.395   3.014   6.716
14412TIP3    H243194   3.290   3.117   6.679
14413TIP3   OH243195   8.076   0.337   1.959
14413TIP3    H143196   8.020   0.262   1.939
14413TIP3    H243197   8.056   0.358   2.050
14414TIP3   OH243198   7.724   1.469   3.723
14414TIP3    H143199   7.757   1.437   3.807
14414TIP3    H243200   7.667   1.398   3.692
14415TIP3   OH243201   5.683   6.055   2.617
14415TIP3    H143202   5.766   6.097   2.593
14415TIP3    H243203   5.703   5.962   2.618
14416TIP3   OH243204   0.396   4.551   0.751
14416TIP3    H143205   0.312   4.507   0.741
14416TIP3    H243206   0.417   4.542   0.844
14417TIP3   OH243207   7.822   6.387   2.801
14417TIP3    H143208   7.913   6.386   2.833
14417TIP3    H243209   7.819   6.314   2.739
14418TIP3   OH243210   5.182   0.637   1.114
14418TIP3    H143211   5.097   0.593   1.112
14418TIP3    H243212   5.245   0.567   1.098
14419TIP3   OH243213   6.059   5.215   5.249
14419TIP3    H143214   6.046   5.149   5.318
14419TIP3    H243215   5.983   5.272   5.256
14420TIP3   OH243216   4.163   5.692   0.981
14420TIP3    H143217   4.153   5.773   1.031
14420TIP3    H243218   4.121   5.710   0.897
14421TIP3   OH243219   6.380   5.646   3.212
14421TIP3    H143220   6.443   5.707   3.173
14421TIP3    H243221   6.402   5.562   3.173
14422TIP3   OH243222   3.519   7.202   6.273
14422TIP3    H143223   3.466   7.141   6.223
14422TIP3    H243224   3.608   7.171   6.262
14423TIP3   OH243225   8.064   3.258   4.245
14423TIP3    H143226   8.041   3.351   4.245
14423TIP3    H243227   7.991   3.215   4.200
14424TIP3   OH243228   6.390   3.311   3.123
14424TIP3    H143229   6.313   3.257   3.105
14424TIP3    H243230   6.418   3.284   3.210
14425TIP3   OH243231   0.600   3.222   0.549
14425TIP3    H143232   0.629   3.314   0.549
14425TIP3    H243233   0.657   3.180   0.485
14426TIP3   OH243234   7.492   2.479   1.326
14426TIP3    H143235   7.537   2.511   1.404
14426TIP3    H243236   7.511   2.544   1.258
14427TIP3   OH243237   2.166   2.391   3.526
14427TIP3    H143238   2.198   2.399   3.436
14427TIP3    H243239   2.115   2.471   3.541
14428TIP3   OH243240   7.755   1.809   0.565
14428TIP3    H143241   7.771   1.902   0.557
14428TIP3    H243242   7.660   1.800   0.553
14429TIP3   OH243243   0.069   5.627   3.080
14429TIP3    H143244  -0.002   5.678   3.041
14429TIP3    H243245   0.029   5.581   3.153
14430TIP3   OH243246   1.590   2.173   1.796
14430TIP3    H143247   1.600   2.209   1.884
14430TIP3    H243248   1.509   2.212   1.763
14431TIP3   OH243249   7.114   4.600   6.664
14431TIP3    H143250   7.114   4.695   6.651
14431TIP3    H243251   7.179   4.585   6.733
14432TIP3   OH243252   4.798   3.690   6.464
14432TIP3    H143253   4.755   3.758   6.411
14432TIP3    H243254   4.746   3.685   6.544
14433TIP3   OH243255   7.568   7.214   6.517
14433TIP3    H143256   7.513   7.160   6.573
14433TIP3    H243257   7.652   7.168   6.514
14434TIP3   OH243258   1.664   7.694   3.456
14434TIP3    H143259   1.678   7.632   3.384
14434TIP3    H243260   1.595   7.752   3.425
14435TIP3   OH243261   6.538   7.632   0.686
14435TIP3    H143262   6.610   7.684   0.720
14435TIP3    H243263   6.574   7.544   0.677
14436TIP3   OH243264   1.504   2.999   6.802
14436TIP3    H143265   1.548   3.071   6.758
14436TIP3    H243266   1.568   2.928   6.803
14437TIP3   OH243267   8.235   7.516   5.303
14437TIP3    H143268   8.317   7.532   5.256
14437TIP3    H243269   8.237   7.576   5.377
14438TIP3   OH243270   3.512   0.748   6.152
14438TIP3    H143271   3.554   0.670   6.189
14438TIP3    H243272   3.452   0.777   6.221
14439TIP3   OH243273   8.110   7.843   2.892
14439TIP3    H143274   8.161   7.764   2.876
14439TIP3    H243275   8.076   7.868   2.806
14440TIP3   OH243276   1.714   0.533   6.645
14440TIP3    H143277   1.746   0.453   6.688
14440TIP3    H243278   1.767   0.603   6.682
14441TIP3   OH243279   8.300   4.912   2.942
14441TIP3    H143280   8.246   4.904   2.864
14441TIP3    H243281   8.273   4.839   2.998
14442TIP3   OH243282   4.452   6.647   6.340
14442TIP3    H143283   4.498   6.565   6.356
14442TIP3    H243284   4.455   6.693   6.424
14443TIP3   OH243285   6.626   5.996   5.461
14443TIP3    H143286   6.634   5.915   5.411
14443TIP3    H243287   6.624   5.968   5.552
14444TIP3   OH243288   4.150   2.732   6.756
14444TIP3    H143289   4.065   2.701   6.726
14444TIP3    H243290   4.130   2.806   6.813
14445TIP3   OH243291   2.676   1.306   3.360
14445TIP3    H143292   2.597   1.296   3.308
14445TIP3    H243293   2.719   1.384   3.325
14446TIP3   OH243294   2.066   4.053   4.833
14446TIP3    H143295   2.006   3.986   4.869
14446TIP3    H243296   2.151   4.009   4.830
14447TIP3   OH243297   0.688   6.340   4.752
14447TIP3    H143298   0.668   6.421   4.705
14447TIP3    H243299   0.664   6.358   4.843
14448TIP3   OH243300   6.088   0.927   6.468
14448TIP3    H143301   6.027   0.853   6.475
14448TIP3    H243302   6.107   0.935   6.375
14449TIP3   OH243303   2.236   7.201   1.129
14449TIP3    H143304   2.304   7.161   1.184
14449TIP3    H243305   2.230   7.291   1.160
14450TIP3   OH243306   5.506   2.492   0.793
14450TIP3    H143307   5.589   2.539   0.788
14450TIP3    H243308   5.459   2.534   0.865
14451TIP3   OH243309   3.372   2.505   2.886
14451TIP3    H143310   3.435   2.474   2.822
14451TIP3    H243311   3.287   2.473   2.855
14452TIP3   OH243312   1.968   4.918   4.716
14452TIP3    H143313   2.032   4.959   4.658
14452TIP3    H243314   1.981   4.960   4.801
14453TIP3   OH243315   3.509   3.192   4.596
14453TIP3    H143316   3.514   3.281   4.632
14453TIP3    H243317   3.477   3.204   4.506
14454TIP3   OH243318   0.324   3.244   0.005
14454TIP3    H143319   0.245   3.233   0.059
14454TIP3    H243320   0.392   3.268   0.068
14455TIP3   OH243321   2.885   6.260   1.305
14455TIP3    H143322   2.890   6.233   1.397
14455TIP3    H243323   2.879   6.178   1.256
14456TIP3   OH243324   8.181   4.032   0.242
14456TIP3    H143325   8.105   4.053   0.297
14456TIP3    H243326   8.169   4.086   0.164
14457TIP3   OH243327   3.039   3.990   2.729
14457TIP3    H143328   3.090   3.940   2.793
14457TIP3    H243329   3.033   4.078   2.767
14458TIP3   OH243330   2.582   2.907   3.675
14458TIP3    H143331   2.606   2.972   3.609
14458TIP3    H243332   2.589   2.953   3.759
14459TIP3   OH243333   0.297   7.210   1.783
14459TIP3    H143334   0.270   7.132   1.832
14459TIP3    H243335   0.362   7.178   1.721
14460TIP3   OH243336   8.046   1.039   5.389
14460TIP3    H143337   8.015   1.114   5.339
14460TIP3    H243338   8.141   1.040   5.377
14461TIP3   OH243339   7.438   0.467   2.102
14461TIP3    H143340   7.422   0.406   2.030
14461TIP3    H243341   7.500   0.530   2.066
14462TIP3   OH243342   2.566   3.433   5.382
14462TIP3    H143343   2.565   3.361   5.319
14462TIP3    H243344   2.480   3.429   5.423
14463TIP3   OH243345   3.635   4.106   4.608
14463TIP3    H143346   3.670   4.017   4.610
14463TIP3    H243347   3.545   4.096   4.640
14464TIP3   OH243348   5.999   4.934   0.262
14464TIP3    H143349   6.037   5.014   0.227
14464TIP3    H243350   5.945   4.962   0.335
14465TIP3   OH243351   2.307   4.458   1.931
14465TIP3    H143352   2.215   4.433   1.937
14465TIP3    H243353   2.353   4.393   1.986
14466TIP3   OH243354   1.195   0.911   5.806
14466TIP3    H143355   1.182   0.817   5.809
14466TIP3    H243356   1.220   0.935   5.896
14467TIP3   OH243357   4.447   2.172   2.228
14467TIP3    H143358   4.447   2.086   2.270
14467TIP3    H243359   4.355   2.198   2.225
14468TIP3   OH243360   3.072   0.316   3.840
14468TIP3    H143361   3.116   0.264   3.773
14468TIP3    H243362   3.128   0.392   3.854
14469TIP3   OH243363   2.094   6.308   5.170
14469TIP3    H143364   2.030   6.306   5.241
14469TIP3    H243365   2.061   6.246   5.105
14470TIP3   OH243366   6.684   6.554   4.332
14470TIP3    H143367   6.705   6.613   4.260
14470TIP3    H243368   6.660   6.471   4.289
14471TIP3   OH243369   2.434   4.544   6.147
14471TIP3    H143370   2.391   4.629   6.150
14471TIP3    H243371   2.503   4.554   6.082
14472TIP3   OH243372   6.153   0.960   5.407
14472TIP3    H143373   6.187   0.876   5.378
14472TIP3    H243374   6.164   0.960   5.502
14473TIP3   OH243375   5.706   4.234   0.741
14473TIP3    H143376   5.672   4.268   0.658
14473TIP3    H243377   5.721   4.311   0.795
14474TIP3   OH243378   3.768   5.072   5.097
14474TIP3    H143379   3.818   5.138   5.143
14474TIP3    H243380   3.678   5.103   5.100
14475TIP3   OH243381   2.319   3.469   1.691
14475TIP3    H143382   2.304   3.414   1.768
14475TIP3    H243383   2.401   3.515   1.710
14476TIP3   OH243384   8.161   0.893   6.524
14476TIP3    H143385   8.093   0.932   6.469
14476TIP3    H243386   8.241   0.938   6.499
14477TIP3   OH243387   0.199   4.229   0.640
14477TIP3    H143388   0.196   4.185   0.725
14477TIP3    H243389   0.145   4.174   0.583
14478TIP3   OH243390   4.936   5.708   6.474
14478TIP3    H143391   4.868   5.655   6.434
14478TIP3    H243392   4.963   5.769   6.405
14479TIP3   OH243393   1.587   3.710   2.300
14479TIP3    H143394   1.553   3.746   2.218
14479TIP3    H243395   1.512   3.708   2.358
14480TIP3   OH243396   0.970   3.006   5.596
14480TIP3    H143397   1.062   3.003   5.572
14480TIP3    H243398   0.944   3.097   5.582
14481TIP3   OH243399   1.556   7.150   0.580
14481TIP3    H143400   1.623   7.085   0.598
14481TIP3    H243401   1.604   7.232   0.568
14482TIP3   OH243402   5.911   0.211   6.256
14482TIP3    H143403   5.863   0.294   6.260
14482TIP3    H243404   5.884   0.163   6.334
14483TIP3   OH243405   1.438   3.525   1.003
14483TIP3    H143406   1.369   3.459   1.002
14483TIP3    H243407   1.457   3.539   1.095
14484TIP3   OH243408   4.324   3.327   0.518
14484TIP3    H143409   4.238   3.362   0.543
14484TIP3    H243410   4.383   3.355   0.588
14485TIP3   OH243411   1.554   7.018   2.450
14485TIP3    H143412   1.511   7.063   2.377
14485TIP3    H243413   1.511   7.053   2.528
14486TIP3   OH243414   7.716   7.598   6.063
14486TIP3    H143415   7.737   7.505   6.064
14486TIP3    H243416   7.630   7.604   6.103
14487TIP3   OH243417   1.504   4.818   3.698
14487TIP3    H143418   1.583   4.871   3.711
14487TIP3    H243419   1.524   4.735   3.741
14488TIP3   OH243420   2.490   7.069   0.028
14488TIP3    H143421   2.407   7.096  -0.013
14488TIP3    H243422   2.556   7.123  -0.013
14489TIP3   OH243423   4.678   1.629   4.005
14489TIP3    H143424   4.607   1.584   3.960
14489TIP3    H243425   4.754   1.620   3.947
14490TIP3   OH243426   2.776   0.803   3.735
14490TIP3    H143427   2.822   0.720   3.752
14490TIP3    H243428   2.712   0.781   3.667
14491TIP3   OH243429   7.613   0.660   4.503
14491TIP3    H143430   7.521   0.688   4.504
14491TIP3    H243431   7.660   0.734   4.464
14492TIP3   OH243432   3.986   1.354   1.222
14492TIP3    H143433   3.986   1.348   1.127
14492TIP3    H243434   4.024   1.271   1.251
14493TIP3   OH243435   1.166   3.829   3.002
14493TIP3    H143436   1.225   3.889   2.956
14493TIP3    H243437   1.170   3.748   2.951
14494TIP3   OH243438   7.187   6.707   3.821
14494TIP3    H143439   7.279   6.684   3.807
14494TIP3    H243440   7.141   6.623   3.822
14495TIP3   OH243441   1.471   0.715   2.141
14495TIP3    H143442   1.394   0.761   2.173
14495TIP3    H243443   1.456   0.623   2.164
14496TIP3   OH243444   1.662   5.386   2.797
14496TIP3    H143445   1.671   5.457   2.861
14496TIP3    H243446   1.745   5.387   2.749
14497TIP3   OH243447   2.085   4.084   3.081
14497TIP3    H143448   2.059   4.171   3.111
14497TIP3    H243449   2.020   4.061   3.015
14498TIP3   OH243450   0.977   0.851   0.952
14498TIP3    H143451   0.987   0.849   0.857
14498TIP3    H243452   0.883   0.837   0.966
14499TIP3   OH243453   2.290   0.304   1.932
14499TIP3    H143454   2.303   0.211   1.913
14499TIP3    H243455   2.315   0.313   2.024
14500TIP3   OH243456   5.235   2.422   5.693
14500TIP3    H143457   5.196   2.454   5.612
14500TIP3    H243458   5.313   2.374   5.666
14501TIP3   OH243459   2.731   6.775   1.700
14501TIP3    H143460   2.779   6.819   1.629
14501TIP3    H243461   2.738   6.835   1.774
14502TIP3   OH243462   0.515   4.765   3.537
14502TIP3    H143463   0.515   4.861   3.530
14502TIP3    H243464   0.519   4.747   3.630
14503TIP3   OH243465   5.852   0.255   1.063
14503TIP3    H143466   5.779   0.290   1.114
14503TIP3    H243467   5.908   0.331   1.045
14504TIP3   OH243468   3.378   6.010   6.086
14504TIP3    H143469   3.341   5.948   6.150
14504TIP3    H243470   3.302   6.042   6.037
14505TIP3   OH243471   3.519   3.855   4.431
14505TIP3    H143472   3.484   3.899   4.508
14505TIP3    H243473   3.458   3.783   4.414
14506TIP3   OH243474   3.001   4.027   0.341
14506TIP3    H143475   2.916   4.071   0.334
14506TIP3    H243476   3.037   4.058   0.424
14507TIP3   OH243477   0.644   3.315   5.882
14507TIP3    H143478   0.668   3.251   5.815
14507TIP3    H243479   0.557   3.346   5.856
14508TIP3   OH243480   2.639   2.422   2.222
14508TIP3    H143481   2.618   2.444   2.313
14508TIP3    H243482   2.703   2.350   2.229
14509TIP3   OH243483   4.896   4.393   5.912
14509TIP3    H143484   4.869   4.467   5.967
14509TIP3    H243485   4.847   4.318   5.946
14510TIP3   OH243486   3.290   3.647   3.834
14510TIP3    H143487   3.322   3.573   3.782
14510TIP3    H243488   3.197   3.651   3.815
14511TIP3   OH243489   1.370   3.493   4.101
14511TIP3    H143490   1.303   3.425   4.105
14511TIP3    H243491   1.452   3.445   4.092
14512TIP3   OH243492   4.059   1.502   0.266
14512TIP3    H143493   3.967   1.518   0.288
14512TIP3    H243494   4.056   1.450   0.186
14513TIP3   OH243495   2.830   6.290   5.052
14513TIP3    H143496   2.889   6.226   5.012
14513TIP3    H243497   2.876   6.319   5.130
14514TIP3   OH243498   6.032   7.539   1.068
14514TIP3    H143499   6.124   7.543   1.093
14514TIP3    H243500   6.004   7.451   1.093
14515TIP3   OH243501   5.053   4.775   3.716
14515TIP3    H143502   5.014   4.843   3.661
14515TIP3    H243503   4.982   4.745   3.772
14516TIP3   OH243504   1.345   5.064   5.053
14516TIP3    H143505   1.347   5.130   5.123
14516TIP3    H243506   1.436   5.060   5.021
14517TIP3   OH243507   1.559   6.778   4.296
14517TIP3    H143508   1.496   6.792   4.225
14517TIP3    H243509   1.593   6.690   4.281
14518TIP3   OH243510   3.581   4.336   6.602
14518TIP3    H143511   3.526   4.291   6.538
14518TIP3    H243512   3.568   4.288   6.683
14519TIP3   OH243513   2.981   6.169   0.462
14519TIP3    H143514   2.995   6.252   0.415
14519TIP3    H243515   2.899   6.182   0.509
14520TIP3   OH243516   2.701   0.370   2.433
14520TIP3    H143517   2.783   0.324   2.413
14520TIP3    H243518   2.639   0.338   2.367
14521TIP3   OH243519   6.888   2.324   3.425
14521TIP3    H143520   6.831   2.374   3.367
14521TIP3    H243521   6.830   2.263   3.470
14522TIP3   OH243522   2.217   4.057   5.485
14522TIP3    H143523   2.289   4.086   5.541
14522TIP3    H243524   2.183   3.978   5.528
14523TIP3   OH243525   7.009   7.816   2.477
14523TIP3    H143526   7.057   7.735   2.459
14523TIP3    H243527   7.073   7.886   2.463
14524TIP3   OH243528   5.278   1.510   0.369
14524TIP3    H143529   5.352   1.499   0.308
14524TIP3    H243530   5.303   1.584   0.424
14525TIP3   OH243531   7.546   0.592   2.699
14525TIP3    H143532   7.639   0.573   2.699
14525TIP3    H243533   7.535   0.663   2.636
14526TIP3   OH243534   3.626   2.349   4.183
14526TIP3    H143535   3.618   2.410   4.110
14526TIP3    H243536   3.658   2.268   4.144
14527TIP3   OH243537   3.987   4.822   0.449
14527TIP3    H143538   4.068   4.793   0.492
14527TIP3    H243539   4.014   4.849   0.362
14528TIP3   OH243540   6.734   0.148   0.976
14528TIP3    H143541   6.772   0.217   1.030
14528TIP3    H243542   6.756   0.067   1.021
14529TIP3   OH243543   4.132   6.961   6.685
14529TIP3    H143544   4.081   7.037   6.655
14529TIP3    H243545   4.069   6.889   6.684
14530TIP3   OH243546   4.858   1.335   0.976
14530TIP3    H143547   4.804   1.268   0.935
14530TIP3    H243548   4.796   1.400   1.008
14531TIP3   OH243549   2.620   4.994   1.067
14531TIP3    H143550   2.555   4.996   0.997
14531TIP3    H243551   2.695   5.041   1.033
14532TIP3   OH243552   0.820   2.123  -0.032
14532TIP3    H143553   0.783   2.114   0.055
14532TIP3    H243554   0.752   2.167  -0.084
14533TIP3   OH243555   7.775   6.910   1.807
14533TIP3    H143556   7.849   6.876   1.758
14533TIP3    H243557   7.735   6.833   1.848
14534TIP3   OH243558   1.571   3.298   3.194
14534TIP3    H143559   1.486   3.339   3.207
14534TIP3    H243560   1.552   3.213   3.154
14535TIP3   OH243561   3.922   6.216   3.558
14535TIP3    H143562   3.916   6.248   3.648
14535TIP3    H243563   3.835   6.232   3.521
14536TIP3   OH243564   3.696   2.951   6.403
14536TIP3    H143565   3.758   2.952   6.476
14536TIP3    H243566   3.677   3.044   6.386
14537TIP3   OH243567   0.249   0.359   2.221
14537TIP3    H143568   0.287   0.383   2.137
14537TIP3    H243569   0.178   0.422   2.233
14538TIP3   OH243570   7.905   2.505   2.852
14538TIP3    H143571   7.957   2.450   2.794
14538TIP3    H243572   7.935   2.594   2.834
14539TIP3   OH243573   2.559   6.652   1.520
14539TIP3    H143574   2.626   6.622   1.460
14539TIP3    H243575   2.604   6.659   1.604
14540TIP3   OH243576   3.904   5.903   2.256
14540TIP3    H143577   3.965   5.929   2.186
14540TIP3    H243578   3.817   5.919   2.219
14541TIP3   OH243579   1.193   5.019   0.672
14541TIP3    H143580   1.140   4.989   0.746
14541TIP3    H243581   1.234   5.099   0.703
14542TIP3   OH243582   1.187   4.381   6.476
14542TIP3    H143583   1.219   4.360   6.388
14542TIP3    H243584   1.171   4.475   6.473
14543TIP3   OH243585   6.677   5.732   0.584
14543TIP3    H143586   6.626   5.775   0.653
14543TIP3    H243587   6.738   5.676   0.632
14544TIP3   OH243588   2.447   4.181   0.352
14544TIP3    H143589   2.448   4.266   0.398
14544TIP3    H243590   2.465   4.203   0.261
14545TIP3   OH243591   1.391   6.865   1.339
14545TIP3    H143592   1.467   6.806   1.341
14545TIP3    H243593   1.344   6.842   1.260
14546TIP3   OH243594   1.483   4.541   3.798
14546TIP3    H143595   1.555   4.519   3.740
14546TIP3    H243596   1.425   4.465   3.796
14547TIP3   OH243597   3.433   4.159   6.418
14547TIP3    H143598   3.350   4.144   6.374
14547TIP3    H243599   3.499   4.122   6.359
14548TIP3   OH243600   7.066   4.862   0.526
14548TIP3    H143601   7.067   4.841   0.432
14548TIP3    H243602   7.091   4.781   0.569
14549TIP3   OH243603   2.537   6.225   3.406
14549TIP3    H143604   2.553   6.311   3.446
14549TIP3    H243605   2.595   6.166   3.453
14550TIP3   OH243606   5.724   1.938   1.204
14550TIP3    H143607   5.644   1.950   1.256
14550TIP3    H243608   5.695   1.952   1.114
14551TIP3   OH243609   2.576   3.220   3.804
14551TIP3    H143610   2.659   3.227   3.849
14551TIP3    H243611   2.598   3.222   3.711
14552TIP3   OH243612   4.017   7.195   6.623
14552TIP3    H143613   3.923   7.192   6.606
14552TIP3    H243614   4.026   7.254   6.697
14553TIP3   OH243615   3.408   7.455   5.087
14553TIP3    H143616   3.370   7.531   5.044
14553TIP3    H243617   3.498   7.451   5.054
14554TIP3   OH243618   2.472   4.872   6.052
14554TIP3    H143619   2.557   4.876   6.007
14554TIP3    H243620   2.474   4.945   6.114
14555TIP3   OH243621   6.491   2.380   4.915
14555TIP3    H143622   6.556   2.314   4.895
14555TIP3    H243623   6.409   2.345   4.880
14556TIP3   OH243624   7.577   1.759   0.963
14556TIP3    H143625   7.562   1.848   0.995
14556TIP3    H243626   7.503   1.742   0.905
14557TIP3   OH243627   0.396   5.782   5.180
14557TIP3    H143628   0.381   5.864   5.133
14557TIP3    H243629   0.467   5.739   5.132
14558TIP3   OH243630   5.245   5.610   5.438
14558TIP3    H143631   5.227   5.516   5.430
14558TIP3    H243632   5.269   5.622   5.530
14559TIP3   OH243633   3.209   6.787   0.219
14559TIP3    H143634   3.280   6.827   0.168
14559TIP3    H243635   3.200   6.844   0.295
14560TIP3   OH243636   1.185   5.421   4.284
14560TIP3    H143637   1.155   5.426   4.375
14560TIP3    H243638   1.125   5.359   4.242
14561TIP3   OH243639   3.805   6.930   1.674
14561TIP3    H143640   3.728   6.892   1.716
14561TIP3    H243641   3.772   7.006   1.627
14562TIP3   OH243642   3.542   1.106   6.694
14562TIP3    H143643   3.573   1.031   6.643
14562TIP3    H243644   3.471   1.143   6.641
14563TIP3   OH243645   2.021   6.559   0.079
14563TIP3    H143646   1.986   6.647   0.094
14563TIP3    H243647   2.095   6.572   0.021
14564TIP3   OH243648   3.303   4.946   2.852
14564TIP3    H143649   3.394   4.946   2.822
14564TIP3    H243650   3.299   5.018   2.915
14565TIP3   OH243651   7.115   3.244   4.122
14565TIP3    H143652   7.132   3.225   4.030
14565TIP3    H243653   7.020   3.253   4.128
14566TIP3   OH243654   5.265   2.572   1.728
14566TIP3    H143655   5.351   2.598   1.762
14566TIP3    H243656   5.216   2.655   1.721
14567TIP3   OH243657   6.021   5.997   3.743
14567TIP3    H143658   5.961   5.941   3.793
14567TIP3    H243659   6.078   6.036   3.810
14568TIP3   OH243660   1.847   3.770   3.721
14568TIP3    H143661   1.766   3.798   3.765
14568TIP3    H243662   1.835   3.796   3.630
14569TIP3   OH243663   0.246   5.598   6.723
14569TIP3    H143664   0.298   5.660   6.672
14569TIP3    H243665   0.221   5.647   6.801
14570TIP3   OH243666   7.536   6.690   6.256
14570TIP3    H143667   7.441   6.684   6.266
14570TIP3    H243668   7.565   6.599   6.244
14571TIP3   OH243669   0.510   5.406   6.527
14571TIP3    H143670   0.470   5.348   6.592
14571TIP3    H243671   0.555   5.473   6.580
14572TIP3   OH243672   6.180   2.498   1.672
14572TIP3    H143673   6.190   2.446   1.592
14572TIP3    H243674   6.223   2.581   1.652
14573TIP3   OH243675   7.563   7.743   1.139
14573TIP3    H143676   7.629   7.749   1.070
14573TIP3    H243677   7.614   7.741   1.220
14574TIP3   OH243678   7.463   5.612   3.028
14574TIP3    H143679   7.439   5.606   3.120
14574TIP3    H243680   7.496   5.701   3.017
14575TIP3   OH243681   0.661   6.444   6.749
14575TIP3    H143682   0.591   6.381   6.769
14575TIP3    H243683   0.615   6.528   6.739
14576TIP3   OH243684   2.584   3.983   5.471
14576TIP3    H143685   2.562   3.983   5.564
14576TIP3    H243686   2.611   4.073   5.452
14577TIP3   OH243687   2.522   3.178   1.777
14577TIP3    H143688   2.490   3.166   1.688
14577TIP3    H243689   2.447   3.212   1.826
14578TIP3   OH243690   3.087   7.459   3.630
14578TIP3    H143691   3.108   7.456   3.724
14578TIP3    H243692   3.098   7.369   3.601
14579TIP3   OH243693   1.181   6.160   4.305
14579TIP3    H143694   1.134   6.221   4.361
14579TIP3    H243695   1.116   6.095   4.278
14580TIP3   OH243696   3.427   4.950   0.667
14580TIP3    H143697   3.454   4.944   0.759
14580TIP3    H243698   3.510   4.958   0.619
14581TIP3   OH243699   5.223   6.824   5.248
14581TIP3    H143700   5.145   6.769   5.255
14581TIP3    H243701   5.196   6.895   5.190
14582TIP3   OH243702   6.213   4.329   6.815
14582TIP3    H143703   6.245   4.342   6.725
14582TIP3    H243704   6.120   4.309   6.804
14583TIP3   OH243705   6.480   5.398   3.174
14583TIP3    H143706   6.430   5.316   3.178
14583TIP3    H243707   6.562   5.375   3.131
14584TIP3   OH243708   3.444   3.149   3.257
14584TIP3    H143709   3.386   3.222   3.278
14584TIP3    H243710   3.502   3.141   3.332
14585TIP3   OH243711   3.055   3.152   6.250
14585TIP3    H143712   3.125   3.087   6.251
14585TIP3    H243713   2.976   3.103   6.273
14586TIP3   OH243714   4.645   5.936   2.398
14586TIP3    H143715   4.683   5.990   2.329
14586TIP3    H243716   4.550   5.941   2.383
14587TIP3   OH243717   2.826   2.139   6.770
14587TIP3    H143718   2.921   2.146   6.761
14587TIP3    H243719   2.803   2.203   6.837
14588TIP3   OH243720   0.155   3.136   3.951
14588TIP3    H143721   0.068   3.176   3.955
14588TIP3    H243722   0.211   3.206   3.917
14589TIP3   OH243723   3.886   5.653   0.747
14589TIP3    H143724   3.869   5.566   0.710
14589TIP3    H243725   3.881   5.712   0.672
14590TIP3   OH243726   5.355   5.738   2.678
14590TIP3    H143727   5.323   5.771   2.594
14590TIP3    H243728   5.371   5.817   2.730
14591TIP3   OH243729   2.632   7.257   5.564
14591TIP3    H143730   2.658   7.172   5.601
14591TIP3    H243731   2.540   7.246   5.540
14592TIP3   OH243732   0.235   7.440   0.034
14592TIP3    H143733   0.250   7.520  -0.015
14592TIP3    H243734   0.141   7.439   0.051
14593TIP3   OH243735   2.764   1.442   0.979
14593TIP3    H143736   2.673   1.415   0.986
14593TIP3    H243737   2.765   1.505   0.907
14594TIP3   OH243738   4.084   7.583   5.983
14594TIP3    H143739   4.094   7.676   5.964
14594TIP3    H243740   3.990   7.572   5.997
14595TIP3   OH243741   6.416   6.035   2.128
14595TIP3    H143742   6.443   6.127   2.130
14595TIP3    H243743   6.460   5.995   2.203
14596TIP3   OH243744   2.974   5.572   5.952
14596TIP3    H143745   2.924   5.576   5.870
14596TIP3    H243746   2.915   5.530   6.014
14597TIP3   OH243747   0.708   7.396   0.849
14597TIP3    H143748   0.756   7.426   0.772
14597TIP3    H243749   0.752   7.438   0.923
14598TIP3   OH243750   8.044   1.239   1.769
14598TIP3    H143751   8.055   1.144   1.783
14598TIP3    H243752   8.071   1.252   1.678
14599TIP3   OH243753   3.100   4.247   2.113
14599TIP3    H143754   3.192   4.271   2.119
14599TIP3    H243755   3.100   4.151   2.117
14600TIP3   OH243756   5.680   5.085   1.963
14600TIP3    H143757   5.686   5.179   1.982
14600TIP3    H243758   5.613   5.052   2.024
14601TIP3   OH243759   6.773   5.991   0.941
14601TIP3    H143760   6.806   6.018   0.855
14601TIP3    H243761   6.777   5.895   0.940
14602TIP3   OH243762   0.449   1.734   6.635
14602TIP3    H143763   0.372   1.758   6.583
14602TIP3    H243764   0.412   1.703   6.718
14603TIP3   OH243765   7.760   2.917   3.822
14603TIP3    H143766   7.720   2.899   3.737
14603TIP3    H243767   7.703   2.983   3.862
14604TIP3   OH243768   0.795   0.572   5.817
14604TIP3    H143769   0.875   0.561   5.766
14604TIP3    H243770   0.755   0.652   5.781
14605TIP3   OH243771   2.338   4.793   4.823
14605TIP3    H143772   2.318   4.885   4.809
14605TIP3    H243773   2.266   4.746   4.781
14606TIP3   OH243774   2.349   3.070   3.256
14606TIP3    H143775   2.432   3.115   3.241
14606TIP3    H243776   2.361   3.027   3.341
14607TIP3   OH243777   3.362   4.159   0.352
14607TIP3    H143778   3.301   4.213   0.301
14607TIP3    H243779   3.444   4.164   0.304
14608TIP3   OH243780   5.144   1.017   6.422
14608TIP3    H143781   5.071   0.955   6.426
14608TIP3    H243782   5.105   1.099   6.394
14609TIP3   OH243783   6.523   3.967   2.769
14609TIP3    H143784   6.435   3.990   2.741
14609TIP3    H243785   6.520   3.977   2.865
14610TIP3   OH243786   4.281   7.723   6.221
14610TIP3    H143787   4.211   7.774   6.179
14610TIP3    H243788   4.347   7.789   6.245
14611TIP3   OH243789   7.216   2.214   4.443
14611TIP3    H143790   7.304   2.178   4.428
14611TIP3    H243791   7.209   2.288   4.382
14612TIP3   OH243792   8.208   7.811   6.534
14612TIP3    H143793   8.198   7.722   6.567
14612TIP3    H243794   8.156   7.865   6.594
14613TIP3   OH243795   1.506   5.160   2.918
14613TIP3    H143796   1.575   5.211   2.877
14613TIP3    H243797   1.432   5.220   2.924
14614TIP3   OH243798   1.574   5.029   1.103
14614TIP3    H143799   1.551   4.937   1.096
14614TIP3    H243800   1.651   5.039   1.047
14615TIP3   OH243801   3.162   0.837   0.722
14615TIP3    H143802   3.211   0.761   0.691
14615TIP3    H243803   3.172   0.903   0.654
14616TIP3   OH243804   5.998   1.575   4.696
14616TIP3    H143805   5.930   1.534   4.642
14616TIP3    H243806   5.959   1.583   4.783
14617TIP3   OH243807   7.213   6.677   4.408
14617TIP3    H143808   7.270   6.625   4.465
14617TIP3    H243809   7.127   6.638   4.420
14618TIP3   OH243810   4.745   5.147   4.871
14618TIP3    H143811   4.697   5.111   4.797
14618TIP3    H243812   4.764   5.237   4.845
14619TIP3   OH243813   2.315   4.965   3.560
14619TIP3    H143814   2.268   4.901   3.613
14619TIP3    H243815   2.330   4.921   3.476
14620TIP3   OH243816   4.653   5.345   1.411
14620TIP3    H143817   4.661   5.292   1.331
14620TIP3    H243818   4.632   5.281   1.480
14621TIP3   OH243819   2.623   0.420   5.417
14621TIP3    H143820   2.595   0.432   5.326
14621TIP3    H243821   2.689   0.350   5.412
14622TIP3   OH243822   1.098   0.644   4.247
14622TIP3    H143823   1.066   0.575   4.305
14622TIP3    H243824   1.143   0.705   4.305
14623TIP3   OH243825   6.615   6.445   0.955
14623TIP3    H143826   6.661   6.438   0.871
14623TIP3    H243827   6.524   6.463   0.932
14624TIP3   OH243828   1.468   2.085   4.125
14624TIP3    H143829   1.383   2.060   4.162
14624TIP3    H243830   1.511   2.134   4.195
14625TIP3   OH243831   7.638   3.544   3.969
14625TIP3    H143832   7.678   3.615   3.918
14625TIP3    H243833   7.552   3.578   3.994
14626TIP3   OH243834   2.308   5.065   1.212
14626TIP3    H143835   2.344   5.124   1.145
14626TIP3    H243836   2.333   5.106   1.295
14627TIP3   OH243837   7.511   1.308   1.723
14627TIP3    H143838   7.449   1.237   1.707
14627TIP3    H243839   7.466   1.386   1.691
14628TIP3   OH243840   5.067   3.738   5.008
14628TIP3    H143841   5.010   3.814   5.000
14628TIP3    H243842   5.102   3.745   5.097
14629TIP3   OH243843   4.740   3.266   6.585
14629TIP3    H143844   4.772   3.180   6.557
14629TIP3    H243845   4.663   3.247   6.638
14630TIP3   OH243846   6.287   0.026   0.266
14630TIP3    H143847   6.344  -0.038   0.225
14630TIP3    H243848   6.301   0.107   0.217
14631TIP3   OH243849   1.362   6.838   6.790
14631TIP3    H143850   1.396   6.769   6.732
14631TIP3    H243851   1.428   6.908   6.785
14632TIP3   OH243852   3.816   4.436   4.857
14632TIP3    H143853   3.749   4.432   4.925
14632TIP3    H243854   3.835   4.344   4.837
14633TIP3   OH243855   2.814   6.319   2.040
14633TIP3    H143856   2.827   6.413   2.029
14633TIP3    H243857   2.720   6.309   2.054
14634TIP3   OH243858   4.726   0.885   1.349
14634TIP3    H143859   4.630   0.879   1.347
14634TIP3    H243860   4.747   0.895   1.442
14635TIP3   OH243861   2.797   4.183   1.184
14635TIP3    H143862   2.715   4.198   1.138
14635TIP3    H243863   2.772   4.142   1.267
14636TIP3   OH243864   4.855   3.109   2.487
14636TIP3    H143865   4.791   3.137   2.422
14636TIP3    H243866   4.823   3.143   2.570
14637TIP3   OH243867   2.939   6.625   1.537
14637TIP3    H143868   2.959   6.667   1.453
14637TIP3    H243869   2.856   6.580   1.522
14638TIP3   OH243870   3.179   0.565   3.915
14638TIP3    H143871   3.168   0.660   3.918
14638TIP3    H243872   3.205   0.541   4.003
14639TIP3   OH243873   5.986   2.558   0.240
14639TIP3    H143874   5.981   2.485   0.179
14639TIP3    H243875   6.075   2.593   0.230
14640TIP3   OH243876   4.937   5.218   2.586
14640TIP3    H143877   4.901   5.276   2.653
14640TIP3    H243878   4.949   5.274   2.509
14641TIP3   OH243879   7.601   1.799   1.398
14641TIP3    H143880   7.595   1.738   1.471
14641TIP3    H243881   7.556   1.755   1.326
14642TIP3   OH243882   5.912   5.826   3.933
14642TIP3    H143883   5.878   5.737   3.940
14642TIP3    H243884   5.848   5.880   3.978
14643TIP3   OH243885   4.144   1.376   4.174
14643TIP3    H143886   4.073   1.316   4.198
14643TIP3    H243887   4.120   1.406   4.086
14644TIP3   OH243888   2.125   6.205   3.722
14644TIP3    H143889   2.106   6.112   3.707
14644TIP3    H243890   2.067   6.251   3.661
14645TIP3   OH243891   7.201   3.732   5.239
14645TIP3    H143892   7.241   3.747   5.153
14645TIP3    H243893   7.275   3.726   5.299
14646TIP3   OH243894   0.072   5.881   5.029
14646TIP3    H143895   0.005   5.947   5.016
14646TIP3    H243896   0.102   5.893   5.120
14647TIP3   OH243897   2.899   2.390   3.753
14647TIP3    H143898   2.964   2.339   3.802
14647TIP3    H243899   2.848   2.323   3.706
14648TIP3   OH243900   1.253   7.788   1.037
14648TIP3    H143901   1.263   7.862   0.977
14648TIP3    H243902   1.243   7.712   0.980
14649TIP3   OH243903   5.544   7.007   4.806
14649TIP3    H143904   5.620   7.064   4.798
14649TIP3    H243905   5.469   7.064   4.788
14650TIP3   OH243906   0.676   7.205   5.918
14650TIP3    H143907   0.705   7.279   5.971
14650TIP3    H243908   0.588   7.230   5.888
14651TIP3   OH243909   5.636   2.387   1.996
14651TIP3    H143910   5.692   2.367   1.921
14651TIP3    H243911   5.683   2.352   2.071
14652TIP3   OH243912   3.184   3.865   2.308
14652TIP3    H143913   3.164   3.949   2.348
14652TIP3    H243914   3.202   3.807   2.382
14653TIP3   OH243915   3.456   3.332   4.310
14653TIP3    H143916   3.551   3.319   4.311
14653TIP3    H243917   3.440   3.383   4.231
14654TIP3   OH243918   6.755   4.336   6.543
14654TIP3    H143919   6.742   4.419   6.497
14654TIP3    H243920   6.792   4.362   6.628
14655TIP3   OH243921   5.328   3.669   0.329
14655TIP3    H143922   5.290   3.716   0.254
14655TIP3    H243923   5.265   3.600   0.348
14656TIP3   OH243924   4.252   2.484   0.227
14656TIP3    H143925   4.194   2.561   0.231
14656TIP3    H243926   4.231   2.442   0.144
14657TIP3   OH243927   5.312   0.461   3.004
14657TIP3    H143928   5.388   0.518   3.013
14657TIP3    H243929   5.305   0.416   3.089
14658TIP3   OH243930   6.392   7.778   5.411
14658TIP3    H143931   6.391   7.761   5.316
14658TIP3    H243932   6.472   7.829   5.425
14659TIP3   OH243933   1.842   6.214   1.479
14659TIP3    H143934   1.833   6.285   1.416
14659TIP3    H243935   1.884   6.254   1.555
14660TIP3   OH243936   7.838   6.876   3.799
14660TIP3    H143937   7.744   6.889   3.803
14660TIP3    H243938   7.856   6.854   3.708
14661TIP3   OH243939   0.129   2.849   6.146
14661TIP3    H143940   0.046   2.886   6.177
14661TIP3    H243941   0.105   2.767   6.104
14662TIP3   OH243942   0.372   6.372   1.649
14662TIP3    H143943   0.431   6.304   1.680
14662TIP3    H243944   0.286   6.330   1.649
14663TIP3   OH243945   1.721   6.557   6.692
14663TIP3    H143946   1.710   6.554   6.787
14663TIP3    H243947   1.806   6.516   6.676
14664TIP3   OH243948   1.459   1.451   4.222
14664TIP3    H143949   1.502   1.441   4.137
14664TIP3    H243950   1.526   1.426   4.285
14665TIP3   OH243951   4.671   2.807   4.401
14665TIP3    H143952   4.723   2.862   4.459
14665TIP3    H243953   4.675   2.720   4.441
14666TIP3   OH243954   5.862   3.360   5.583
14666TIP3    H143955   5.833   3.441   5.625
14666TIP3    H243956   5.804   3.351   5.507
14667TIP3   OH243957   0.391   1.028   5.897
14667TIP3    H143958   0.389   1.104   5.955
14667TIP3    H243959   0.314   1.039   5.840
14668TIP3   OH243960   5.123   3.929   1.182
14668TIP3    H143961   5.083   3.867   1.243
14668TIP3    H243962   5.211   3.895   1.167
14669TIP3   OH243963   4.379   1.491   5.787
14669TIP3    H143964   4.440   1.449   5.848
14669TIP3    H243965   4.381   1.434   5.710
14670TIP3   OH243966   8.262   7.808   4.313
14670TIP3    H143967   8.228   7.839   4.229
14670TIP3    H243968   8.202   7.845   4.378
14671TIP3   OH243969   3.098   0.898   4.308
14671TIP3    H143970   3.192   0.882   4.314
14671TIP3    H243971   3.091   0.981   4.260
14672TIP3   OH243972   2.091   4.126   2.211
14672TIP3    H143973   2.161   4.063   2.198
14672TIP3    H243974   2.051   4.101   2.294
14673TIP3   OH243975   1.660   3.965   5.134
14673TIP3    H143976   1.662   3.876   5.169
14673TIP3    H243977   1.724   4.013   5.187
14674TIP3   OH243978   1.201   3.983   3.563
14674TIP3    H143979   1.291   4.016   3.562
14674TIP3    H243980   1.153   4.039   3.503
14675TIP3   OH243981   3.417   5.394   2.303
14675TIP3    H143982   3.430   5.419   2.395
14675TIP3    H243983   3.497   5.423   2.259
14676TIP3   OH243984   3.333   6.234   1.463
14676TIP3    H143985   3.418   6.193   1.448
14676TIP3    H243986   3.285   6.222   1.381
14677TIP3   OH243987   8.207   5.253   2.171
14677TIP3    H143988   8.177   5.190   2.105
14677TIP3    H243989   8.300   5.263   2.156
14678TIP3   OH243990   2.595   7.381   6.326
14678TIP3    H143991   2.688   7.389   6.349
14678TIP3    H243992   2.572   7.292   6.351
14679TIP3   OH243993   2.530   5.764   6.301
14679TIP3    H143994   2.500   5.852   6.324
14679TIP3    H243995   2.582   5.736   6.376
14680TIP3   OH243996   6.181   0.503   0.991
14680TIP3    H143997   6.183   0.415   0.955
14680TIP3    H243998   6.148   0.558   0.920
14681TIP3   OH243999   4.115   2.245   3.707
14681TIP3    H144000   4.168   2.183   3.658
14681TIP3    H244001   4.177   2.292   3.762
14682TIP3   OH244002   2.732   6.522   1.346
14682TIP3    H144003   2.821   6.503   1.315
14682TIP3    H244004   2.684   6.441   1.334
14683TIP3   OH244005   7.496   6.924   4.267
14683TIP3    H144006   7.475   6.941   4.175
14683TIP3    H244007   7.426   6.967   4.315
14684TIP3   OH244008   0.566   4.756   2.956
14684TIP3    H144009   0.488   4.811   2.966
14684TIP3    H244010   0.532   4.670   2.932
14685TIP3   OH244011   3.304   7.219   4.186
14685TIP3    H144012   3.385   7.223   4.136
14685TIP3    H244013   3.234   7.222   4.120
14686TIP3   OH244014   2.979   2.559   1.360
14686TIP3    H144015   2.907   2.496   1.363
14686TIP3    H244016   3.029   2.535   1.283
14687TIP3   OH244017   0.428   4.322   5.162
14687TIP3    H144018   0.428   4.241   5.213
14687TIP3    H244019   0.336   4.339   5.143
14688TIP3   OH244020   5.737   5.383   5.466
14688TIP3    H144021   5.793   5.425   5.532
14688TIP3    H244022   5.671   5.449   5.446
14689TIP3   OH244023   2.431   4.540   1.305
14689TIP3    H144024   2.355   4.552   1.249
14689TIP3    H244025   2.424   4.609   1.371
14690TIP3   OH244026   5.261   3.101   0.629
14690TIP3    H144027   5.322   3.037   0.592
14690TIP3    H244028   5.203   3.124   0.557
14691TIP3   OH244029   1.074   5.965   0.624
14691TIP3    H144030   1.104   5.946   0.535
14691TIP3    H244031   1.139   6.027   0.658
14692TIP3   OH244032   6.577   6.659   4.856
14692TIP3    H144033   6.628   6.640   4.777
14692TIP3    H244034   6.640   6.654   4.927
14693TIP3   OH244035   6.306   0.213   1.060
14693TIP3    H144036   6.346   0.140   1.107
14693TIP3    H244037   6.278   0.175   0.976
14694TIP3   OH244038   4.217   1.892   3.770
14694TIP3    H144039   4.213   1.941   3.688
14694TIP3    H244040   4.299   1.921   3.811
14695TIP3   OH244041   6.162   6.975   0.588
14695TIP3    H144042   6.219   6.918   0.640
14695TIP3    H244043   6.075   6.935   0.596
14696TIP3   OH244044   2.283   6.898   3.385
14696TIP3    H144045   2.219   6.873   3.451
14696TIP3    H244046   2.232   6.940   3.316
14697TIP3   OH244047   7.422   5.303   2.651
14697TIP3    H144048   7.366   5.237   2.690
14697TIP3    H244049   7.408   5.382   2.704
14698TIP3   OH244050   3.750   2.666   0.100
14698TIP3    H144051   3.737   2.594   0.161
14698TIP3    H244052   3.677   2.726   0.117
14699TIP3   OH244053   7.355   1.332   2.596
14699TIP3    H144054   7.298   1.399   2.558
14699TIP3    H244055   7.297   1.257   2.611
14700TIP3   OH244056   5.626   1.261   4.456
14700TIP3    H144057   5.545   1.304   4.483
14700TIP3    H244058   5.696   1.315   4.494
14701TIP3   OH244059   3.938   7.127   5.143
14701TIP3    H144060   3.936   7.221   5.125
14701TIP3    H244061   3.887   7.087   5.073
14702TIP3   OH244062   0.078   6.012   1.582
14702TIP3    H144063  -0.017   6.015   1.571
14702TIP3    H244064   0.113   6.020   1.494
14703TIP3   OH244065   0.111   6.270   4.074
14703TIP3    H144066   0.188   6.213   4.065
14703TIP3    H244067   0.142   6.342   4.128
14704TIP3   OH244068   2.359   1.600   4.731
14704TIP3    H144069   2.361   1.520   4.784
14704TIP3    H244070   2.449   1.632   4.733
14705TIP3   OH244071   7.381   3.428   5.153
14705TIP3    H144072   7.444   3.452   5.220
14705TIP3    H244073   7.358   3.511   5.110
14706TIP3   OH244074   0.063   7.807   2.642
14706TIP3    H144075   0.141   7.755   2.624
14706TIP3    H244076  -0.009   7.744   2.638
14707TIP3   OH244077   6.572   6.991   4.210
14707TIP3    H144078   6.625   6.911   4.202
14707TIP3    H244079   6.587   7.020   4.300
14708TIP3   OH244080   1.502   1.068   3.631
14708TIP3    H144081   1.470   1.000   3.691
14708TIP3    H244082   1.445   1.143   3.647
14709TIP3   OH244083   3.252   4.478   1.840
14709TIP3    H144084   3.198   4.415   1.888
14709TIP3    H244085   3.192   4.550   1.820
14710TIP3   OH244086   0.730   0.834   5.716
14710TIP3    H144087   0.724   0.888   5.795
14710TIP3    H244088   0.656   0.863   5.662
14711TIP3   OH244089   5.946   4.974   3.060
14711TIP3    H144090   5.917   5.062   3.081
14711TIP3    H244091   6.031   4.966   3.104
14712TIP3   OH244092   7.508   1.711   2.375
14712TIP3    H144093   7.461   1.648   2.321
14712TIP3    H244094   7.454   1.789   2.375
14713TIP3   OH244095   2.330   5.229   3.659
14713TIP3    H144096   2.400   5.248   3.721
14713TIP3    H244097   2.342   5.136   3.639
14714TIP3   OH244098   4.107   5.269   5.198
14714TIP3    H144099   4.053   5.233   5.268
14714TIP3    H244100   4.185   5.214   5.197
14715TIP3   OH244101   4.630   5.191   5.116
14715TIP3    H144102   4.683   5.165   5.041
14715TIP3    H244103   4.670   5.147   5.190
14716TIP3   OH244104   1.713   3.903   1.957
14716TIP3    H144105   1.762   3.981   1.985
14716TIP3    H244106   1.762   3.830   1.995
14717TIP3   OH244107   1.284   4.889   6.400
14717TIP3    H144108   1.237   4.937   6.467
14717TIP3    H244109   1.310   4.807   6.442
14718TIP3   OH244110   3.441   4.975   5.866
14718TIP3    H144111   3.354   4.959   5.831
14718TIP3    H244112   3.427   4.986   5.960
14719TIP3   OH244113   3.316   6.672   6.608
14719TIP3    H144114   3.286   6.659   6.698
14719TIP3    H244115   3.248   6.727   6.568
14720TIP3   OH244116   5.690   3.543   3.864
14720TIP3    H144117   5.761   3.483   3.886
14720TIP3    H244118   5.610   3.495   3.885
14721TIP3   OH244119   2.747   0.242   6.086
14721TIP3    H144120   2.843   0.242   6.086
14721TIP3    H244121   2.723   0.210   5.999
14722TIP3   OH244122   4.843   2.735   4.814
14722TIP3    H144123   4.916   2.793   4.837
14722TIP3    H244124   4.783   2.741   4.889
14723TIP3   OH244125   5.615   4.432   4.422
14723TIP3    H144126   5.561   4.457   4.496
14723TIP3    H244127   5.705   4.439   4.455
14724TIP3   OH244128   3.716   2.707   0.893
14724TIP3    H144129   3.755   2.785   0.933
14724TIP3    H244130   3.789   2.645   0.886
14725TIP3   OH244131   0.311   0.481   1.988
14725TIP3    H144132   0.235   0.535   1.968
14725TIP3    H244133   0.371   0.495   1.915
14726TIP3   OH244134   1.737  -0.014   5.636
14726TIP3    H144135   1.827  -0.013   5.601
14726TIP3    H244136   1.745   0.026   5.722
14727TIP3   OH244137   1.935   5.909   3.176
14727TIP3    H144138   1.956   5.975   3.242
14727TIP3    H244139   1.852   5.938   3.138
14728TIP3   OH244140   7.820   1.647   5.240
14728TIP3    H144141   7.834   1.560   5.202
14728TIP3    H244142   7.890   1.656   5.305
14729TIP3   OH244143   2.259   6.111   4.468
14729TIP3    H144144   2.237   6.027   4.508
14729TIP3    H244145   2.176   6.145   4.436
14730TIP3   OH244146   1.544   0.385   2.034
14730TIP3    H144147   1.568   0.308   1.984
14730TIP3    H244148   1.479   0.430   1.981
14731TIP3   OH244149   3.815   3.320   3.895
14731TIP3    H144150   3.745   3.260   3.871
14731TIP3    H244151   3.844   3.290   3.982
14732TIP3   OH244152   4.466   0.743   4.989
14732TIP3    H144153   4.531   0.707   5.050
14732TIP3    H244154   4.519   0.779   4.918
14733TIP3   OH244155   6.428   0.438   1.803
14733TIP3    H144156   6.524   0.440   1.802
14733TIP3    H244157   6.406   0.375   1.871
14734TIP3   OH244158   1.333   5.995   6.515
14734TIP3    H144159   1.412   6.019   6.565
14734TIP3    H244160   1.262   6.040   6.561
14735TIP3   OH244161   1.323   5.626   1.701
14735TIP3    H144162   1.404   5.612   1.653
14735TIP3    H244163   1.259   5.569   1.658
14736TIP3   OH244164   1.270   2.798   3.267
14736TIP3    H144165   1.244   2.706   3.276
14736TIP3    H244166   1.190   2.848   3.284
14737TIP3   OH244167   1.532   6.417   6.330
14737TIP3    H144168   1.620   6.453   6.322
14737TIP3    H244169   1.545   6.324   6.349
14738TIP3   OH244170   3.024   2.374   5.411
14738TIP3    H144171   3.113   2.407   5.425
14738TIP3    H244172   2.995   2.417   5.330
14739TIP3   OH244173   7.163   1.712   1.036
14739TIP3    H144174   7.250   1.692   1.068
14739TIP3    H244175   7.105   1.692   1.109
14740TIP3   OH244176   3.390   7.785   5.408
14740TIP3    H144177   3.309   7.746   5.441
14740TIP3    H244178   3.371   7.805   5.316
14741TIP3   OH244179   0.439   4.803   2.598
14741TIP3    H144180   0.480   4.741   2.657
14741TIP3    H244181   0.460   4.771   2.510
14742TIP3   OH244182   4.951   6.925   2.009
14742TIP3    H144183   4.929   6.841   1.969
14742TIP3    H244184   5.034   6.908   2.054
14743TIP3   OH244185   5.874   3.138   2.759
14743TIP3    H144186   5.839   3.202   2.821
14743TIP3    H244187   5.822   3.059   2.774
14744TIP3   OH244188   8.088   6.692   0.053
14744TIP3    H144189   8.120   6.757  -0.009
14744TIP3    H244190   8.086   6.737   0.138
14745TIP3   OH244191   6.819   7.193   1.402
14745TIP3    H144192   6.768   7.112   1.396
14745TIP3    H244193   6.897   7.168   1.451
14746TIP3   OH244194   3.459   4.796   5.241
14746TIP3    H144195   3.466   4.871   5.300
14746TIP3    H244196   3.534   4.804   5.182
14747TIP3   OH244197   3.866   2.364   0.712
14747TIP3    H144198   3.918   2.376   0.791
14747TIP3    H244199   3.931   2.357   0.642
14748TIP3   OH244200   2.962   3.620   2.849
14748TIP3    H144201   2.940   3.635   2.757
14748TIP3    H244202   3.031   3.683   2.868
14749TIP3   OH244203   6.129   2.410   2.539
14749TIP3    H144204   6.198   2.433   2.601
14749TIP3    H244205   6.167   2.426   2.453
14750TIP3   OH244206   2.811   4.118   3.680
14750TIP3    H144207   2.798   4.120   3.585
14750TIP3    H244208   2.855   4.034   3.696
14751TIP3   OH244209   2.540   2.891   1.489
14751TIP3    H144210   2.580   2.831   1.552
14751TIP3    H244211   2.476   2.838   1.442
14752TIP3   OH244212   5.890   7.764   2.686
14752TIP3    H144213   5.802   7.758   2.649
14752TIP3    H244214   5.878   7.748   2.780
14753TIP3   OH244215   2.411   6.284   4.274
14753TIP3    H144216   2.376   6.196   4.287
14753TIP3    H244217   2.336   6.342   4.285
14754TIP3   OH244218   3.262   1.977   3.488
14754TIP3    H144219   3.353   1.957   3.464
14754TIP3    H244220   3.214   1.897   3.468
14755TIP3   OH244221   2.805   7.142   3.089
14755TIP3    H144222   2.718   7.118   3.122
14755TIP3    H244223   2.794   7.232   3.058
14756TIP3   OH244224   6.831   6.636   3.836
14756TIP3    H144225   6.900   6.571   3.851
14756TIP3    H244226   6.753   6.597   3.875
14757TIP3   OH244227   0.217   7.721   1.848
14757TIP3    H144228   0.235   7.638   1.892
14757TIP3    H244229   0.288   7.779   1.876
14758TIP3   OH244230   5.726   5.715   1.121
14758TIP3    H144231   5.633   5.694   1.135
14758TIP3    H244232   5.771   5.632   1.134
14759TIP3   OH244233   4.693   4.158   3.653
14759TIP3    H144234   4.696   4.176   3.559
14759TIP3    H244235   4.600   4.143   3.671
14760TIP3   OH244236   7.462   1.298   4.841
14760TIP3    H144237   7.513   1.374   4.813
14760TIP3    H244238   7.519   1.223   4.823
14761TIP3   OH244239   4.615   4.475   4.048
14761TIP3    H144240   4.526   4.509   4.034
14761TIP3    H244241   4.625   4.473   4.144
14762TIP3   OH244242   7.610   6.030   0.588
14762TIP3    H144243   7.600   6.123   0.608
14762TIP3    H244244   7.704   6.013   0.600
14763TIP3   OH244245   1.015   4.172   4.060
14763TIP3    H144246   0.958   4.227   4.114
14763TIP3    H244247   1.092   4.156   4.116
14764TIP3   OH244248   5.482   1.250   2.588
14764TIP3    H144249   5.562   1.199   2.576
14764TIP3    H244250   5.480   1.309   2.512
14765TIP3   OH244251   3.371   7.757   3.512
14765TIP3    H144252   3.459   7.746   3.475
14765TIP3    H244253   3.381   7.731   3.604
14766TIP3   OH244254   3.960   5.864   4.280
14766TIP3    H144255   3.987   5.908   4.361
14766TIP3    H244256   4.037   5.868   4.224
14767TIP3   OH244257   2.938   5.882   4.343
14767TIP3    H144258   3.032   5.897   4.352
14767TIP3    H244259   2.923   5.796   4.384
14768TIP3   OH244260   5.056   6.161   4.928
14768TIP3    H144261   5.135   6.165   4.874
14768TIP3    H244262   5.018   6.249   4.922
14769TIP3   OH244263   2.429   0.996   4.086
14769TIP3    H144264   2.456   0.993   3.994
14769TIP3    H244265   2.333   0.995   4.082
14770TIP3   OH244266   4.039   2.824   4.501
14770TIP3    H144267   3.956   2.777   4.493
14770TIP3    H244268   4.023   2.891   4.568
14771TIP3   OH244269   4.598   2.540   2.188
14771TIP3    H144270   4.538   2.591   2.133
14771TIP3    H244271   4.593   2.581   2.274
14772TIP3   OH244272   0.261   1.690   2.476
14772TIP3    H144273   0.259   1.785   2.464
14772TIP3    H244274   0.271   1.655   2.387
14773TIP3   OH244275   1.694   6.659   1.535
14773TIP3    H144276   1.703   6.712   1.456
14773TIP3    H244277   1.770   6.682   1.588
14774TIP3   OH244278   5.898   4.613   5.761
14774TIP3    H144279   5.927   4.568   5.840
14774TIP3    H244280   5.963   4.589   5.695
14775TIP3   OH244281   6.591   5.835   1.147
14775TIP3    H144282   6.512   5.795   1.110
14775TIP3    H244283   6.581   5.823   1.242
14776TIP3   OH244284   6.006   6.134   4.632
14776TIP3    H144285   5.963   6.219   4.629
14776TIP3    H244286   6.061   6.132   4.553
14777TIP3   OH244287   0.822   5.832   4.516
14777TIP3    H144288   0.883   5.873   4.578
14777TIP3    H244289   0.845   5.739   4.517
14778TIP3   OH244290   4.763   6.483   1.561
14778TIP3    H144291   4.784   6.398   1.600
14778TIP3    H244292   4.762   6.466   1.466
14779TIP3   OH244293   7.923   6.131   0.548
14779TIP3    H144294   7.964   6.048   0.525
14779TIP3    H244295   7.916   6.129   0.643
14780TIP3   OH244296   4.059   4.992   4.956
14780TIP3    H144297   4.012   5.067   4.919
14780TIP3    H244298   4.035   4.991   5.049
14781TIP3   OH244299   1.763   4.922   6.162
14781TIP3    H144300   1.675   4.909   6.198
14781TIP3    H244301   1.817   4.856   6.205
14782TIP3   OH244302   0.404   5.770   5.794
14782TIP3    H144303   0.400   5.674   5.791
14782TIP3    H244304   0.313   5.797   5.804
14783TIP3   OH244305   4.700   2.817   0.409
14783TIP3    H144306   4.608   2.793   0.423
14783TIP3    H244307   4.697   2.907   0.377
14784TIP3   OH244308   5.007   6.500   6.709
14784TIP3    H144309   5.088   6.498   6.760
14784TIP3    H244310   4.986   6.408   6.692
14785TIP3   OH244311   5.534   0.956   0.384
14785TIP3    H144312   5.456   0.915   0.347
14785TIP3    H244313   5.607   0.918   0.334
14786TIP3   OH244314   2.164   1.676   2.084
14786TIP3    H144315   2.188   1.584   2.077
14786TIP3    H244316   2.078   1.682   2.043
14787TIP3   OH244317   6.310   5.596   2.425
14787TIP3    H144318   6.396   5.563   2.399
14787TIP3    H244319   6.248   5.539   2.380
14788TIP3   OH244320   5.862   4.609   0.676
14788TIP3    H144321   5.805   4.674   0.634
14788TIP3    H244322   5.950   4.630   0.645
14789TIP3   OH244323  -0.002   2.420   1.142
14789TIP3    H144324  -0.007   2.440   1.048
14789TIP3    H244325   0.089   2.435   1.165
14790TIP3   OH244326   3.038   2.995   4.907
14790TIP3    H144327   3.003   3.076   4.943
14790TIP3    H244328   3.107   3.022   4.847
14791TIP3   OH244329   4.802   6.527   1.009
14791TIP3    H144330   4.863   6.571   0.951
14791TIP3    H244331   4.809   6.435   0.987
14792TIP3   OH244332   1.849   4.632   4.327
14792TIP3    H144333   1.795   4.708   4.307
14792TIP3    H244334   1.939   4.663   4.319
14793TIP3   OH244335   6.663   2.885   2.833
14793TIP3    H144336   6.669   2.819   2.901
14793TIP3    H244337   6.712   2.849   2.759
14794TIP3   OH244338   5.378   7.579   0.802
14794TIP3    H144339   5.337   7.657   0.766
14794TIP3    H244340   5.454   7.611   0.850
14795TIP3   OH244341   1.796   2.727   4.035
14795TIP3    H144342   1.816   2.821   4.031
14795TIP3    H244343   1.880   2.685   4.051
14796TIP3   OH244344   5.848   7.716   3.190
14796TIP3    H144345   5.914   7.785   3.197
14796TIP3    H244346   5.809   7.729   3.104
14797TIP3   OH244347   4.156   4.100   3.618
14797TIP3    H144348   4.099   4.089   3.541
14797TIP3    H244349   4.129   4.031   3.678
14798TIP3   OH244350   4.271   4.042   1.537
14798TIP3    H144351   4.328   4.040   1.460
14798TIP3    H244352   4.211   3.968   1.525
14799TIP3   OH244353   4.247   2.229   4.707
14799TIP3    H144354   4.154   2.209   4.694
14799TIP3    H244355   4.277   2.161   4.768
14800TIP3   OH244356   2.478   6.078   2.919
14800TIP3    H144357   2.537   6.060   2.992
14800TIP3    H244358   2.504   6.166   2.889
14801TIP3   OH244359   3.484   6.453   5.095
14801TIP3    H144360   3.505   6.486   5.008
14801TIP3    H244361   3.429   6.376   5.078
14802TIP3   OH244362   7.598   0.279   1.016
14802TIP3    H144363   7.576   0.355   0.962
14802TIP3    H244364   7.568   0.203   0.965
14803TIP3   OH244365   2.002   6.533   5.986
14803TIP3    H144366   1.939   6.559   5.919
14803TIP3    H244367   1.993   6.599   6.054
14804TIP3   OH244368   7.915   1.999   1.030
14804TIP3    H144369   8.002   2.029   1.056
14804TIP3    H244370   7.855   2.050   1.085
14805TIP3   OH244371   0.251   5.620   1.088
14805TIP3    H144372   0.232   5.656   1.175
14805TIP3    H244373   0.343   5.642   1.072
14806TIP3   OH244374   0.624   5.498   4.696
14806TIP3    H144375   0.657   5.536   4.777
14806TIP3    H244376   0.539   5.462   4.719
14807TIP3   OH244377   3.674   3.444   0.344
14807TIP3    H144378   3.609   3.376   0.325
14807TIP3    H244379   3.676   3.498   0.265
14808TIP3   OH244380   1.702   7.530   6.661
14808TIP3    H144381   1.769   7.594   6.685
14808TIP3    H244382   1.622   7.562   6.702
14809TIP3   OH244383   0.245   5.054   0.969
14809TIP3    H144384   0.178   4.990   0.946
14809TIP3    H244385   0.217   5.089   1.054
14810TIP3   OH244386   6.738   1.102   3.384
14810TIP3    H144387   6.716   1.133   3.296
14810TIP3    H244388   6.815   1.047   3.373
14811TIP3   OH244389   1.197   7.142   4.381
14811TIP3    H144390   1.198   7.099   4.467
14811TIP3    H244391   1.136   7.216   4.393
14812TIP3   OH244392   5.782   2.086   4.979
14812TIP3    H144393   5.774   2.110   4.886
14812TIP3    H244394   5.819   1.998   4.978
14813TIP3   OH244395   6.385   1.732   0.425
14813TIP3    H144396   6.469   1.699   0.393
14813TIP3    H244397   6.400   1.826   0.439
14814TIP3   OH244398   1.304   3.939   0.967
14814TIP3    H144399   1.337   4.022   0.933
14814TIP3    H244400   1.292   3.884   0.890
14815TIP3   OH244401   3.675   0.498   5.499
14815TIP3    H144402   3.706   0.586   5.475
14815TIP3    H244403   3.622   0.512   5.578
14816TIP3   OH244404   3.945   1.444   1.739
14816TIP3    H144405   4.004   1.456   1.665
14816TIP3    H244406   3.900   1.529   1.748
14817TIP3   OH244407   6.074   7.536   2.841
14817TIP3    H144408   6.009   7.550   2.773
14817TIP3    H244409   6.128   7.615   2.840
14818TIP3   OH244410   2.869   7.396   6.335
14818TIP3    H144411   2.939   7.454   6.363
14818TIP3    H244412   2.893   7.310   6.370
14819TIP3   OH244413   6.934   4.375   0.983
14819TIP3    H144414   6.946   4.298   0.927
14819TIP3    H244415   7.002   4.368   1.049
14820TIP3   OH244416   0.327   2.911   4.959
14820TIP3    H144417   0.277   2.840   4.998
14820TIP3    H244418   0.274   2.940   4.885
14821TIP3   OH244419   5.512   3.694   3.656
14821TIP3    H144420   5.573   3.626   3.684
14821TIP3    H244421   5.506   3.754   3.730
14822TIP3   OH244422   5.891   0.028   1.547
14822TIP3    H144423   5.963   0.067   1.598
14822TIP3    H244424   5.934  -0.036   1.490
14823TIP3   OH244425   1.159   6.328   1.260
14823TIP3    H144426   1.223   6.275   1.306
14823TIP3    H244427   1.212   6.393   1.213
14824TIP3   OH244428   7.437   2.212   4.632
14824TIP3    H144429   7.424   2.303   4.606
14824TIP3    H244430   7.439   2.163   4.550
14825TIP3   OH244431   8.171   2.077   1.098
14825TIP3    H144432   8.235   2.082   1.170
14825TIP3    H244433   8.223   2.092   1.019
14826TIP3   OH244434   5.002   3.050   6.191
14826TIP3    H144435   5.055   3.073   6.115
14826TIP3    H244436   5.004   3.128   6.246
14827TIP3   OH244437   0.465   7.060   6.453
14827TIP3    H144438   0.542   7.061   6.396
14827TIP3    H244439   0.469   7.143   6.500
14828TIP3   OH244440   0.140   0.931   3.525
14828TIP3    H144441   0.154   1.016   3.483
14828TIP3    H244442   0.172   0.867   3.462
14829TIP3   OH244443   8.035   2.789   4.626
14829TIP3    H144444   8.075   2.787   4.713
14829TIP3    H244445   8.089   2.731   4.573
14830TIP3   OH244446   6.711   1.359   1.418
14830TIP3    H144447   6.761   1.435   1.449
14830TIP3    H244448   6.769   1.317   1.354
14831TIP3   OH244449   0.097   7.417   4.119
14831TIP3    H144450   0.173   7.417   4.061
14831TIP3    H244451   0.063   7.328   4.114
14832TIP3   OH244452   8.187   2.844   0.343
14832TIP3    H144453   8.158   2.806   0.260
14832TIP3    H244454   8.143   2.929   0.347
14833TIP3   OH244455   3.738   4.029   1.027
14833TIP3    H144456   3.784   4.040   1.110
14833TIP3    H244457   3.806   4.034   0.960
14834TIP3   OH244458   0.985   4.465   5.619
14834TIP3    H144459   0.920   4.408   5.578
14834TIP3    H244460   1.015   4.415   5.695
14835TIP3   OH244461   5.011   5.928   2.297
14835TIP3    H144462   4.991   5.887   2.213
14835TIP3    H244463   4.972   6.015   2.291
14836TIP3   OH244464   0.289   4.438   6.036
14836TIP3    H144465   0.338   4.454   5.955
14836TIP3    H244466   0.222   4.374   6.011
14837TIP3   OH244467   5.517   7.222   3.024
14837TIP3    H144468   5.529   7.272   3.106
14837TIP3    H244469   5.606   7.200   2.997
   8.30642   7.83136   6.78216   0.00000   0.00000  -2.76880   0.00000  -2.76880  -3.91569
