Title
19927
    1ASP      N    1   2.082   0.785   2.287  0.4833  0.1876  0.2559
    1ASP    HT1    2   2.056   0.687   2.261  1.6320 -0.3333  0.9850
    1ASP    HT2    3   2.174   0.794   2.239 -0.0417 -2.1508 -1.4253
    1ASP    HT3    4   2.019   0.851   2.237  0.1011 -1.0011 -0.8916
    1ASP     CA    5   2.080   0.792   2.433 -0.3835 -0.0679  0.0697
    1ASP     HA    6   1.975   0.794   2.458 -0.5886 -1.1939 -0.6359
    1ASP     CB    7   2.144   0.664   2.490 -0.0103 -0.3178 -0.0946
    1ASP    HB1    8   2.242   0.636   2.447 -0.6989 -1.5483 -0.9139
    1ASP    HB2    9   2.081   0.574   2.476  0.0718 -0.2458 -0.9802
    1ASP     CG   10   2.148   0.680   2.647 -0.2921  0.2216 -0.0954
    1ASP    OD1   11   2.091   0.773   2.706  0.2480  0.7669 -0.2584
    1ASP    OD2   12   2.216   0.585   2.706 -0.7764 -0.0669 -0.3249
    1ASP      C   13   2.135   0.924   2.486 -0.0901 -0.2707 -0.8427
    1ASP      O   14   2.060   1.013   2.523 -0.1238  0.0328  0.8742
    2ALA      N   15   2.268   0.946   2.486  0.1979  0.1842  0.0385
    2ALA     HN   16   2.322   0.869   2.454 -0.3320 -0.1724 -0.0030
    2ALA     CA   17   2.320   1.078   2.505 -0.4078  0.2673  0.5170
    2ALA     HA   18   2.279   1.117   2.597 -3.7129 -0.3833 -0.5409
    2ALA     CB   19   2.475   1.080   2.505  1.0839  0.2427  0.1309
    2ALA    HB1   20   2.510   1.009   2.427  2.6416 -2.2955  2.9298
    2ALA    HB2   21   2.495   1.048   2.610  3.6219  1.3774  0.0463
    2ALA    HB3   22   2.520   1.179   2.485 -1.8205  1.4369 -1.1482
    2ALA      C   23   2.267   1.183   2.398 -0.5378 -0.5295  0.2068
    2ALA      O   24   2.262   1.166   2.275 -0.2873 -0.5537 -0.2386
    3ASP      N   25   2.227   1.298   2.446 -0.0477 -0.2056  0.0287
    3ASP     HN   26   2.258   1.317   2.539 -1.4161 -0.2169  0.4992
    3ASP     CA   27   2.166   1.412   2.380  0.0083 -0.3600 -0.4404
    3ASP     HA   28   2.075   1.384   2.328  0.5884 -1.5335 -0.8712
    3ASP     CB   29   2.116   1.524   2.484  0.4157  0.0105  0.1734
    3ASP    HB1   30   2.109   1.628   2.446 -0.7713  0.9809  2.8175
    3ASP    HB2   31   2.174   1.527   2.578 -1.3786 -0.1882  1.3241
    3ASP     CG   32   1.977   1.488   2.534  0.1602 -0.9633  0.0017
    3ASP    OD1   33   1.959   1.475   2.658 -0.2188  0.1737 -0.2722
    3ASP    OD2   34   1.888   1.474   2.447  0.3023 -0.6706  0.1080
    3ASP      C   35   2.259   1.471   2.269 -0.5563  0.1704 -0.4265
    3ASP      O   36   2.384   1.460   2.264 -0.0875 -0.7472 -0.0559
    4GLY      N   37   2.197   1.525   2.168 -0.4785  0.1312  0.9540
    4GLY     HN   38   2.097   1.529   2.171 -0.9072 -1.4827 -3.5513
    4GLY     CA   39   2.265   1.594   2.054  0.5367  0.1654  0.1095
    4GLY    HA1   40   2.187   1.612   1.982  1.1627  0.5265 -0.4872
    4GLY    HA2   41   2.347   1.531   2.024 -0.7369 -1.4744 -0.0397
    4GLY      C   42   2.320   1.733   2.091 -0.2107 -0.4339  0.3052
    4GLY      O   43   2.321   1.773   2.211  0.3480 -0.4338  0.0723
    5PRO      N   44   2.354   1.808   1.987  0.3392  0.0340  0.4612
    5PRO     CD   45   2.386   1.755   1.853  0.1597 -0.4112 -0.2090
    5PRO    HD1   46   2.300   1.770   1.783 -0.2382 -0.8643  0.1777
    5PRO    HD2   47   2.420   1.650   1.866 -0.3871 -0.5070  0.4987
    5PRO     CA   48   2.397   1.948   1.997 -0.1113 -0.3188  0.5313
    5PRO     HA   49   2.475   1.953   2.071  1.5731  2.9261 -1.2574
    5PRO     CB   50   2.457   1.977   1.863 -0.0759  0.0370  0.6083
    5PRO    HB1   51   2.549   2.039   1.866  0.1130 -0.2408  3.9829
    5PRO    HB2   52   2.390   2.021   1.786 -0.7814  1.0271  1.7452
    5PRO     CG   53   2.496   1.841   1.803 -0.0578  0.0150  0.5008
    5PRO    HG1   54   2.507   1.819   1.695  0.4791  2.0259  0.1110
    5PRO    HG2   55   2.588   1.817   1.861 -0.0534  1.5888  1.2161
    5PRO      C   56   2.289   2.045   2.043  0.2841  0.2833 -0.1951
    5PRO      O   57   2.323   2.131   2.122  0.0807  0.7304  0.2513
    6GLY      N   58   2.155   2.026   2.007 -0.5843  0.0298  0.5321
    6GLY     HN   59   2.129   1.951   1.946 -2.6052 -0.2446  1.6278
    6GLY     CA   60   2.055   2.117   2.048  0.3705  0.8457 -0.7275
    6GLY    HA1   61   2.077   2.149   2.148  2.4336 -2.6478  0.0932
    6GLY    HA2   62   1.959   2.066   2.048  1.6081 -2.0668  3.7694
    6GLY      C   63   2.043   2.234   1.950 -1.1409 -0.4096 -0.1164
    6GLY      O   64   2.109   2.224   1.846  0.3754  0.2178 -0.0727
    7ASP      N   65   1.971   2.348   1.985  0.0951  0.2726  0.7296
    7ASP     HN   66   1.911   2.348   2.064  0.3265 -0.9913  0.9169
    7ASP     CA   67   1.973   2.467   1.897  0.4884  0.4252 -0.2380
    7ASP     HA   68   1.986   2.443   1.793  2.0747  0.0279  0.0319
    7ASP     CB   69   1.840   2.542   1.920 -0.7907  0.1116  0.3696
    7ASP    HB1   70   1.858   2.635   1.862 -0.1127 -0.6068 -0.6347
    7ASP    HB2   71   1.823   2.563   2.027  0.6170  0.0046  0.6316
    7ASP     CG   72   1.730   2.468   1.856 -0.4153 -0.4684  0.0053
    7ASP    OD1   73   1.738   2.410   1.748 -0.0829 -0.0659 -0.1449
    7ASP    OD2   74   1.617   2.480   1.914 -0.6694  0.2519 -0.0774
    7ASP      C   75   2.083   2.560   1.945  0.0242 -0.1074  0.3737
    7ASP      O   76   2.136   2.557   2.057  0.1218 -0.0919 -0.8617
    8PRO      N   77   2.136   2.646   1.856 -0.3762  0.1269  0.1716
    8PRO     CD   78   2.113   2.650   1.710  0.1688  0.3640  0.1634
    8PRO    HD1   79   2.009   2.632   1.677  1.1985 -1.6812 -2.2983
    8PRO    HD2   80   2.173   2.571   1.660 -2.2250 -0.5709 -1.3910
    8PRO     CA   81   2.245   2.744   1.890  0.0075 -0.2489  0.4872
    8PRO     HA   82   2.320   2.689   1.945  1.7416  1.2264 -0.2886
    8PRO     CB   83   2.293   2.810   1.754  0.4628 -0.5586 -0.1256
    8PRO    HB1   84   2.382   2.756   1.714  1.7392  0.8607  0.6977
    8PRO    HB2   85   2.317   2.917   1.767 -0.6683 -0.1513 -1.2297
    8PRO     CG   86   2.174   2.785   1.661 -0.5258  0.6974 -0.4196
    8PRO    HG1   87   2.098   2.862   1.684 -2.6123 -1.4544  0.3425
    8PRO    HG2   88   2.208   2.787   1.556 -1.3879 -1.3380 -0.7853
    8PRO      C   89   2.204   2.850   1.988  0.6823 -0.3731 -0.4713
    8PRO      O   90   2.090   2.906   1.972  0.1662  0.0221  0.3816
    9ASP      N   91   2.288   2.882   2.086  0.1771  0.0143  0.0624
    9ASP     HN   92   2.374   2.832   2.089 -0.0496 -0.3908 -0.0970
    9ASP     CA   93   2.259   2.983   2.195 -0.3647 -1.1950  0.4958
    9ASP     HA   94   2.190   2.929   2.258 -1.9259 -2.1016 -1.8637
    9ASP     CB   95   2.381   3.028   2.270 -0.5227  0.4800 -0.1460
    9ASP    HB1   96   2.348   3.097   2.351  0.5652 -1.9117  2.4858
    9ASP    HB2   97   2.450   3.082   2.202  0.8182  1.1474  1.6520
    9ASP     CG   98   2.439   2.914   2.347 -0.1290 -0.6911 -0.4847
    9ASP    OD1   99   2.363   2.830   2.397  0.6420 -0.2221  0.3345
    9ASP    OD2  100   2.561   2.923   2.377 -0.1212  0.1119 -0.1823
    9ASP      C  101   2.190   3.112   2.150 -0.2050  0.2063 -0.0601
    9ASP      O  102   2.219   3.163   2.042  0.3161 -0.0360 -0.3426
   10ALA      N  103   2.098   3.167   2.238  0.0232 -0.2346 -0.0864
   10ALA     HN  104   2.078   3.124   2.325 -1.4980  0.4679 -0.0662
   10ALA     CA  105   2.014   3.283   2.212 -0.1587 -0.0988  0.3861
   10ALA     HA  106   1.951   3.254   2.129  0.5500 -0.8742  0.1035
   10ALA     CB  107   1.921   3.315   2.330 -0.4087  0.3919 -0.0408
   10ALA    HB1  108   1.987   3.326   2.419  1.5208 -1.1114 -1.2090
   10ALA    HB2  109   1.846   3.236   2.347  1.3378 -1.4784 -0.6415
   10ALA    HB3  110   1.860   3.404   2.304  0.9134  0.7167 -2.3485
   10ALA      C  111   2.086   3.405   2.161 -0.0007 -0.6667  0.0276
   10ALA      O  112   2.200   3.434   2.202 -0.8472 -0.0639 -0.2093
   11GLY      N  113   2.021   3.491   2.080  0.1818  0.8645  0.0168
   11GLY     HN  114   1.936   3.458   2.040 -0.2140  2.4211 -0.4907
   11GLY     CA  115   2.075   3.621   2.042 -0.1748  0.2911  0.4839
   11GLY    HA1  116   2.037   3.634   1.942 -1.7118 -3.0592  0.5031
   11GLY    HA2  117   2.182   3.627   2.032 -0.3326  3.3538 -0.6559
   11GLY      C  118   2.016   3.746   2.110 -0.3404 -0.9044 -0.2839
   11GLY    OT1  119   2.086   3.851   2.110 -0.0669 -0.7564 -0.2662
   11GLY    OT2  120   1.913   3.729   2.179  0.7311 -0.5319 -0.3154
   12SOD    SOD  121   3.147   1.602   4.938  0.1705  0.0359 -0.1387
   13SOD    SOD  122   2.274   5.632   4.572 -0.2496 -0.2001  0.0355
   14SOD    SOD  123   0.043   2.761   1.939  0.3616  0.2626 -0.7192
   15SOD    SOD  124   3.384   0.652   3.179 -0.1502  0.2069  0.4216
   16SOD    SOD  125   3.421   3.483   3.774 -0.2307 -0.3648 -0.1661
   17SOD    SOD  126   3.177   4.538   3.767 -0.1387  0.4997 -0.1646
   18SOD    SOD  127   5.163   1.615   0.984  0.1712  0.1824  0.5339
   19SOD    SOD  128   4.491   2.053   2.810  0.0723 -0.6835  0.2125
   20SOD    SOD  129   4.601   3.453   3.434  0.3727 -0.0262  0.3129
   21SOD    SOD  130   4.411   4.667   0.462 -0.3036 -0.6940  0.2622
   22SOD    SOD  131   2.526   1.446   3.264 -0.0115 -0.1450 -0.3977
   23SOD    SOD  132   2.839   1.968   1.306  0.3018 -0.3000 -0.2121
   24SOD    SOD  133   4.407   3.375   0.457  0.0416  0.2327 -0.2336
   25SOD    SOD  134   2.286   0.419   3.565 -0.3856  0.2458 -0.0587
   26SOD    SOD  135   2.104   5.670   0.251 -0.1043  0.3100  0.5315
   27SOD    SOD  136   2.848   4.810   2.422  0.2313  0.1644  0.1252
   28SOD    SOD  137   1.442   4.365   5.024 -0.2604 -0.3417  0.0756
   29SOD    SOD  138   3.195   2.311   2.339 -0.2870  0.1751 -0.6599
   30SOD    SOD  139   2.670   1.203   0.442 -0.0781 -0.1074  0.3714
   31SOD    SOD  140   5.572   0.490   3.987 -0.2478 -0.0259 -0.5017
   32SOD    SOD  141   0.224   4.147   1.247 -0.5481  0.3462 -0.1420
   33SOD    SOD  142   3.833   1.513   3.909  0.2952  0.7906 -0.0573
   34CLA    CLA  143   2.857   0.538   3.324 -0.2157 -0.1110  0.5253
   35CLA    CLA  144   3.517   5.010   1.805 -0.0765  0.4051 -0.1003
   36CLA    CLA  145   4.102   4.072   1.326 -0.1577 -0.0845 -0.1452
   37CLA    CLA  146   6.085   1.550   5.167  0.2963 -0.0927 -0.7368
   38CLA    CLA  147   6.003   1.729   1.423  0.1079 -0.0058 -0.2013
   39CLA    CLA  148   2.773   1.619   3.901 -0.6627  0.1206 -0.1609
   40CLA    CLA  149   0.247   5.433   4.395  0.0341  0.4172 -0.1239
   41CLA    CLA  150   4.053   2.151   3.499  0.2190  0.0725 -0.0991
   42CLA    CLA  151   2.617   0.128   2.409  0.3002  0.2645 -0.0280
   43CLA    CLA  152   5.107   2.576   3.793  0.2924  0.1866  0.4576
   44CLA    CLA  153   2.364   2.473   1.364  0.3976  0.1861  0.5896
   45CLA    CLA  154   1.309   0.244   3.189 -0.8377 -0.1566  0.6092
   46CLA    CLA  155   3.769   3.144   3.551 -0.4591 -0.0932  0.4281
   47CLA    CLA  156   1.334   3.208   3.035  0.0149 -0.1353  0.0459
   48CLA    CLA  157   1.359   5.458   1.715  0.6230  0.1326 -0.3198
   49CLA    CLA  158   5.433   2.814   3.279  0.1980 -0.3324  0.0500
   50CLA    CLA  159   3.914   0.793   3.752 -0.0804 -0.1580  0.0880
   51CLA    CLA  160   2.264   5.552   4.309 -0.1267  0.2159  0.0525
   52TIP3   OH2  161   2.091   1.625   1.431  0.0638  0.8690 -0.0460
   52TIP3    H1  162   2.147   1.703   1.440  1.1021  0.2316 -0.7394
   52TIP3    H2  163   2.117   1.587   1.347 -0.9812  0.1912 -0.0773
   53TIP3   OH2  164   3.509   3.641   1.857  0.2641  0.1335  0.0505
   53TIP3    H1  165   3.537   3.687   1.778 -2.2511 -0.1619 -1.1184
   53TIP3    H2  166   3.466   3.561   1.825 -0.4231 -0.2193  1.7292
   54TIP3   OH2  167   2.579   3.676   4.766  0.0341  0.2367 -0.3068
   54TIP3    H1  168   2.633   3.658   4.689 -0.8264 -1.7508 -0.5037
   54TIP3    H2  169   2.633   3.646   4.840 -0.1999 -0.4401 -0.3951
   55TIP3   OH2  170   1.155   3.215   2.521 -0.0121 -0.5579 -0.1317
   55TIP3    H1  171   1.186   3.128   2.549  1.0996 -0.4130 -0.8346
   55TIP3    H2  172   1.199   3.276   2.580  1.5944 -0.3126 -1.4982
   56TIP3   OH2  173   2.123   2.670   1.309 -0.0591  0.0432  0.1375
   56TIP3    H1  174   2.075   2.604   1.259  0.3773 -0.1991  0.0267
   56TIP3    H2  175   2.204   2.625   1.335 -0.2329  0.2005  0.9707
   57TIP3   OH2  176   3.981   0.665   2.375 -0.4666 -0.0735  1.2168
   57TIP3    H1  177   3.991   0.704   2.288 -1.4609 -0.8174  0.7509
   57TIP3    H2  178   4.070   0.644   2.403 -0.2527 -2.0730 -0.6978
   58TIP3   OH2  179   1.400   5.768   1.385 -0.0541 -0.2086  0.3726
   58TIP3    H1  180   1.348   5.769   1.465 -0.1410 -2.3873  0.3962
   58TIP3    H2  181   1.479   5.817   1.407 -1.3805  1.8405  0.8023
   59TIP3   OH2  182   0.996   2.857   0.549  0.3378  0.0995  0.0581
   59TIP3    H1  183   1.056   2.928   0.569  1.2982 -0.8820  0.7352
   59TIP3    H2  184   0.993   2.804   0.628 -0.6244 -0.4425 -0.3221
   60TIP3   OH2  185   2.618   1.933   1.222 -0.2428 -0.1178 -0.3565
   60TIP3    H1  186   2.579   1.997   1.163  2.6615  1.3669 -0.8175
   60TIP3    H2  187   2.555   1.926   1.294 -0.9529  2.8530 -0.5535
   61TIP3   OH2  188   4.615   0.703   4.902  0.0890 -0.4542  0.3292
   61TIP3    H1  189   4.676   0.757   4.952  2.1139 -3.1902  1.0573
   61TIP3    H2  190   4.667   0.670   4.829 -1.9142  0.7895 -1.7767
   62TIP3   OH2  191   6.070   4.481   1.863 -0.9912 -0.2070 -0.0178
   62TIP3    H1  192   6.135   4.544   1.893  0.1222 -0.5758 -1.5300
   62TIP3    H2  193   6.111   4.438   1.788 -1.4264 -3.1741  1.2865
   63TIP3   OH2  194   2.968   3.870   1.260  0.1205 -0.0039  0.5295
   63TIP3    H1  195   3.017   3.792   1.234 -1.1088 -1.0220  1.1105
   63TIP3    H2  196   2.982   3.877   1.355 -0.8582 -0.3581  0.7218
   64TIP3   OH2  197   3.355   3.077   3.431 -0.0197  0.1097  0.4315
   64TIP3    H1  198   3.278   3.033   3.466 -0.0425 -1.1575 -1.1067
   64TIP3    H2  199   3.320   3.141   3.368  0.1032  1.0782  1.3250
   65TIP3   OH2  200   5.043   5.927   3.970 -0.5309  0.2492 -0.0321
   65TIP3    H1  201   5.069   5.835   3.965  1.7389  0.7533  1.2814
   65TIP3    H2  202   5.074   5.966   3.888  0.9050  0.3544  0.5329
   66TIP3   OH2  203   2.612   5.310   3.774 -0.0651  0.1418 -0.2270
   66TIP3    H1  204   2.623   5.402   3.750 -0.0512  0.2379  0.1289
   66TIP3    H2  205   2.696   5.270   3.754  0.8042  0.7369  1.8709
   67TIP3   OH2  206   0.463   2.255   4.166 -0.1646 -0.3314 -0.0205
   67TIP3    H1  207   0.408   2.193   4.214  0.1671 -1.2558 -0.8134
   67TIP3    H2  208   0.528   2.201   4.122 -0.0870  0.5466 -1.0330
   68TIP3   OH2  209   3.151   0.860   4.706  0.1118  0.5212 -0.2611
   68TIP3    H1  210   3.219   0.824   4.762 -1.6715 -0.3489  1.4633
   68TIP3    H2  211   3.085   0.791   4.700 -0.4477  1.1557 -2.2548
   69TIP3   OH2  212   5.033   3.026   3.578  1.1301 -0.0398 -0.0349
   69TIP3    H1  213   5.051   2.967   3.652  2.3487 -0.6664 -0.7982
   69TIP3    H2  214   5.120   3.047   3.543  0.7031  1.9817  0.0133
   70TIP3   OH2  215   5.974   0.373   3.045 -0.0272 -0.2956 -0.1672
   70TIP3    H1  216   5.886   0.370   3.084 -0.7854  3.3730 -1.2785
   70TIP3    H2  217   5.959   0.361   2.952  0.7430 -0.0759 -0.3234
   71TIP3   OH2  218   1.934   2.168   4.952  0.6884  0.2065 -0.0635
   71TIP3    H1  219   2.005   2.113   4.920  0.6488  0.8113 -1.2845
   71TIP3    H2  220   1.855   2.129   4.915  0.7133  1.3700 -1.4694
   72TIP3   OH2  221   0.908   4.114   4.668  0.3087  0.3040 -0.2860
   72TIP3    H1  222   0.955   4.074   4.595 -1.7116 -1.6899 -0.6159
   72TIP3    H2  223   0.889   4.203   4.639  1.1245  0.1210 -1.4464
   73TIP3   OH2  224   5.791   2.220   4.467  0.1905 -0.2973  0.4832
   73TIP3    H1  225   5.885   2.205   4.479  0.3274 -0.6659 -0.8943
   73TIP3    H2  226   5.760   2.142   4.421 -0.6165  0.2157  0.1401
   74TIP3   OH2  227   0.313   3.360   2.379  0.3488 -0.3933  0.5102
   74TIP3    H1  228   0.250   3.431   2.391  0.5905 -0.1902  0.5957
   74TIP3    H2  229   0.348   3.344   2.467 -0.9067 -1.7559  0.7866
   75TIP3   OH2  230   2.009   2.891   1.384  0.4091 -0.0991 -0.1393
   75TIP3    H1  231   2.044   2.971   1.344  0.3863 -0.1168 -0.1936
   75TIP3    H2  232   2.057   2.820   1.342 -0.8223 -0.2242 -1.3787
   76TIP3   OH2  233   3.534   2.130   2.641  0.7076  0.0066 -0.0752
   76TIP3    H1  234   3.514   2.188   2.714 -0.3366  0.4926 -0.7290
   76TIP3    H2  235   3.449   2.099   2.610  1.0789  0.3258 -1.5012
   77TIP3   OH2  236   1.131   5.015   0.701 -0.7279 -0.1106 -0.3006
   77TIP3    H1  237   1.132   4.925   0.734  0.6438  0.7552  2.3184
   77TIP3    H2  238   1.215   5.026   0.656 -0.8504 -0.1021 -0.5296
   78TIP3   OH2  239   0.756   5.436   2.642  0.1381  0.2967  0.6698
   78TIP3    H1  240   0.808   5.515   2.629  0.1888  0.1134 -0.2947
   78TIP3    H2  241   0.665   5.465   2.631  0.1661  0.1992  0.1206
   79TIP3   OH2  242   3.446   1.038   2.646  0.0886  0.0600  0.1021
   79TIP3    H1  243   3.461   1.129   2.671 -0.3594  0.0476  0.4331
   79TIP3    H2  244   3.385   1.005   2.711  0.0478 -0.4067 -0.1652
   80TIP3   OH2  245   3.698   2.740   3.845 -0.0911  0.2341  0.5346
   80TIP3    H1  246   3.764   2.801   3.878  0.6708 -0.0906 -0.3545
   80TIP3    H2  247   3.669   2.779   3.763 -0.3508 -0.0800  0.4782
   81TIP3   OH2  248   1.645   3.209   3.319  0.2111  0.4315 -0.0849
   81TIP3    H1  249   1.720   3.264   3.342 -0.7998  1.3220  1.2392
   81TIP3    H2  250   1.661   3.127   3.366  0.5712  0.4458 -0.1769
   82TIP3   OH2  251   2.040   1.834   3.844  0.3221  0.1923 -0.3609
   82TIP3    H1  252   2.062   1.843   3.751  0.1213  0.1934 -0.4088
   82TIP3    H2  253   2.041   1.739   3.859 -0.9813  0.0926 -0.6999
   83TIP3   OH2  254   3.013   0.020   0.652 -0.3236 -0.3355  0.0517
   83TIP3    H1  255   2.940   0.015   0.591  0.1533 -0.3286 -0.5331
   83TIP3    H2  256   2.974   0.045   0.735 -0.7890  1.3558 -0.6345
   84TIP3   OH2  257   3.197   4.479   0.157  0.0128  0.3686 -0.1664
   84TIP3    H1  258   3.207   4.553   0.098  2.9787 -0.1355 -0.4617
   84TIP3    H2  259   3.157   4.516   0.236 -0.5960  1.7874 -1.0983
   85TIP3   OH2  260   3.164   4.907   0.506 -0.2947 -0.3304 -0.3792
   85TIP3    H1  261   3.242   4.931   0.556  0.3771  0.4244 -1.7202
   85TIP3    H2  262   3.093   4.905   0.571  0.8498 -1.2017  0.8901
   86TIP3   OH2  263   5.045   4.717   1.720 -0.2588  0.6891 -0.0914
   86TIP3    H1  264   5.131   4.748   1.691 -0.2345 -0.8677 -1.8828
   86TIP3    H2  265   5.028   4.640   1.666 -2.1330  0.0776  1.2791
   87TIP3   OH2  266   4.284   3.543   0.876  0.5639  0.2857  0.6229
   87TIP3    H1  267   4.219   3.492   0.924  0.7836  0.4693  1.1292
   87TIP3    H2  268   4.302   3.618   0.933  0.9710  0.4130  0.3338
   88TIP3   OH2  269   5.594   3.790   3.877 -0.1468  0.3192  0.3197
   88TIP3    H1  270   5.575   3.798   3.971  0.2129 -1.1294  0.5365
   88TIP3    H2  271   5.676   3.743   3.873  0.1553  0.9117 -0.7384
   89TIP3   OH2  272   3.027   2.600   0.961  0.2266 -0.2579 -0.1566
   89TIP3    H1  273   2.980   2.590   0.879  0.9840 -0.8219 -0.5403
   89TIP3    H2  274   3.089   2.671   0.945  1.3932 -1.3229 -0.5931
   90TIP3   OH2  275   2.534   0.836   1.233 -0.0713 -0.1779  0.2964
   90TIP3    H1  276   2.604   0.776   1.210  0.3892  0.1694  0.7617
   90TIP3    H2  277   2.574   0.923   1.227  0.1376 -0.0649  2.4880
   91TIP3   OH2  278   2.952   2.277   3.653  0.0810 -0.1516  0.4429
   91TIP3    H1  279   2.928   2.230   3.732 -0.1385 -0.7612  0.0253
   91TIP3    H2  280   2.956   2.209   3.585 -0.7129  0.4906 -0.2719
   92TIP3   OH2  281   0.405   4.219   1.800 -0.2670 -0.4139  0.0379
   92TIP3    H1  282   0.352   4.172   1.865 -1.3761 -2.2787 -2.0460
   92TIP3    H2  283   0.488   4.236   1.844 -1.0653 -1.3386  2.0118
   93TIP3   OH2  284   0.121   3.998   2.141 -0.3053  0.5171  0.1282
   93TIP3    H1  285   0.144   3.950   2.061 -0.0675 -0.9082  1.0226
   93TIP3    H2  286   0.054   4.059   2.113 -0.3084 -0.0376 -1.1538
   94TIP3   OH2  287   3.535   2.884   2.367  0.0103  0.4443 -0.6815
   94TIP3    H1  288   3.608   2.945   2.377  1.1803 -1.1805  1.5479
   94TIP3    H2  289   3.462   2.926   2.412  0.3222  0.9080 -0.6055
   95TIP3   OH2  290   3.728   5.416   0.524  0.1312 -0.1771 -0.0912
   95TIP3    H1  291   3.725   5.330   0.483 -0.4816 -0.0839 -0.2502
   95TIP3    H2  292   3.652   5.417   0.583 -2.1411  1.6051 -2.8101
   96TIP3   OH2  293   4.436   1.797   2.261 -0.0221 -0.4899  0.3853
   96TIP3    H1  294   4.391   1.869   2.306  0.1938 -0.6459  0.8660
   96TIP3    H2  295   4.368   1.731   2.247 -0.3119 -0.0365 -0.4193
   97TIP3   OH2  296   2.755   3.641   4.560  0.1248  0.1415 -0.7685
   97TIP3    H1  297   2.784   3.550   4.558 -3.8331 -1.3736  0.9011
   97TIP3    H2  298   2.750   3.667   4.468  0.8506 -1.4765 -1.2999
   98TIP3   OH2  299   4.458   5.491   4.036 -0.6899 -0.2490  0.5815
   98TIP3    H1  300   4.466   5.459   3.947  0.1526 -0.0940  0.5857
   98TIP3    H2  301   4.496   5.579   4.034 -1.4636  0.1059  0.9137
   99TIP3   OH2  302   1.806   1.895   2.927 -0.1936 -0.2098 -0.7198
   99TIP3    H1  303   1.786   1.869   3.017 -1.2730  0.8144 -0.6314
   99TIP3    H2  304   1.848   1.981   2.936 -0.6199  0.0589 -1.1898
  100TIP3   OH2  305   3.257   5.178   0.744 -0.2604  0.0432  0.0934
  100TIP3    H1  306   3.195   5.194   0.815 -0.0744 -1.0007  0.5113
  100TIP3    H2  307   3.316   5.254   0.747 -1.4212  0.9918 -0.2372
  101TIP3   OH2  308   5.609   1.013   4.789  0.7131 -0.2873 -0.3587
  101TIP3    H1  309   5.667   1.080   4.754  0.4632 -0.0234 -0.2689
  101TIP3    H2  310   5.522   1.039   4.759  0.6649 -0.7955 -0.6749
  102TIP3   OH2  311   2.378   5.156   1.105 -0.4051  0.4657 -0.5816
  102TIP3    H1  312   2.407   5.195   1.022  0.2295 -0.0988 -0.6285
  102TIP3    H2  313   2.297   5.111   1.082 -1.1257  1.6877 -0.5403
  103TIP3   OH2  314   6.027   5.206   3.669  0.4427 -0.2626 -0.4645
  103TIP3    H1  315   6.113   5.219   3.709  1.0993 -0.4607 -1.7410
  103TIP3    H2  316   6.026   5.113   3.646  0.6092  0.0741 -1.9694
  104TIP3   OH2  317   5.695   3.884   2.635  0.0014  0.0093 -0.3236
  104TIP3    H1  318   5.609   3.867   2.672 -1.1276  2.5501 -1.5366
  104TIP3    H2  319   5.756   3.858   2.703 -1.8718  1.6785  2.1672
  105TIP3   OH2  320   0.385   3.123   2.276  0.6671 -0.2619  0.6741
  105TIP3    H1  321   0.433   3.139   2.195  2.8564 -2.4251  1.4060
  105TIP3    H2  322   0.346   3.208   2.298 -0.4963  0.2999 -2.8398
  106TIP3   OH2  323   2.794   1.634   4.676  0.3067 -0.1334 -0.2545
  106TIP3    H1  324   2.714   1.637   4.727  1.0820 -1.7732  1.1938
  106TIP3    H2  325   2.850   1.701   4.715  0.0124  0.3228 -0.6080
  107TIP3   OH2  326   0.441   1.627   4.681  0.4375 -0.3403 -0.3617
  107TIP3    H1  327   0.416   1.549   4.632 -1.0159  1.0880 -2.0876
  107TIP3    H2  328   0.422   1.606   4.772  0.6619 -2.1817 -0.7046
  108TIP3   OH2  329   6.095   5.112   4.172 -0.4808  0.1056  0.0241
  108TIP3    H1  330   6.016   5.062   4.191 -1.2264  1.2792  0.0863
  108TIP3    H2  331   6.064   5.198   4.144  0.7675  0.5516 -0.0807
  109TIP3   OH2  332   4.255   1.638   0.686 -0.8053  0.0011  0.1932
  109TIP3    H1  333   4.329   1.596   0.642 -0.2449  0.1374  0.9942
  109TIP3    H2  334   4.178   1.601   0.643 -0.2861 -0.5989 -0.2385
  110TIP3   OH2  335   2.881   4.351   0.620 -0.3715 -0.1976 -0.0674
  110TIP3    H1  336   2.924   4.289   0.680 -1.8763 -1.6639 -0.4196
  110TIP3    H2  337   2.791   4.354   0.650 -1.3532 -1.4622 -2.5349
  111TIP3   OH2  338   4.080   4.112   5.153 -0.0681  0.3397 -0.0241
  111TIP3    H1  339   4.174   4.119   5.163 -0.0278 -0.5355  0.2647
  111TIP3    H2  340   4.055   4.036   5.206 -0.9344  0.5851 -0.0650
  112TIP3   OH2  341   5.125   3.038   0.342  0.2128  0.0561 -0.2232
  112TIP3    H1  342   5.062   2.967   0.325  1.0745 -0.6311 -0.6635
  112TIP3    H2  343   5.106   3.066   0.432 -0.9573  0.1279 -0.4703
  113TIP3   OH2  344   1.903   4.535   4.833  0.3452  0.1296  0.0370
  113TIP3    H1  345   1.957   4.602   4.874  0.5585  0.0708 -0.1460
  113TIP3    H2  346   1.817   4.545   4.874  1.3371 -2.1430  3.0169
  114TIP3   OH2  347   1.365   2.357   1.438 -0.3840  0.3860  0.5268
  114TIP3    H1  348   1.384   2.370   1.531 -0.5212 -1.2490  0.8145
  114TIP3    H2  349   1.273   2.331   1.437 -0.0354 -0.8916  0.0876
  115TIP3   OH2  350   4.708   5.655   3.982  0.2079  0.5477  0.3426
  115TIP3    H1  351   4.733   5.639   3.891  1.2546  0.5162  0.6204
  115TIP3    H2  352   4.772   5.605   4.033 -1.1999 -0.5842  1.0858
  116TIP3   OH2  353   3.044   4.493   4.795 -0.5790 -0.4247 -0.0395
  116TIP3    H1  354   2.998   4.442   4.729 -0.9845  0.3615 -0.3896
  116TIP3    H2  355   3.060   4.578   4.753 -0.2651 -0.1292  0.6492
  117TIP3   OH2  356   1.928   3.796   2.721 -0.3586  0.1117  0.4505
  117TIP3    H1  357   1.894   3.770   2.635  0.7693 -1.2869  0.3963
  117TIP3    H2  358   1.902   3.726   2.779 -0.9213  0.9465  1.2303
  118TIP3   OH2  359   3.940   0.631   2.699  0.3940  0.8366 -0.3975
  118TIP3    H1  360   4.019   0.581   2.675 -0.2679  0.1856 -1.2988
  118TIP3    H2  361   3.868   0.581   2.661 -0.5650  0.8575  1.3005
  119TIP3   OH2  362   2.653   5.014   4.558 -0.2305  0.0499  0.2351
  119TIP3    H1  363   2.606   4.939   4.594  0.6399 -0.1791  0.9513
  119TIP3    H2  364   2.685   4.983   4.473 -2.5110  0.6751 -0.9202
  120TIP3   OH2  365   1.709   3.030   1.899 -0.5797  0.0278  0.6221
  120TIP3    H1  366   1.783   3.067   1.849 -2.4632  1.3194 -1.3788
  120TIP3    H2  367   1.690   3.097   1.965 -1.0370  0.5278 -0.0006
  121TIP3   OH2  368   0.899   3.323   2.421  0.0819 -0.3075  0.1471
  121TIP3    H1  369   0.908   3.305   2.327 -0.6858  0.4137 -0.0770
  121TIP3    H2  370   0.988   3.316   2.455  0.9674  2.5742 -1.2344
  122TIP3   OH2  371   2.181   3.397   0.142  0.2184 -0.4825  0.6110
  122TIP3    H1  372   2.259   3.419   0.091  0.3709  2.0949  1.7627
  122TIP3    H2  373   2.138   3.328   0.092  2.8232 -1.4622 -0.4526
  123TIP3   OH2  374   5.377   3.794   3.424 -0.0653  0.0075  0.5387
  123TIP3    H1  375   5.350   3.705   3.401 -2.3906  0.3956  1.5110
  123TIP3    H2  376   5.432   3.783   3.502 -0.9341 -0.5547  1.0863
  124TIP3   OH2  377   2.958   3.922   4.338  0.3635 -0.0421  0.3439
  124TIP3    H1  378   2.869   3.919   4.375  0.3949  0.4920  0.4662
  124TIP3    H2  379   2.944   3.935   4.244  0.2938 -0.9542  0.2207
  125TIP3   OH2  380   2.486   3.945   1.452  0.3776  0.0639  0.3530
  125TIP3    H1  381   2.449   3.929   1.539 -1.5283  1.1189 -0.2040
  125TIP3    H2  382   2.446   3.879   1.396  0.7573  0.0752  0.0599
  126TIP3   OH2  383   2.227   0.482   4.545 -0.3911  0.2770  0.9437
  126TIP3    H1  384   2.268   0.439   4.470  1.8853 -0.8240  2.7146
  126TIP3    H2  385   2.161   0.419   4.574 -1.2990  0.7146 -0.0820
  127TIP3   OH2  386   5.453   3.288   1.661  0.3347  0.1519 -0.5829
  127TIP3    H1  387   5.468   3.200   1.626 -2.0053 -1.1760  1.4633
  127TIP3    H2  388   5.368   3.314   1.624 -0.3641  0.3094  1.0690
  128TIP3   OH2  389   4.688   1.418   4.501  0.0650 -0.0407  0.2042
  128TIP3    H1  390   4.699   1.462   4.417 -3.3720  0.7835  0.0460
  128TIP3    H2  391   4.702   1.486   4.566  0.0808 -0.0219  0.1812
  129TIP3   OH2  392   1.728   4.870   4.197 -0.6911  0.2904 -0.8164
  129TIP3    H1  393   1.762   4.952   4.160 -0.8836  0.6968 -0.1045
  129TIP3    H2  394   1.666   4.838   4.131 -1.3174  1.2012 -0.6954
  130TIP3   OH2  395   3.729   4.583   2.859 -0.2401 -0.0965  0.1759
  130TIP3    H1  396   3.751   4.507   2.804 -1.1338 -1.5753  1.7491
  130TIP3    H2  397   3.667   4.633   2.807  2.1843  0.9695 -1.9102
  131TIP3   OH2  398   3.024   2.590   0.223  0.3427  0.0961  0.0647
  131TIP3    H1  399   3.051   2.666   0.275  0.3537  0.0195  0.1724
  131TIP3    H2  400   3.041   2.515   0.280 -0.5766  0.0833  0.3401
  132TIP3   OH2  401   5.182   5.014   2.531 -0.4219  0.3478  0.6328
  132TIP3    H1  402   5.169   5.107   2.547  1.2782  1.3138 -2.6259
  132TIP3    H2  403   5.270   4.996   2.564  0.0755  0.4803 -0.5526
  133TIP3   OH2  404   1.163   1.553   2.230  0.2194  0.0242  0.2889
  133TIP3    H1  405   1.132   1.594   2.310  0.2954 -2.1482  1.4922
  133TIP3    H2  406   1.254   1.584   2.221 -0.0854  1.0072  0.5001
  134TIP3   OH2  407   1.734   2.853   4.607 -0.3724 -0.0573  0.2714
  134TIP3    H1  408   1.767   2.779   4.657 -2.6841 -0.3425  1.5053
  134TIP3    H2  409   1.713   2.817   4.521 -1.8180 -0.9640  0.9774
  135TIP3   OH2  410   2.722   0.215   5.063  0.0526 -0.0366  0.2630
  135TIP3    H1  411   2.663   0.142   5.044  0.1447 -0.1895  0.5551
  135TIP3    H2  412   2.809   0.182   5.039  0.2994 -0.5587  1.7541
  136TIP3   OH2  413   4.329   5.666   2.235  0.0016 -0.4347 -0.3197
  136TIP3    H1  414   4.422   5.674   2.216  0.1664 -1.0074  0.2223
  136TIP3    H2  415   4.293   5.620   2.159  0.4225 -1.5240  0.1251
  137TIP3   OH2  416   4.265   4.833   2.896 -0.1342 -0.3658 -0.2278
  137TIP3    H1  417   4.247   4.851   2.989  2.0601  0.1177  0.1679
  137TIP3    H2  418   4.266   4.738   2.890 -0.7755 -0.4022  0.1324
  138TIP3   OH2  419   2.970   0.238   3.119  0.4778  0.4474  0.0670
  138TIP3    H1  420   2.968   0.209   3.028 -0.6343  0.0661  0.1913
  138TIP3    H2  421   2.933   0.165   3.169  0.0837  1.0541  0.6959
  139TIP3   OH2  422   1.853   0.872   2.712  0.2611 -0.0859  0.7156
  139TIP3    H1  423   1.939   0.848   2.677  0.2371  1.1397 -0.2646
  139TIP3    H2  424   1.873   0.928   2.787  0.3176  0.0449  0.6034
  140TIP3   OH2  425   5.330   3.087   3.821  0.5808  0.2794 -0.7543
  140TIP3    H1  426   5.425   3.084   3.806  1.1378 -0.8047  2.2386
  140TIP3    H2  427   5.318   3.159   3.882 -0.7503  1.1466 -1.9767
  141TIP3   OH2  428   5.062   5.724   2.900 -0.4548  0.2407 -0.3535
  141TIP3    H1  429   5.105   5.650   2.943 -1.0879  0.9190  1.5090
  141TIP3    H2  430   5.129   5.792   2.898 -0.7009  0.5063  0.3803
  142TIP3   OH2  431   1.885   5.447   1.542  0.3429 -0.0115 -0.5868
  142TIP3    H1  432   1.868   5.434   1.449 -1.9369  1.7538 -0.5006
  142TIP3    H2  433   1.824   5.388   1.587 -1.4935  1.9785 -0.2847
  143TIP3   OH2  434   0.249   0.437   0.900  0.1300  0.2691  0.1328
  143TIP3    H1  435   0.297   0.383   0.963  1.0076  0.0630 -0.6800
  143TIP3    H2  436   0.160   0.403   0.901  0.2133  0.0645  1.0228
  144TIP3   OH2  437   3.960   1.055   4.202 -0.4789 -0.3450  0.2200
  144TIP3    H1  438   3.966   1.076   4.108 -0.3679  0.2222  0.3483
  144TIP3    H2  439   3.872   1.018   4.212 -0.6458 -0.0318 -0.0397
  145TIP3   OH2  440   4.872   5.213   0.507  0.5674 -0.1968 -0.2174
  145TIP3    H1  441   4.872   5.243   0.416  2.1601 -0.6124 -0.3872
  145TIP3    H2  442   4.964   5.199   0.528  0.2801  0.3811  1.6456
  146TIP3   OH2  443   6.332   2.537   4.677  0.2249  1.1009  0.3577
  146TIP3    H1  444   6.389   2.473   4.719  0.4050  0.6325 -0.5938
  146TIP3    H2  445   6.260   2.549   4.740  0.4060  0.2888  0.7329
  147TIP3   OH2  446   2.524   0.943   1.564 -0.0071  0.5834 -0.0155
  147TIP3    H1  447   2.447   0.934   1.507  0.2733  1.3136 -0.5176
  147TIP3    H2  448   2.557   1.031   1.546 -0.6307  1.3291  2.1890
  148TIP3   OH2  449   1.268   0.068   3.435  0.4795  0.1224 -0.2201
  148TIP3    H1  450   1.272   0.115   3.352  1.9092 -0.4499 -0.5031
  148TIP3    H2  451   1.182   0.026   3.434  0.2665  0.5406 -1.1674
  149TIP3   OH2  452   3.819   4.471   1.372  0.2630 -0.4086 -0.5358
  149TIP3    H1  453   3.785   4.450   1.285  0.6989 -0.7718 -0.6250
  149TIP3    H2  454   3.858   4.389   1.403 -0.3436 -0.4167  0.2175
  150TIP3   OH2  455   5.555   3.185   0.866  0.3905  0.1686  0.5131
  150TIP3    H1  456   5.521   3.178   0.777  0.5132  2.3176  0.2526
  150TIP3    H2  457   5.650   3.189   0.856  0.4184  0.1727  0.7690
  151TIP3   OH2  458   4.938   0.599   5.181  0.0147 -0.4273  0.7320
  151TIP3    H1  459   4.925   0.534   5.112 -0.5379  0.1714  0.2650
  151TIP3    H2  460   4.894   0.560   5.257  1.4262 -1.5156  1.0410
  152TIP3   OH2  461   6.070   4.135   2.394 -0.1482  0.5054 -0.2806
  152TIP3    H1  462   6.011   4.062   2.415 -0.8889  1.3608  0.7584
  152TIP3    H2  463   6.077   4.184   2.476  1.3152  0.9362 -0.6322
  153TIP3   OH2  464   6.101   0.887   3.266 -0.4514  0.2241  0.2211
  153TIP3    H1  465   6.048   0.811   3.244  0.8454 -1.1189  1.5395
  153TIP3    H2  466   6.046   0.938   3.325 -0.8760 -0.3022  0.2849
  154TIP3   OH2  467   1.902   4.006   0.868 -0.1891  0.0168  0.0816
  154TIP3    H1  468   1.920   3.966   0.783 -0.5153 -0.0570  0.0451
  154TIP3    H2  469   1.911   3.934   0.931  0.0570  0.0723  0.1116
  155TIP3   OH2  470   3.625   1.988   0.485  0.7233 -0.0603  0.0362
  155TIP3    H1  471   3.610   2.055   0.417  1.0541 -0.8952 -0.8811
  155TIP3    H2  472   3.720   1.978   0.488  0.6725 -0.5228  0.1398
  156TIP3   OH2  473   3.065   5.231   0.537 -0.3926  0.2250  0.0951
  156TIP3    H1  474   3.161   5.238   0.538 -0.2089 -1.5902 -1.0840
  156TIP3    H2  475   3.041   5.255   0.448 -0.8997 -0.7335 -0.0279
  157TIP3   OH2  476   2.071   3.080   2.996 -0.5250  0.2740  0.1139
  157TIP3    H1  477   2.137   3.146   2.978  0.0316 -0.1518  0.5567
  157TIP3    H2  478   2.110   2.998   2.964 -1.9076  0.3960 -2.0383
  158TIP3   OH2  479   1.990   4.944   1.914  0.0937  0.1731 -0.2471
  158TIP3    H1  480   2.024   4.903   1.835  0.2350 -0.3058  0.0570
  158TIP3    H2  481   1.933   5.014   1.882  0.7415  0.4709 -0.7610
  159TIP3   OH2  482   3.562   0.873   4.467 -0.0973  0.3226  0.3903
  159TIP3    H1  483   3.477   0.917   4.474  0.1339  0.5958  1.5921
  159TIP3    H2  484   3.626   0.941   4.488  0.4959  0.3299 -1.2863
  160TIP3   OH2  485   4.347   4.393   3.133  0.2091 -0.5945  0.1248
  160TIP3    H1  486   4.371   4.310   3.094  1.0347 -0.7118  0.8487
  160TIP3    H2  487   4.291   4.370   3.208 -0.9974 -0.3953 -0.6826
  161TIP3   OH2  488   1.710   0.703   2.008 -0.4409 -0.1610 -0.7964
  161TIP3    H1  489   1.715   0.656   1.925  1.3182  0.8428 -1.3104
  161TIP3    H2  490   1.626   0.750   2.004 -0.7174 -0.7116 -1.6662
  162TIP3   OH2  491   3.127   2.594   4.856 -0.2641 -0.0614  0.3224
  162TIP3    H1  492   3.188   2.639   4.797 -1.1917  1.1403  0.2600
  162TIP3    H2  493   3.178   2.520   4.890  1.2150  0.8656  0.2282
  163TIP3   OH2  494   5.648   3.762   2.897  0.1396 -0.6502 -0.4952
  163TIP3    H1  495   5.678   3.684   2.944 -0.4449 -1.4576 -1.4341
  163TIP3    H2  496   5.674   3.835   2.954 -1.0617 -1.6076  1.4153
  164TIP3   OH2  497   2.213   0.739   4.661  0.9224  0.0710  0.7102
  164TIP3    H1  498   2.216   0.647   4.637 -2.1606  0.7791 -3.5499
  164TIP3    H2  499   2.141   0.745   4.724 -0.1660 -0.2490 -0.4783
  165TIP3   OH2  500   3.927   2.812   1.285  0.6746  0.2643 -0.0243
  165TIP3    H1  501   3.936   2.877   1.355 -0.1364  0.1303  0.2175
  165TIP3    H2  502   4.004   2.756   1.293  0.3694 -0.0153  1.0526
  166TIP3   OH2  503   4.923   1.879   0.424 -0.2113 -0.6436 -0.3162
  166TIP3    H1  504   5.005   1.839   0.450 -0.7394 -1.1642  0.5809
  166TIP3    H2  505   4.861   1.857   0.493 -0.4220  2.1739  0.5517
  167TIP3   OH2  506   2.830   0.581   3.858 -0.0093  0.1895  0.0208
  167TIP3    H1  507   2.785   0.626   3.930  1.1730  2.0789 -0.3300
  167TIP3    H2  508   2.882   0.513   3.901 -1.2356 -0.3660  0.6651
  168TIP3   OH2  509   2.550   5.404   4.361  0.2651  0.2674 -0.7671
  168TIP3    H1  510   2.478   5.463   4.344  0.1775  0.0045 -1.3223
  168TIP3    H2  511   2.589   5.387   4.275  0.7219  0.0766 -0.5277
  169TIP3   OH2  512   5.322   0.716   0.578  0.0581  0.4539  0.0568
  169TIP3    H1  513   5.308   0.810   0.589  0.5065  0.5109  0.1493
  169TIP3    H2  514   5.272   0.693   0.499 -0.1900  0.7357  0.1326
  170TIP3   OH2  515   2.321   4.466   3.086 -0.4855  0.0789  0.1728
  170TIP3    H1  516   2.262   4.393   3.104  1.4361 -0.9227  3.0828
  170TIP3    H2  517   2.273   4.520   3.023 -3.2799 -2.0645  0.2514
  171TIP3   OH2  518   2.282   4.261   4.864 -0.3747  0.3328  0.3819
  171TIP3    H1  519   2.277   4.311   4.946 -1.5503 -1.3852  1.4420
  171TIP3    H2  520   2.310   4.174   4.891 -0.7984 -0.2744 -1.0455
  172TIP3   OH2  521   4.536   0.886   0.068 -0.0074 -0.3441  0.4748
  172TIP3    H1  522   4.624   0.924   0.063 -0.8641  1.6319 -1.5513
  172TIP3    H2  523   4.514   0.865  -0.022 -1.1735 -1.9916  1.1031
  173TIP3   OH2  524   1.816   4.961   1.013  0.3033 -0.5531  0.2270
  173TIP3    H1  525   1.893   4.982   0.962  0.3861 -0.2538  0.4695
  173TIP3    H2  526   1.743   4.964   0.951  0.3974 -0.1478  0.1361
  174TIP3   OH2  527   3.083   0.578   2.869 -0.1899  0.7338 -0.4152
  174TIP3    H1  528   3.024   0.506   2.848 -0.9659  0.9168  0.9977
  174TIP3    H2  529   3.025   0.650   2.893  0.6017  1.2949 -0.1554
  175TIP3   OH2  530   6.259   3.222   3.350 -0.4597  0.7827  0.5291
  175TIP3    H1  531   6.184   3.248   3.296 -2.4181 -1.6800  1.8436
  175TIP3    H2  532   6.288   3.304   3.390 -0.6567  2.2318 -2.0739
  176TIP3   OH2  533   6.225   5.941   4.018 -0.5832  0.1361  0.1950
  176TIP3    H1  534   6.243   5.958   3.926 -1.2320 -0.9836 -0.1548
  176TIP3    H2  535   6.173   6.016   4.047  0.3640  0.9261 -0.1022
  177TIP3   OH2  536   4.596   5.501   0.037  0.2365 -0.2053  0.1240
  177TIP3    H1  537   4.587   5.547   0.120 -2.0740 -1.1083  0.4464
  177TIP3    H2  538   4.613   5.410   0.062  1.0050 -0.2244 -0.4338
  178TIP3   OH2  539   3.243   3.221   3.174  0.1323 -0.0563 -0.0119
  178TIP3    H1  540   3.214   3.310   3.194 -1.6107 -0.3047 -1.2258
  178TIP3    H2  541   3.265   3.223   3.081  0.1740 -0.8682 -0.0294
  179TIP3   OH2  542   3.607   4.013   3.969  0.4940  0.0025  0.2790
  179TIP3    H1  543   3.606   4.100   4.008  0.6541  0.0376  0.2043
  179TIP3    H2  544   3.526   4.007   3.920  1.4095  0.8669 -1.4037
  180TIP3   OH2  545   2.870   4.432   2.749 -0.1712  0.3695  0.3043
  180TIP3    H1  546   2.908   4.367   2.809  0.2460  1.4356  1.2295
  180TIP3    H2  547   2.837   4.501   2.806  1.5669  2.1342 -0.6808
  181TIP3   OH2  548   5.228   0.513   2.263 -0.0517  0.1285  0.3613
  181TIP3    H1  549   5.276   0.470   2.334  2.3234 -0.4670 -1.4893
  181TIP3    H2  550   5.170   0.446   2.229  0.7517 -0.4213  0.0522
  182TIP3   OH2  551   4.783   4.770   4.113 -0.2858 -0.4598  0.0230
  182TIP3    H1  552   4.801   4.805   4.026 -1.1779 -1.3616 -0.5438
  182TIP3    H2  553   4.758   4.847   4.165 -0.3155  0.0019 -0.6608
  183TIP3   OH2  554   3.155   0.600   0.121  0.0819 -0.0246 -0.0084
  183TIP3    H1  555   3.191   0.512   0.114 -0.3197 -0.3931  2.0722
  183TIP3    H2  556   3.138   0.612   0.214 -2.7102  1.1106 -0.5762
  184TIP3   OH2  557   5.267   4.794   1.182  0.2450  0.0827  0.4033
  184TIP3    H1  558   5.308   4.876   1.156 -1.6297  0.6971 -0.7553
  184TIP3    H2  559   5.246   4.806   1.275 -0.9714  1.3672 -0.0070
  185TIP3   OH2  560   4.591   4.676   0.620  0.2111 -0.0453 -0.1898
  185TIP3    H1  561   4.590   4.619   0.697  2.3086 -0.3435 -0.3419
  185TIP3    H2  562   4.668   4.731   0.631 -0.0606  0.6655 -1.5637
  186TIP3   OH2  563   0.904   0.782   5.107  0.2760  0.1774 -0.1641
  186TIP3    H1  564   0.910   0.871   5.071  0.9787 -0.0598 -0.6554
  186TIP3    H2  565   0.814   0.775   5.140  0.7713  1.7777  1.7434
  187TIP3   OH2  566   4.292   1.893   2.459 -0.4787 -0.2594 -0.5186
  187TIP3    H1  567   4.322   1.825   2.519 -1.2177 -0.5836 -0.5178
  187TIP3    H2  568   4.203   1.912   2.487 -0.2572  0.7674 -0.4717
  188TIP3   OH2  569   1.821   4.440   4.307  0.3523  0.4420 -0.3107
  188TIP3    H1  570   1.867   4.359   4.285  0.4768  0.2987  0.4413
  188TIP3    H2  571   1.733   4.412   4.333 -0.2468  0.7359 -1.9547
  189TIP3   OH2  572   6.005   2.262   3.120  1.1739  0.0104  0.0902
  189TIP3    H1  573   6.052   2.209   3.056  1.7959  1.0789 -0.3544
  189TIP3    H2  574   5.924   2.213   3.137  2.2656 -1.6921  0.6338
  190TIP3   OH2  575   4.133   0.668   0.322  0.0982 -0.7559  0.7848
  190TIP3    H1  576   4.215   0.712   0.300 -1.1462  0.3771 -2.2062
  190TIP3    H2  577   4.079   0.737   0.362 -1.0213 -0.0564 -1.7452
  191TIP3   OH2  578   4.623   2.476   3.495 -0.6648  0.5726  0.1209
  191TIP3    H1  579   4.660   2.518   3.572 -0.4716  1.8929 -0.6641
  191TIP3    H2  580   4.539   2.518   3.482 -0.7219  0.3236 -0.3607
  192TIP3   OH2  581   3.944   3.082   1.383  0.1836  0.3479  0.5600
  192TIP3    H1  582   3.991   3.088   1.300 -0.4807  1.0246  0.2245
  192TIP3    H2  583   3.990   3.142   1.442 -0.3502  1.1409  0.1815
  193TIP3   OH2  584   3.771   0.811   1.605  0.5240 -0.3616  0.1105
  193TIP3    H1  585   3.840   0.862   1.562  1.1524 -1.3713 -0.1079
  193TIP3    H2  586   3.809   0.787   1.690  0.1332 -0.2325  0.3194
  194TIP3   OH2  587   4.452   0.480   2.520 -0.1111 -0.3366 -0.9272
  194TIP3    H1  588   4.463   0.385   2.513  1.7286 -0.2112 -0.4083
  194TIP3    H2  589   4.454   0.497   2.614 -0.2239  0.2443 -1.0278
  195TIP3   OH2  590   2.828   5.788   4.679 -0.4795 -0.4369  0.8870
  195TIP3    H1  591   2.888   5.854   4.647 -0.8629  0.0229  1.0985
  195TIP3    H2  592   2.741   5.827   4.668 -0.7510 -1.1432  0.4533
  196TIP3   OH2  593   0.605   2.413   2.337 -0.3137  0.0579  0.1997
  196TIP3    H1  594   0.579   2.417   2.244 -2.1098  0.2436  0.6667
  196TIP3    H2  595   0.608   2.504   2.364 -1.6997 -0.0363  0.7736
  197TIP3   OH2  596   2.823   1.026   0.430 -0.1348 -0.6652  0.2660
  197TIP3    H1  597   2.850   0.966   0.360 -0.7338 -0.0670 -0.4878
  197TIP3    H2  598   2.855   0.984   0.510  0.8885 -1.1780 -0.3803
  198TIP3   OH2  599   5.903   2.865   1.772  0.4814  0.3051  0.1261
  198TIP3    H1  600   5.811   2.877   1.795  0.1689 -0.7513 -0.5374
  198TIP3    H2  601   5.906   2.877   1.677  0.8131 -0.8343 -0.0223
  199TIP3   OH2  602   1.082   2.752   2.399 -0.4804 -0.4078 -0.3928
  199TIP3    H1  603   1.158   2.764   2.341 -0.7468  0.2945 -0.5967
  199TIP3    H2  604   1.119   2.713   2.479  0.0492 -0.3419 -0.6017
  200TIP3   OH2  605   2.856   3.421   4.730 -0.1505  1.0754  0.2994
  200TIP3    H1  606   2.947   3.393   4.718 -0.4448  0.6295 -1.0326
  200TIP3    H2  607   2.830   3.382   4.813  0.6277  0.5624  0.3173
  201TIP3   OH2  608   3.699   0.213   0.423 -0.2039  0.1137  0.2977
  201TIP3    H1  609   3.694   0.172   0.337 -0.3997  1.5540 -0.4048
  201TIP3    H2  610   3.782   0.261   0.422 -0.7272  1.0430  0.4831
  202TIP3   OH2  611   1.314   0.006   1.593  0.4442  0.8387  0.9391
  202TIP3    H1  612   1.292   0.098   1.582 -0.1745  0.8157  1.8858
  202TIP3    H2  613   1.371  -0.014   1.519 -1.0089  1.4588 -0.4145
  203TIP3   OH2  614   6.131   2.451   2.942  0.5330 -0.5841 -0.0921
  203TIP3    H1  615   6.180   2.523   2.982  0.3872  0.0225 -1.0068
  203TIP3    H2  616   6.083   2.412   3.016 -0.5288  1.1490  0.1919
  204TIP3   OH2  617   5.725   4.538   0.158 -0.6695 -0.0271  0.0204
  204TIP3    H1  618   5.800   4.495   0.118  0.0547 -1.3771  2.6161
  204TIP3    H2  619   5.649   4.492   0.123 -0.1136 -0.7085 -0.3010
  205TIP3   OH2  620   5.770   2.779   3.243 -0.0688 -0.1678  0.1707
  205TIP3    H1  621   5.675   2.776   3.252 -0.2058 -0.0374 -0.9967
  205TIP3    H2  622   5.800   2.835   3.314 -0.4699 -3.0985  2.8493
  206TIP3   OH2  623   2.590   1.124   4.474 -0.0221  0.0938 -0.9903
  206TIP3    H1  624   2.658   1.058   4.490  0.6562  0.9570 -0.1270
  206TIP3    H2  625   2.553   1.141   4.561 -0.5391  0.4732 -1.2847
  207TIP3   OH2  626   0.900   4.651   2.722  0.2975  0.0239 -0.1050
  207TIP3    H1  627   0.879   4.564   2.690  1.6661 -1.2836  2.2750
  207TIP3    H2  628   0.816   4.686   2.754 -0.1922 -0.5375 -0.7470
  208TIP3   OH2  629   1.252   1.928   1.154  0.3401  0.1165  0.6291
  208TIP3    H1  630   1.291   1.876   1.224 -0.1875 -0.8847  0.2176
  208TIP3    H2  631   1.270   1.878   1.074  1.4137  1.5132 -0.0459
  209TIP3   OH2  632   2.332   0.302   3.371 -0.4264 -0.2025  0.4258
  209TIP3    H1  633   2.421   0.288   3.340 -0.1389 -0.0306  1.1472
  209TIP3    H2  634   2.277   0.257   3.307  0.1608 -0.1097 -0.1519
  210TIP3   OH2  635   4.835   5.606   3.740  0.2996 -0.2526 -0.1398
  210TIP3    H1  636   4.820   5.699   3.723 -0.2344 -0.0354  1.3772
  210TIP3    H2  637   4.824   5.564   3.655 -0.9420  0.8903 -0.5819
  211TIP3   OH2  638   5.646   3.063   4.630  0.0049  0.3275  0.3832
  211TIP3    H1  639   5.636   3.019   4.545  0.1163 -1.5557  1.3015
  211TIP3    H2  640   5.563   3.109   4.642 -0.2294  0.1634 -0.5025
  212TIP3   OH2  641   1.042   2.378   3.761 -0.3086 -0.0110 -0.0014
  212TIP3    H1  642   1.057   2.468   3.732  1.2513  0.0437  0.8532
  212TIP3    H2  643   0.975   2.386   3.830 -0.5288  0.4267 -0.2587
  213TIP3   OH2  644   2.704   1.485   1.619  0.1983  0.3226 -0.0740
  213TIP3    H1  645   2.776   1.454   1.564  0.4034  0.6673 -0.0025
  213TIP3    H2  646   2.746   1.511   1.701 -0.0274  0.4018  0.0175
  214TIP3   OH2  647   3.509   2.106   1.962  0.2382 -0.5442 -0.0924
  214TIP3    H1  648   3.572   2.176   1.978  0.2183 -0.2449 -1.2302
  214TIP3    H2  649   3.474   2.125   1.875 -3.1253  0.6090  1.3514
  215TIP3   OH2  650   2.650   1.548   3.068 -0.5370 -0.1087 -0.3622
  215TIP3    H1  651   2.698   1.492   3.007 -0.8592 -0.5743 -0.1910
  215TIP3    H2  652   2.675   1.637   3.043  0.3449 -0.3334 -0.3398
  216TIP3   OH2  653   5.551   2.261   2.674  0.0554  0.2323 -0.1250
  216TIP3    H1  654   5.635   2.233   2.710 -0.1417  0.3595  0.4474
  216TIP3    H2  655   5.534   2.346   2.715 -0.7605 -0.1876  0.4376
  217TIP3   OH2  656   4.279   0.275   5.176  0.1826  0.0256  0.4865
  217TIP3    H1  657   4.256   0.199   5.123 -1.2744  0.6414  0.1672
  217TIP3    H2  658   4.215   0.342   5.150 -0.1765  0.5554  2.5592
  218TIP3   OH2  659   1.559   5.146   4.603 -0.3988  0.1901 -0.0822
  218TIP3    H1  660   1.476   5.106   4.629 -0.5479  0.7797  0.3742
  218TIP3    H2  661   1.571   5.120   4.512 -1.7677  1.2205 -0.5846
  219TIP3   OH2  662   0.266   1.764   0.889 -0.0326 -0.0985  0.4179
  219TIP3    H1  663   0.295   1.723   0.807 -0.0982 -0.6597  0.6702
  219TIP3    H2  664   0.319   1.843   0.896 -1.3400  0.9859 -1.1360
  220TIP3   OH2  665   4.898   3.992   4.444  0.3948 -0.2011 -0.2439
  220TIP3    H1  666   4.856   3.976   4.528  0.0872 -0.5431 -0.4630
  220TIP3    H2  667   4.847   3.941   4.381  2.4020 -2.4758 -0.2089
  221TIP3   OH2  668   2.510   1.785   3.378 -0.2446  0.2009  0.2828
  221TIP3    H1  669   2.471   1.741   3.454  1.0417 -0.3924  0.6422
  221TIP3    H2  670   2.493   1.878   3.392 -2.2067 -0.0877 -0.0002
  222TIP3   OH2  671   4.669   5.115   4.420  0.5946  0.2241  0.7227
  222TIP3    H1  672   4.604   5.180   4.394  0.3161  0.2205  1.4173
  222TIP3    H2  673   4.744   5.166   4.451  2.2926  0.3806 -3.0171
  223TIP3   OH2  674   4.696   4.128   2.023  1.1471 -0.1427  0.2726
  223TIP3    H1  675   4.647   4.152   2.101 -0.3862  0.8474 -0.9214
  223TIP3    H2  676   4.787   4.151   2.044  0.4554  2.2617  0.9842
  224TIP3   OH2  677   1.450   2.730   4.560 -0.2363 -0.0346 -0.2961
  224TIP3    H1  678   1.369   2.719   4.511  0.4753 -1.4411 -1.2464
  224TIP3    H2  679   1.518   2.734   4.493  0.5362  0.6308  0.5008
  225TIP3   OH2  680   3.144   4.204   0.133  0.7579  0.6243 -0.5359
  225TIP3    H1  681   3.052   4.185   0.151  0.3338  0.8593 -2.2481
  225TIP3    H2  682   3.147   4.299   0.120  1.1438  0.5598 -0.9628
  226TIP3   OH2  683   4.124   4.941   0.940 -0.3357  0.4499  0.5260
  226TIP3    H1  684   4.147   5.029   0.971  1.2268  0.6555 -1.0253
  226TIP3    H2  685   4.135   4.885   1.017  0.0142  1.4093  1.1985
  227TIP3   OH2  686   3.099   3.265   1.699  0.1755 -0.2446  0.5709
  227TIP3    H1  687   3.140   3.338   1.652 -0.8568  0.3968  0.6283
  227TIP3    H2  688   3.101   3.193   1.637 -0.3357  0.3359 -0.1493
  228TIP3   OH2  689   4.476   5.279   0.778 -0.3006 -0.0350 -0.5779
  228TIP3    H1  690   4.547   5.288   0.715 -0.4567 -1.0701 -0.9202
  228TIP3    H2  691   4.516   5.231   0.851 -0.7370 -0.9621 -0.9393
  229TIP3   OH2  692   4.323   4.576   1.878  0.1129 -0.0137  0.3868
  229TIP3    H1  693   4.282   4.601   1.961  0.0334 -0.3392  0.4443
  229TIP3    H2  694   4.319   4.481   1.876 -2.2456  0.0299 -1.1654
  230TIP3   OH2  695   0.673   5.475   3.270  0.7296  0.7885 -0.5808
  230TIP3    H1  696   0.661   5.569   3.260  0.5282  0.9397  0.8671
  230TIP3    H2  697   0.747   5.454   3.213  0.5938  1.7703 -1.1332
  231TIP3   OH2  698   3.294   4.323   2.249 -0.0534 -0.7036  0.6463
  231TIP3    H1  699   3.289   4.229   2.232 -1.1430 -1.0618  2.6108
  231TIP3    H2  700   3.204   4.349   2.266 -0.5612  1.7170 -4.1583
  232TIP3   OH2  701   5.637   1.185   1.408  1.0860  0.0080 -0.1694
  232TIP3    H1  702   5.622   1.176   1.502  0.2465  0.5019 -0.2439
  232TIP3    H2  703   5.662   1.277   1.397  1.8019 -0.2057 -0.3576
  233TIP3   OH2  704   6.138   4.797   0.652 -0.0985  0.1817  0.0239
  233TIP3    H1  705   6.215   4.844   0.682  0.3042  0.7516 -1.7633
  233TIP3    H2  706   6.138   4.715   0.701  1.2128  0.5049  0.5923
  234TIP3   OH2  707   2.031   3.749   0.890 -0.0461  0.0087  0.3307
  234TIP3    H1  708   2.099   3.700   0.937 -0.8215 -0.6330  0.8157
  234TIP3    H2  709   2.040   3.720   0.799 -2.0899 -3.0751  0.9565
  235TIP3   OH2  710   2.310   3.719   4.704  0.1480 -0.1710  0.9036
  235TIP3    H1  711   2.395   3.687   4.734 -0.6832 -0.6776  2.8230
  235TIP3    H2  712   2.250   3.647   4.720 -0.5116 -0.2046 -1.4014
  236TIP3   OH2  713   1.596   2.630   1.601 -0.5368 -0.2720  0.0055
  236TIP3    H1  714   1.655   2.691   1.557 -0.6450  0.5144  0.9153
  236TIP3    H2  715   1.654   2.568   1.645 -0.3771  0.3812  0.7348
  237TIP3   OH2  716   4.677   3.078   0.203  0.1998 -0.1633 -0.1235
  237TIP3    H1  717   4.707   3.040   0.120 -1.2522 -0.0714 -0.7229
  237TIP3    H2  718   4.583   3.063   0.203 -0.0994  1.4859  0.6610
  238TIP3   OH2  719   0.078   3.128   2.045 -0.0452  0.0607 -0.0102
  238TIP3    H1  720   0.034   3.044   2.050  1.6282 -0.9481 -1.1154
  238TIP3    H2  721   0.032   3.176   1.977 -0.8885 -0.0206  0.4945
  239TIP3   OH2  722   0.703   4.995   1.223 -0.2008 -0.0693 -0.2992
  239TIP3    H1  723   0.671   5.082   1.248  0.1461  0.3409 -1.2208
  239TIP3    H2  724   0.701   4.944   1.304  1.1934  1.2911  0.6591
  240TIP3   OH2  725   4.025   5.078   1.280  0.0249  0.0455 -0.1139
  240TIP3    H1  726   4.062   4.996   1.249  1.0128  0.3239  0.2971
  240TIP3    H2  727   3.959   5.101   1.215  0.1860 -0.7466 -0.5639
  241TIP3   OH2  728   3.708   5.833   2.972 -0.3042 -0.9851 -0.7045
  241TIP3    H1  729   3.645   5.802   2.907 -0.3206 -0.3948 -0.9729
  241TIP3    H2  730   3.694   5.927   2.977 -2.1637 -1.2953  2.1246
  242TIP3   OH2  731   1.250   0.298   1.573 -0.2160  0.1366 -0.0200
  242TIP3    H1  732   1.212   0.327   1.490  0.3523 -0.3515 -0.4625
  242TIP3    H2  733   1.219   0.362   1.637 -0.6773  0.5114 -0.6013
  243TIP3   OH2  734   4.696   5.099   2.468 -0.0092  0.2003 -0.2326
  243TIP3    H1  735   4.690   5.158   2.543 -1.6749 -0.2353  0.0232
  243TIP3    H2  736   4.754   5.143   2.407 -0.5668  1.7367  0.2966
  244TIP3   OH2  737   4.604   5.094   5.091 -0.3762  0.3514  0.1296
  244TIP3    H1  738   4.607   5.078   4.997 -2.2100  0.8310 -0.0491
  244TIP3    H2  739   4.518   5.063   5.118  0.5892 -0.9645  1.9195
  245TIP3   OH2  740   3.556   4.476   2.002  0.1845  0.2119  0.1179
  245TIP3    H1  741   3.612   4.500   1.928 -0.0709 -0.6871 -0.3863
  245TIP3    H2  742   3.469   4.508   1.977  0.5315  2.0745  1.1316
  246TIP3   OH2  743   2.081   4.892   3.503  0.3914 -0.3215 -0.6515
  246TIP3    H1  744   2.058   4.952   3.574 -2.3742 -1.1260 -0.7677
  246TIP3    H2  745   2.171   4.866   3.523 -0.9094 -2.4389  4.1632
  247TIP3   OH2  746   3.109   4.458   1.074  0.0403 -0.0743  0.2775
  247TIP3    H1  747   3.158   4.444   0.993  0.6867  1.1748  0.4434
  247TIP3    H2  748   3.035   4.513   1.048 -2.1282 -2.9929 -0.2413
  248TIP3   OH2  749   5.392   3.858   2.648  0.1043  0.4839  0.3791
  248TIP3    H1  750   5.320   3.806   2.612  0.0721 -0.2764  1.4776
  248TIP3    H2  751   5.355   3.946   2.658 -0.4264  0.2883  0.2026
  249TIP3   OH2  752   4.406   0.878   1.877  0.0196  0.1036  0.4533
  249TIP3    H1  753   4.456   0.931   1.815 -1.3202 -0.4501 -1.1669
  249TIP3    H2  754   4.357   0.816   1.822  0.5962 -2.0374  2.1955
  250TIP3   OH2  755   0.603   4.188   2.903 -0.2583  0.3505  0.3051
  250TIP3    H1  756   0.697   4.208   2.900  0.0233 -1.0061 -0.5912
  250TIP3    H2  757   0.578   4.208   2.993  1.2351 -0.7044  1.0043
  251TIP3   OH2  758   2.331   3.653   0.939 -0.8359  0.3819 -0.6999
  251TIP3    H1  759   2.384   3.670   0.861  0.8565  2.4987  0.8004
  251TIP3    H2  760   2.366   3.571   0.974 -0.7838  0.0580 -1.4795
  252TIP3   OH2  761   3.371   2.833   2.105  0.0308  0.0607 -0.6008
  252TIP3    H1  762   3.423   2.876   2.173 -0.4355 -0.2859 -0.0130
  252TIP3    H2  763   3.280   2.845   2.133 -0.1161 -1.1642 -0.5134
  253TIP3   OH2  764   3.181   1.498   4.168 -0.1975  0.3797  0.0538
  253TIP3    H1  765   3.203   1.507   4.075 -1.3529  2.3492 -0.0800
  253TIP3    H2  766   3.086   1.499   4.170 -0.1932  1.8145  1.3295
  254TIP3   OH2  767   1.367   3.852   1.869  0.0883  0.0693  0.2299
  254TIP3    H1  768   1.460   3.867   1.883  0.6470 -0.0166 -2.6913
  254TIP3    H2  769   1.330   3.940   1.863  0.1514  0.1148  0.5169
  255TIP3   OH2  770   0.305   2.824   1.469  0.2564  0.1101 -0.3153
  255TIP3    H1  771   0.314   2.804   1.376  1.6902  0.7886 -0.3580
  255TIP3    H2  772   0.371   2.769   1.512  0.4431  0.6852  0.1563
  256TIP3   OH2  773   6.043   1.623   2.912 -0.3995 -0.2635  0.1602
  256TIP3    H1  774   6.014   1.699   2.862 -2.1578  0.3545  1.9579
  256TIP3    H2  775   6.137   1.634   2.922 -0.4973  1.2098 -0.3535
  257TIP3   OH2  776   5.870   1.682   4.949  0.8912 -0.6155  0.1638
  257TIP3    H1  777   5.898   1.773   4.954  1.2360 -0.7086 -0.0177
  257TIP3    H2  778   5.900   1.643   5.032  1.5789 -0.7870 -0.1549
  258TIP3   OH2  779   6.260   3.490   4.387  0.2934  0.4080 -0.2552
  258TIP3    H1  780   6.198   3.419   4.369  0.7518 -0.2173  0.5938
  258TIP3    H2  781   6.224   3.565   4.339 -0.6573 -0.1670 -0.4743
  259TIP3   OH2  782   4.851   3.787   5.018 -0.2862 -1.0577  0.2909
  259TIP3    H1  783   4.778   3.729   5.040  0.1807 -1.1321  1.7500
  259TIP3    H2  784   4.860   3.844   5.095  0.7243 -0.5798 -0.1675
  260TIP3   OH2  785   6.237   3.010   2.372  0.0670  0.0908 -0.1013
  260TIP3    H1  786   6.314   2.976   2.326  0.0862 -0.2957  0.2118
  260TIP3    H2  787   6.274   3.063   2.443  0.1100 -1.8755  1.4284
  261TIP3   OH2  788   0.183   2.004   1.565 -0.7236  0.3730  0.3482
  261TIP3    H1  789   0.158   2.043   1.648  0.6350  3.2491 -0.4423
  261TIP3    H2  790   0.100   1.989   1.519 -1.4052  3.4070  0.3632
  262TIP3   OH2  791   3.395   4.353   5.052 -0.2322 -0.1244  0.1409
  262TIP3    H1  792   3.424   4.317   5.136 -0.7045 -0.1947  0.2755
  262TIP3    H2  793   3.372   4.444   5.071 -0.6036 -0.2182  0.1487
  263TIP3   OH2  794   1.370   2.020   3.076 -0.4074 -0.0932 -0.3601
  263TIP3    H1  795   1.402   2.100   3.118 -1.0974  0.2499 -0.4743
  263TIP3    H2  796   1.286   2.045   3.037 -0.6099 -0.8604 -0.4353
  264TIP3   OH2  797   2.969   5.206   4.572  0.2606  0.1962  0.3353
  264TIP3    H1  798   2.925   5.230   4.490  1.7304 -1.5907 -1.0401
  264TIP3    H2  799   2.902   5.219   4.639 -0.8795  2.0711 -1.0490
  265TIP3   OH2  800   3.338   5.775   2.257 -0.4081  0.0482 -0.2478
  265TIP3    H1  801   3.420   5.825   2.252  0.0538 -0.5281  1.0798
  265TIP3    H2  802   3.272   5.841   2.279  0.5448 -0.0695  3.7927
  266TIP3   OH2  803   0.807   2.048   2.352  0.0900 -0.1031  0.6266
  266TIP3    H1  804   0.853   2.032   2.434  0.8752 -0.1718  0.1780
  266TIP3    H2  805   0.835   1.978   2.294  2.0267  1.6381 -0.7157
  267TIP3   OH2  806   0.763   0.075   2.863  1.2575 -0.1021 -0.5157
  267TIP3    H1  807   0.772   0.161   2.903  0.3528 -1.0749  1.9596
  267TIP3    H2  808   0.847   0.033   2.877  0.9068 -0.4843  0.6111
  268TIP3   OH2  809   2.646   4.340   0.777 -0.3716 -0.4213  0.3006
  268TIP3    H1  810   2.649   4.298   0.863 -0.8014 -0.9732  0.0537
  268TIP3    H2  811   2.572   4.401   0.782  0.2719  0.3489  0.6696
  269TIP3   OH2  812   0.962   4.140   1.392 -0.3253  0.0680 -0.3865
  269TIP3    H1  813   0.880   4.092   1.379 -0.5465  0.3181  0.0659
  269TIP3    H2  814   0.985   4.122   1.483 -0.9922  1.6957  0.1431
  270TIP3   OH2  815   2.547   2.680   0.121 -0.2489  0.4195  0.3090
  270TIP3    H1  816   2.535   2.588   0.094 -1.0309  0.9730 -1.3778
  270TIP3    H2  817   2.614   2.676   0.189 -0.6484 -1.4610  0.6630
  271TIP3   OH2  818   3.850   3.427   4.347  0.1459  0.4357  0.4949
  271TIP3    H1  819   3.761   3.408   4.319  0.9022 -0.9558 -1.1810
  271TIP3    H2  820   3.858   3.385   4.433  0.0815 -2.2256 -0.7147
  272TIP3   OH2  821   1.818   0.501   4.436 -0.0080  0.4915  0.1318
  272TIP3    H1  822   1.856   0.457   4.360  0.2122  0.0696  0.4816
  272TIP3    H2  823   1.855   0.589   4.434  0.3117  0.3560 -0.0248
  273TIP3   OH2  824   5.758   3.074   4.194  0.5187 -0.2062  0.2050
  273TIP3    H1  825   5.734   3.147   4.137  2.7742  0.3830 -0.0928
  273TIP3    H2  826   5.804   3.012   4.136 -0.9479 -1.6916  0.5499
  274TIP3   OH2  827   0.177   5.924   4.036  0.2097  0.0054 -0.0090
  274TIP3    H1  828   0.127   5.853   3.996 -0.1873  0.1765  0.1837
  274TIP3    H2  829   0.210   5.886   4.118  0.7149 -0.2267 -0.3120
  275TIP3   OH2  830   5.788   5.727   3.037 -0.3041  0.2266 -0.4656
  275TIP3    H1  831   5.776   5.813   3.078  0.8109  0.0749  0.2387
  275TIP3    H2  832   5.869   5.693   3.077 -0.2762 -0.7899 -1.3504
  276TIP3   OH2  833   3.543   5.121   4.265 -0.4774 -0.0151 -0.7121
  276TIP3    H1  834   3.598   5.043   4.260 -1.3173 -0.8145  1.3452
  276TIP3    H2  835   3.572   5.175   4.191  1.2531 -1.5252 -1.2332
  277TIP3   OH2  836   5.267   4.732   4.045 -0.2487 -0.0892  0.0440
  277TIP3    H1  837   5.190   4.752   3.992 -0.9281 -0.3721  0.8904
  277TIP3    H2  838   5.253   4.780   4.127  1.3682  1.3157 -0.4541
  278TIP3   OH2  839   1.098   4.823   2.717  0.4970  0.1580  0.6161
  278TIP3    H1  840   1.029   4.758   2.705 -0.6986  1.5445 -0.4741
  278TIP3    H2  841   1.165   4.778   2.768 -0.9741 -1.4131  1.2660
  279TIP3   OH2  842   4.792   3.971   4.188  0.4981  0.4065 -0.0347
  279TIP3    H1  843   4.702   3.995   4.165  0.7179  0.9362 -0.3526
  279TIP3    H2  844   4.844   4.000   4.113  1.2397  2.1451  1.1065
  280TIP3   OH2  845   3.468   2.204   1.655 -0.2238  0.1589  0.0539
  280TIP3    H1  846   3.382   2.240   1.676  0.4841  1.4223  0.9799
  280TIP3    H2  847   3.451   2.113   1.630 -1.9521  0.7367 -1.0827
  281TIP3   OH2  848   1.373   1.267   4.637 -0.1050  0.4414 -0.1064
  281TIP3    H1  849   1.371   1.267   4.541  0.0217 -0.5529 -0.1277
  281TIP3    H2  850   1.359   1.175   4.661  0.9094  0.4980  0.7942
  282TIP3   OH2  851   5.885   3.285   1.674  0.1829  0.3199 -0.3725
  282TIP3    H1  852   5.922   3.355   1.727 -0.6789  0.1499  0.4875
  282TIP3    H2  853   5.941   3.209   1.690  0.7704  0.6572 -0.8407
  283TIP3   OH2  854   0.316   2.084   4.531  0.0690 -0.4836  0.2055
  283TIP3    H1  855   0.229   2.109   4.500 -0.4826 -1.2587  1.0893
  283TIP3    H2  856   0.365   2.167   4.534 -0.4704 -0.1135 -0.7630
  284TIP3   OH2  857   2.986   1.224   1.817 -0.0950 -0.0808 -0.6314
  284TIP3    H1  858   2.893   1.210   1.799 -0.4085  2.1166 -1.0968
  284TIP3    H2  859   2.989   1.249   1.909  0.4493 -2.9351  0.2071
  285TIP3   OH2  860   4.963   5.660   2.401  0.6029  0.0968 -0.1371
  285TIP3    H1  861   4.889   5.599   2.398 -0.4931  1.4519 -1.9733
  285TIP3    H2  862   4.985   5.665   2.494 -0.9851 -1.0619  0.3480
  286TIP3   OH2  863   2.640   5.281   4.589 -0.6688 -0.0474 -0.4228
  286TIP3    H1  864   2.603   5.326   4.513 -0.6937  0.5153 -0.0774
  286TIP3    H2  865   2.655   5.191   4.558 -1.2507  0.0163 -0.9060
  287TIP3   OH2  866   4.391   5.970   3.640  0.1296  0.6745 -0.0362
  287TIP3    H1  867   4.374   5.987   3.732 -0.5487  1.2979 -0.2667
  287TIP3    H2  868   4.476   5.926   3.638  0.7255  1.7641  0.7830
  288TIP3   OH2  869   1.408   0.467   4.089  0.2724  0.8022  0.5213
  288TIP3    H1  870   1.438   0.379   4.066 -1.6798  0.2898 -0.2041
  288TIP3    H2  871   1.313   0.461   4.091 -0.0611  3.3938 -1.6499
  289TIP3   OH2  872   4.982   5.405   1.682  0.0868 -0.1964  0.4188
  289TIP3    H1  873   4.960   5.492   1.649  2.2342  0.1595 -0.1851
  289TIP3    H2  874   5.047   5.421   1.750  0.3542 -1.3315  0.4442
  290TIP3   OH2  875   2.329   4.785   2.650  0.0995 -0.1829  0.0156
  290TIP3    H1  876   2.343   4.694   2.622  0.2275 -0.1854  0.0896
  290TIP3    H2  877   2.266   4.778   2.722 -0.2902 -0.1707 -0.3176
  291TIP3   OH2  878   6.026   0.935   1.298 -0.1718 -0.1604  0.3240
  291TIP3    H1  879   6.009   0.899   1.385  0.4531  0.9401  0.9230
  291TIP3    H2  880   6.075   1.015   1.314  2.4116 -1.3018 -1.1295
  292TIP3   OH2  881   3.521   3.478   2.997  0.0322 -0.6243  0.0848
  292TIP3    H1  882   3.598   3.493   2.943 -0.3340 -0.8465 -0.5196
  292TIP3    H2  883   3.460   3.548   2.973 -0.1881 -0.8074  0.1036
  293TIP3   OH2  884   6.332   3.513   2.523 -0.0217 -0.8558 -0.4766
  293TIP3    H1  885   6.292   3.565   2.453  0.9047 -0.2259 -0.5500
  293TIP3    H2  886   6.416   3.556   2.541 -0.4956 -0.6379  1.4570
  294TIP3   OH2  887   5.388   0.885   4.228 -0.0645  0.2509 -0.4431
  294TIP3    H1  888   5.386   0.859   4.320 -3.0106  3.1784  0.5044
  294TIP3    H2  889   5.456   0.953   4.223 -0.0031  0.1925 -0.4085
  295TIP3   OH2  890   0.813   5.636   3.821  0.6961 -0.0110  0.1395
  295TIP3    H1  891   0.792   5.642   3.728  0.4594 -0.6533  0.1458
  295TIP3    H2  892   0.908   5.643   3.825  0.6939  0.1977 -0.1335
  296TIP3   OH2  893   2.581   3.029   0.183  0.4367 -0.1592  0.3273
  296TIP3    H1  894   2.516   2.988   0.127 -0.4242  1.1890  0.3108
  296TIP3    H2  895   2.537   3.040   0.268  0.0060  2.3011 -0.1544
  297TIP3   OH2  896   3.060   5.584   1.454 -0.3208  0.4950  0.1572
  297TIP3    H1  897   3.058   5.577   1.550 -0.2830  1.7077  0.2639
  297TIP3    H2  898   3.094   5.500   1.425  3.8734  1.4835  1.4546
  298TIP3   OH2  899   5.413   0.603   4.120  0.3829 -0.1927 -0.0559
  298TIP3    H1  900   5.409   0.698   4.132  1.0127  0.0008 -1.2722
  298TIP3    H2  901   5.325   0.573   4.141  0.3704  0.5503  1.1069
  299TIP3   OH2  902   1.045   1.324   4.953 -0.1778 -0.1485 -0.6662
  299TIP3    H1  903   1.066   1.337   4.860 -0.5327  1.8417 -0.4995
  299TIP3    H2  904   0.997   1.403   4.978  1.5244  0.2305  1.7050
  300TIP3   OH2  905   5.139   5.179   0.515 -0.1138 -0.3750 -0.7038
  300TIP3    H1  906   5.172   5.266   0.492  0.2063 -0.7779 -1.8021
  300TIP3    H2  907   5.213   5.137   0.560 -0.1610 -0.2052 -0.4619
  301TIP3   OH2  908   5.938   0.286   0.175 -0.5034 -0.1284  0.3296
  301TIP3    H1  909   5.876   0.359   0.178 -1.3145 -0.8281  0.8932
  301TIP3    H2  910   5.971   0.287   0.085  1.4705  2.5166  0.9471
  302TIP3   OH2  911   5.963   4.029   0.020  0.5189 -0.0251  0.0029
  302TIP3    H1  912   5.934   3.950  -0.027  1.0191  0.1309 -0.5722
  302TIP3    H2  913   5.933   4.015   0.110  1.8751 -1.5697  0.2673
  303TIP3   OH2  914   6.317   0.739   3.924  0.0421 -0.5119  0.2777
  303TIP3    H1  915   6.365   0.727   4.006  0.9003 -0.3284 -0.1870
  303TIP3    H2  916   6.364   0.809   3.878  0.7504 -1.8852 -1.2096
  304TIP3   OH2  917   2.694   1.572   3.368 -0.3014  0.0037 -0.1674
  304TIP3    H1  918   2.788   1.589   3.378 -0.2886 -0.2839  0.2066
  304TIP3    H2  919   2.654   1.659   3.367 -0.0769  0.1092  0.1493
  305TIP3   OH2  920   5.256   1.863   4.045 -0.2088  0.3061 -0.4295
  305TIP3    H1  921   5.245   1.955   4.022 -0.5166 -0.1739 -2.3235
  305TIP3    H2  922   5.270   1.818   3.962  0.0381 -1.3627  0.4578
  306TIP3   OH2  923   4.618   3.812   3.141 -0.1301 -0.2114 -0.0949
  306TIP3    H1  924   4.699   3.764   3.128 -0.1515 -0.1806 -0.3552
  306TIP3    H2  925   4.646   3.899   3.169 -0.0723 -0.1977 -0.1945
  307TIP3   OH2  926   3.954   1.871   2.759 -0.0687 -0.2463 -0.1489
  307TIP3    H1  927   3.995   1.936   2.816 -3.3347 -0.4367  2.7718
  307TIP3    H2  928   3.999   1.789   2.781  0.3728  0.1103  0.3152
  308TIP3   OH2  929   6.058   1.327   3.624  0.5917  0.2436 -0.2696
  308TIP3    H1  930   6.037   1.251   3.679  2.4583  0.1503  0.4011
  308TIP3    H2  931   5.975   1.350   3.582 -0.7654 -0.1262  2.0369
  309TIP3   OH2  932   6.159   0.164   4.945 -0.4192  0.2373  0.0698
  309TIP3    H1  933   6.201   0.127   4.868  0.1318  1.7952 -0.4028
  309TIP3    H2  934   6.117   0.244   4.915  0.4016  1.2600  1.4904
  310TIP3   OH2  935   5.091   0.971   4.480  0.9227 -0.2084  0.2514
  310TIP3    H1  936   5.100   0.876   4.472  1.0738 -0.1270 -0.6684
  310TIP3    H2  937   5.179   1.004   4.464  0.4450  0.2016 -1.8163
  311TIP3   OH2  938   2.475   3.308   1.635  0.5112  0.0654  0.3161
  311TIP3    H1  939   2.418   3.272   1.703  0.7650 -1.3158 -0.1652
  311TIP3    H2  940   2.564   3.289   1.666  0.6333 -0.2426 -0.2094
  312TIP3   OH2  941   2.071   1.710   0.178  0.2372 -0.9316  0.3546
  312TIP3    H1  942   2.028   1.795   0.190 -1.4426 -1.3519 -1.9665
  312TIP3    H2  943   2.140   1.728   0.114  0.1377 -1.2322  0.1629
  313TIP3   OH2  944   2.783   1.291   4.344 -0.1500  0.1526 -0.4861
  313TIP3    H1  945   2.749   1.280   4.433 -1.4984 -0.0950 -0.9970
  313TIP3    H2  946   2.714   1.256   4.288  0.9319 -0.2522 -1.6157
  314TIP3   OH2  947   4.526   3.777   0.377  0.0910 -0.4203 -0.0114
  314TIP3    H1  948   4.432   3.795   0.385  0.2034 -0.1874  0.9033
  314TIP3    H2  949   4.547   3.799   0.286 -0.8218 -0.8933 -0.3547
  315TIP3   OH2  950   5.416   0.115   3.860 -0.4436 -0.2337 -0.0534
  315TIP3    H1  951   5.443   0.040   3.912 -1.2137 -1.2595 -1.0903
  315TIP3    H2  952   5.476   0.116   3.786  0.2977  0.8877  0.5334
  316TIP3   OH2  953   0.645   2.870   0.137  0.4368  0.4734 -0.0243
  316TIP3    H1  954   0.579   2.813   0.174  0.2467 -0.5520 -1.8365
  316TIP3    H2  955   0.697   2.899   0.212  0.5181 -2.0325  0.9791
  317TIP3   OH2  956   5.685   2.172   4.807 -0.5006 -0.0196 -0.0537
  317TIP3    H1  957   5.618   2.141   4.745 -0.1026  1.2087 -1.1167
  317TIP3    H2  958   5.755   2.108   4.800 -0.1537  0.4878 -1.4244
  318TIP3   OH2  959   5.304   0.601   3.537  0.5988  0.7693  0.7251
  318TIP3    H1  960   5.386   0.594   3.586 -0.2551 -1.9806  1.9423
  318TIP3    H2  961   5.239   0.625   3.604  0.2807  2.6432 -0.1777
  319TIP3   OH2  962   3.984   5.455   4.863  0.2111 -0.0583 -0.0084
  319TIP3    H1  963   4.067   5.489   4.829  0.9865 -0.6710  1.2123
  319TIP3    H2  964   3.998   5.361   4.873  0.0353  0.0761  1.9358
  320TIP3   OH2  965   3.296   3.642   2.900 -0.0262 -0.3606 -0.7623
  320TIP3    H1  966   3.327   3.703   2.834 -1.6714  0.4238 -0.8710
  320TIP3    H2  967   3.238   3.583   2.852 -0.5261 -0.3417 -0.1935
  321TIP3   OH2  968   4.416   4.965   0.856  0.3222  0.0690 -0.7130
  321TIP3    H1  969   4.443   4.973   0.764  1.3757  0.8671 -0.3499
  321TIP3    H2  970   4.380   5.051   0.878 -1.9334 -0.7383 -0.9611
  322TIP3   OH2  971   0.092   4.448   3.389 -0.2082 -0.0065  0.0049
  322TIP3    H1  972   0.161   4.483   3.332  0.0884 -0.2748  0.1923
  322TIP3    H2  973   0.014   4.448   3.335 -0.4579  1.8604  0.2775
  323TIP3   OH2  974   3.537   1.429   4.249  0.4202 -0.4307  0.3327
  323TIP3    H1  975   3.504   1.426   4.159 -0.6971 -0.5187  0.7247
  323TIP3    H2  976   3.534   1.522   4.273 -0.4942 -0.5313  0.6813
  324TIP3   OH2  977   0.353   1.345   0.408  0.5124  0.3774  0.0618
  324TIP3    H1  978   0.396   1.333   0.493 -0.6949 -0.5996  0.5508
  324TIP3    H2  979   0.281   1.283   0.408  0.8141 -0.0277 -1.9205
  325TIP3   OH2  980   4.217   3.244   3.117  0.3102  0.2820  0.3141
  325TIP3    H1  981   4.255   3.304   3.053  1.1260 -0.1376  0.3939
  325TIP3    H2  982   4.244   3.278   3.202 -1.5273  1.3599  0.5207
  326TIP3   OH2  983   1.114   1.282   1.042 -0.3162 -0.3573  0.6214
  326TIP3    H1  984   1.130   1.372   1.014 -0.7369 -0.6652 -0.6597
  326TIP3    H2  985   1.042   1.252   0.986 -0.0850 -1.5414  0.9349
  327TIP3   OH2  986   4.857   2.327   1.654 -0.4635 -0.1213  0.3824
  327TIP3    H1  987   4.836   2.368   1.571 -0.8686 -0.6657  0.2082
  327TIP3    H2  988   4.952   2.322   1.656 -0.4724 -1.8473 -0.9353
  328TIP3   OH2  989   0.070   2.375   1.068  0.2169 -0.2143 -0.3872
  328TIP3    H1  990   0.121   2.298   1.094  2.0580  0.9189 -0.4751
  328TIP3    H2  991   0.028   2.403   1.149 -0.3348 -1.1884 -0.3171
  329TIP3   OH2  992   0.421   2.662   0.166 -0.3010  0.2055  0.3448
  329TIP3    H1  993   0.361   2.733   0.146 -0.4291 -0.0361 -0.1449
  329TIP3    H2  994   0.369   2.582   0.155  0.3418 -0.0551 -1.0015
  330TIP3   OH2  995   5.253   2.422   1.973  0.4189  0.0398 -0.0144
  330TIP3    H1  996   5.337   2.395   2.010  1.4661  2.2570 -0.5547
  330TIP3    H2  997   5.276   2.459   1.887 -1.6290 -2.8696 -2.0098
  331TIP3   OH2  998   1.156   1.014   4.193  1.0487  0.0806  0.1420
  331TIP3    H1  999   1.113   0.970   4.266  0.0383 -1.1690 -1.1480
  331TIP3    H2 1000   1.223   0.952   4.163  0.1524 -0.2878 -1.1887
  332TIP3   OH2 1001   0.085   5.186   1.325 -0.7178 -0.4579 -0.5574
  332TIP3    H1 1002   0.005   5.230   1.355  0.0253  0.4706  0.1532
  332TIP3    H2 1003   0.156   5.239   1.362  0.2286 -1.7838 -0.4146
  333TIP3   OH2 1004   4.667   2.792   1.664 -0.4399  0.2261  0.5768
  333TIP3    H1 1005   4.753   2.815   1.629  0.5257 -2.6073  0.8411
  333TIP3    H2 1006   4.680   2.788   1.759 -1.1726  0.8673  0.7122
  334TIP3   OH2 1007   4.455   0.368   3.582  0.2624 -0.1901  0.3515
  334TIP3    H1 1008   4.508   0.337   3.509 -1.1870 -2.0723  0.0304
  334TIP3    H2 1009   4.518   0.399   3.646  1.6233  0.0475 -1.0431
  335TIP3   OH2 1010   4.560   0.470   1.323 -0.0561 -0.0327  0.2994
  335TIP3    H1 1011   4.525   0.384   1.302 -0.3157  0.2422 -0.4116
  335TIP3    H2 1012   4.632   0.452   1.383 -1.6432 -0.5854  2.1366
  336TIP3   OH2 1013   3.958   3.628   0.854  0.2699  0.4659  0.6650
  336TIP3    H1 1014   3.982   3.563   0.921 -0.7623 -0.5833  0.0489
  336TIP3    H2 1015   3.972   3.583   0.771 -1.6864  0.5355  0.2402
  337TIP3   OH2 1016   3.998   4.383   2.101 -0.1488  0.4365 -0.4332
  337TIP3    H1 1017   3.963   4.418   2.019  0.6678  0.4855 -0.7657
  337TIP3    H2 1018   4.021   4.461   2.152  0.5835  0.4095 -0.7048
  338TIP3   OH2 1019   3.301   1.683   1.252 -0.2054 -0.3722 -0.5613
  338TIP3    H1 1020   3.238   1.675   1.324  0.4807 -2.6735 -0.1174
  338TIP3    H2 1021   3.261   1.635   1.180  0.2349 -0.2608 -0.8847
  339TIP3   OH2 1022   4.702   3.169   1.618  0.4486 -0.0788 -0.0707
  339TIP3    H1 1023   4.710   3.139   1.709  1.4635 -0.9013 -0.4129
  339TIP3    H2 1024   4.789   3.155   1.581 -0.4210 -1.5303 -1.7019
  340TIP3   OH2 1025   4.815   3.251   0.546  0.2012 -0.5689  0.0505
  340TIP3    H1 1026   4.829   3.320   0.611  1.1454 -1.0214  0.3579
  340TIP3    H2 1027   4.750   3.286   0.486 -0.6699 -0.1166  1.2248
  341TIP3   OH2 1028   1.510   4.488   0.077 -0.2306 -0.3021 -0.3415
  341TIP3    H1 1029   1.590   4.505   0.028  0.8825 -0.5177  1.2891
  341TIP3    H2 1030   1.485   4.399   0.052  1.2360 -1.0355  0.5939
  342TIP3   OH2 1031   5.332   1.499   3.076  0.5563  0.5357  0.2767
  342TIP3    H1 1032   5.317   1.587   3.040  1.4901  0.8924  0.7288
  342TIP3    H2 1033   5.406   1.465   3.026  0.5810  0.2454  0.5100
  343TIP3   OH2 1034   4.203   3.526   1.561 -0.1117 -0.1275  0.1002
  343TIP3    H1 1035   4.143   3.574   1.504  0.9969 -0.3094 -1.2770
  343TIP3    H2 1036   4.170   3.436   1.561 -0.4729  0.0018  0.2662
  344TIP3   OH2 1037   3.172   0.684   3.433  0.3057 -0.6034 -0.1670
  344TIP3    H1 1038   3.213   0.598   3.446  1.1333 -0.0701  0.9239
  344TIP3    H2 1039   3.118   0.673   3.354  1.5678 -1.6899 -0.9255
  345TIP3   OH2 1040   3.565   1.680   4.399  0.6031 -0.5269  0.4585
  345TIP3    H1 1041   3.656   1.660   4.423  0.0880 -1.0433  2.0680
  345TIP3    H2 1042   3.518   1.684   4.482 -0.6038  1.0841 -0.2524
  346TIP3   OH2 1043   3.963   2.609   1.560 -0.1254  1.0502 -0.4241
  346TIP3    H1 1044   3.904   2.547   1.517  1.3618 -0.6982 -0.1219
  346TIP3    H2 1045   4.044   2.558   1.574  1.7724  3.5532 -1.6115
  347TIP3   OH2 1046   1.653   1.821   4.679  0.0615 -0.5254 -0.2456
  347TIP3    H1 1047   1.715   1.748   4.675 -1.7335 -2.1024 -1.1211
  347TIP3    H2 1048   1.611   1.811   4.764  0.4387  0.0596  0.0131
  348TIP3   OH2 1049   3.701   4.945   0.161  0.2512 -0.8754  0.3400
  348TIP3    H1 1050   3.746   4.904   0.235  0.7090 -0.2128  0.4388
  348TIP3    H2 1051   3.769   4.957   0.095 -0.0255 -0.9084  0.0453
  349TIP3   OH2 1052   3.575   1.531   2.735 -0.2422 -0.3523 -0.3510
  349TIP3    H1 1053   3.512   1.556   2.803  0.1333  1.8802 -0.7549
  349TIP3    H2 1054   3.623   1.611   2.716  3.8260 -2.2106  0.9853
  350TIP3   OH2 1055   3.795   1.581   3.699  0.5595 -0.0268  0.0501
  350TIP3    H1 1056   3.737   1.585   3.623  0.0851 -3.1480  0.1155
  350TIP3    H2 1057   3.857   1.652   3.686 -1.2802  1.3497 -1.7247
  351TIP3   OH2 1058   4.125   3.352   1.278  0.2539 -0.7198 -0.0004
  351TIP3    H1 1059   4.132   3.318   1.367 -1.2183 -0.1124  0.3796
  351TIP3    H2 1060   4.109   3.446   1.290 -0.3039 -0.6904 -0.8828
  352TIP3   OH2 1061   2.255   1.820   0.782 -0.2977 -0.3953 -0.4340
  352TIP3    H1 1062   2.164   1.792   0.788 -0.0687 -1.1248 -0.3173
  352TIP3    H2 1063   2.297   1.754   0.727  0.3093 -0.4462  0.0827
  353TIP3   OH2 1064   6.316   4.070   4.813 -0.3555 -0.2635 -0.5839
  353TIP3    H1 1065   6.360   3.992   4.846  0.7682 -0.2088 -1.9204
  353TIP3    H2 1066   6.265   4.101   4.888 -0.6786 -2.1520  0.0333
  354TIP3   OH2 1067   6.046   5.761   0.947 -0.5484 -0.4149 -0.4816
  354TIP3    H1 1068   6.009   5.746   0.860 -0.6281 -1.9367 -0.2260
  354TIP3    H2 1069   6.108   5.833   0.935 -1.0513 -0.1462 -1.6469
  355TIP3   OH2 1070   0.764   5.200   0.934 -0.0006  0.2640 -0.0447
  355TIP3    H1 1071   0.810   5.199   0.850 -2.8694 -3.2692 -1.8278
  355TIP3    H2 1072   0.833   5.186   0.999  1.9458 -0.4306 -2.1394
  356TIP3   OH2 1073   3.836   0.180   2.503  0.0468 -0.1479  0.6745
  356TIP3    H1 1074   3.826   0.271   2.476  0.3572 -0.1341  0.6057
  356TIP3    H2 1075   3.819   0.181   2.598  0.5135  0.0601  0.7606
  357TIP3   OH2 1076   1.849   5.342   0.546  0.2421 -0.7354  0.1575
  357TIP3    H1 1077   1.864   5.372   0.457  0.3647 -1.2914 -0.0149
  357TIP3    H2 1078   1.830   5.248   0.537  2.9970 -1.4531  0.9385
  358TIP3   OH2 1079   1.727   3.738   4.506 -0.4586 -0.2387 -0.4929
  358TIP3    H1 1080   1.732   3.643   4.490  0.7825  0.0031 -1.7974
  358TIP3    H2 1081   1.814   3.761   4.540  0.1313  0.7771 -2.5179
  359TIP3   OH2 1082   1.177   0.346   2.922  1.2261  0.2198 -0.4403
  359TIP3    H1 1083   1.118   0.407   2.967 -0.4883 -0.7703 -1.2188
  359TIP3    H2 1084   1.237   0.316   2.989 -0.9689 -0.8974  1.1578
  360TIP3   OH2 1085   5.240   3.073   3.414  0.7211  0.8793 -0.4692
  360TIP3    H1 1086   5.256   3.142   3.350 -0.7095 -1.4022 -3.5358
  360TIP3    H2 1087   5.272   2.993   3.373 -2.1116 -1.0332  0.6775
  361TIP3   OH2 1088   0.026   1.584   0.867  0.7686  0.1912 -0.1331
  361TIP3    H1 1089   0.104   1.638   0.877  0.8514  0.3004 -1.2580
  361TIP3    H2 1090  -0.007   1.572   0.957  1.3054  1.2756  0.2244
  362TIP3   OH2 1091   2.754   1.888   4.248  0.2599 -0.0742  0.2894
  362TIP3    H1 1092   2.776   1.974   4.283  0.6008 -0.4421  0.9885
  362TIP3    H2 1093   2.686   1.854   4.306  0.1052 -0.2691  0.0020
  363TIP3   OH2 1094   0.484   2.600   1.532  0.2954  0.1002 -0.2411
  363TIP3    H1 1095   0.560   2.585   1.590  0.5692 -1.1077 -0.8856
  363TIP3    H2 1096   0.517   2.661   1.466  0.6034 -0.1441 -0.3170
  364TIP3   OH2 1097   0.245   4.144   4.705  0.1332 -0.2743 -0.1634
  364TIP3    H1 1098   0.162   4.095   4.702  0.1007 -0.3118  0.8747
  364TIP3    H2 1099   0.219   4.233   4.729  0.4934 -0.6570  1.8441
  365TIP3   OH2 1100   5.267   2.377   3.979  0.2671 -0.1815 -0.1761
  365TIP3    H1 1101   5.243   2.367   4.071  1.0690 -1.7738 -0.0917
  365TIP3    H2 1102   5.203   2.438   3.943 -0.9413 -0.6364  1.1108
  366TIP3   OH2 1103   0.266   5.162   4.903  0.0936  0.1479 -0.3476
  366TIP3    H1 1104   0.199   5.230   4.901 -0.4336 -0.3855 -0.9976
  366TIP3    H2 1105   0.329   5.188   4.836  0.4871  0.5901  0.1870
  367TIP3   OH2 1106   6.143   1.210   2.924 -0.4459 -0.2886 -0.2161
  367TIP3    H1 1107   6.156   1.123   2.885  1.4025 -0.0368 -0.2493
  367TIP3    H2 1108   6.218   1.222   2.982 -0.0785  1.7150 -1.0112
  368TIP3   OH2 1109   4.282   4.773   5.120  0.3545 -0.3987  0.0621
  368TIP3    H1 1110   4.286   4.710   5.048 -1.0225 -0.5388  0.0703
  368TIP3    H2 1111   4.214   4.835   5.093  2.0005  1.3925 -0.1610
  369TIP3   OH2 1112   0.816   0.945   1.404 -0.2723 -0.0477 -0.0615
  369TIP3    H1 1113   0.748   1.006   1.433  0.3102  0.5261  0.1395
  369TIP3    H2 1114   0.898   0.989   1.426  0.2852  1.0671 -3.8002
  370TIP3   OH2 1115   5.740   2.920   4.839  0.0635 -0.3002  0.4313
  370TIP3    H1 1116   5.786   2.974   4.903 -0.9039  0.0975  0.8027
  370TIP3    H2 1117   5.724   2.978   4.765  0.1651 -0.4399  0.2996
  371TIP3   OH2 1118   5.112   1.535   1.703 -0.3221  0.2185  0.2752
  371TIP3    H1 1119   5.087   1.457   1.752 -5.1211  1.4197  0.2807
  371TIP3    H2 1120   5.119   1.604   1.769 -2.6063  0.9612 -0.1340
  372TIP3   OH2 1121   3.930   5.785   1.095 -0.0440 -0.1941  0.2116
  372TIP3    H1 1122   3.853   5.834   1.065  1.7920  1.3046 -2.3817
  372TIP3    H2 1123   3.920   5.699   1.056 -1.4849 -0.7985  1.7982
  373TIP3   OH2 1124   4.911   5.376   3.856  0.2410 -0.0316 -0.1745
  373TIP3    H1 1125   4.937   5.417   3.938  1.1610 -0.0418 -0.4418
  373TIP3    H2 1126   4.865   5.445   3.808 -0.4321 -0.0712  0.4035
  374TIP3   OH2 1127   0.472   5.219   5.091  0.0048 -0.1937 -0.5984
  374TIP3    H1 1128   0.527   5.221   5.012 -0.0111 -0.3232 -0.6121
  374TIP3    H2 1129   0.387   5.188   5.060 -0.9156  2.5591 -1.1111
  375TIP3   OH2 1130   0.521   2.230   4.829  1.0123  0.2640 -0.1170
  375TIP3    H1 1131   0.443   2.262   4.783  0.9203  1.3751  0.7557
  375TIP3    H2 1132   0.577   2.307   4.837  0.3076  0.5805  3.0460
  376TIP3   OH2 1133   4.663   3.886   3.551  0.0565 -0.3595 -0.3431
  376TIP3    H1 1134   4.659   3.886   3.646 -1.2745 -0.1049 -0.3754
  376TIP3    H2 1135   4.755   3.898   3.530  0.5167 -1.5219  0.9021
  377TIP3   OH2 1136   2.600   4.046   0.667 -0.2934 -0.7379 -0.5188
  377TIP3    H1 1137   2.510   4.064   0.640  0.2096 -0.9249 -2.5339
  377TIP3    H2 1138   2.652   4.064   0.589  1.4955 -0.1546  0.7430
  378TIP3   OH2 1139   0.329   2.601   3.881  0.2767  0.2012 -0.3898
  378TIP3    H1 1140   0.306   2.585   3.973 -0.8222  0.5593 -0.5886
  378TIP3    H2 1141   0.338   2.696   3.875  1.8668  0.0828 -0.3275
  379TIP3   OH2 1142   2.620   3.648   3.151  0.0433 -0.5042 -0.0533
  379TIP3    H1 1143   2.608   3.613   3.063 -0.2914  1.2642 -0.7429
  379TIP3    H2 1144   2.601   3.574   3.209  0.8881 -1.8715 -1.4493
  380TIP3   OH2 1145   5.701   2.577   4.093 -0.2813 -0.3055 -0.1982
  380TIP3    H1 1146   5.714   2.483   4.077 -0.8957 -0.4068 -0.1141
  380TIP3    H2 1147   5.770   2.600   4.154 -0.5693 -0.8697  0.3517
  381TIP3   OH2 1148   3.085   0.317   2.541 -0.0987  0.3160  0.7443
  381TIP3    H1 1149   3.037   0.354   2.615  0.6326  0.8672  0.9574
  381TIP3    H2 1150   3.028   0.332   2.466 -1.0990 -0.7438  1.2593
  382TIP3   OH2 1151   6.166   0.559   2.978  0.2629  0.1755  0.2060
  382TIP3    H1 1152   6.114   0.502   3.035 -0.0999  0.4443  0.1518
  382TIP3    H2 1153   6.138   0.648   3.002  0.4660  0.3085 -0.0477
  383TIP3   OH2 1154   4.517   0.604   3.311 -0.0171 -0.1409 -0.6054
  383TIP3    H1 1155   4.439   0.658   3.323  0.1190 -0.2377  0.8947
  383TIP3    H2 1156   4.483   0.520   3.281 -0.6073 -0.5305  1.0810
  384TIP3   OH2 1157   4.210   4.003   2.531  0.0130 -0.3592  0.1300
  384TIP3    H1 1158   4.283   3.966   2.581  0.2115 -1.4818 -0.9303
  384TIP3    H2 1159   4.252   4.047   2.457 -0.3522 -0.8760 -0.3988
  385TIP3   OH2 1160   4.373   0.812   0.673 -0.2932  0.0139  0.0935
  385TIP3    H1 1161   4.378   0.771   0.759 -2.9684 -0.5734  0.0436
  385TIP3    H2 1162   4.317   0.754   0.621  1.5978  0.1060 -2.2494
  386TIP3   OH2 1163   5.729   3.716   1.638  0.1838 -0.2565  0.1765
  386TIP3    H1 1164   5.783   3.792   1.659  1.7802 -1.0264 -0.9385
  386TIP3    H2 1165   5.694   3.735   1.550  2.6378 -1.8066 -1.2458
  387TIP3   OH2 1166   6.351   0.914   0.155  0.1773  0.0094  0.0982
  387TIP3    H1 1167   6.288   0.847   0.182  0.2833 -1.3645 -2.6599
  387TIP3    H2 1168   6.380   0.885   0.068  1.7984  2.5953 -0.3234
  388TIP3   OH2 1169   4.359   2.139   1.980 -0.1311  0.8144  0.0557
  388TIP3    H1 1170   4.371   2.186   1.897  0.0409 -1.0366 -1.0137
  388TIP3    H2 1171   4.429   2.074   1.981 -1.0749 -0.2313  0.9106
  389TIP3   OH2 1172   2.252   5.239   4.230 -0.4264  0.0701  0.0697
  389TIP3    H1 1173   2.266   5.330   4.258  1.8411 -0.2310  0.1557
  389TIP3    H2 1174   2.289   5.236   4.142  0.3618 -0.9496  0.4154
  390TIP3   OH2 1175   5.579   5.707   2.075 -0.2288 -0.1402 -0.2510
  390TIP3    H1 1176   5.563   5.622   2.032  0.8765 -1.9270  2.5671
  390TIP3    H2 1177   5.597   5.767   2.003 -3.2936 -1.6840 -2.5518
  391TIP3   OH2 1178   1.619   4.897   2.960  0.0873 -0.2560 -0.8496
  391TIP3    H1 1179   1.686   4.949   3.006  1.5712 -2.0464 -0.8749
  391TIP3    H2 1180   1.599   4.949   2.882 -0.4016  1.4779  0.3732
  392TIP3   OH2 1181   1.664   0.944   1.568 -0.1446  0.1477  0.2670
  392TIP3    H1 1182   1.598   0.961   1.635 -0.6159  0.7107 -0.3261
  392TIP3    H2 1183   1.745   0.932   1.616 -0.3032  1.4378  0.8884
  393TIP3   OH2 1184   4.301   5.567   5.114  0.2188  0.5785  0.2461
  393TIP3    H1 1185   4.285   5.661   5.102  2.0320  0.7336 -1.5925
  393TIP3    H2 1186   4.309   5.556   5.209 -2.4925  1.7728  0.7003
  394TIP3   OH2 1187   4.186   5.975   2.698  0.1903 -0.3842  0.1131
  394TIP3    H1 1188   4.280   5.991   2.711  0.0165 -0.4880  1.7829
  394TIP3    H2 1189   4.181   5.928   2.616  1.6423 -0.6688  0.1560
  395TIP3   OH2 1190   1.323   2.677   0.212 -0.6654 -0.0568  0.7659
  395TIP3    H1 1191   1.275   2.694   0.293 -0.2237 -0.7978  1.1938
  395TIP3    H2 1192   1.264   2.624   0.159 -1.0038  0.5350  0.5475
  396TIP3   OH2 1193   1.703   0.960   3.827 -0.0704 -0.7263  0.0217
  396TIP3    H1 1194   1.749   0.896   3.881 -0.8449 -1.4914 -0.2032
  396TIP3    H2 1195   1.696   0.918   3.741  0.7442  0.2879 -0.5705
  397TIP3   OH2 1196   1.409   1.627   0.759 -0.0185 -1.2938  0.3841
  397TIP3    H1 1197   1.497   1.591   0.744 -0.9194 -2.6983 -1.8670
  397TIP3    H2 1198   1.366   1.624   0.674 -2.4625 -1.1087  1.5262
  398TIP3   OH2 1199   3.312   4.788   2.416  0.3443 -0.5861  0.1525
  398TIP3    H1 1200   3.328   4.732   2.340  1.0178  0.9081 -0.8463
  398TIP3    H2 1201   3.357   4.870   2.396 -2.3492  1.1368  0.5912
  399TIP3   OH2 1202   6.059   3.278   3.172 -0.3109  0.5431  0.1832
  399TIP3    H1 1203   6.073   3.346   3.107 -3.0272  1.3950  0.3437
  399TIP3    H2 1204   6.068   3.196   3.124 -0.5451  1.1168 -0.8537
  400TIP3   OH2 1205   3.384   4.434   4.258 -0.2941  0.0472 -0.1993
  400TIP3    H1 1206   3.473   4.403   4.241 -0.6742 -0.9659 -0.3997
  400TIP3    H2 1207   3.390   4.477   4.343  0.2708 -0.5072  0.0494
  401TIP3   OH2 1208   0.042   5.154   2.404 -0.6394 -0.2738 -0.4779
  401TIP3    H1 1209   0.122   5.145   2.353 -0.2282 -2.7552  0.4503
  401TIP3    H2 1210  -0.028   5.130   2.344 -0.4541 -0.2334 -0.7094
  402TIP3   OH2 1211   1.485   5.088   5.137 -0.3104  0.1831 -0.3168
  402TIP3    H1 1212   1.411   5.029   5.123 -2.2883  2.7358 -1.2261
  402TIP3    H2 1213   1.535   5.084   5.055  1.0526 -2.0156  0.5187
  403TIP3   OH2 1214   5.276   3.299   2.500  0.0724  0.2001 -0.6316
  403TIP3    H1 1215   5.359   3.339   2.527  1.0791 -0.5025 -2.4838
  403TIP3    H2 1216   5.230   3.280   2.582  1.1480  1.8048  0.3925
  404TIP3   OH2 1217   1.848   2.800   4.171  0.1172 -0.3423 -0.0278
  404TIP3    H1 1218   1.899   2.877   4.198 -1.0805  0.0790  1.1654
  404TIP3    H2 1219   1.913   2.732   4.157  1.2507  0.9640 -1.4731
  405TIP3   OH2 1220   4.769   3.347   0.938 -0.4576 -0.1848 -0.5238
  405TIP3    H1 1221   4.707   3.275   0.934 -0.8283  0.0146  1.0311
  405TIP3    H2 1222   4.759   3.392   0.854  0.6522 -2.5868 -2.0698
  406TIP3   OH2 1223   5.524   1.682   5.124  0.1849 -0.2553 -0.1745
  406TIP3    H1 1224   5.569   1.599   5.109 -1.4813 -0.9892 -1.4591
  406TIP3    H2 1225   5.445   1.676   5.071  0.4801  2.5525 -1.1123
  407TIP3   OH2 1226   6.127   1.645   1.880 -0.1467 -0.0742 -0.6048
  407TIP3    H1 1227   6.092   1.726   1.919 -1.3917  0.0609 -1.9065
  407TIP3    H2 1228   6.117   1.659   1.786  0.5950 -1.3424 -0.8834
  408TIP3   OH2 1229   4.778   3.829   0.826 -0.0248 -0.4599  0.8891
  408TIP3    H1 1230   4.756   3.858   0.915  0.4759  1.0318  0.5626
  408TIP3    H2 1231   4.865   3.791   0.834  0.7663  1.2293  0.7920
  409TIP3   OH2 1232   6.276   5.397   3.171 -0.0039 -0.0324  0.5180
  409TIP3    H1 1233   6.247   5.419   3.082 -0.4483  0.1567  0.7076
  409TIP3    H2 1234   6.363   5.437   3.178  0.0280 -0.0375  0.1734
  410TIP3   OH2 1235   4.981   3.989   1.857 -0.2437 -0.0768  0.0902
  410TIP3    H1 1236   5.017   3.901   1.843  1.9963  0.6600  0.6903
  410TIP3    H2 1237   4.988   4.031   1.772 -0.5669 -0.2294 -0.0123
  411TIP3   OH2 1238   2.976   4.783   0.078 -0.1509  0.1308  0.4084
  411TIP3    H1 1239   3.015   4.731   0.007 -0.7878 -1.2279  1.0183
  411TIP3    H2 1240   2.892   4.814   0.041  0.6468  1.5740 -0.2850
  412TIP3   OH2 1241   0.598   3.253   1.797  0.0607 -1.0253  0.2940
  412TIP3    H1 1242   0.692   3.240   1.808 -0.3682 -2.7863  2.6540
  412TIP3    H2 1243   0.570   3.180   1.742 -0.0715 -1.0086  0.3400
  413TIP3   OH2 1244   1.054   4.365   1.657 -0.1620  0.4822 -0.3578
  413TIP3    H1 1245   1.135   4.315   1.644 -0.8679 -0.4019 -1.5292
  413TIP3    H2 1246   0.989   4.299   1.681 -0.9441  0.9179 -1.2066
  414TIP3   OH2 1247   3.833   4.477   0.119 -0.0091  0.4374 -0.0298
  414TIP3    H1 1248   3.792   4.448   0.038 -0.2332  2.1661 -0.5570
  414TIP3    H2 1249   3.776   4.442   0.188 -1.4972  1.4327 -0.7038
  415TIP3   OH2 1250   4.428   5.204   3.980 -0.2934 -0.5260  0.5947
  415TIP3    H1 1251   4.428   5.130   4.041  0.6291  0.3356  1.7033
  415TIP3    H2 1252   4.518   5.207   3.947  0.1675  1.0571  1.8440
  416TIP3   OH2 1253   2.023   3.050   2.513  0.5089  0.1375  0.3156
  416TIP3    H1 1254   1.976   2.970   2.536 -0.7159  0.5153 -0.7384
  416TIP3    H2 1255   1.957   3.119   2.516  0.8335  0.6167 -1.7023
  417TIP3   OH2 1256   5.346   4.476   1.829 -0.1245 -0.0956 -0.1443
  417TIP3    H1 1257   5.309   4.444   1.911 -1.1989 -0.6689 -0.8470
  417TIP3    H2 1258   5.271   4.489   1.771  0.2940  2.8944 -0.2127
  418TIP3   OH2 1259   3.367   0.967   1.542 -0.8324  0.2137  0.2317
  418TIP3    H1 1260   3.288   1.019   1.556 -1.4147 -0.3001 -1.0194
  418TIP3    H2 1261   3.341   0.878   1.565 -1.3569 -0.3759 -2.3439
  419TIP3   OH2 1262   4.304   3.444   4.436 -0.3209 -0.4554  0.8780
  419TIP3    H1 1263   4.209   3.443   4.426 -0.1295 -0.5358 -1.5197
  419TIP3    H2 1264   4.335   3.379   4.372  1.3187 -1.0891  2.2446
  420TIP3   OH2 1265   2.765   0.504   2.145 -0.2385  0.4307 -0.6010
  420TIP3    H1 1266   2.691   0.444   2.133 -0.1755 -0.1510  1.5741
  420TIP3    H2 1267   2.757   0.565   2.072 -1.8008 -0.7043 -1.4481
  421TIP3   OH2 1268   3.746   1.068   4.568  0.0706  0.4157  0.0032
  421TIP3    H1 1269   3.754   1.097   4.478  1.1326 -1.3330 -0.5178
  421TIP3    H2 1270   3.831   1.029   4.589 -1.2622 -2.5986  0.4345
  422TIP3   OH2 1271   1.726   2.308   4.701  0.4321  0.2764 -0.2651
  422TIP3    H1 1272   1.797   2.294   4.638  1.2188 -0.9129  0.8482
  422TIP3    H2 1273   1.723   2.228   4.752 -0.9861  0.7586  0.4506
  423TIP3   OH2 1274   4.453   5.032   4.572  0.2889  0.0672  0.2207
  423TIP3    H1 1275   4.414   4.944   4.581 -0.4902  0.2383 -1.1796
  423TIP3    H2 1276   4.541   5.015   4.539  1.0642 -0.2730  2.3273
  424TIP3   OH2 1277   1.351   4.674   3.349  0.3726  0.0417  0.0744
  424TIP3    H1 1278   1.405   4.679   3.270  0.5594  0.5809  0.2298
  424TIP3    H2 1279   1.272   4.627   3.322  0.6422 -0.1931 -0.3132
  425TIP3   OH2 1280   0.122   5.407   4.998 -0.6744 -0.2201 -0.3376
  425TIP3    H1 1281   0.172   5.478   4.957 -1.7997  1.3148  0.7866
  425TIP3    H2 1282   0.040   5.405   4.950 -0.1029 -1.8511 -1.3361
  426TIP3   OH2 1283   0.106   3.879   0.306  0.1742 -0.0295  0.4762
  426TIP3    H1 1284   0.022   3.852   0.343  0.6255 -1.8073  0.2866
  426TIP3    H2 1285   0.115   3.828   0.225  0.9288  0.9808 -0.1016
  427TIP3   OH2 1286   5.023   3.727   0.949 -0.0892 -0.0418  0.9663
  427TIP3    H1 1287   5.014   3.799   1.012 -0.7207 -1.1870  2.2521
  427TIP3    H2 1288   5.111   3.694   0.964  0.1282  0.3356  0.5190
  428TIP3   OH2 1289   0.044   5.694   2.105 -0.1572 -0.6251  0.4491
  428TIP3    H1 1290   0.070   5.754   2.175  0.0455 -0.8608  0.5794
  428TIP3    H2 1291   0.078   5.734   2.025 -0.5804 -0.2422  0.4569
  429TIP3   OH2 1292   2.913   2.944   2.617 -0.1732 -0.4560 -0.6484
  429TIP3    H1 1293   2.845   3.009   2.634  0.0363 -0.4969  0.4004
  429TIP3    H2 1294   2.992   2.980   2.657 -0.0218 -1.2954 -0.1715
  430TIP3   OH2 1295   5.332   4.742   0.259 -0.1785 -0.1225  0.0417
  430TIP3    H1 1296   5.279   4.670   0.225 -2.3204  0.8689  1.1504
  430TIP3    H2 1297   5.382   4.703   0.330  0.1400 -0.9237 -0.6004
  431TIP3   OH2 1298   1.610   4.128   1.089  0.0858  0.7536 -0.0639
  431TIP3    H1 1299   1.629   4.187   1.162  0.9218  1.9370 -1.1923
  431TIP3    H2 1300   1.601   4.042   1.129 -1.0063  1.5886  1.6208
  432TIP3   OH2 1301   5.368   0.723   2.657  0.1272 -0.5328  0.3326
  432TIP3    H1 1302   5.343   0.803   2.702 -0.5978  0.3235 -1.4724
  432TIP3    H2 1303   5.293   0.665   2.668 -1.5699  0.9120 -2.4743
  433TIP3   OH2 1304   0.118   3.844   4.800 -0.4899  0.0031  0.0946
  433TIP3    H1 1305   0.088   3.789   4.872 -0.4953 -0.4884 -0.2777
  433TIP3    H2 1306   0.091   3.797   4.721  1.6729 -0.7427 -0.2874
  434TIP3   OH2 1307   4.778   5.477   3.462 -0.3043  0.0980  0.8768
  434TIP3    H1 1308   4.831   5.525   3.398  1.3518 -2.0017  0.5634
  434TIP3    H2 1309   4.717   5.426   3.408  0.5919 -1.0976  0.9468
  435TIP3   OH2 1310   5.282   2.540   0.840 -0.2655  0.2729 -0.2892
  435TIP3    H1 1311   5.284   2.555   0.745  0.2693  0.0744 -0.3136
  435TIP3    H2 1312   5.234   2.615   0.875 -0.4247  0.3754 -0.7100
  436TIP3   OH2 1313   0.416   5.440   5.211  0.0865 -0.0236  0.5131
  436TIP3    H1 1314   0.441   5.361   5.163  2.2175  0.4094  0.7868
  436TIP3    H2 1315   0.351   5.482   5.156 -1.1121 -1.9430  0.3641
  437TIP3   OH2 1316   2.381   1.816   5.166  0.0449  0.6067 -0.2078
  437TIP3    H1 1317   2.347   1.820   5.077 -0.2923 -1.1957 -0.1985
  437TIP3    H2 1318   2.387   1.722   5.186 -0.8899  0.9359  2.0310
  438TIP3   OH2 1319   2.416   3.034   0.996  0.3554 -0.7190  0.5612
  438TIP3    H1 1320   2.432   3.033   1.091 -0.3944 -4.5389  0.8369
  438TIP3    H2 1321   2.344   3.095   0.985  1.9143  1.5518  2.0622
  439TIP3   OH2 1322   4.144   5.274   2.072  0.4667  0.7774 -0.3957
  439TIP3    H1 1323   4.086   5.320   2.011 -1.3130  0.9561  1.3019
  439TIP3    H2 1324   4.091   5.264   2.152  2.3237 -0.3410  0.7760
  440TIP3   OH2 1325   2.891   5.450   4.941  0.1869  0.5500  0.5437
  440TIP3    H1 1326   2.806   5.449   4.985 -0.4434  1.4085 -0.5917
  440TIP3    H2 1327   2.949   5.497   5.001 -1.5835  5.2610 -0.9711
  441TIP3   OH2 1328   2.303   2.166   1.365  0.4145  0.4554  0.1867
  441TIP3    H1 1329   2.383   2.155   1.415  0.1388  0.3738  0.6137
  441TIP3    H2 1330   2.292   2.261   1.358  2.3117  0.5829 -2.7284
  442TIP3   OH2 1331   1.613   2.582   3.749  0.4984  0.8151  0.0347
  442TIP3    H1 1332   1.631   2.663   3.797 -1.0751  1.1026  0.2011
  442TIP3    H2 1333   1.518   2.570   3.757  0.5106 -0.3138 -1.1567
  443TIP3   OH2 1334   4.963   0.717   4.387  0.3668 -0.1632  0.4531
  443TIP3    H1 1335   4.923   0.630   4.380 -0.1107  0.1065 -0.3341
  443TIP3    H2 1336   4.970   0.747   4.296  0.7644  0.5122  0.7027
  444TIP3   OH2 1337   2.474   4.848   0.121 -0.2694 -0.3781  0.5141
  444TIP3    H1 1338   2.500   4.868   0.031 -0.9712 -1.9012 -0.0625
  444TIP3    H2 1339   2.501   4.757   0.134 -0.0414 -0.1361  1.9180
  445TIP3   OH2 1340   3.715   5.520   1.231 -0.6155  0.0728 -0.0729
  445TIP3    H1 1341   3.756   5.539   1.146 -1.2470  1.0639 -0.1663
  445TIP3    H2 1342   3.760   5.441   1.261 -0.2225 -0.1712 -1.2246
  446TIP3   OH2 1343   5.075   5.496   4.723  0.1495  0.3865  0.1505
  446TIP3    H1 1344   5.137   5.551   4.675 -0.5269 -1.2046 -2.8327
  446TIP3    H2 1345   4.999   5.489   4.664 -0.7028 -1.8470  1.3762
  447TIP3   OH2 1346   3.377   4.049   3.829 -0.3744  0.1700 -0.6289
  447TIP3    H1 1347   3.290   4.040   3.869 -0.0027  1.5128  0.5910
  447TIP3    H2 1348   3.372   3.998   3.748 -1.8080 -1.0280  0.1570
  448TIP3   OH2 1349   1.828   2.615   4.699  0.3340  0.2462 -0.5896
  448TIP3    H1 1350   1.828   2.540   4.639  2.0223  0.4730 -0.9187
  448TIP3    H2 1351   1.910   2.606   4.748 -0.2288  0.9932  0.5128
  449TIP3   OH2 1352   2.180   4.575   4.190  0.2917  0.2419 -0.2610
  449TIP3    H1 1353   2.208   4.592   4.280  0.2687 -0.1047 -0.1867
  449TIP3    H2 1354   2.090   4.608   4.186 -1.8000 -4.2524  1.3905
  450TIP3   OH2 1355   5.719   3.493   2.777  0.1551 -0.0369  0.4661
  450TIP3    H1 1356   5.697   3.499   2.870  0.5115 -0.6058  0.5894
  450TIP3    H2 1357   5.796   3.549   2.768 -0.0484  0.2455  0.4525
  451TIP3   OH2 1358   4.099   3.992   1.928 -0.0461 -0.0018  0.8054
  451TIP3    H1 1359   4.098   4.006   1.833  0.6873  1.5734  1.0034
  451TIP3    H2 1360   4.008   4.002   1.954 -0.7459 -3.0731 -0.0177
  452TIP3   OH2 1361   5.204   0.612   1.693  0.2376  0.3616  0.2880
  452TIP3    H1 1362   5.220   0.594   1.600 -0.4356  2.1716 -0.2119
  452TIP3    H2 1363   5.292   0.613   1.732  0.7101  1.4552 -0.7162
  453TIP3   OH2 1364   3.246   1.655   0.660 -0.2531 -0.1211  0.1909
  453TIP3    H1 1365   3.300   1.586   0.620  2.2809  1.2425  1.0295
  453TIP3    H2 1366   3.288   1.737   0.634 -2.1939  1.0752  0.6009
  454TIP3   OH2 1367   4.171   5.206   0.759  0.3052 -0.0650 -0.4080
  454TIP3    H1 1368   4.130   5.120   0.768 -1.7486  0.9441  0.4833
  454TIP3    H2 1369   4.216   5.220   0.842  1.0391 -0.4587 -0.7330
  455TIP3   OH2 1370   1.798   3.637   0.649  0.1230  0.3982  0.3748
  455TIP3    H1 1371   1.840   3.632   0.563 -2.8165  1.2750 -1.2385
  455TIP3    H2 1372   1.836   3.565   0.698  2.9636  0.7507 -1.1198
  456TIP3   OH2 1373   0.603   4.049   0.102 -0.0385 -0.2593 -0.0282
  456TIP3    H1 1374   0.594   3.961   0.065 -0.0285 -0.3108  0.0930
  456TIP3    H2 1375   0.682   4.045   0.156  0.6398  0.1498 -0.9602
  457TIP3   OH2 1376   0.651   2.652   0.332 -0.1330  0.4970  0.3672
  457TIP3    H1 1377   0.689   2.570   0.303 -1.9891 -0.8064  1.4083
  457TIP3    H2 1378   0.563   2.652   0.295  0.3053  2.7985 -0.8983
  458TIP3   OH2 1379   4.113   4.506   0.001 -0.2006 -0.1223  0.4211
  458TIP3    H1 1380   4.033   4.456  -0.018 -1.2213  1.6750 -0.1783
  458TIP3    H2 1381   4.112   4.519   0.095 -2.5479  2.8558  0.1160
  459TIP3   OH2 1382   3.232   2.453   4.195 -0.3043 -0.4126 -0.0181
  459TIP3    H1 1383   3.217   2.421   4.284 -1.2969 -0.2171 -0.1013
  459TIP3    H2 1384   3.326   2.448   4.183 -0.2422 -1.3123  0.7220
  460TIP3   OH2 1385   1.647   1.613   2.173  0.1709  0.6490  0.6594
  460TIP3    H1 1386   1.563   1.570   2.159  0.8645 -0.3610 -0.6409
  460TIP3    H2 1387   1.626   1.691   2.224 -1.8004  1.3103 -1.0273
  461TIP3   OH2 1388   3.709   5.967   4.851 -0.2107 -0.4335 -0.4517
  461TIP3    H1 1389   3.798   5.965   4.815  0.2197 -2.8941  0.5571
  461TIP3    H2 1390   3.699   5.883   4.896 -1.8559  1.0738  2.3365
  462TIP3   OH2 1391   3.721   3.107   5.056  0.4927 -0.0045  0.2448
  462TIP3    H1 1392   3.662   3.142   5.123  1.3952  0.2291  0.9332
  462TIP3    H2 1393   3.753   3.025   5.092  0.6599 -0.0842 -0.0829
  463TIP3   OH2 1394   4.346   3.879   1.825 -0.0774 -0.4295  0.0346
  463TIP3    H1 1395   4.423   3.932   1.844 -1.0053  0.9224  0.1930
  463TIP3    H2 1396   4.275   3.922   1.873 -1.1292 -1.0399 -0.9203
  464TIP3   OH2 1397   1.889   4.762   4.577 -0.4610 -0.3871 -0.0849
  464TIP3    H1 1398   1.974   4.806   4.591 -0.7558 -0.1556  1.0906
  464TIP3    H2 1399   1.911   4.669   4.570 -0.1141 -0.3517  0.4200
  465TIP3   OH2 1400   5.644   3.337   0.216 -0.7332 -0.0392  0.3218
  465TIP3    H1 1401   5.658   3.330   0.310  1.0567 -0.7805  0.0285
  465TIP3    H2 1402   5.548   3.343   0.207 -0.9813 -0.6069  2.1317
  466TIP3   OH2 1403   2.777   2.532   2.209  0.2945 -0.5152 -0.8862
  466TIP3    H1 1404   2.799   2.612   2.257  1.3462 -0.0927 -2.0092
  466TIP3    H2 1405   2.686   2.545   2.181  0.0571 -0.2647 -0.0157
  467TIP3   OH2 1406   5.249   2.419   3.047  0.5330 -0.0821 -0.1400
  467TIP3    H1 1407   5.310   2.351   3.077  2.6199  1.9690  0.6311
  467TIP3    H2 1408   5.237   2.475   3.124  0.4821  1.5032 -1.2539
  468TIP3   OH2 1409   6.083   0.813   4.715  0.2412  0.4111 -0.3811
  468TIP3    H1 1410   6.166   0.797   4.761 -0.2296  2.6532  1.4354
  468TIP3    H2 1411   6.036   0.730   4.721  1.5345 -0.3047  0.3479
  469TIP3   OH2 1412   3.218   3.789   0.102  0.0635 -0.0653  0.3312
  469TIP3    H1 1413   3.147   3.793   0.037 -0.4480  1.4852  0.9280
  469TIP3    H2 1414   3.174   3.772   0.185  0.3322  1.2063  0.7537
  470TIP3   OH2 1415   0.747   1.066   1.731 -0.2199 -0.1227  0.0412
  470TIP3    H1 1416   0.721   1.072   1.823  0.0321 -2.3587  0.3154
  470TIP3    H2 1417   0.837   1.032   1.734  0.8886  2.4709 -1.0127
  471TIP3   OH2 1418   5.309   2.510   0.185 -0.7632 -0.6068 -0.4439
  471TIP3    H1 1419   5.223   2.517   0.227 -0.1912 -0.8107  0.8216
  471TIP3    H2 1420   5.369   2.492   0.257  0.5714  1.0483 -1.0841
  472TIP3   OH2 1421   5.310   2.675   1.812 -0.3800  0.0697  0.2567
  472TIP3    H1 1422   5.338   2.630   1.733  0.9246  1.5652 -0.1898
  472TIP3    H2 1423   5.233   2.725   1.785  1.2834  2.2605 -0.7278
  473TIP3   OH2 1424   1.541   5.648   3.922 -0.0982  0.0223 -0.0173
  473TIP3    H1 1425   1.547   5.736   3.885  0.4244  0.5699  1.3222
  473TIP3    H2 1426   1.458   5.648   3.969 -1.9331 -1.4233 -2.9487
  474TIP3   OH2 1427   0.094   5.452   2.219 -0.3639 -0.3519  0.4172
  474TIP3    H1 1428   0.134   5.397   2.151 -1.3979  0.6334 -1.0725
  474TIP3    H2 1429   0.050   5.522   2.170 -0.5015  0.8515  2.1684
  475TIP3   OH2 1430   2.385   2.391   1.674  0.2131 -0.1923 -0.3157
  475TIP3    H1 1431   2.371   2.421   1.584 -0.4193  1.1857  0.2093
  475TIP3    H2 1432   2.317   2.326   1.688 -0.7741  0.8108 -0.3107
  476TIP3   OH2 1433   4.060   5.025   0.393 -0.3885 -0.5934 -0.3692
  476TIP3    H1 1434   4.007   5.010   0.470  0.4200 -0.5737  0.2069
  476TIP3    H2 1435   4.097   5.113   0.406 -1.3112 -0.0180 -1.4304
  477TIP3   OH2 1436   5.024   2.105   2.792  0.3816 -0.0316 -0.1162
  477TIP3    H1 1437   5.112   2.071   2.776  0.5663  0.0976  0.5672
  477TIP3    H2 1438   4.969   2.065   2.725  0.8549 -0.5651 -0.1877
  478TIP3   OH2 1439   4.268   4.040   0.384  0.0899  0.0248  0.2515
  478TIP3    H1 1440   4.315   4.111   0.429 -1.2794  0.1558  1.5380
  478TIP3    H2 1441   4.303   3.960   0.424  0.2481  0.0499  0.1668
  479TIP3   OH2 1442   3.807   0.444   3.952 -0.2759 -0.0948  0.8457
  479TIP3    H1 1443   3.723   0.444   3.999 -1.4486  1.5080 -1.0533
  479TIP3    H2 1444   3.859   0.510   3.997 -0.2910 -0.6085  1.6263
  480TIP3   OH2 1445   1.516   0.481   2.083  0.0782  0.0349 -0.1595
  480TIP3    H1 1446   1.610   0.495   2.091 -0.2909  1.8286  1.8477
  480TIP3    H2 1447   1.507   0.423   2.007  2.8192 -0.7845  0.0369
  481TIP3   OH2 1448   3.656   4.048   0.787  0.6079 -0.1580 -0.6445
  481TIP3    H1 1449   3.650   3.957   0.817 -0.1100  0.7839  2.3758
  481TIP3    H2 1450   3.568   4.083   0.798  1.6254  1.9080  2.0589
  482TIP3   OH2 1451   4.278   4.160   4.174  0.1154 -0.6122  0.0778
  482TIP3    H1 1452   4.242   4.085   4.222  1.2989 -1.4721 -0.3103
  482TIP3    H2 1453   4.304   4.123   4.089  1.2230  0.1117  0.0848
  483TIP3   OH2 1454   5.541   2.435   0.847 -0.1499 -0.0014 -0.0448
  483TIP3    H1 1455   5.447   2.417   0.855  0.0261 -1.1323 -0.3799
  483TIP3    H2 1456   5.581   2.393   0.923  0.2509 -0.9323 -0.7521
  484TIP3   OH2 1457   3.872   1.216   2.166  0.2645 -0.0382 -0.5012
  484TIP3    H1 1458   3.808   1.151   2.194 -0.0744  0.5886  0.2036
  484TIP3    H2 1459   3.833   1.256   2.088  0.0236 -0.0095 -0.3684
  485TIP3   OH2 1460   2.056   2.989   4.316  0.2784  0.3153 -0.4975
  485TIP3    H1 1461   2.019   2.996   4.404 -1.3674  0.1040 -1.1385
  485TIP3    H2 1462   2.135   2.937   4.328  0.4566  0.8707  0.9499
  486TIP3   OH2 1463   1.944   2.688   0.959 -0.6629 -0.2824 -0.5425
  486TIP3    H1 1464   1.995   2.769   0.965 -0.7829 -0.0963 -1.8482
  486TIP3    H2 1465   1.923   2.667   1.050 -0.1425  0.8350 -0.1424
  487TIP3   OH2 1466   3.708   1.675   4.076 -0.7671 -0.3925  0.1669
  487TIP3    H1 1467   3.699   1.750   4.016  2.3866 -0.9183 -1.1522
  487TIP3    H2 1468   3.731   1.715   4.160  2.2290  0.2034 -0.8377
  488TIP3   OH2 1469   2.345   0.356   4.331  0.1027  0.3267 -0.3857
  488TIP3    H1 1470   2.387   0.271   4.346 -0.6162 -0.2319 -1.3867
  488TIP3    H2 1471   2.316   0.352   4.240  0.9937  2.0744 -0.7720
  489TIP3   OH2 1472   1.230   2.215   1.132  0.1483 -0.7922 -0.3755
  489TIP3    H1 1473   1.148   2.225   1.180  1.2626  0.6733  1.3245
  489TIP3    H2 1474   1.249   2.121   1.136 -0.8169 -0.9724  0.2701
  490TIP3   OH2 1475   1.047   1.616   1.492 -0.3475  0.1578 -0.0755
  490TIP3    H1 1476   1.028   1.529   1.527  0.5392  1.1259  3.0486
  490TIP3    H2 1477   1.104   1.599   1.417 -0.0132 -1.9531  0.5773
  491TIP3   OH2 1478   3.014   3.602   4.275  0.1782  0.1994 -0.3149
  491TIP3    H1 1479   2.949   3.669   4.252  1.1860  0.7789 -1.5457
  491TIP3    H2 1480   2.968   3.546   4.338 -0.9085  1.6514  0.2476
  492TIP3   OH2 1481   2.540   4.607   2.807 -0.4511  0.6503  0.2158
  492TIP3    H1 1482   2.450   4.631   2.829 -0.3744  1.6773 -0.4980
  492TIP3    H2 1483   2.583   4.691   2.788  1.1493  0.3531  2.2473
  493TIP3   OH2 1484   1.073   5.158   2.056  0.2931 -0.3277 -0.1572
  493TIP3    H1 1485   0.986   5.171   2.017  0.4811 -0.9696 -0.7944
  493TIP3    H2 1486   1.134   5.166   1.983  0.6701 -1.2073  0.0589
  494TIP3   OH2 1487   5.420   5.644   4.828  0.2877 -0.0836 -0.2351
  494TIP3    H1 1488   5.351   5.633   4.893  0.7703 -2.7608 -0.0589
  494TIP3    H2 1489   5.500   5.657   4.880  0.4326 -0.5688 -0.3353
  495TIP3   OH2 1490   1.542   3.349   2.307  0.3397  0.5783  0.1344
  495TIP3    H1 1491   1.579   3.386   2.387 -1.7560 -0.4901  1.7020
  495TIP3    H2 1492   1.472   3.411   2.283 -0.2610 -0.0589  0.2186
  496TIP3   OH2 1493   4.316   0.048   1.822  0.3809 -0.1221 -0.1652
  496TIP3    H1 1494   4.345  -0.019   1.885 -0.2047 -1.4226 -1.2287
  496TIP3    H2 1495   4.221   0.050   1.831  0.3991  0.6422 -0.0887
  497TIP3   OH2 1496   6.174   4.450   2.200 -0.5620  0.0874  0.0466
  497TIP3    H1 1497   6.106   4.517   2.189 -1.6308 -1.1833 -1.3977
  497TIP3    H2 1498   6.228   4.483   2.273 -1.9836  1.7230  0.4256
  498TIP3   OH2 1499   4.149   5.195   1.473  0.5060  0.6826 -0.0827
  498TIP3    H1 1500   4.240   5.168   1.465  0.4814  0.3377  0.7187
  498TIP3    H2 1501   4.101   5.138   1.413  0.6631  0.0264  0.4046
  499TIP3   OH2 1502   3.234   1.249   4.312  0.5393  0.2469  0.6233
  499TIP3    H1 1503   3.167   1.219   4.250 -0.7769 -1.1610  2.6017
  499TIP3    H2 1504   3.250   1.340   4.287  0.0683 -0.2378 -1.7469
  500TIP3   OH2 1505   1.008   1.854   2.317 -0.7296  0.3242 -0.3640
  500TIP3    H1 1506   1.103   1.860   2.308 -0.6494 -1.4629 -1.1282
  500TIP3    H2 1507   0.995   1.792   2.389 -1.3220  0.4926 -0.3228
  501TIP3   OH2 1508   0.029   1.200   1.900  0.8255  0.3153 -0.9572
  501TIP3    H1 1509  -0.007   1.278   1.858 -0.5529 -0.4453 -1.2717
  501TIP3    H2 1510   0.019   1.131   1.834  0.5175 -0.4665 -0.1159
  502TIP3   OH2 1511   5.239   2.088   0.922  0.1136  0.1155  0.1237
  502TIP3    H1 1512   5.256   2.180   0.903 -3.3621  0.8208 -0.2635
  502TIP3    H2 1513   5.200   2.053   0.842  0.8110 -1.5903  0.4676
  503TIP3   OH2 1514   6.307   2.143   4.028 -0.1031 -0.4539  0.1145
  503TIP3    H1 1515   6.302   2.048   4.013  0.4927 -0.3461 -0.8278
  503TIP3    H2 1516   6.349   2.151   4.114 -0.7564 -1.0432  0.5013
  504TIP3   OH2 1517   1.504   4.617   3.821  0.5304  0.2167  0.2501
  504TIP3    H1 1518   1.471   4.633   3.733  0.6716 -0.0994  0.1378
  504TIP3    H2 1519   1.579   4.559   3.808 -0.6215 -1.4530  0.7156
  505TIP3   OH2 1520   3.463   0.111   1.442  0.3081 -0.2104  0.0568
  505TIP3    H1 1521   3.518   0.036   1.465  0.2326 -1.3440 -2.9347
  505TIP3    H2 1522   3.512   0.157   1.374 -0.6504  1.1853  0.2691
  506TIP3   OH2 1523   1.696   0.566   2.460  0.1795 -0.1355 -0.1607
  506TIP3    H1 1524   1.690   0.650   2.413  0.4957 -1.0692 -1.9444
  506TIP3    H2 1525   1.622   0.515   2.427 -0.7836 -0.1592  1.8704
  507TIP3   OH2 1526   2.912   2.646   3.358 -0.2782 -0.5488  0.2011
  507TIP3    H1 1527   2.938   2.639   3.450 -1.5135 -1.4775  0.4942
  507TIP3    H2 1528   2.904   2.556   3.328 -1.3545 -0.2683 -0.3895
  508TIP3   OH2 1529   2.796   1.943   3.587  0.8797  0.2330  0.9966
  508TIP3    H1 1530   2.868   1.887   3.617  2.3098  0.6187 -1.4286
  508TIP3    H2 1531   2.717   1.893   3.608  1.9719 -1.4192  1.4105
  509TIP3   OH2 1532   2.787   2.929   0.064 -0.2848 -0.1835 -0.1815
  509TIP3    H1 1533   2.858   2.963   0.119 -0.1599  1.1514 -1.1100
  509TIP3    H2 1534   2.707   2.951   0.111 -0.1407 -0.0866  0.0197
  510TIP3   OH2 1535   1.014   2.059   5.184 -0.1182  0.0608  0.2447
  510TIP3    H1 1536   0.983   2.036   5.097  1.0223  0.2709 -0.2295
  510TIP3    H2 1537   0.934   2.064   5.237 -0.9020  0.7384 -0.9637
  511TIP3   OH2 1538   2.570   3.977   3.738 -0.1501  0.2885  0.5908
  511TIP3    H1 1539   2.480   4.011   3.738  0.6425  3.0309 -3.6922
  511TIP3    H2 1540   2.564   3.893   3.692 -0.5261  0.3033  0.6090
  512TIP3   OH2 1541   4.840   3.712   1.618  0.3363 -0.4307 -0.1883
  512TIP3    H1 1542   4.762   3.721   1.674  0.0530 -1.1851 -0.4569
  512TIP3    H2 1543   4.912   3.699   1.680  1.1273  4.7864  0.4545
  513TIP3   OH2 1544   5.725   5.931   0.671  0.2841 -0.1068 -0.3687
  513TIP3    H1 1545   5.724   5.840   0.699 -2.0815 -0.3654 -1.0224
  513TIP3    H2 1546   5.668   5.976   0.733  1.2655  0.9036 -0.1734
  514TIP3   OH2 1547   0.737   0.463   3.959  1.0474 -0.2837  0.1856
  514TIP3    H1 1548   0.773   0.547   3.989 -0.4497 -0.0169  1.3611
  514TIP3    H2 1549   0.766   0.456   3.868  2.7534  0.6073  0.6234
  515TIP3   OH2 1550   5.477   0.920   1.671  0.1668 -0.1703 -0.4069
  515TIP3    H1 1551   5.503   0.832   1.642  2.2215  0.7262 -1.4711
  515TIP3    H2 1552   5.525   0.979   1.613 -3.1767  1.7254 -1.5133
  516TIP3   OH2 1553   2.182   0.984   2.845 -0.1116  0.2532  0.0636
  516TIP3    H1 1554   2.120   1.053   2.826 -1.5903 -1.2105 -0.6800
  516TIP3    H2 1555   2.145   0.906   2.804  1.4767 -0.9952  0.8687
  517TIP3   OH2 1556   2.574   3.227   4.397 -0.3565  0.2908 -0.2652
  517TIP3    H1 1557   2.509   3.276   4.448 -0.0135  0.1657  0.3071
  517TIP3    H2 1558   2.588   3.147   4.448 -1.2964 -0.6650 -1.4500
  518TIP3   OH2 1559   0.231   4.243   3.527  0.4971  0.2843 -0.1358
  518TIP3    H1 1560   0.180   4.302   3.472  1.2364  1.6888  0.6376
  518TIP3    H2 1561   0.298   4.208   3.468 -0.3522 -0.3326 -0.7622
  519TIP3   OH2 1562   1.285   2.492   1.096  0.8616  0.5046 -0.2309
  519TIP3    H1 1563   1.259   2.399   1.093  0.6463  0.5048  1.1991
  519TIP3    H2 1564   1.206   2.538   1.122  1.1884  1.0100 -0.1266
  520TIP3   OH2 1565   4.341   5.676   0.340 -0.3496  0.4108  0.1859
  520TIP3    H1 1566   4.353   5.741   0.271  2.7182  2.4420  2.3350
  520TIP3    H2 1567   4.282   5.718   0.403  0.3271  0.4828  0.7938
  521TIP3   OH2 1568   6.113   3.259   3.938  0.1278  0.2054  0.1584
  521TIP3    H1 1569   6.171   3.208   3.882  0.3342  1.9280 -1.2532
  521TIP3    H2 1570   6.025   3.244   3.902  0.2596  1.3067 -0.6483
  522TIP3   OH2 1571   1.235   4.750   1.468 -0.3845 -0.5616  0.1901
  522TIP3    H1 1572   1.158   4.702   1.437  0.0765 -1.2049  0.0195
  522TIP3    H2 1573   1.233   4.741   1.563 -0.9206  0.0578  0.2475
  523TIP3   OH2 1574   4.411   0.487   2.074 -0.2255 -0.2950 -0.1391
  523TIP3    H1 1575   4.442   0.577   2.072  1.2081 -0.7032  1.1963
  523TIP3    H2 1576   4.318   0.493   2.053 -0.0905  1.4542 -0.3832
  524TIP3   OH2 1577   0.522   0.524   1.030 -0.3314 -0.6235  0.6519
  524TIP3    H1 1578   0.560   0.550   1.114 -2.3269  0.2237  1.3506
  524TIP3    H2 1579   0.441   0.479   1.053 -0.8227 -0.5262 -0.8186
  525TIP3   OH2 1580   1.084   2.409   0.341 -0.7529 -0.0946  0.6707
  525TIP3    H1 1581   1.108   2.316   0.336 -0.9624 -0.1570  0.8001
  525TIP3    H2 1582   1.098   2.432   0.433  0.3854  0.3015  0.4120
  526TIP3   OH2 1583   6.377   2.976   3.415 -0.3176  0.4218  0.2982
  526TIP3    H1 1584   6.299   2.926   3.389  0.7056  0.2849 -2.8882
  526TIP3    H2 1585   6.365   3.062   3.374  1.6935  0.0045 -1.3041
  527TIP3   OH2 1586   0.519   5.039   4.532  0.6839  0.8527 -0.4958
  527TIP3    H1 1587   0.475   5.109   4.485 -0.7650  0.7796  0.6446
  527TIP3    H2 1588   0.458   5.017   4.603  1.9724 -0.2347  0.3203
  528TIP3   OH2 1589   0.069   0.606   4.806 -0.3354 -0.1311  0.0183
  528TIP3    H1 1590  -0.000   0.559   4.760 -1.4374  1.2150  0.2161
  528TIP3    H2 1591   0.026   0.640   4.885  1.0049 -0.7066  1.0230
  529TIP3   OH2 1592   2.792   1.307   2.259  0.3065  0.3409 -0.6166
  529TIP3    H1 1593   2.706   1.266   2.245  1.4769 -2.2749 -0.8457
  529TIP3    H2 1594   2.793   1.382   2.200 -1.1753 -0.6044 -1.9277
  530TIP3   OH2 1595   5.204   0.403   5.117  0.5919 -0.4161 -0.0766
  530TIP3    H1 1596   5.122   0.384   5.164 -0.7132  2.0170 -1.1949
  530TIP3    H2 1597   5.236   0.317   5.091 -1.5193 -1.4743  0.5473
  531TIP3   OH2 1598   5.330   4.293   3.963 -0.1805  0.2910  0.1414
  531TIP3    H1 1599   5.387   4.324   3.892 -0.2143 -2.1185 -1.0313
  531TIP3    H2 1600   5.391   4.265   4.032  0.2983 -3.1555 -1.4698
  532TIP3   OH2 1601   0.367   3.526   5.047  0.2183  0.2314 -0.6590
  532TIP3    H1 1602   0.333   3.454   4.994 -0.1900  0.1720 -0.3290
  532TIP3    H2 1603   0.397   3.591   4.984 -0.8638  0.4411 -0.9744
  533TIP3   OH2 1604   2.606   4.491   4.876 -0.3105  0.1599 -0.2560
  533TIP3    H1 1605   2.677   4.555   4.872  0.5686 -0.7589  0.4519
  533TIP3    H2 1606   2.574   4.487   4.786  2.0310 -1.0654 -1.1099
  534TIP3   OH2 1607   6.217   2.692   3.717 -0.7465 -0.4057 -0.1741
  534TIP3    H1 1608   6.284   2.647   3.767 -1.3924 -0.8310  0.3280
  534TIP3    H2 1609   6.170   2.623   3.671  1.0572  0.0772 -3.0223
  535TIP3   OH2 1610   5.858   1.524   0.443  0.2578 -0.3347  0.9200
  535TIP3    H1 1611   5.867   1.585   0.517  2.4745  0.8871 -0.2458
  535TIP3    H2 1612   5.828   1.579   0.371 -0.0845 -1.1329  0.4422
  536TIP3   OH2 1613   5.867   0.467   2.014  0.0982  0.2696 -0.4589
  536TIP3    H1 1614   5.862   0.553   1.973 -1.8354  0.3594 -0.1342
  536TIP3    H2 1615   5.920   0.415   1.954  1.3062  1.6512 -0.6657
  537TIP3   OH2 1616   5.250   4.848   5.010 -0.3420  0.2797  0.3312
  537TIP3    H1 1617   5.164   4.808   4.995  0.3938 -1.2717  0.1120
  537TIP3    H2 1618   5.288   4.856   4.923 -1.0799  3.0003  0.1716
  538TIP3   OH2 1619   2.201   5.625   3.239  0.0122 -0.3314 -0.1992
  538TIP3    H1 1620   2.132   5.560   3.257 -0.2043 -0.1264 -0.2865
  538TIP3    H2 1621   2.271   5.574   3.199  0.3511 -0.7332  0.8557
  539TIP3   OH2 1622   1.327   1.179   1.366 -0.1077 -0.4058 -0.0631
  539TIP3    H1 1623   1.323   1.112   1.435 -1.6748 -0.6129 -0.3159
  539TIP3    H2 1624   1.278   1.253   1.402 -2.3891 -1.1165 -1.5275
  540TIP3   OH2 1625   2.276   3.436   0.391 -0.2938  0.0329  0.5509
  540TIP3    H1 1626   2.257   3.413   0.300  0.0057 -1.9406  0.9489
  540TIP3    H2 1627   2.196   3.478   0.422  0.0121  1.8575 -0.9343
  541TIP3   OH2 1628   0.491   4.822   0.750  0.1340  0.0846  0.1552
  541TIP3    H1 1629   0.538   4.841   0.669  0.0058  2.5943  0.6104
  541TIP3    H2 1630   0.553   4.843   0.819 -0.1965 -0.8379  0.7541
  542TIP3   OH2 1631   3.929   2.452   2.365 -0.0062 -0.6098  0.8776
  542TIP3    H1 1632   3.967   2.408   2.441  0.0439 -1.3068  0.4567
  542TIP3    H2 1633   3.870   2.517   2.402 -0.2108 -1.1451  1.5150
  543TIP3   OH2 1634   3.494   1.808   0.121  0.0655  0.2526  0.5592
  543TIP3    H1 1635   3.475   1.874   0.187  0.5999 -0.1250  1.0964
  543TIP3    H2 1636   3.413   1.803   0.069  0.8048  3.1269 -1.0921
  544TIP3   OH2 1637   3.841   1.565   1.458  0.1350 -0.2548  0.5150
  544TIP3    H1 1638   3.769   1.612   1.498  0.0344 -1.1168  1.3850
  544TIP3    H2 1639   3.878   1.626   1.394 -1.6439  0.0341 -0.2827
  545TIP3   OH2 1640   4.631   1.074   0.869 -0.5115  0.0112  0.2650
  545TIP3    H1 1641   4.583   1.038   0.943 -0.3440 -0.3235  0.2158
  545TIP3    H2 1642   4.595   1.161   0.856 -1.6017 -0.4972 -0.2166
  546TIP3   OH2 1643   6.177   5.249   4.433 -0.0596  0.3027  0.1782
  546TIP3    H1 1644   6.097   5.257   4.486  0.5737  1.0757  1.0391
  546TIP3    H2 1645   6.149   5.200   4.355 -0.9125 -1.2537  1.4085
  547TIP3   OH2 1646   5.894   4.326   0.151 -0.5377 -0.0596  0.0305
  547TIP3    H1 1647   5.974   4.330   0.203 -1.1952 -2.5185  1.3783
  547TIP3    H2 1648   5.923   4.342   0.061  1.2698  0.2063  0.6206
  548TIP3   OH2 1649   4.060   1.569   3.097  0.1903  0.1562 -0.1357
  548TIP3    H1 1650   4.033   1.659   3.109  2.1303  0.4873  2.6514
  548TIP3    H2 1651   4.009   1.519   3.161 -2.4540 -1.2322 -3.0552
  549TIP3   OH2 1652   5.965   3.879   3.639  0.0249 -0.0277 -0.2554
  549TIP3    H1 1653   5.995   3.789   3.649 -2.4102 -1.0471 -1.3958
  549TIP3    H2 1654   5.924   3.901   3.723 -1.2417 -0.7766 -0.6564
  550TIP3   OH2 1655   3.730   4.438   3.095 -0.3384  0.2130  0.4224
  550TIP3    H1 1656   3.817   4.460   3.129 -0.0517  1.4693 -1.0357
  550TIP3    H2 1657   3.717   4.498   3.022 -2.8412  0.7230  1.1889
  551TIP3   OH2 1658   3.648   3.822   1.081  0.4522 -0.0079  0.5042
  551TIP3    H1 1659   3.604   3.786   1.004 -0.7661  0.2220  1.0608
  551TIP3    H2 1660   3.734   3.849   1.050  0.1667 -0.3873 -0.6561
  552TIP3   OH2 1661   2.065   2.744   4.571  0.4414 -0.2118 -0.3873
  552TIP3    H1 1662   1.998   2.680   4.549 -1.7017  1.4340  0.9135
  552TIP3    H2 1663   2.095   2.717   4.658 -0.2190  0.3108  0.0145
  553TIP3   OH2 1664   1.656   1.315   0.842 -0.4490 -0.1147 -0.1804
  553TIP3    H1 1665   1.736   1.365   0.828  0.3450 -0.9565  1.1308
  553TIP3    H2 1666   1.592   1.354   0.782  0.1809  2.2882  0.6194
  554TIP3   OH2 1667   0.921   0.006   2.229 -0.3509 -0.3834  0.4652
  554TIP3    H1 1668   0.962  -0.074   2.261 -0.7265 -0.6995  0.1582
  554TIP3    H2 1669   0.938   0.071   2.298 -2.1751 -1.3537  1.9045
  555TIP3   OH2 1670   4.111   2.456   2.844  0.2189 -0.4990  0.1273
  555TIP3    H1 1671   4.049   2.445   2.915  2.0600 -0.5769  1.8091
  555TIP3    H2 1672   4.186   2.500   2.884  1.4138 -0.7647 -1.7028
  556TIP3   OH2 1673   0.888   2.292   2.491 -0.0133 -0.4838  0.2483
  556TIP3    H1 1674   0.794   2.275   2.479 -0.1744 -0.7516  1.6614
  556TIP3    H2 1675   0.919   2.217   2.541  0.8397 -0.1296  0.2620
  557TIP3   OH2 1676   1.765   5.446   1.304 -0.5839 -0.3276  0.2125
  557TIP3    H1 1677   1.699   5.508   1.272  0.3722  0.3369 -0.5347
  557TIP3    H2 1678   1.747   5.366   1.256 -0.8606 -0.1518  0.0179
  558TIP3   OH2 1679   3.704   2.629   2.505 -0.0712  0.2803 -0.0813
  558TIP3    H1 1680   3.754   2.708   2.526  0.0176 -0.0449  1.0059
  558TIP3    H2 1681   3.638   2.624   2.574 -0.0760 -0.5950 -0.1397
  559TIP3   OH2 1682   2.373   3.104   4.585  0.5514 -0.8280 -0.0768
  559TIP3    H1 1683   2.351   3.015   4.558  0.9767 -1.4372  1.5084
  559TIP3    H2 1684   2.426   3.093   4.664 -1.6405  0.8510  1.7682
  560TIP3   OH2 1685   5.535   3.041   2.315  0.0195  0.1070 -0.0239
  560TIP3    H1 1686   5.593   2.965   2.307 -0.9249 -0.5586 -0.7573
  560TIP3    H2 1687   5.583   3.101   2.372  0.7407 -1.0761  0.6671
  561TIP3   OH2 1688   2.469   5.921   2.435 -0.3883 -0.1898  0.2957
  561TIP3    H1 1689   2.472   5.931   2.340  0.3461 -0.2444  0.3091
  561TIP3    H2 1690   2.541   5.861   2.456  0.8167  1.4465  1.0769
  562TIP3   OH2 1691   1.139   5.640   2.512  0.6490 -0.2123  0.1033
  562TIP3    H1 1692   1.208   5.600   2.565  0.1029 -0.3763  0.6966
  562TIP3    H2 1693   1.063   5.645   2.570  0.0322 -0.4097 -0.6656
  563TIP3   OH2 1694   1.372   1.320   3.140  0.5752  0.0101 -0.3742
  563TIP3    H1 1695   1.359   1.236   3.096 -1.1506 -0.0379  0.1253
  563TIP3    H2 1696   1.295   1.372   3.116  1.2183  1.1651 -0.0418
  564TIP3   OH2 1697   1.966   3.908   3.253  0.0299  0.0917  0.0126
  564TIP3    H1 1698   1.975   3.848   3.328 -0.6730  0.2781  0.2488
  564TIP3    H2 1699   2.022   3.983   3.276  0.4323 -0.1990 -0.0081
  565TIP3   OH2 1700   2.424   1.438   0.186 -0.1946  0.4190  0.3935
  565TIP3    H1 1701   2.424   1.365   0.124  0.2989  0.4237  0.3835
  565TIP3    H2 1702   2.333   1.448   0.212 -0.4546  0.5953 -0.5491
  566TIP3   OH2 1703   1.408   4.573   0.644  0.4355  0.6336  0.4015
  566TIP3    H1 1704   1.420   4.502   0.707  3.5684  2.3548  2.0104
  566TIP3    H2 1705   1.470   4.553   0.574 -1.0557  0.1737 -0.8503
  567TIP3   OH2 1706   3.053   0.214   4.360  0.7624 -0.0873 -0.3862
  567TIP3    H1 1707   2.991   0.169   4.304  1.3166 -1.0122 -0.2696
  567TIP3    H2 1708   2.999   0.275   4.411  0.0565 -0.3485 -0.8051
  568TIP3   OH2 1709   3.605   4.602   4.975 -0.2745  0.0658  0.5637
  568TIP3    H1 1710   3.640   4.590   4.887 -0.5964  1.6302  0.1937
  568TIP3    H2 1711   3.511   4.610   4.962 -0.4233 -0.5981  1.1681
  569TIP3   OH2 1712   2.810   5.534   2.924  0.1406  0.1298  0.4895
  569TIP3    H1 1713   2.848   5.622   2.918 -1.6092  0.9353  0.6038
  569TIP3    H2 1714   2.773   5.531   3.012 -1.3201 -0.0712 -0.1146
  570TIP3   OH2 1715   2.565   2.673   3.471  0.1988 -0.3808  0.2713
  570TIP3    H1 1716   2.587   2.584   3.498  1.5557 -0.1651 -0.0558
  570TIP3    H2 1717   2.472   2.683   3.493  0.2236 -1.6124  0.9934
  571TIP3   OH2 1718   4.372   1.335   0.308  0.1133 -0.7986  0.2718
  571TIP3    H1 1719   4.356   1.425   0.336 -1.3837 -0.8240 -0.3592
  571TIP3    H2 1720   4.466   1.330   0.292  0.1801  0.7153  0.0888
  572TIP3   OH2 1721   1.421   0.532   5.156 -1.3195  0.2044 -0.0416
  572TIP3    H1 1722   1.451   0.441   5.155  0.8191  0.7928  2.0364
  572TIP3    H2 1723   1.492   0.582   5.117 -0.6522  1.3429  2.4185
  573TIP3   OH2 1724   4.973   4.907   3.376  0.5044  0.3165 -0.0145
  573TIP3    H1 1725   4.980   4.968   3.302 -2.3605 -0.0275 -0.6998
  573TIP3    H2 1726   4.914   4.951   3.437 -2.6114 -2.0892 -1.0523
  574TIP3   OH2 1727   0.242   5.027   3.904  0.5230 -0.7422 -0.4761
  574TIP3    H1 1728   0.321   5.073   3.932  0.7765 -1.2219 -0.3996
  574TIP3    H2 1729   0.174   5.095   3.903  0.6628 -0.5700  0.6279
  575TIP3   OH2 1730   1.325   0.535   4.825 -0.3917  0.0410 -0.2275
  575TIP3    H1 1731   1.229   0.531   4.826 -0.4367  0.9172  0.1956
  575TIP3    H2 1732   1.353   0.456   4.871 -0.9596  0.5046  0.9741
  576TIP3   OH2 1733   4.719   4.898   1.658 -0.3660 -0.4957  0.2190
  576TIP3    H1 1734   4.657   4.964   1.688  2.5846  1.5824  2.2199
  576TIP3    H2 1735   4.705   4.823   1.717  0.7258  0.9722  2.4589
  577TIP3   OH2 1736   4.396   1.355   3.389  0.0064  0.0465  0.1609
  577TIP3    H1 1737   4.336   1.366   3.463  2.3826  2.6003  1.8986
  577TIP3    H2 1738   4.394   1.439   3.344 -0.6127 -1.1378 -2.1786
  578TIP3   OH2 1739   0.568   2.149   2.390  0.3543 -0.1306  0.2716
  578TIP3    H1 1740   0.650   2.105   2.365  0.7064  1.5230 -1.7060
  578TIP3    H2 1741   0.585   2.242   2.377 -1.5957  0.3266  0.6266
  579TIP3   OH2 1742   6.231   4.989   2.609 -0.3621  0.2637 -0.3435
  579TIP3    H1 1743   6.258   5.048   2.539  1.6327 -1.9143 -1.5467
  579TIP3    H2 1744   6.176   4.923   2.566  0.4988 -0.8262  0.1605
  580TIP3   OH2 1745   5.265   0.134   4.125 -0.3700  0.3913 -0.3019
  580TIP3    H1 1746   5.194   0.100   4.070 -0.3791  0.3508 -0.2643
  580TIP3    H2 1747   5.230   0.132   4.214  0.1216 -0.7986 -0.1284
  581TIP3   OH2 1748   2.473   0.301   1.477  0.1490 -0.4697  0.3072
  581TIP3    H1 1749   2.422   0.339   1.548  0.5449  0.3561  0.1702
  581TIP3    H2 1750   2.542   0.250   1.520  0.0802 -0.3919  0.5083
  582TIP3   OH2 1751   4.954   3.300   2.211  0.3516  0.1056  0.0902
  582TIP3    H1 1752   4.997   3.262   2.135 -0.1399  2.8052 -1.6987
  582TIP3    H2 1753   5.013   3.370   2.239 -0.5325  0.5918  0.7763
  583TIP3   OH2 1754   5.781   0.655   5.161  0.5326  0.3397  0.3292
  583TIP3    H1 1755   5.730   0.694   5.232 -0.2012  1.6461 -0.8484
  583TIP3    H2 1756   5.718   0.599   5.114  0.7857  0.1475  0.2135
  584TIP3   OH2 1757   0.329   5.186   4.220  0.1702  0.1222  0.0675
  584TIP3    H1 1758   0.329   5.272   4.263 -0.4335  0.8563 -1.3531
  584TIP3    H2 1759   0.243   5.150   4.241 -0.4397  0.8188 -1.1160
  585TIP3   OH2 1760   5.613   0.216   0.230  0.5058  0.3302  0.2968
  585TIP3    H1 1761   5.637   0.284   0.293  0.6244 -0.5624  1.2499
  585TIP3    H2 1762   5.667   0.234   0.154 -0.5642  2.2040 -0.0800
  586TIP3   OH2 1763   4.729   5.511   4.997 -0.0525 -0.2965 -0.1073
  586TIP3    H1 1764   4.724   5.440   5.061 -1.1895  1.1513  1.4791
  586TIP3    H2 1765   4.725   5.466   4.912  0.4256 -2.1934  0.8168
  587TIP3   OH2 1766   6.272   5.130   0.368  0.0148  0.2435  0.2439
  587TIP3    H1 1767   6.334   5.168   0.432  0.6398 -2.1799  1.2128
  587TIP3    H2 1768   6.221   5.067   0.419 -0.4979 -0.6999 -1.3600
  588TIP3   OH2 1769   5.741   4.509   3.980  0.1298  0.0472  0.2826
  588TIP3    H1 1770   5.720   4.600   3.962  0.2507 -0.1074 -0.7124
  588TIP3    H2 1771   5.664   4.475   4.026  0.4030  0.8366  1.3788
  589TIP3   OH2 1772   4.352   1.159   1.584  0.8067 -0.6033 -0.0389
  589TIP3    H1 1773   4.307   1.140   1.666  0.5792 -0.3926 -0.1153
  589TIP3    H2 1774   4.321   1.246   1.559  2.5307  0.2985  0.7822
  590TIP3   OH2 1775   0.887   2.952   2.550  0.2077  0.9837  0.1498
  590TIP3    H1 1776   0.896   2.909   2.635 -0.7721 -2.0684 -1.1581
  590TIP3    H2 1777   0.945   2.903   2.492 -2.1448  0.2594 -1.7837
  591TIP3   OH2 1778   4.005   4.201   4.395  0.2917  0.0278 -0.3348
  591TIP3    H1 1779   4.018   4.243   4.310  0.6570 -1.1189 -0.8536
  591TIP3    H2 1780   4.030   4.110   4.382  1.9979  0.1801  1.4271
  592TIP3   OH2 1781   5.532   2.780   0.346 -0.5913 -0.0383  0.1193
  592TIP3    H1 1782   5.540   2.869   0.311  1.0607 -0.9613 -2.1474
  592TIP3    H2 1783   5.456   2.783   0.404 -1.6014  2.4331 -1.1874
  593TIP3   OH2 1784   4.429   4.190   0.584 -0.0086 -0.0358  0.1998
  593TIP3    H1 1785   4.350   4.199   0.636  0.1471 -1.2414  0.6775
  593TIP3    H2 1786   4.501   4.188   0.647  0.1321 -2.1875  0.0671
  594TIP3   OH2 1787   2.959   5.044   2.956 -0.3993  0.0363  0.2130
  594TIP3    H1 1788   2.931   5.070   3.044 -0.0090 -1.0095  0.6647
  594TIP3    H2 1789   2.969   5.126   2.908  0.8403  0.7370  1.5950
  595TIP3   OH2 1790   6.259   4.888   4.153  0.6973  0.4901  0.0786
  595TIP3    H1 1791   6.217   4.816   4.200  0.8212 -0.2302 -0.8822
  595TIP3    H2 1792   6.194   4.958   4.152 -0.3327 -0.4492 -0.9866
  596TIP3   OH2 1793   6.170   0.576   1.169 -0.7927 -0.5473  0.0366
  596TIP3    H1 1794   6.108   0.598   1.238 -0.9180 -1.9098  0.3856
  596TIP3    H2 1795   6.120   0.520   1.109 -0.2818 -0.5516 -0.3982
  597TIP3   OH2 1796   4.734   2.777   1.927 -0.0745 -0.3080  0.1434
  597TIP3    H1 1797   4.747   2.748   2.017  0.0519 -0.9146 -0.0644
  597TIP3    H2 1798   4.783   2.859   1.921  0.7635 -0.7814  0.3494
  598TIP3   OH2 1799   0.363   0.783   3.781  0.0402  0.2388 -0.2277
  598TIP3    H1 1800   0.359   0.702   3.831 -1.2122 -0.9780 -2.1688
  598TIP3    H2 1801   0.456   0.794   3.760 -0.0264 -2.5344 -2.6014
  599TIP3   OH2 1802   2.052   2.057   4.017 -0.3794 -0.2283  0.4580
  599TIP3    H1 1803   2.044   1.995   4.089 -0.5651 -0.2934  0.3816
  599TIP3    H2 1804   2.060   2.002   3.939  0.1642 -0.1625  0.4599
  600TIP3   OH2 1805   0.367   2.809   3.122 -0.2845 -0.1717  0.2004
  600TIP3    H1 1806   0.304   2.755   3.075  0.7283  0.4298 -1.9539
  600TIP3    H2 1807   0.323   2.831   3.205 -1.3135 -2.9960  0.5138
  601TIP3   OH2 1808   3.409   5.184   4.652 -0.4693  0.1514  0.3003
  601TIP3    H1 1809   3.367   5.181   4.567 -0.8358  0.1501  0.4818
  601TIP3    H2 1810   3.337   5.185   4.715 -0.3243  3.6073  0.5619
  602TIP3   OH2 1811   5.877   2.892   1.502 -0.0015  0.0786  0.5547
  602TIP3    H1 1812   5.827   2.967   1.470  1.3227  0.7054 -0.1183
  602TIP3    H2 1813   5.913   2.851   1.423  0.6265 -0.3001  1.0236
  603TIP3   OH2 1814   0.051   1.030   4.505  0.7057  0.0031  1.2127
  603TIP3    H1 1815   0.096   1.055   4.425  1.8321  0.8725  2.0806
  603TIP3    H2 1816   0.039   1.112   4.553 -2.0617 -0.1415  0.9327
  604TIP3   OH2 1817   4.889   1.770   1.594 -0.6024  0.3463 -0.1681
  604TIP3    H1 1818   4.831   1.729   1.659 -1.2325  0.1612 -0.8321
  604TIP3    H2 1819   4.962   1.803   1.645 -0.6887 -0.5172  0.5396
  605TIP3   OH2 1820   0.709   4.996   2.990 -0.2589 -0.7813  0.3030
  605TIP3    H1 1821   0.774   4.943   3.037  0.1357 -1.8329 -1.3333
  605TIP3    H2 1822   0.760   5.065   2.948 -0.0452 -1.9448 -1.4591
  606TIP3   OH2 1823   4.665   5.825   3.603  0.2155 -0.1545  0.4326
  606TIP3    H1 1824   4.612   5.764   3.553 -0.0691  1.6581 -1.6402
  606TIP3    H2 1825   4.706   5.881   3.537  1.3021  1.2067  2.1693
  607TIP3   OH2 1826   3.321   1.415   3.549  0.5610 -0.1151  0.4492
  607TIP3    H1 1827   3.273   1.475   3.606  0.6267 -1.3360  1.8226
  607TIP3    H2 1828   3.324   1.333   3.597  2.1431 -0.6873 -0.5557
  608TIP3   OH2 1829   3.106   1.557   2.180 -0.2264 -0.0440 -0.3542
  608TIP3    H1 1830   3.122   1.589   2.269 -1.3414  0.3271 -0.2713
  608TIP3    H2 1831   3.021   1.514   2.185 -0.1338 -0.3303 -1.1634
  609TIP3   OH2 1832   2.474   0.044   4.475 -0.0029  0.1559  0.3385
  609TIP3    H1 1833   2.408   0.023   4.541 -0.4010 -0.0324 -0.1148
  609TIP3    H2 1834   2.424   0.057   4.394  0.1275  3.2924  0.6436
  610TIP3   OH2 1835   5.698   5.439   2.223  0.4400 -0.7339 -0.2491
  610TIP3    H1 1836   5.607   5.413   2.229  0.3875 -0.2071  1.5934
  610TIP3    H2 1837   5.695   5.535   2.212  0.7825 -0.6868  0.0691
  611TIP3   OH2 1838   4.250   2.420   2.407  0.5108 -0.4094 -1.0841
  611TIP3    H1 1839   4.203   2.395   2.487  1.8393  1.3846  0.3528
  611TIP3    H2 1840   4.264   2.337   2.361  0.6698 -1.6879  1.0969
  612TIP3   OH2 1841   5.690   2.906   4.418 -0.5222 -0.4670  0.3040
  612TIP3    H1 1842   5.646   2.837   4.368  1.0959 -1.3330 -0.0276
  612TIP3    H2 1843   5.725   2.965   4.352  0.4617 -0.8695  0.4469
  613TIP3   OH2 1844   3.988   5.686   2.043 -0.3845  0.1128 -0.3424
  613TIP3    H1 1845   4.070   5.637   2.044  0.5784  1.6695 -0.2915
  613TIP3    H2 1846   3.945   5.659   1.962  0.5052 -0.2079 -0.7174
  614TIP3   OH2 1847   5.852   2.594   3.072 -0.2942 -0.1199 -0.1826
  614TIP3    H1 1848   5.869   2.524   3.136  0.1714  0.5995  0.4925
  614TIP3    H2 1849   5.831   2.671   3.125 -0.3808  0.3697 -0.9104
  615TIP3   OH2 1850   5.312   3.118   1.300  0.1612 -0.3846 -0.5075
  615TIP3    H1 1851   5.363   3.196   1.274 -0.4863  0.4177  0.5531
  615TIP3    H2 1852   5.257   3.100   1.224 -0.8957  1.2468 -0.1959
  616TIP3   OH2 1853   5.135   3.282   4.338  0.0408  0.1519  0.6035
  616TIP3    H1 1854   5.116   3.356   4.281 -0.3895  0.5411  1.2373
  616TIP3    H2 1855   5.133   3.318   4.426 -1.3905 -0.8479  1.0209
  617TIP3   OH2 1856   1.958   5.087   1.583  0.5844  0.1054 -0.0445
  617TIP3    H1 1857   1.879   5.110   1.535 -0.2239 -1.7759  0.2966
  617TIP3    H2 1858   1.948   5.130   1.668 -0.6766 -1.0585  0.4327
  618TIP3   OH2 1859   6.275   0.145   1.993 -0.2269 -0.1111 -0.4403
  618TIP3    H1 1860   6.221   0.072   2.023  0.4998  0.0430  1.3729
  618TIP3    H2 1861   6.347   0.150   2.056  1.2629  0.4505 -2.1042
  619TIP3   OH2 1862   0.813   5.056   4.459  0.9771  0.2925 -0.3008
  619TIP3    H1 1863   0.759   5.098   4.392 -0.3311 -1.5372 -0.4733
  619TIP3    H2 1864   0.750   5.031   4.528  1.3512 -2.6515 -0.8872
  620TIP3   OH2 1865   5.345   2.114   5.065 -0.0231 -0.2544  0.0910
  620TIP3    H1 1866   5.288   2.059   5.012  0.2026 -0.6725  0.2773
  620TIP3    H2 1867   5.334   2.202   5.028 -0.1701 -0.4695 -0.3949
  621TIP3   OH2 1868   0.378   3.347   1.024 -0.0342  0.1961 -0.5688
  621TIP3    H1 1869   0.372   3.356   1.119  0.9433 -0.4182 -0.4382
  621TIP3    H2 1870   0.310   3.406   0.991 -1.7542 -1.0392  0.5561
  622TIP3   OH2 1871   2.560   3.652   2.631  0.0031  0.2761  0.5572
  622TIP3    H1 1872   2.590   3.660   2.541 -1.6509 -1.1430 -0.1881
  622TIP3    H2 1873   2.477   3.701   2.633 -0.2740 -0.1972  1.1320
  623TIP3   OH2 1874   3.323   0.193   2.482  0.0320 -0.0525 -0.5871
  623TIP3    H1 1875   3.313   0.131   2.409  0.0039 -1.5108  0.6096
  623TIP3    H2 1876   3.236   0.230   2.494  0.2606  1.0262 -1.9579
  624TIP3   OH2 1877   2.544   3.381   1.238 -0.3920  0.0230  0.6075
  624TIP3    H1 1878   2.479   3.337   1.292 -1.7056  0.6212 -0.4304
  624TIP3    H2 1879   2.619   3.323   1.239 -1.7841 -1.8743 -0.0789
  625TIP3   OH2 1880   1.844   1.171   1.171 -0.5544 -0.3686  0.7256
  625TIP3    H1 1881   1.892   1.220   1.238  1.9174 -1.4335 -0.1282
  625TIP3    H2 1882   1.784   1.115   1.220  0.2592 -0.1781  1.9935
  626TIP3   OH2 1883   4.412   1.985   3.961 -0.5960 -0.3007  0.5098
  626TIP3    H1 1884   4.493   1.934   3.966  0.9204  1.8983 -0.4454
  626TIP3    H2 1885   4.396   2.012   4.052  1.8387  2.1999  0.3433
  627TIP3   OH2 1886   0.997   4.236   0.513 -0.1546  0.2736  0.0273
  627TIP3    H1 1887   0.993   4.328   0.487 -0.0693  0.3817  0.3901
  627TIP3    H2 1888   0.913   4.219   0.555  0.1087  0.3900  0.6141
  628TIP3   OH2 1889   6.153   5.651   1.766 -0.2915 -0.3356  0.6105
  628TIP3    H1 1890   6.123   5.715   1.701 -1.1607 -0.8141  0.5303
  628TIP3    H2 1891   6.084   5.650   1.833  0.3785 -0.1858  1.3163
  629TIP3   OH2 1892   5.285  -0.009   2.242  0.1704  0.0319 -0.5105
  629TIP3    H1 1893   5.233   0.021   2.167 -1.0197 -1.5875 -0.3964
  629TIP3    H2 1894   5.306   0.071   2.291 -1.3836  0.8487 -1.1182
  630TIP3   OH2 1895   4.195   1.923   2.164  0.4899 -0.0143  0.4506
  630TIP3    H1 1896   4.207   1.832   2.192  0.1479 -0.2875 -0.2505
  630TIP3    H2 1897   4.142   1.916   2.085  1.3361  0.7295 -0.2011
  631TIP3   OH2 1898   4.043   0.148   3.361  0.7592 -0.2581 -0.6571
  631TIP3    H1 1899   4.067   0.060   3.387  0.0763  0.1235  1.5235
  631TIP3    H2 1900   4.104   0.205   3.408  0.8846  0.4426 -1.6446
  632TIP3   OH2 1901   3.631   4.170   4.627  0.2847 -0.1349  0.0951
  632TIP3    H1 1902   3.710   4.223   4.636  0.0586  0.3231 -0.5348
  632TIP3    H2 1903   3.563   4.223   4.669  0.8551 -1.9748  3.7546
  633TIP3   OH2 1904   3.901   0.707   1.812 -0.2806 -0.3093 -0.2249
  633TIP3    H1 1905   3.983   0.657   1.805  0.2722  0.7417 -1.9562
  633TIP3    H2 1906   3.928   0.793   1.844 -0.9428 -0.4510  0.7305
  634TIP3   OH2 1907   1.278   0.370   4.408  0.0653  0.0123  0.4722
  634TIP3    H1 1908   1.202   0.426   4.422  0.9793  1.7479 -1.0950
  634TIP3    H2 1909   1.248   0.301   4.349  0.0649  1.7024 -1.6089
  635TIP3   OH2 1910   3.572   4.877   1.229 -0.0323  0.1697  0.0818
  635TIP3    H1 1911   3.479   4.897   1.217 -0.1090  0.7009  1.3619
  635TIP3    H2 1912   3.617   4.934   1.167 -0.4902  1.1420  0.6143
  636TIP3   OH2 1913   0.334   2.915   0.735  0.2646  0.0847  0.0820
  636TIP3    H1 1914   0.381   2.893   0.655  0.5896 -0.0536  0.3100
  636TIP3    H2 1915   0.369   3.000   0.761  1.2508 -0.5487  0.8953
  637TIP3   OH2 1916   3.124   5.595   0.343 -0.3670 -0.4510 -0.1230
  637TIP3    H1 1917   3.217   5.583   0.325 -0.3773 -0.1869 -0.3555
  637TIP3    H2 1918   3.105   5.684   0.314 -0.0225  0.6597  2.7715
  638TIP3   OH2 1919   2.897   2.906   3.653  0.0398 -0.0414  0.5567
  638TIP3    H1 1920   2.895   2.812   3.675 -1.4472 -0.3229 -0.5828
  638TIP3    H2 1921   2.827   2.916   3.589  0.0606  1.9061  0.7995
  639TIP3   OH2 1922   4.274   5.866   5.098 -0.2610 -0.9915 -0.5440
  639TIP3    H1 1923   4.311   5.889   5.013  1.1043 -1.7701 -0.2015
  639TIP3    H2 1924   4.332   5.907   5.161 -0.8211 -1.0557  0.0215
  640TIP3   OH2 1925   5.303   4.511   2.758  0.1071 -0.3751  0.1503
  640TIP3    H1 1926   5.244   4.481   2.689 -1.7273  0.9539  1.0471
  640TIP3    H2 1927   5.389   4.511   2.718 -0.4625 -2.3824 -1.2430
  641TIP3   OH2 1928   1.514   4.679   1.565 -0.0983 -0.1813  0.2747
  641TIP3    H1 1929   1.472   4.747   1.512 -1.9280 -0.9120  0.7435
  641TIP3    H2 1930   1.465   4.678   1.647  2.3526  0.5781  1.8648
  642TIP3   OH2 1931   2.158   0.149   0.978 -0.0843  0.0877 -0.5861
  642TIP3    H1 1932   2.153   0.244   0.967  2.2498  0.3449  0.0599
  642TIP3    H2 1933   2.243   0.125   0.941 -1.4694 -2.1178 -2.6769
  643TIP3   OH2 1934   1.709   0.283   0.178 -0.0313  0.6504  0.3176
  643TIP3    H1 1935   1.665   0.365   0.159 -1.4975 -0.2101 -0.1716
  643TIP3    H2 1936   1.798   0.295   0.144 -0.6026  1.5679 -0.9521
  644TIP3   OH2 1937   5.917   0.101   1.521 -0.0983  0.3585  0.0403
  644TIP3    H1 1938   6.001   0.121   1.562 -0.3923  0.4121  0.6243
  644TIP3    H2 1939   5.935   0.025   1.467  0.2526  0.1607  0.4255
  645TIP3   OH2 1940   1.064   5.579   2.082 -0.6715 -0.1982  0.0255
  645TIP3    H1 1941   1.068   5.548   1.991 -0.8791  0.2290 -0.1313
  645TIP3    H2 1942   0.994   5.644   2.082 -0.4742  0.0180  0.4256
  646TIP3   OH2 1943   6.027   5.763   0.632  0.4190 -0.1652  0.2415
  646TIP3    H1 1944   5.952   5.717   0.669  1.1732 -0.2937  1.6726
  646TIP3    H2 1945   5.995   5.797   0.548 -1.9304  1.6337  1.7085
  647TIP3   OH2 1946   6.292   0.095   3.537 -0.7654  0.0860  0.0252
  647TIP3    H1 1947   6.292   0.188   3.560 -0.5022 -0.0103  0.4335
  647TIP3    H2 1948   6.377   0.063   3.567 -0.2596  0.0140 -1.3931
  648TIP3   OH2 1949   3.363   3.252   2.926 -0.3327 -0.2158 -0.2790
  648TIP3    H1 1950   3.328   3.253   2.837  0.3341 -0.2106 -0.5470
  648TIP3    H2 1951   3.398   3.340   2.939  1.9477 -0.9329 -1.0029
  649TIP3   OH2 1952   5.407   0.059   0.104 -0.2968  0.7201  0.2562
  649TIP3    H1 1953   5.450   0.028   0.024 -1.4537  0.6399 -0.3623
  649TIP3    H2 1954   5.478   0.092   0.158  0.5050  0.9902 -0.9106
  650TIP3   OH2 1955   0.977   1.316   0.244  0.2468  0.2038  0.3675
  650TIP3    H1 1956   0.980   1.329   0.339  0.1905  2.6429  0.1094
  650TIP3    H2 1957   1.047   1.372   0.210  0.8882 -1.3408 -1.0168
  651TIP3   OH2 1958   1.282   2.085   2.068 -0.4735  0.1578  0.0063
  651TIP3    H1 1959   1.289   2.168   2.115 -1.2789 -0.2989  0.9870
  651TIP3    H2 1960   1.369   2.071   2.030 -0.7016  2.1648 -1.4782
  652TIP3   OH2 1961   0.501   0.746   0.866  0.4574 -0.0222 -0.0984
  652TIP3    H1 1962   0.490   0.671   0.924 -0.3188 -0.6465 -1.0176
  652TIP3    H2 1963   0.594   0.745   0.844  0.5537 -0.4066  0.2975
  653TIP3   OH2 1964   2.522   5.736   1.372  0.2150 -0.3570  0.0233
  653TIP3    H1 1965   2.527   5.737   1.277 -1.4047 -0.8628 -0.0915
  653TIP3    H2 1966   2.597   5.684   1.399  1.2619  0.6048 -0.9002
  654TIP3   OH2 1967   2.968   5.514   4.064  0.6884 -0.1806  0.2269
  654TIP3    H1 1968   2.951   5.440   4.123  1.6827 -0.4331  0.2123
  654TIP3    H2 1969   3.057   5.542   4.086 -0.0354  1.6790  0.9426
  655TIP3   OH2 1970   4.629   3.308   0.330 -0.7973  0.2579  0.5923
  655TIP3    H1 1971   4.662   3.371   0.266 -0.4494 -1.5091 -1.0533
  655TIP3    H2 1972   4.640   3.223   0.288 -2.0375 -0.8619  2.3910
  656TIP3   OH2 1973   2.040   5.051   2.356 -0.0217 -0.3695  0.2904
  656TIP3    H1 1974   2.034   5.019   2.266 -0.7417 -0.0940  0.2385
  656TIP3    H2 1975   2.125   5.095   2.359 -1.4704  2.9589 -1.3840
  657TIP3   OH2 1976   2.385   3.194   2.664  0.4167  0.5859  0.0126
  657TIP3    H1 1977   2.354   3.107   2.640  0.9749  0.6668 -1.0333
  657TIP3    H2 1978   2.334   3.254   2.609 -0.2163  0.9688  0.9672
  658TIP3   OH2 1979   4.837   5.862   4.144  0.1107 -0.1915 -0.1417
  658TIP3    H1 1980   4.920   5.866   4.098  0.9497  0.5575  1.3869
  658TIP3    H2 1981   4.771   5.853   4.074  1.3598  0.3719 -1.4273
  659TIP3   OH2 1982   2.409   5.275   3.975 -0.0662  0.1873 -0.4145
  659TIP3    H1 1983   2.315   5.255   3.970 -0.0397  0.1486 -0.8317
  659TIP3    H2 1984   2.424   5.334   3.901  0.2879 -0.0010 -0.4912
  660TIP3   OH2 1985   6.275   0.442   2.168 -0.3957 -0.3522  0.5867
  660TIP3    H1 1986   6.190   0.487   2.168  0.1834  0.8772 -1.2948
  660TIP3    H2 1987   6.278   0.397   2.083  0.6238 -0.8008  0.8450
  661TIP3   OH2 1988   3.158   4.024   4.025  0.4446  0.2551  0.3381
  661TIP3    H1 1989   3.117   4.098   3.980 -0.4331 -0.3937  0.0337
  661TIP3    H2 1990   3.084   3.973   4.059  1.0634  0.5615  2.2854
  662TIP3   OH2 1991   2.943   0.435   1.030 -0.5988 -0.0658  0.1386
  662TIP3    H1 1992   2.871   0.399   0.978  0.2196 -0.9400 -0.4220
  662TIP3    H2 1993   2.924   0.410   1.120 -1.3356  0.2987  0.0921
  663TIP3   OH2 1994   3.590   1.639   1.746 -0.0606  0.2788  0.6031
  663TIP3    H1 1995   3.607   1.731   1.764 -1.9672  0.8736 -0.4618
  663TIP3    H2 1996   3.499   1.625   1.772  0.0386 -1.1865  0.2779
  664TIP3   OH2 1997   2.297   3.001   0.097  0.1475  0.4349 -0.5256
  664TIP3    H1 1998   2.335   3.077   0.052 -1.0043  1.1363 -0.3547
  664TIP3    H2 1999   2.225   3.038   0.148  0.0967 -0.6665  0.2262
  665TIP3   OH2 2000   3.305   4.477   0.855  0.3001  0.2291  0.3065
  665TIP3    H1 2001   3.382   4.530   0.833  0.4611  0.0744  0.5012
  665TIP3    H2 2002   3.255   4.475   0.774  1.0461 -0.5986 -0.1479
  666TIP3   OH2 2003   2.685   4.745   1.522  0.0630 -0.2417 -0.0652
  666TIP3    H1 2004   2.623   4.802   1.477  0.6239  1.2683  1.0052
  666TIP3    H2 2005   2.653   4.657   1.504 -0.1995  0.2938 -2.7106
  667TIP3   OH2 2006   5.205   5.065   2.860 -0.2621  0.3892 -0.0797
  667TIP3    H1 2007   5.225   4.992   2.802  0.5301  1.2015 -0.8618
  667TIP3    H2 2008   5.281   5.073   2.917  0.5572  1.8367 -1.3225
  668TIP3   OH2 2009   2.834   1.365   3.720 -0.3194 -0.0072  0.1756
  668TIP3    H1 2010   2.777   1.307   3.770 -0.8136  0.9015  0.7066
  668TIP3    H2 2011   2.813   1.453   3.753  2.1200  0.2779  1.1231
  669TIP3   OH2 2012   0.320   2.246   2.406  0.1968  1.1944  0.3309
  669TIP3    H1 2013   0.402   2.196   2.405  0.1927  1.1812 -0.8497
  669TIP3    H2 2014   0.313   2.282   2.317 -1.3103  0.7977  0.2642
  670TIP3   OH2 2015   1.003   2.525   0.983 -0.6964 -0.2207 -0.2855
  670TIP3    H1 2016   0.973   2.434   0.978 -0.5927 -0.3175  0.7174
  670TIP3    H2 2017   1.002   2.546   1.076  0.2719  0.4793 -0.4165
  671TIP3   OH2 2018   2.035   5.866   0.639  0.3040 -0.5726  0.5785
  671TIP3    H1 2019   2.013   5.788   0.589  1.5990  0.8329 -2.4877
  671TIP3    H2 2020   1.983   5.936   0.599  1.9933  0.7697  0.6065
  672TIP3   OH2 2021   0.375   2.764   4.234  0.1550 -0.1497 -0.1167
  672TIP3    H1 2022   0.405   2.676   4.207 -0.6385 -0.4789  0.0527
  672TIP3    H2 2023   0.306   2.785   4.171  0.2856  0.3280 -0.1015
  673TIP3   OH2 2024   0.275   2.695   1.199  0.0513 -0.2112  0.1153
  673TIP3    H1 2025   0.332   2.710   1.123 -0.7677 -3.1319 -1.2288
  673TIP3    H2 2026   0.307   2.613   1.237 -0.8785  0.1179  1.7058
  674TIP3   OH2 2027   5.694   1.904   2.697 -0.0538 -0.5141  0.2282
  674TIP3    H1 2028   5.734   1.975   2.747 -1.5984 -0.6600  1.7433
  674TIP3    H2 2029   5.642   1.948   2.629 -1.7239 -0.0800  1.7063
  675TIP3   OH2 2030   3.007   1.122   1.219 -0.1038 -0.2849  0.1543
  675TIP3    H1 2031   2.988   1.068   1.142 -1.7607 -0.5437  0.6992
  675TIP3    H2 2032   3.102   1.121   1.226  0.0666 -0.6824 -1.5848
  676TIP3   OH2 2033   3.192   1.506   3.833  0.2259 -0.2825  0.2702
  676TIP3    H1 2034   3.205   1.600   3.819 -1.3686  0.1136  1.2260
  676TIP3    H2 2035   3.099   1.491   3.813  0.3127 -1.5418  0.6993
  677TIP3   OH2 2036   4.267   4.663   0.281 -0.0174  0.4305  0.2911
  677TIP3    H1 2037   4.264   4.746   0.233 -1.1867  1.0633  1.3741
  677TIP3    H2 2038   4.175   4.635   0.285  0.2971 -0.5926  0.4865
  678TIP3   OH2 2039   5.229   3.757   2.449 -0.2739 -0.2211 -0.2858
  678TIP3    H1 2040   5.204   3.671   2.416 -1.4113  0.4754 -1.3511
  678TIP3    H2 2041   5.148   3.792   2.487  0.0432  0.5666 -0.3205
  679TIP3   OH2 2042   4.945   3.106   1.523  0.1748  0.1107  0.4885
  679TIP3    H1 2043   4.937   3.130   1.430  1.2349  0.1150  0.3769
  679TIP3    H2 2044   4.971   3.014   1.521  1.9524  0.5621  0.6866
  680TIP3   OH2 2045   5.717   5.637   0.446 -1.0188  0.7428  0.0884
  680TIP3    H1 2046   5.634   5.592   0.430 -0.5981  0.0598 -0.1924
  680TIP3    H2 2047   5.691   5.722   0.482 -1.8230  0.3093  0.5609
  681TIP3   OH2 2048   1.452   0.127   2.915  0.3233 -0.0438 -0.5358
  681TIP3    H1 2049   1.416   0.215   2.910 -0.0494 -0.1374  0.3770
  681TIP3    H2 2050   1.390   0.078   2.969  0.5714 -0.8453 -0.9499
  682TIP3   OH2 2051   2.870   4.231   0.212 -0.4675  0.0617 -0.1469
  682TIP3    H1 2052   2.828   4.298   0.265 -2.0456 -1.7668  1.0650
  682TIP3    H2 2053   2.807   4.212   0.142  0.3111  0.3756 -0.9502
  683TIP3   OH2 2054   3.460   5.026   2.345 -0.0008 -0.0686 -0.0504
  683TIP3    H1 2055   3.466   5.039   2.250  0.8040 -0.2318 -0.0305
  683TIP3    H2 2056   3.537   5.072   2.380  0.0134 -0.4880  0.4689
  684TIP3   OH2 2057   2.489   4.052   2.163  0.3623  0.0123 -0.1584
  684TIP3    H1 2058   2.425   4.011   2.105  0.7341  0.8352 -1.1776
  684TIP3    H2 2059   2.441   4.065   2.245 -0.3211 -0.7198 -0.4288
  685TIP3   OH2 2060   5.550   1.396   3.667 -0.5901  0.1343 -0.5326
  685TIP3    H1 2061   5.514   1.323   3.616  0.8121  0.1008 -1.5235
  685TIP3    H2 2062   5.552   1.364   3.757  1.7930 -1.8432 -1.1813
  686TIP3   OH2 2063   1.550   0.475   0.069  0.4689 -0.1523 -0.1034
  686TIP3    H1 2064   1.462   0.442   0.047 -0.1698 -0.1726  2.2150
  686TIP3    H2 2065   1.533   0.560   0.110  1.2666 -1.1839  2.5444
  687TIP3   OH2 2066   5.186   3.845   2.026 -0.2597  0.4082 -0.0509
  687TIP3    H1 2067   5.270   3.806   2.048  0.3647  0.8651 -1.5229
  687TIP3    H2 2068   5.206   3.935   2.002 -0.4873 -0.4262 -4.2170
  688TIP3   OH2 2069   0.389   0.538   3.915 -0.8852 -0.2898 -0.2012
  688TIP3    H1 2070   0.410   0.460   3.864 -0.6090 -0.1041 -0.3703
  688TIP3    H2 2071   0.322   0.508   3.978 -1.0119 -0.5854 -0.4746
  689TIP3   OH2 2072   5.132   3.044   4.117  0.4881  0.2449  0.3217
  689TIP3    H1 2073   5.111   3.092   4.197 -3.2633 -0.1857 -0.2297
  689TIP3    H2 2074   5.143   2.953   4.146  1.1964  0.4033  0.5700
  690TIP3   OH2 2075   5.235   3.867   3.701  0.3634 -0.1272 -0.2097
  690TIP3    H1 2076   5.319   3.913   3.704  0.2834  0.0103  2.9359
  690TIP3    H2 2077   5.172   3.935   3.677  1.0098 -0.1266 -2.0911
  691TIP3   OH2 2078   5.159   3.089   1.075  0.3345  0.2685 -0.1719
  691TIP3    H1 2079   5.154   3.046   0.989 -0.6470  0.8866 -0.4435
  691TIP3    H2 2080   5.110   3.170   1.064 -0.7072 -0.1183  1.2583
  692TIP3   OH2 2081   1.902   2.820   2.904 -0.5796  0.1128 -0.0169
  692TIP3    H1 2082   1.982   2.786   2.945 -1.6638 -4.3398 -1.1578
  692TIP3    H2 2083   1.859   2.869   2.974  1.0432 -1.1095  1.9657
  693TIP3   OH2 2084   3.642   0.332   3.286 -0.3936  0.2743 -0.0853
  693TIP3    H1 2085   3.578   0.400   3.268  0.0297  0.9095  0.7566
  693TIP3    H2 2086   3.711   0.376   3.336  0.0316 -0.7055  0.2131
  694TIP3   OH2 2087   2.799   4.346   4.026 -0.3999  0.2432 -0.0883
  694TIP3    H1 2088   2.827   4.334   4.117 -0.7322 -1.2111 -0.1451
  694TIP3    H2 2089   2.713   4.388   4.033 -1.7752 -2.4261  0.4655
  695TIP3   OH2 2090   3.587   1.533   0.117 -0.1613  0.0238  0.3143
  695TIP3    H1 2091   3.577   1.484   0.036  1.6869 -0.1188  0.1407
  695TIP3    H2 2092   3.535   1.612   0.104 -0.2485 -0.2031 -0.8230
  696TIP3   OH2 2093   5.036   0.519   1.289  0.1585 -0.5954 -0.2792
  696TIP3    H1 2094   4.993   0.566   1.360  0.2740 -0.1889 -0.4749
  696TIP3    H2 2095   4.989   0.548   1.210  0.6215 -0.3433 -0.4668
  697TIP3   OH2 2096   5.387   1.664   4.214  1.2849 -0.3742 -0.1370
  697TIP3    H1 2097   5.354   1.707   4.136 -1.0846 -1.4754  0.1548
  697TIP3    H2 2098   5.345   1.577   4.212  1.4655 -0.5664  2.1185
  698TIP3   OH2 2099   0.361   3.285   1.579 -0.2536  0.3714 -0.3729
  698TIP3    H1 2100   0.412   3.212   1.544  1.5269  0.2522  2.1752
  698TIP3    H2 2101   0.289   3.245   1.625 -1.3270  0.4452 -1.9027
  699TIP3   OH2 2102   2.022   3.787   4.541 -0.1726 -0.1773  0.2168
  699TIP3    H1 2103   2.062   3.702   4.563  0.4914  0.5094  1.7967
  699TIP3    H2 2104   2.045   3.801   4.450  0.4558 -1.3016  0.1821
  700TIP3   OH2 2105   0.520   0.111   1.609  0.2614  0.1223  0.1955
  700TIP3    H1 2106   0.438   0.106   1.658  0.1520 -0.2860 -0.0277
  700TIP3    H2 2107   0.517   0.197   1.566  0.2922  0.4204  0.7802
  701TIP3   OH2 2108   4.852   5.016   0.978 -1.0294 -0.0924 -0.2196
  701TIP3    H1 2109   4.846   5.020   1.073 -3.9489  1.3917 -0.3602
  701TIP3    H2 2110   4.791   4.946   0.953 -1.6080  0.6774 -1.0413
  702TIP3   OH2 2111   2.632   5.160   2.305  0.6563 -0.3249  0.6051
  702TIP3    H1 2112   2.686   5.083   2.287 -0.0760 -0.6012 -0.5117
  702TIP3    H2 2113   2.693   5.224   2.342  2.1979  0.0143 -2.2257
  703TIP3   OH2 2114   5.251   5.309   3.182  0.0352  0.1389 -0.2537
  703TIP3    H1 2115   5.245   5.306   3.277  0.3278  0.2543 -0.2316
  703TIP3    H2 2116   5.169   5.269   3.152 -0.3985  0.7762  0.0458
  704TIP3   OH2 2117   5.663   5.225   0.706 -0.0826  0.1230 -0.1020
  704TIP3    H1 2118   5.683   5.238   0.799 -0.6159  0.6498 -0.0610
  704TIP3    H2 2119   5.724   5.282   0.660  0.2086 -0.1675 -0.0847
  705TIP3   OH2 2120   4.117   3.253   1.539 -0.1967 -0.3108  0.1138
  705TIP3    H1 2121   4.200   3.206   1.530 -0.3666 -0.8088  1.0307
  705TIP3    H2 2122   4.095   3.245   1.632  0.0897  2.1441  0.4572
  706TIP3   OH2 2123   5.557   0.212   1.369 -0.0220 -0.3187 -0.2098
  706TIP3    H1 2124   5.619   0.162   1.317  1.3428 -0.0729  1.0975
  706TIP3    H2 2125   5.474   0.164   1.361 -0.0607  0.0611 -3.0355
  707TIP3   OH2 2126   6.284   0.041   4.106  0.7334 -0.1672 -0.1084
  707TIP3    H1 2127   6.281  -0.052   4.128  1.6417 -0.3563 -0.7523
  707TIP3    H2 2128   6.353   0.077   4.162  0.8550 -0.0212 -0.3500
  708TIP3   OH2 2129   5.544   2.027   3.059  0.1815 -0.0687 -0.2253
  708TIP3    H1 2130   5.523   2.106   3.108  0.0188 -1.2352  1.7135
  708TIP3    H2 2131   5.639   2.021   3.064  0.2296  0.2145 -0.7429
  709TIP3   OH2 2132   0.219   4.676   1.105 -0.3127 -0.1783  0.6985
  709TIP3    H1 2133   0.307   4.674   1.143 -0.7978 -0.7681  1.8541
  709TIP3    H2 2134   0.224   4.740   1.034  1.0225 -0.1554  0.7969
  710TIP3   OH2 2135   3.931   2.898   2.348 -0.0204  0.0163 -0.2827
  710TIP3    H1 2136   3.991   2.828   2.325 -1.2806 -0.8740 -0.9718
  710TIP3    H2 2137   3.943   2.964   2.279 -0.1970 -0.3882 -0.7026
  711TIP3   OH2 2138   3.714   0.886   4.158  0.1386  0.8693  0.4483
  711TIP3    H1 2139   3.665   0.842   4.088  0.5308  2.9105 -1.1772
  711TIP3    H2 2140   3.652   0.949   4.194  0.2295  0.4371  1.3967
  712TIP3   OH2 2141   1.404   4.090   0.291 -0.7099  0.0261  0.7106
  712TIP3    H1 2142   1.376   4.130   0.209 -0.6338  0.9057  1.0984
  712TIP3    H2 2143   1.326   4.047   0.326 -0.6987 -0.5076  0.1022
  713TIP3   OH2 2144   3.858   2.887   5.155 -0.0451  0.2783  0.2679
  713TIP3    H1 2145   3.797   2.835   5.207  1.9799  0.1341  2.6631
  713TIP3    H2 2146   3.880   2.831   5.080 -2.3056  0.1102 -0.3302
  714TIP3   OH2 2147   5.307   2.327   4.334 -0.5674  0.9451  0.9695
  714TIP3    H1 2148   5.293   2.348   4.427  1.6261  1.0604  1.3357
  714TIP3    H2 2149   5.297   2.411   4.290 -0.1102  1.1813  1.3088
  715TIP3   OH2 2150   4.784   4.240   4.390 -0.0055 -0.0212 -0.3706
  715TIP3    H1 2151   4.827   4.155   4.404  0.4142  0.0813 -1.0402
  715TIP3    H2 2152   4.854   4.304   4.397 -0.5011  0.3873  1.2725
  716TIP3   OH2 2153   2.755   0.692   1.166 -0.2510 -0.0541  0.2570
  716TIP3    H1 2154   2.800   0.610   1.184 -1.3406 -0.7276  0.0064
  716TIP3    H2 2155   2.727   0.685   1.075  0.3980  0.9726 -0.0336
  717TIP3   OH2 2156   3.495   0.768   2.098 -0.1120  0.1228  0.5697
  717TIP3    H1 2157   3.467   0.820   2.023  0.5451  0.2690  0.4218
  717TIP3    H2 2158   3.492   0.678   2.068  0.6921  0.2200  0.1873
  718TIP3   OH2 2159   6.234   2.153   0.389  0.4281 -0.8274  0.1866
  718TIP3    H1 2160   6.283   2.234   0.406  0.5668 -0.5943 -1.2057
  718TIP3    H2 2161   6.300   2.092   0.358 -0.1096 -0.5183 -1.6872
  719TIP3   OH2 2162   1.001   0.590   2.080  0.4552 -0.3555 -0.4960
  719TIP3    H1 2163   1.086   0.599   2.038  1.1232 -1.4847  0.5481
  719TIP3    H2 2164   0.982   0.496   2.076  0.8923 -0.6447  2.2899
  720TIP3   OH2 2165   5.923   3.811   5.029  0.7513  0.1450 -0.0392
  720TIP3    H1 2166   5.938   3.718   5.047 -1.4285 -0.0468  1.0167
  720TIP3    H2 2167   5.898   3.848   5.113 -1.8685  0.9094 -1.0668
  721TIP3   OH2 2168   4.852   4.480   2.602  0.2552  0.3507 -0.4672
  721TIP3    H1 2169   4.847   4.445   2.691 -1.1867 -0.5208 -0.8600
  721TIP3    H2 2170   4.849   4.403   2.546 -1.3809  1.0059 -1.3235
  722TIP3   OH2 2171   5.327   2.695   2.244 -0.4509 -0.0665 -0.0179
  722TIP3    H1 2172   5.373   2.699   2.328  0.1660 -0.5714 -0.3253
  722TIP3    H2 2173   5.269   2.620   2.251  0.4658 -0.8317 -0.4642
  723TIP3   OH2 2174   0.525   2.682   2.375 -0.2744  0.1929  0.3905
  723TIP3    H1 2175   0.533   2.761   2.322 -1.2443 -1.3776 -2.2961
  723TIP3    H2 2176   0.431   2.666   2.381 -0.0957 -0.8513  0.6863
  724TIP3   OH2 2177   1.033   3.072   1.546 -0.3069  0.0031  0.4366
  724TIP3    H1 2178   1.011   2.982   1.572  1.0112 -0.2445  0.7838
  724TIP3    H2 2179   1.101   3.098   1.608 -0.1063  0.9474 -0.1761
  725TIP3   OH2 2180   5.985   2.769   5.089  0.0118 -0.3537 -0.1719
  725TIP3    H1 2181   5.946   2.856   5.084  0.0425 -0.3037  0.3783
  725TIP3    H2 2182   5.967   2.729   5.004 -1.5402 -0.4571  0.1765
  726TIP3   OH2 2183   0.480   5.733   1.144  0.0346  0.2922 -0.0388
  726TIP3    H1 2184   0.429   5.765   1.070 -0.8881 -0.4529  0.2505
  726TIP3    H2 2185   0.559   5.787   1.144  0.5965 -0.4168 -2.2488
  727TIP3   OH2 2186   1.360   2.164   3.934  0.0396  0.0731 -0.1423
  727TIP3    H1 2187   1.270   2.193   3.918 -0.6120 -0.5408  2.0690
  727TIP3    H2 2188   1.354   2.106   4.010  2.0477 -1.6074 -1.1579
  728TIP3   OH2 2189   4.142   4.378   4.057  0.0621 -0.1133  0.1242
  728TIP3    H1 2190   4.111   4.412   4.141 -0.6947 -0.9349  0.1881
  728TIP3    H2 2191   4.189   4.298   4.080 -0.5797 -0.6082 -0.2783
  729TIP3   OH2 2192   1.389   4.349   2.334  0.2606  0.1792 -0.0924
  729TIP3    H1 2193   1.422   4.423   2.284  0.4173 -1.6350 -2.8946
  729TIP3    H2 2194   1.460   4.327   2.394  0.1278  2.3309  0.9629
  730TIP3   OH2 2195   5.316   5.471   2.778 -0.0338 -0.2326 -0.3011
  730TIP3    H1 2196   5.307   5.500   2.869 -2.9684  1.4236 -0.9788
  730TIP3    H2 2197   5.333   5.552   2.729 -1.9374 -0.5318 -1.5546
  731TIP3   OH2 2198   3.536   0.080   3.413 -0.6446  0.3025 -0.6008
  731TIP3    H1 2199   3.484   0.090   3.492 -0.7533 -0.3750 -0.5827
  731TIP3    H2 2200   3.559   0.169   3.388 -2.8496  0.7294 -1.3145
  732TIP3   OH2 2201   3.111   1.738   2.481 -0.2362 -0.2671 -0.0583
  732TIP3    H1 2202   3.069   1.712   2.563 -1.4441 -0.3959 -0.6963
  732TIP3    H2 2203   3.040   1.737   2.417  0.1690  2.2170 -0.6184
  733TIP3   OH2 2204   2.446   4.548   2.507  0.6101 -0.0763  0.3321
  733TIP3    H1 2205   2.511   4.499   2.558  0.1182 -1.8011 -0.6407
  733TIP3    H2 2206   2.362   4.514   2.538  0.2841 -0.4094 -0.8990
  734TIP3   OH2 2207   2.138   5.016   5.009 -0.5695  0.1238 -0.4931
  734TIP3    H1 2208   2.226   5.048   4.988 -0.9148  1.2053 -0.3391
  734TIP3    H2 2209   2.087   5.095   5.026 -1.3864 -0.5275  0.1669
  735TIP3   OH2 2210   1.207   4.687   4.781  0.7384  0.3157  0.1001
  735TIP3    H1 2211   1.116   4.716   4.790  0.6671  0.5716 -1.2711
  735TIP3    H2 2212   1.248   4.752   4.725  1.6585 -0.0565  0.3147
  736TIP3   OH2 2213   0.402   3.550   4.605  0.3765 -0.6361 -0.3933
  736TIP3    H1 2214   0.373   3.641   4.616  1.7778 -0.0860 -1.0754
  736TIP3    H2 2215   0.351   3.501   4.670  0.1313  0.7347  0.4922
  737TIP3   OH2 2216   0.344   0.132   3.992 -0.3071  0.4068 -0.3098
  737TIP3    H1 2217   0.296   0.105   4.071  0.1292  0.5315 -0.0004
  737TIP3    H2 2218   0.363   0.050   3.946 -2.2175  0.4510 -1.2688
  738TIP3   OH2 2219   1.455   0.517   3.115 -0.6090 -0.1531  0.9793
  738TIP3    H1 2220   1.436   0.427   3.141 -1.2139 -0.1315  0.6350
  738TIP3    H2 2221   1.423   0.571   3.188  0.6480 -0.2561  1.6340
  739TIP3   OH2 2222   4.881   3.244   4.731 -0.1059  0.5886 -0.2816
  739TIP3    H1 2223   4.854   3.152   4.731 -0.1606  0.6060 -0.4208
  739TIP3    H2 2224   4.977   3.240   4.735  0.1135  0.4787 -3.3062
  740TIP3   OH2 2225   0.990   2.478   4.011 -0.3327 -0.0877 -0.5074
  740TIP3    H1 2226   0.929   2.453   4.080 -0.0576  0.9275  0.1261
  740TIP3    H2 2227   1.077   2.459   4.047 -0.1858  0.5227 -0.5235
  741TIP3   OH2 2228   5.680   1.985   4.040  0.1515 -0.0565 -0.5585
  741TIP3    H1 2229   5.619   2.051   4.006 -0.2033  0.3353  0.7999
  741TIP3    H2 2230   5.658   1.906   3.991  1.2116  0.9814 -2.9157
  742TIP3   OH2 2231   3.873   0.282   1.750  0.0836 -0.3868  0.6118
  742TIP3    H1 2232   3.874   0.332   1.669  1.9809 -0.8526  0.2863
  742TIP3    H2 2233   3.783   0.250   1.757 -0.7444  1.6512 -0.0131
  743TIP3   OH2 2234   4.062   3.299   4.184  0.1998 -0.0359  0.9426
  743TIP3    H1 2235   3.999   3.340   4.243  0.0050  0.0392  0.6844
  743TIP3    H2 2236   4.097   3.225   4.234  0.4841  0.3904  1.3743
  744TIP3   OH2 2237   6.327   4.129   0.300  0.0855 -0.0943  0.5113
  744TIP3    H1 2238   6.349   4.071   0.227 -0.2082 -0.4715  0.7209
  744TIP3    H2 2239   6.293   4.070   0.367 -2.0520  0.5185  0.0255
  745TIP3   OH2 2240   5.225   2.825   4.805  0.0236  0.2013  0.7557
  745TIP3    H1 2241   5.206   2.795   4.894 -0.2425  0.2255  0.7082
  745TIP3    H2 2242   5.315   2.858   4.810 -0.7902  2.5551  1.6557
  746TIP3   OH2 2243   3.365   5.645   0.761  0.0884  0.9381  0.1572
  746TIP3    H1 2244   3.288   5.649   0.817  0.8339  1.1474  1.1831
  746TIP3    H2 2245   3.413   5.726   0.780  0.6211  0.7569 -0.3836
  747TIP3   OH2 2246   5.669   4.793   4.280 -0.1142 -0.2419  0.1532
  747TIP3    H1 2247   5.655   4.768   4.372  2.1299  0.9916  0.8880
  747TIP3    H2 2248   5.703   4.714   4.239  2.3636  0.1287  1.3216
  748TIP3   OH2 2249   3.096   1.932   3.279 -0.6672  0.5067 -0.1450
  748TIP3    H1 2250   3.052   1.922   3.194 -0.6472  2.3703 -0.4205
  748TIP3    H2 2251   3.187   1.951   3.257 -0.1895 -1.0466  0.3759
  749TIP3   OH2 2252   4.536   2.938   0.725 -0.3481 -0.0386  0.3789
  749TIP3    H1 2253   4.579   3.009   0.773 -0.1049  0.5443 -0.6665
  749TIP3    H2 2254   4.444   2.947   0.747 -0.1953 -0.0397  1.0517
  750TIP3   OH2 2255   1.927   1.653   4.120  0.3509  0.7426  0.3687
  750TIP3    H1 2256   1.912   1.742   4.090 -1.4680  0.0513 -0.9541
  750TIP3    H2 2257   2.009   1.627   4.077  1.0369  1.8489  0.9853
  751TIP3   OH2 2258   3.109   0.536   0.817  0.0735  0.3771 -0.7268
  751TIP3    H1 2259   3.073   0.507   0.901  2.4393 -1.9290 -0.3794
  751TIP3    H2 2260   3.051   0.498   0.751 -1.0310  1.0711 -0.1722
  752TIP3   OH2 2261   3.466   5.123   2.086  0.2984 -0.4815 -0.0649
  752TIP3    H1 2262   3.490   5.212   2.062  1.5377 -0.9345 -0.5540
  752TIP3    H2 2263   3.461   5.076   2.002 -0.0977 -0.9431  0.2105
  753TIP3   OH2 2264   4.463   1.850   3.724 -0.0400  0.3728 -0.4352
  753TIP3    H1 2265   4.387   1.908   3.733  0.7925  1.2758  1.5133
  753TIP3    H2 2266   4.427   1.762   3.733 -0.7596  0.8362  2.1474
  754TIP3   OH2 2267   1.229   4.963   1.762 -0.4503 -0.5020  0.0593
  754TIP3    H1 2268   1.199   4.909   1.835 -0.5710  0.2503  0.5846
  754TIP3    H2 2269   1.239   5.051   1.800  0.0933 -0.2320 -0.6821
  755TIP3   OH2 2270   0.163   0.559   2.113 -0.0232  0.1452 -0.0612
  755TIP3    H1 2271   0.187   0.622   2.181 -0.5095  0.0940  0.1575
  755TIP3    H2 2272   0.104   0.498   2.156 -0.7699  0.4250 -0.6726
  756TIP3   OH2 2273   2.755   5.151   1.425 -0.1432  0.2718  0.5217
  756TIP3    H1 2274   2.728   5.152   1.333 -0.3766  2.3246  0.5735
  756TIP3    H2 2275   2.685   5.104   1.470  0.8306 -2.4015 -0.5158
  757TIP3   OH2 2276   5.318   4.766   2.175  0.1019  0.0929 -0.2021
  757TIP3    H1 2277   5.285   4.684   2.139  0.5145  0.4687 -1.4738
  757TIP3    H2 2278   5.240   4.811   2.208 -0.0170 -1.2274  1.4572
  758TIP3   OH2 2279   1.904   5.687   0.095 -0.3486 -0.3236 -0.1743
  758TIP3    H1 2280   1.901   5.779   0.120  0.9546  0.3686 -2.2614
  758TIP3    H2 2281   1.855   5.682   0.013  1.2325 -1.0501 -1.1393
  759TIP3   OH2 2282   1.733   4.766   1.755 -0.1477  0.5817 -0.4964
  759TIP3    H1 2283   1.745   4.726   1.669  0.8438  0.7049 -0.4325
  759TIP3    H2 2284   1.657   4.824   1.745 -0.8047 -0.3413 -0.9340
  760TIP3   OH2 2285   5.615   3.821   3.600  0.0120 -0.1560 -0.2695
  760TIP3    H1 2286   5.673   3.897   3.593  0.5210 -0.6449 -1.6338
  760TIP3    H2 2287   5.587   3.821   3.691  1.1275  0.8485  0.1020
  761TIP3   OH2 2288   3.716   1.649   0.915 -0.3887  0.3066 -0.3905
  761TIP3    H1 2289   3.686   1.704   0.987  0.6394  0.2971  0.0707
  761TIP3    H2 2290   3.681   1.562   0.935 -0.9394  0.5159 -0.4340
  762TIP3   OH2 2291  -0.015   1.466   1.749 -0.4107 -0.3642 -0.4327
  762TIP3    H1 2292  -0.043   1.526   1.818 -0.8036 -1.2497  0.2008
  762TIP3    H2 2293   0.069   1.499   1.720 -1.0723  1.0607 -0.7845
  763TIP3   OH2 2294   4.947   1.622   2.866  0.4182 -0.2381  0.1313
  763TIP3    H1 2295   4.972   1.637   2.957 -2.1568  2.4850  0.5099
  763TIP3    H2 2296   4.983   1.696   2.818 -1.6706  0.5826 -0.2847
  764TIP3   OH2 2297   2.413   2.477   2.667  0.3852  0.3117  0.5983
  764TIP3    H1 2298   2.375   2.411   2.610  3.0961 -0.9600  0.0909
  764TIP3    H2 2299   2.478   2.522   2.612  0.3354  1.7305  1.6372
  765TIP3   OH2 2300   4.978   5.699   1.351  0.1763  0.0773 -0.4606
  765TIP3    H1 2301   4.962   5.789   1.322 -1.2651 -0.2617 -0.8508
  765TIP3    H2 2302   4.945   5.696   1.441  1.4321  0.2588  0.0133
  766TIP3   OH2 2303   1.173   0.933   1.178 -0.3757  0.0567  0.4048
  766TIP3    H1 2304   1.249   0.910   1.232  2.3511  2.4689 -2.1050
  766TIP3    H2 2305   1.127   0.999   1.229 -0.4112 -0.8919  1.6466
  767TIP3   OH2 2306   1.377   0.841   1.364 -0.1254 -0.3196 -0.0352
  767TIP3    H1 2307   1.326   0.868   1.441 -0.0872  0.9651 -0.4274
  767TIP3    H2 2308   1.398   0.749   1.380  0.6847  0.1485  1.9488
  768TIP3   OH2 2309   4.818   2.543   3.894 -0.0012 -0.0483 -0.1914
  768TIP3    H1 2310   4.900   2.575   3.857 -0.8012  0.9584 -1.1986
  768TIP3    H2 2311   4.789   2.476   3.833  0.6327 -1.2450  0.7951
  769TIP3   OH2 2312   5.575   0.315   5.147  0.2797 -0.5636  0.2177
  769TIP3    H1 2313   5.568   0.392   5.092 -0.4091 -0.0193  1.0430
  769TIP3    H2 2314   5.668   0.311   5.171  0.6996 -1.1153 -1.3677
  770TIP3   OH2 2315   5.114   4.515   1.349  0.0296  0.0419  0.4541
  770TIP3    H1 2316   5.086   4.605   1.334 -1.0629 -0.0444  1.7672
  770TIP3    H2 2317   5.110   4.474   1.262 -4.3062 -0.0232  0.4286
  771TIP3   OH2 2318   4.850   3.007   0.411 -0.0058  0.1139  0.1989
  771TIP3    H1 2319   4.779   3.018   0.349  1.0178  1.3713 -0.8002
  771TIP3    H2 2320   4.850   3.087   0.463  0.5252  0.0386  0.3288
  772TIP3   OH2 2321   5.339   0.301   1.654  0.3779  0.3800 -0.1683
  772TIP3    H1 2322   5.309   0.308   1.564  1.1223 -0.2497 -0.4719
  772TIP3    H2 2323   5.385   0.217   1.658 -1.1084 -0.4334  1.2244
  773TIP3   OH2 2324   5.090   3.572   5.107 -0.2286  0.5582 -0.1569
  773TIP3    H1 2325   5.145   3.569   5.185  1.9640 -0.4123 -1.6383
  773TIP3    H2 2326   5.063   3.482   5.094 -0.0629  0.6007 -0.8326
  774TIP3   OH2 2327   5.371   0.379   3.863  0.7272 -0.7538  0.3941
  774TIP3    H1 2328   5.393   0.292   3.896  1.2045 -0.1315  1.7842
  774TIP3    H2 2329   5.308   0.413   3.927  3.3709  1.3756  2.0362
  775TIP3   OH2 2330   4.080   4.017   0.149 -0.6426  0.4299  0.3349
  775TIP3    H1 2331   3.998   4.058   0.174  0.2250  2.0377  0.6545
  775TIP3    H2 2332   4.142   4.043   0.217  0.1027 -0.9497  0.2322
  776TIP3   OH2 2333   4.343   2.753   3.239 -0.3080 -0.2445 -0.5722
  776TIP3    H1 2334   4.419   2.772   3.185 -1.6038  0.7484 -2.1231
  776TIP3    H2 2335   4.283   2.826   3.224 -1.1689 -0.4634  1.4170
  777TIP3   OH2 2336   1.408   0.868   4.117  0.3907 -0.1547  0.0484
  777TIP3    H1 2337   1.417   0.809   4.192 -0.0639  0.5254  0.6461
  777TIP3    H2 2338   1.346   0.823   4.060  0.5621 -0.5693  0.1840
  778TIP3   OH2 2339   0.362   0.759   4.228 -0.0523 -0.0653  0.6191
  778TIP3    H1 2340   0.364   0.775   4.322 -0.2159  2.5311  0.2394
  778TIP3    H2 2341   0.452   0.772   4.198 -0.2069  0.2062  0.2596
  779TIP3   OH2 2342   2.871   0.359   4.500 -0.0765  0.1115 -0.0135
  779TIP3    H1 2343   2.788   0.387   4.461  0.0764  0.2809 -0.2255
  779TIP3    H2 2344   2.848   0.328   4.588 -0.3426  0.2839 -0.0218
  780TIP3   OH2 2345   0.023   4.757   1.634 -0.1769  0.5841  0.3916
  780TIP3    H1 2346   0.014   4.780   1.727  2.3945  0.1410  0.8355
  780TIP3    H2 2347   0.063   4.833   1.594  1.7008 -0.3461  0.3792
  781TIP3   OH2 2348   3.988   3.807   2.771  0.0425 -0.2999 -0.4868
  781TIP3    H1 2349   4.083   3.801   2.775  0.0650  0.2078 -0.2780
  781TIP3    H2 2350   3.958   3.769   2.854  0.0745 -0.1724 -0.4169
  782TIP3   OH2 2351   0.476   4.763   2.218  0.0254 -0.0546  0.0408
  782TIP3    H1 2352   0.551   4.719   2.258  0.3751  1.4765  1.1572
  782TIP3    H2 2353   0.436   4.813   2.289  0.5331  2.5820 -1.4044
  783TIP3   OH2 2354   3.167   5.228   4.800 -0.6845 -0.5945  0.1872
  783TIP3    H1 2355   3.167   5.281   4.880 -1.9283  2.1441 -1.4690
  783TIP3    H2 2356   3.102   5.270   4.743  0.5384 -2.0589 -2.5036
  784TIP3   OH2 2357   2.424   5.106   0.222  0.5247  0.6538 -0.1023
  784TIP3    H1 2358   2.335   5.093   0.255 -0.4710  2.8598 -1.6365
  784TIP3    H2 2359   2.460   5.018   0.214 -0.6512 -0.1933  2.7193
  785TIP3   OH2 2360   1.335   4.038   3.804  0.0315 -0.6076  0.2346
  785TIP3    H1 2361   1.305   4.125   3.777  0.5010 -1.0375 -1.8366
  785TIP3    H2 2362   1.258   3.997   3.843 -0.4823  0.3539  0.2513
  786TIP3   OH2 2363   5.991   2.417   1.278 -0.0055 -0.0797 -0.1745
  786TIP3    H1 2364   5.973   2.400   1.370  0.6241 -0.4781 -0.1156
  786TIP3    H2 2365   5.919   2.374   1.231  0.1572 -0.6636  0.0999
  787TIP3   OH2 2366   5.977   2.862   4.305  0.1506 -0.1078 -0.5741
  787TIP3    H1 2367   5.885   2.836   4.314 -0.2903  1.1609 -1.2118
  787TIP3    H2 2368   6.010   2.805   4.235 -0.5346  0.3234 -1.2766
  788TIP3   OH2 2369   5.849   3.081   2.811 -0.1319  0.7504 -0.2458
  788TIP3    H1 2370   5.863   3.020   2.739  0.5773 -0.2200  0.6858
  788TIP3    H2 2371   5.885   3.164   2.778 -3.7551  1.5652 -2.6503
  789TIP3   OH2 2372   4.447   0.233   2.516 -0.0935  0.3527  0.0602
  789TIP3    H1 2373   4.456   0.147   2.557 -0.9460  0.8287  1.2972
  789TIP3    H2 2374   4.418   0.215   2.427  3.2109 -0.7890 -0.9495
  790TIP3   OH2 2375   0.768   3.918   2.588  0.1089 -0.3624  1.1468
  790TIP3    H1 2376   0.759   3.983   2.518  1.9854 -1.3387 -0.0815
  790TIP3    H2 2377   0.703   3.852   2.569  0.7916 -0.7600  0.1189
  791TIP3   OH2 2378   6.259   2.007   3.623  0.2231 -0.2316 -0.3239
  791TIP3    H1 2379   6.244   1.929   3.676  1.1415  0.1809  0.5911
  791TIP3    H2 2380   6.196   2.071   3.657  1.6858  0.4627  1.2722
  792TIP3   OH2 2381   3.395   3.083   0.017 -0.5683  0.4293 -0.4517
  792TIP3    H1 2382   3.332   3.143   0.057  0.6777  1.0618  0.6344
  792TIP3    H2 2383   3.349   3.047  -0.058 -1.1904  3.1872 -1.5123
  793TIP3   OH2 2384   5.211   4.359   2.553  0.7700  1.0239 -0.1290
  793TIP3    H1 2385   5.233   4.283   2.608  2.2008  0.4761 -1.3727
  793TIP3    H2 2386   5.217   4.326   2.464 -0.7538  2.0868 -0.6536
  794TIP3   OH2 2387   5.446   4.143   4.305  0.2339 -0.1639  0.0626
  794TIP3    H1 2388   5.485   4.069   4.259  3.5852  0.5214  1.4604
  794TIP3    H2 2389   5.418   4.107   4.389 -0.7045 -0.3341 -0.3119
  795TIP3   OH2 2390   5.607   3.254   2.466 -0.0126 -0.4421 -0.2195
  795TIP3    H1 2391   5.560   3.310   2.405 -0.8900 -0.6175  0.2715
  795TIP3    H2 2392   5.687   3.302   2.486 -0.2263  0.1115 -0.6700
  796TIP3   OH2 2393   3.683   5.904   4.186  0.9970 -0.3123 -0.0877
  796TIP3    H1 2394   3.707   5.885   4.277 -1.1134 -1.9342  0.2214
  796TIP3    H2 2395   3.744   5.851   4.134  0.5163 -1.5050  0.5137
  797TIP3   OH2 2396   3.772   5.008   1.077 -0.0760  0.8837 -0.5223
  797TIP3    H1 2397   3.815   5.053   1.004  1.3465  0.7591  0.1907
  797TIP3    H2 2398   3.801   4.917   1.069  0.4500  0.9519  0.4163
  798TIP3   OH2 2399   0.569   1.586   2.563 -0.3243  0.6501 -0.1785
  798TIP3    H1 2400   0.547   1.679   2.567 -0.3395  0.7251 -1.5612
  798TIP3    H2 2401   0.489   1.542   2.590 -0.4082  1.0246  0.2010
  799TIP3   OH2 2402   5.711   2.421   0.228  0.3819 -0.1103  0.1751
  799TIP3    H1 2403   5.671   2.401   0.143 -0.4537 -1.5668  0.8677
  799TIP3    H2 2404   5.804   2.398   0.216  0.6194  1.2317 -0.7923
  800TIP3   OH2 2405   2.859   4.511   1.402  0.2292  0.2304 -0.1231
  800TIP3    H1 2406   2.779   4.464   1.379 -1.5296  3.4905 -1.2935
  800TIP3    H2 2407   2.840   4.551   1.487  1.0949  0.1228  0.1387
  801TIP3   OH2 2408   4.170   3.638   1.804  0.2791  0.1716 -0.4351
  801TIP3    H1 2409   4.232   3.711   1.805  0.8729 -0.3021  1.2915
  801TIP3    H2 2410   4.201   3.581   1.734  2.9368 -0.9217  1.4693
  802TIP3   OH2 2411   3.191   4.867   3.478 -0.3184 -0.2815  0.2386
  802TIP3    H1 2412   3.098   4.852   3.466 -0.2173  0.0196 -1.0400
  802TIP3    H2 2413   3.196   4.946   3.533 -0.8049 -0.1466  0.0888
  803TIP3   OH2 2414   1.488   3.860   4.527 -0.1372  0.1344  0.0561
  803TIP3    H1 2415   1.483   3.941   4.476 -0.6806 -0.1689 -0.3790
  803TIP3    H2 2416   1.581   3.836   4.526 -0.3436 -0.8256 -2.3095
  804TIP3   OH2 2417   0.436   1.676   5.065  0.4106  0.4263 -0.0038
  804TIP3    H1 2418   0.423   1.605   5.128  0.4776  0.9205  0.5875
  804TIP3    H2 2419   0.530   1.693   5.067  0.2694  1.2135  0.6475
  805TIP3   OH2 2420   1.698   4.981   2.214  0.1192  0.0621  0.1571
  805TIP3    H1 2421   1.765   5.044   2.241  0.4753 -0.4282  0.4193
  805TIP3    H2 2422   1.656   5.023   2.139  0.8089  0.3175 -0.0999
  806TIP3   OH2 2423   4.458   1.160   2.501 -1.0955 -0.3883 -0.3703
  806TIP3    H1 2424   4.437   1.070   2.526  3.1085 -1.9776 -1.6922
  806TIP3    H2 2425   4.437   1.164   2.407  0.3720 -0.6563 -0.7340
  807TIP3   OH2 2426   1.771   5.541   2.136 -0.1287  0.4679  0.1683
  807TIP3    H1 2427   1.823   5.522   2.058 -1.0546  0.5405 -0.4819
  807TIP3    H2 2428   1.725   5.459   2.154  1.0673  0.0403  1.4336
  808TIP3   OH2 2429   5.135   2.196   3.249 -0.3599 -0.1434 -0.1174
  808TIP3    H1 2430   5.107   2.262   3.312 -0.9208 -0.2117 -0.2911
  808TIP3    H2 2431   5.076   2.122   3.264  0.2225 -0.5861  0.0342
  809TIP3   OH2 2432   3.847   1.490   5.056  0.5828  0.0359 -0.4133
  809TIP3    H1 2433   3.824   1.403   5.024 -0.9408 -0.4551  1.7845
  809TIP3    H2 2434   3.942   1.487   5.071  0.8561 -0.5900 -2.1064
  810TIP3   OH2 2435   1.086   1.323   2.386  0.5699  0.2450  0.5004
  810TIP3    H1 2436   1.049   1.382   2.452  2.3516  0.9187  0.9638
  810TIP3    H2 2437   1.094   1.378   2.307 -0.7599 -0.3203 -0.0579
  811TIP3   OH2 2438   3.491   3.295   3.567 -0.2229  0.6336 -0.6718
  811TIP3    H1 2439   3.578   3.257   3.577  0.2750  1.8639 -0.1657
  811TIP3    H2 2440   3.435   3.221   3.542  0.4093 -0.7398  1.6862
  812TIP3   OH2 2441   1.378   4.643   1.129  0.1835  0.4263  0.0153
  812TIP3    H1 2442   1.334   4.723   1.159  0.8719  0.8944 -0.1802
  812TIP3    H2 2443   1.465   4.673   1.101  0.3792 -0.3642 -0.2525
  813TIP3   OH2 2444   3.233   1.874   1.723 -0.0586 -0.1708  0.1305
  813TIP3    H1 2445   3.188   1.958   1.732  0.4026 -0.1409  3.4316
  813TIP3    H2 2446   3.178   1.812   1.771  0.0228 -1.6445 -1.5693
  814TIP3   OH2 2447   0.652   3.881   5.005  0.7686  0.2094  0.3781
  814TIP3    H1 2448   0.593   3.827   4.953  1.7820  0.5227 -1.1798
  814TIP3    H2 2449   0.605   3.897   5.086 -1.7036  1.2434 -1.1415
  815TIP3   OH2 2450   5.079   0.902   1.176 -0.1929  0.2725  0.3018
  815TIP3    H1 2451   5.137   0.857   1.238  1.3935  2.2320  0.3503
  815TIP3    H2 2452   5.138   0.934   1.108 -1.1451  2.5440  0.4587
  816TIP3   OH2 2453   4.929   3.797   3.838 -0.8374 -0.0183 -0.1058
  816TIP3    H1 2454   4.996   3.864   3.830 -0.4032 -0.4756 -0.3670
  816TIP3    H2 2455   4.853   3.832   3.791 -1.4091  1.2778  1.6953
  817TIP3   OH2 2456   6.266   2.434   1.278  0.1388 -0.4118 -0.1184
  817TIP3    H1 2457   6.172   2.450   1.269  0.1289 -1.3829 -2.5978
  817TIP3    H2 2458   6.273   2.366   1.345 -0.9068 -0.1325  0.2869
  818TIP3   OH2 2459   0.110   4.750   2.478  0.4290  0.1688 -0.4766
  818TIP3    H1 2460   0.052   4.676   2.466  1.1711 -0.2004 -2.1764
  818TIP3    H2 2461   0.192   4.712   2.511 -0.0424  0.6000  1.2677
  819TIP3   OH2 2462   5.913   0.614   1.007 -0.7177  0.4396  0.2023
  819TIP3    H1 2463   5.852   0.551   1.044 -0.7401  0.3637  0.0343
  819TIP3    H2 2464   5.966   0.563   0.945  0.5226  0.1532  1.4337
  820TIP3   OH2 2465   3.280   4.823   1.820  0.3048 -0.0367 -0.5619
  820TIP3    H1 2466   3.342   4.894   1.803  0.8844 -0.6509 -1.0710
  820TIP3    H2 2467   3.318   4.746   1.777 -0.1224 -0.7517  0.2970
  821TIP3   OH2 2468   6.178   4.039   4.368  0.1128 -0.0818 -0.0158
  821TIP3    H1 2469   6.179   4.133   4.351  0.2532 -0.2355 -0.8644
  821TIP3    H2 2470   6.208   3.999   4.287  1.5327 -0.7967  0.8215
  822TIP3   OH2 2471   1.994   0.683   0.535 -0.0209  0.2039  0.0359
  822TIP3    H1 2472   2.019   0.674   0.627  1.7016  0.8147 -0.3455
  822TIP3    H2 2473   2.049   0.620   0.489  0.8078  1.5007 -0.8189
  823TIP3   OH2 2474   4.511   2.239   3.474 -0.3566  0.2005 -0.0355
  823TIP3    H1 2475   4.533   2.328   3.502 -0.9194  0.7486 -1.2601
  823TIP3    H2 2476   4.456   2.205   3.545  0.6754  0.4494  0.9096
  824TIP3   OH2 2477   6.199   3.810   2.159  0.1215  0.5109  0.6041
  824TIP3    H1 2478   6.109   3.804   2.191  0.0148  0.1393  0.2438
  824TIP3    H2 2479   6.206   3.899   2.124 -0.8946 -0.2242 -1.6454
  825TIP3   OH2 2480   3.055   5.363   0.220  0.8757  0.3028 -0.0540
  825TIP3    H1 2481   2.962   5.341   0.232  0.6246  1.4269  0.1889
  825TIP3    H2 2482   3.067   5.444   0.269  1.7848  0.6236 -0.7733
  826TIP3   OH2 2483   5.451   3.723   1.145 -0.1451 -0.2312 -0.2121
  826TIP3    H1 2484   5.491   3.669   1.077  0.8097  0.3670 -0.1514
  826TIP3    H2 2485   5.504   3.705   1.223  1.1176  1.8204 -0.5178
  827TIP3   OH2 2486   6.071   5.504   3.892 -0.1825  0.6424  0.0604
  827TIP3    H1 2487   6.042   5.590   3.861 -0.5302  0.5929  0.2425
  827TIP3    H2 2488   6.130   5.472   3.823 -1.3379  0.3045 -0.8115
  828TIP3   OH2 2489   1.757   4.083   2.651  0.1714 -0.1194  0.5406
  828TIP3    H1 2490   1.743   4.102   2.744  0.0220  1.0473  0.3039
  828TIP3    H2 2491   1.852   4.077   2.642  0.2497  0.8430  0.5954
  829TIP3   OH2 2492   5.875   3.390   2.006  0.2191  0.6665  0.0280
  829TIP3    H1 2493   5.834   3.446   2.072  1.6659  0.0805  1.4892
  829TIP3    H2 2494   5.830   3.413   1.925 -0.5755  2.5231  0.9173
  830TIP3   OH2 2495   2.815   2.239   1.259  0.3640 -0.2583  0.4464
  830TIP3    H1 2496   2.773   2.314   1.218  0.1398 -0.6769 -0.1038
  830TIP3    H2 2497   2.907   2.245   1.231  0.5309  0.2763  1.0936
  831TIP3   OH2 2498   3.363   2.159   2.196  0.1828  0.1508  0.2797
  831TIP3    H1 2499   3.423   2.135   2.266 -0.5309 -1.6450  0.3330
  831TIP3    H2 2500   3.405   2.125   2.116  0.5355  1.3529 -0.0782
  832TIP3   OH2 2501   3.443  -0.029   4.958 -0.3207  0.0728  0.1300
  832TIP3    H1 2502   3.444  -0.017   5.053 -1.5814  0.3134  0.1264
  832TIP3    H2 2503   3.489   0.048   4.923 -2.1641  1.3956  0.4481
  833TIP3   OH2 2504   0.235   3.585   3.907 -0.2104 -0.6233 -0.1436
  833TIP3    H1 2505   0.237   3.624   3.820  0.8030 -0.3298 -0.0096
  833TIP3    H2 2506   0.282   3.648   3.962  0.2228 -1.3731  0.3655
  834TIP3   OH2 2507   3.596   1.370   3.596  0.4495  0.3369 -0.2327
  834TIP3    H1 2508   3.597   1.399   3.687 -0.0654 -1.1657  0.2774
  834TIP3    H2 2509   3.510   1.395   3.564 -1.0400 -2.7370  0.9869
  835TIP3   OH2 2510   3.812   2.654   2.839  0.1240 -0.1183  0.0439
  835TIP3    H1 2511   3.721   2.682   2.826  0.1268 -0.7459 -1.5941
  835TIP3    H2 2512   3.804   2.568   2.881 -0.0419 -0.1661 -0.0829
  836TIP3   OH2 2513   1.653   1.972   4.463  1.1826  0.6364 -0.0654
  836TIP3    H1 2514   1.662   1.918   4.542 -3.3592 -0.5715 -0.0819
  836TIP3    H2 2515   1.661   1.910   4.391 -2.3891 -0.0061 -0.1232
  837TIP3   OH2 2516   3.444   0.954   0.641 -0.1801 -0.0384 -0.0974
  837TIP3    H1 2517   3.509   0.976   0.574 -1.5085  0.2488 -1.3583
  837TIP3    H2 2518   3.487   0.975   0.724  0.6601  2.0242 -0.9700
  838TIP3   OH2 2519   3.142   2.452   0.403 -0.0473  0.1887 -0.2626
  838TIP3    H1 2520   3.157   2.361   0.428  1.9108  0.7086  0.6517
  838TIP3    H2 2521   3.135   2.499   0.486 -2.1674  0.7603 -0.7040
  839TIP3   OH2 2522   5.582   2.488   3.624  1.1581 -0.1347 -0.0891
  839TIP3    H1 2523   5.668   2.476   3.663  0.7383 -0.1636  0.8419
  839TIP3    H2 2524   5.524   2.509   3.697  0.3619 -0.1610 -0.6920
  840TIP3   OH2 2525   1.320   3.637   1.527  0.3697 -0.3277 -0.2071
  840TIP3    H1 2526   1.319   3.560   1.470  2.1163 -0.1566 -0.5278
  840TIP3    H2 2527   1.234   3.677   1.514  0.2139 -1.0459 -1.6922
  841TIP3   OH2 2528   5.505   2.467   2.437 -0.5427  0.3160 -0.3772
  841TIP3    H1 2529   5.543   2.544   2.479  1.8097 -0.7197 -0.4668
  841TIP3    H2 2530   5.462   2.420   2.509  2.4261 -0.8240  0.7948
  842TIP3   OH2 2531   2.185   4.637   2.016  0.5739 -0.6149 -0.4889
  842TIP3    H1 2532   2.207   4.550   1.982 -1.1665 -0.8817 -1.0491
  842TIP3    H2 2533   2.264   4.666   2.061  1.1100 -2.5903 -0.0580
  843TIP3   OH2 2534   5.418   0.250   3.200 -0.0890 -0.0766  0.4825
  843TIP3    H1 2535   5.495   0.201   3.173 -0.9076 -1.4700  0.5573
  843TIP3    H2 2536   5.440   0.341   3.184  0.2513 -0.6371 -2.8931
  844TIP3   OH2 2537   0.001   0.307   0.875 -0.2233  0.1644 -0.1152
  844TIP3    H1 2538   0.001   0.227   0.822 -1.7616 -0.1270  0.2669
  844TIP3    H2 2539  -0.001   0.378   0.811 -0.6771 -0.1553 -0.4684
  845TIP3   OH2 2540   3.666   3.300   4.717  0.1342  0.1312 -0.3878
  845TIP3    H1 2541   3.757   3.319   4.694 -0.5973  1.0266 -2.8252
  845TIP3    H2 2542   3.615   3.358   4.661 -1.9784 -0.7830  0.5044
  846TIP3   OH2 2543   0.681   1.586   2.818 -0.6953  0.0598 -0.5734
  846TIP3    H1 2544   0.665   1.573   2.724 -1.0804 -1.5997 -0.3002
  846TIP3    H2 2545   0.612   1.535   2.861  0.3620 -0.3957  0.6155
  847TIP3   OH2 2546   5.510   3.421   2.981 -0.4105 -0.2385 -0.1075
  847TIP3    H1 2547   5.421   3.455   2.989 -0.1911  0.2304  0.4555
  847TIP3    H2 2548   5.500   3.326   2.979 -1.0277 -0.1691 -1.5371
  848TIP3   OH2 2549   2.691   2.428   2.467  0.1720 -0.2757  0.2046
  848TIP3    H1 2550   2.598   2.448   2.455 -0.7441 -3.6385  0.5961
  848TIP3    H2 2551   2.732   2.453   2.384 -0.8964  1.8701  0.2656
  849TIP3   OH2 2552   2.469   2.490   4.038  0.0498  0.7175 -0.2512
  849TIP3    H1 2553   2.411   2.472   3.964  1.4895  0.1828 -1.2947
  849TIP3    H2 2554   2.442   2.577   4.068 -1.1297  0.5859 -0.8435
  850TIP3   OH2 2555   0.855   1.274   1.991  0.0169 -0.2940 -0.1764
  850TIP3    H1 2556   0.769   1.232   1.991 -0.1989  0.1397  0.7558
  850TIP3    H2 2557   0.845   1.346   1.928 -0.6716  0.4813  0.7947
  851TIP3   OH2 2558   0.451   4.923   1.095  0.1669 -0.0061  0.4389
  851TIP3    H1 2559   0.524   4.890   1.148 -0.4536 -0.8891  0.7775
  851TIP3    H2 2560   0.458   5.018   1.101 -1.2265  0.0305  4.1155
  852TIP3   OH2 2561   5.491   4.965   3.260 -0.3395 -0.0799 -0.2601
  852TIP3    H1 2562   5.502   4.876   3.225 -0.6431  0.1446 -0.9371
  852TIP3    H2 2563   5.559   4.972   3.327 -0.5971 -0.9764  0.1185
  853TIP3   OH2 2564   6.196   5.803   3.284  0.2826 -0.0512  0.0852
  853TIP3    H1 2565   6.227   5.864   3.351 -1.4838  1.7878 -0.6675
  853TIP3    H2 2566   6.215   5.846   3.201 -0.7578 -0.6381 -0.4787
  854TIP3   OH2 2567   0.389   3.039   1.182  0.5014  0.6605  0.2776
  854TIP3    H1 2568   0.377   3.130   1.208  0.6784  0.8202 -0.1949
  854TIP3    H2 2569   0.302   3.009   1.158 -0.0795 -0.1223  3.0122
  855TIP3   OH2 2570   1.112   5.729   3.773  1.1556  0.3030 -0.3957
  855TIP3    H1 2571   1.055   5.762   3.704  1.6642  0.3751 -0.7850
  855TIP3    H2 2572   1.194   5.706   3.729  1.2257 -0.3683  0.0575
  856TIP3   OH2 2573   2.897   3.198   3.888  0.3678 -0.4345 -0.1436
  856TIP3    H1 2574   2.919   3.206   3.981  0.6890  0.1304 -0.2622
  856TIP3    H2 2575   2.963   3.138   3.853 -1.2360 -2.7120  0.4748
  857TIP3   OH2 2576   6.236   1.805   1.664  0.2997 -0.0889 -0.5741
  857TIP3    H1 2577   6.224   1.898   1.681 -1.3419 -0.3370 -0.1929
  857TIP3    H2 2578   6.161   1.781   1.608 -1.1634 -1.7899  1.8751
  858TIP3   OH2 2579   0.258   5.570   4.799  0.2307 -0.0064 -0.6743
  858TIP3    H1 2580   0.262   5.490   4.746  1.5547  0.3347 -1.1151
  858TIP3    H2 2581   0.233   5.638   4.737  0.6770  0.1984 -0.6314
  859TIP3   OH2 2582   4.811   5.284   2.934  0.1388  0.0534 -0.3074
  859TIP3    H1 2583   4.776   5.222   2.998  0.2832  0.2869  0.0051
  859TIP3    H2 2584   4.900   5.303   2.966  0.3881 -0.1955 -0.8430
  860TIP3   OH2 2585   4.095   3.175   2.423 -0.1935 -0.7715 -0.7454
  860TIP3    H1 2586   4.056   3.218   2.346 -0.4704 -0.0002 -0.1836
  860TIP3    H2 2587   4.020   3.142   2.472 -0.0284 -1.0602 -0.6922
  861TIP3   OH2 2588   5.824   0.704   1.234 -0.3667 -0.7562 -0.1026
  861TIP3    H1 2589   5.874   0.702   1.152  1.1192 -2.1960  0.7870
  861TIP3    H2 2590   5.733   0.692   1.207 -0.1609  0.9040 -1.6872
  862TIP3   OH2 2591   5.702   4.871   2.770 -0.9154  0.2225 -0.3118
  862TIP3    H1 2592   5.722   4.964   2.757 -0.6423  0.2150  0.0586
  862TIP3    H2 2593   5.641   4.869   2.844 -3.4138  0.3620 -2.2320
  863TIP3   OH2 2594   4.587   4.650   3.072 -0.1400 -0.3271 -0.1529
  863TIP3    H1 2595   4.651   4.706   3.115  1.4986 -0.0149 -2.7807
  863TIP3    H2 2596   4.504   4.673   3.113  1.1310  0.5969  2.0933
  864TIP3   OH2 2597   1.326   3.122   1.698 -0.0814  0.0920 -0.3160
  864TIP3    H1 2598   1.335   3.216   1.716  2.0716 -0.3925  1.7196
  864TIP3    H2 2599   1.325   3.081   1.785  1.1625 -1.8880 -1.1509
  865TIP3   OH2 2600   2.451   2.502   0.552  0.2827  0.1979 -0.2738
  865TIP3    H1 2601   2.424   2.437   0.487  1.2823  0.3752 -0.8897
  865TIP3    H2 2602   2.530   2.466   0.591  0.5881  0.8268 -0.2925
  866TIP3   OH2 2603   3.823   3.340   0.377 -0.3715 -0.3540 -0.0531
  866TIP3    H1 2604   3.860   3.361   0.291  0.5950  1.9863  0.8452
  866TIP3    H2 2605   3.729   3.353   0.367 -0.4746 -1.6195 -1.1018
  867TIP3   OH2 2606   1.834   3.509   1.590  0.6403  0.3233  0.1187
  867TIP3    H1 2607   1.912   3.488   1.539 -1.5782 -4.2343 -1.9967
  867TIP3    H2 2608   1.837   3.449   1.665  0.3339  1.9478  1.5129
  868TIP3   OH2 2609   4.111   0.634   3.090  0.0716 -1.0446 -0.0086
  868TIP3    H1 2610   4.154   0.590   3.017 -0.8169 -1.5740 -0.2322
  868TIP3    H2 2611   4.035   0.578   3.110  1.1864 -1.8420  2.4113
  869TIP3   OH2 2612   4.374   2.294   5.115  0.3454 -0.3826  0.2080
  869TIP3    H1 2613   4.308   2.281   5.183  1.2959 -0.7163  1.0776
  869TIP3    H2 2614   4.356   2.225   5.051  0.0827 -0.7061  0.6268
  870TIP3   OH2 2615   2.314   0.829   1.388 -0.2370 -0.2966  0.0598
  870TIP3    H1 2616   2.267   0.751   1.358 -1.9781  1.0303 -0.8096
  870TIP3    H2 2617   2.399   0.824   1.345 -0.2596 -1.7747  0.1319
  871TIP3   OH2 2618   0.383   1.385   4.961  0.3036 -0.6260  0.2087
  871TIP3    H1 2619   0.338   1.351   5.038 -1.3122  1.1071  0.1139
  871TIP3    H2 2620   0.458   1.433   4.996 -0.8212  0.7591  0.8225
  872TIP3   OH2 2621   5.644   5.474   1.891  0.1923  0.1672  0.0856
  872TIP3    H1 2622   5.618   5.409   1.827 -1.2775 -0.0629  0.8719
  872TIP3    H2 2623   5.731   5.447   1.919  0.1692 -0.6619 -0.6057
  873TIP3   OH2 2624   3.119   2.824   0.338 -0.1749 -0.1372  0.9269
  873TIP3    H1 2625   3.063   2.845   0.412 -0.3277 -1.5992  1.2596
  873TIP3    H2 2626   3.095   2.887   0.270 -1.6772 -0.2577  1.3298
  874TIP3   OH2 2627   5.134   4.453   1.657 -0.3645  0.3317 -0.2867
  874TIP3    H1 2628   5.052   4.489   1.622 -0.9953  1.3464  2.0577
  874TIP3    H2 2629   5.199   4.471   1.588 -1.8586  0.5505 -1.7041
  875TIP3   OH2 2630   3.268   4.846   0.161 -0.6005 -0.2509 -0.4799
  875TIP3    H1 2631   3.175   4.855   0.144 -0.7989 -1.0061  0.1614
  875TIP3    H2 2632   3.310   4.902   0.095 -1.5525  1.3972  0.2668
  876TIP3   OH2 2633   4.766   3.503   2.321 -0.6598 -0.2191 -0.3591
  876TIP3    H1 2634   4.809   3.466   2.244 -1.0097  1.2706 -1.3142
  876TIP3    H2 2635   4.820   3.473   2.395  2.4080  1.9541 -1.5119
  877TIP3   OH2 2636   6.068   4.322   0.814  0.6749  0.3496  0.5102
  877TIP3    H1 2637   6.111   4.238   0.798 -1.4009 -0.7678  0.4339
  877TIP3    H2 2638   6.008   4.305   0.887  0.5095  1.8958  0.7807
  878TIP3   OH2 2639   1.054   5.418   3.941 -0.2911 -0.0972 -0.0210
  878TIP3    H1 2640   1.048   5.345   3.880  0.5689  0.1733 -0.4441
  878TIP3    H2 2641   0.991   5.396   4.010  1.1432 -2.1026  0.7587
  879TIP3   OH2 2642   4.084   0.875   2.703 -0.5639 -0.1442  0.3818
  879TIP3    H1 2643   4.021   0.832   2.761 -2.3097  0.7659 -0.7341
  879TIP3    H2 2644   4.030   0.916   2.635  1.1651  1.6205 -0.0370
  880TIP3   OH2 2645   2.721   2.796   4.379 -0.0334  0.3193 -0.0187
  880TIP3    H1 2646   2.690   2.868   4.434 -0.5385  0.4191 -0.4159
  880TIP3    H2 2647   2.641   2.754   4.347  0.2549 -0.9659  0.8853
  881TIP3   OH2 2648   4.645   5.883   0.972  0.1217  0.2818 -0.5669
  881TIP3    H1 2649   4.693   5.927   0.902  0.8786  0.5855  0.1319
  881TIP3    H2 2650   4.713   5.851   1.031 -0.4456 -1.0152 -0.5690
  882TIP3   OH2 2651   4.063   5.199   4.856 -0.4186 -0.3127  0.4236
  882TIP3    H1 2652   4.039   5.160   4.772 -1.0311  0.3214  0.2953
  882TIP3    H2 2653   4.150   5.164   4.874 -1.0239 -1.9076  0.4247
  883TIP3   OH2 2654   2.770   1.931   4.929 -0.3618  0.1081  0.4372
  883TIP3    H1 2655   2.744   1.893   5.013  0.0792  0.5292  0.7625
  883TIP3    H2 2656   2.695   1.985   4.904 -1.7020 -2.1362 -0.7974
  884TIP3   OH2 2657   4.333   3.537   0.319 -0.0068 -0.0462  0.1648
  884TIP3    H1 2658   4.416   3.581   0.302  0.7934 -1.4408  0.2843
  884TIP3    H2 2659   4.266   3.602   0.298  1.1059  0.9654 -0.3477
  885TIP3   OH2 2660   6.225   5.916   2.442 -0.1238 -0.3325  0.4986
  885TIP3    H1 2661   6.223   5.829   2.480  0.0911 -0.2265  0.7609
  885TIP3    H2 2662   6.255   5.973   2.514  1.3854 -0.2851 -0.1307
  886TIP3   OH2 2663   5.274   2.277   1.343 -0.7166  0.2322  0.2294
  886TIP3    H1 2664   5.310   2.288   1.432  0.2385  1.1037 -0.2484
  886TIP3    H2 2665   5.207   2.345   1.336 -0.5508  0.3883  0.1589
  887TIP3   OH2 2666   5.838   2.417   4.811  0.0821  0.1747  0.3636
  887TIP3    H1 2667   5.895   2.389   4.883 -0.8932 -0.0956  1.0527
  887TIP3    H2 2668   5.768   2.351   4.809  0.3877 -0.1242 -1.2012
  888TIP3   OH2 2669   2.974   0.909   5.010 -0.0559 -0.2166 -0.5963
  888TIP3    H1 2670   2.960   0.822   4.974  0.7061 -0.3465 -0.6086
  888TIP3    H2 2671   3.066   0.929   4.988  0.3100 -0.1272  0.8980
  889TIP3   OH2 2672   2.562   1.667   0.109  0.2878 -0.0024 -0.3056
  889TIP3    H1 2673   2.525   1.591   0.154  0.3860  0.3299  0.3618
  889TIP3    H2 2674   2.599   1.632   0.029 -0.0775 -0.5864 -0.2268
  890TIP3   OH2 2675   1.032   5.112   2.696 -0.4678  0.4590  0.4526
  890TIP3    H1 2676   1.052   5.019   2.708 -1.9342 -0.0781 -0.8633
  890TIP3    H2 2677   1.110   5.158   2.725  1.5160 -1.3219 -1.6676
  891TIP3   OH2 2678   3.910   4.465   5.088  0.0955  0.0183  0.5696
  891TIP3    H1 2679   3.945   4.423   5.166 -1.6564  0.7724  1.8221
  891TIP3    H2 2680   3.846   4.403   5.053  0.0493  0.1662  0.3851
  892TIP3   OH2 2681   5.386   4.539   3.027 -0.0177 -0.5463  0.3481
  892TIP3    H1 2682   5.377   4.532   2.931  0.4848 -1.6137  0.3580
  892TIP3    H2 2683   5.297   4.533   3.060 -0.0545 -2.3913  0.0340
  893TIP3   OH2 2684   5.957   2.329   0.204 -0.1581  0.3966 -0.5914
  893TIP3    H1 2685   5.952   2.238   0.174 -0.1864  0.2959 -0.2779
  893TIP3    H2 2686   6.040   2.361   0.169  0.2675 -0.0132  0.0246
  894TIP3   OH2 2687   2.243   0.523   1.458  0.2389  0.5674 -0.4389
  894TIP3    H1 2688   2.188   0.529   1.536  1.2699  0.3838  0.3153
  894TIP3    H2 2689   2.200   0.457   1.403  0.5830 -0.8128  0.8774
  895TIP3   OH2 2690   0.084   3.488   1.815 -0.4541 -0.1714 -0.3179
  895TIP3    H1 2691   0.085   3.504   1.909 -3.0212  1.3365 -0.4604
  895TIP3    H2 2692   0.074   3.393   1.807 -0.4114 -0.2961  0.9084
  896TIP3   OH2 2693   0.174   5.855   0.772  0.4581 -0.4771  0.0185
  896TIP3    H1 2694   0.133   5.941   0.770  0.8507 -0.2375  1.2301
  896TIP3    H2 2695   0.108   5.796   0.736 -0.8981 -0.0648  1.7031
  897TIP3   OH2 2696   2.643   3.191   3.178 -0.2560  0.3365 -0.3490
  897TIP3    H1 2697   2.564   3.211   3.127  0.2863 -1.7240 -2.1440
  897TIP3    H2 2698   2.716   3.210   3.118  0.5075  0.0064  0.4532
  898TIP3   OH2 2699   1.927   3.369   3.114  0.3937  0.4032 -0.3288
  898TIP3    H1 2700   1.860   3.378   3.047  1.8497 -1.1726 -2.0826
  898TIP3    H2 2701   1.904   3.435   3.180 -1.8486  1.0742 -1.6982
  899TIP3   OH2 2702   3.582   4.710   1.846 -0.4056 -0.1860 -0.6049
  899TIP3    H1 2703   3.537   4.794   1.855 -3.2848 -1.6579 -0.0893
  899TIP3    H2 2704   3.585   4.694   1.752 -2.0219 -0.5151 -0.6346
  900TIP3   OH2 2705   3.201   5.577   4.146  0.1943 -0.1282  0.5596
  900TIP3    H1 2706   3.294   5.564   4.127  0.2557  0.7595  0.2019
  900TIP3    H2 2707   3.200   5.638   4.220 -0.0917  0.9667 -0.3104
  901TIP3   OH2 2708   5.227   3.624   0.300 -0.1820  0.1610 -0.6513
  901TIP3    H1 2709   5.192   3.537   0.318  0.6059 -0.1854 -0.7676
  901TIP3    H2 2710   5.176   3.682   0.356 -0.9255 -0.3282 -0.7939
  902TIP3   OH2 2711   3.711   1.063   1.844 -0.2477 -0.0717 -0.0691
  902TIP3    H1 2712   3.671   1.066   1.757  0.8713  1.0169 -0.5639
  902TIP3    H2 2713   3.803   1.045   1.827 -0.0577 -0.0393  0.9046
  903TIP3   OH2 2714   5.190   3.416   1.306 -0.0513 -0.6320 -0.2748
  903TIP3    H1 2715   5.179   3.407   1.212  1.8800 -1.0092 -0.4892
  903TIP3    H2 2716   5.158   3.505   1.325 -0.8758 -0.7162 -1.1813
  904TIP3   OH2 2717   6.279   3.510   0.182  0.2842 -0.4009 -0.5761
  904TIP3    H1 2718   6.204   3.452   0.195  1.0121 -1.6785 -1.9019
  904TIP3    H2 2719   6.285   3.521   0.087  2.9442 -1.9418 -0.6843
  905TIP3   OH2 2720   2.038   1.773   1.904 -0.1055 -0.1559 -0.0044
  905TIP3    H1 2721   1.944   1.775   1.921 -0.5105 -3.2497 -1.1897
  905TIP3    H2 2722   2.047   1.719   1.825  2.6252  0.8553 -0.5027
  906TIP3   OH2 2723   5.343   4.372   5.000  0.0744  0.5100 -0.2161
  906TIP3    H1 2724   5.353   4.288   5.046  1.1137 -0.6685 -2.4197
  906TIP3    H2 2725   5.402   4.432   5.047 -0.5038 -0.0261  1.2506
  907TIP3   OH2 2726   2.844   2.663   1.768 -0.1474  0.4721 -0.0661
  907TIP3    H1 2727   2.767   2.671   1.711  1.4273 -0.6205 -2.4904
  907TIP3    H2 2728   2.850   2.747   1.813 -2.1909  0.9121 -0.5192
  908TIP3   OH2 2729   0.795   0.349   2.922  0.0120  0.2442  0.0504
  908TIP3    H1 2730   0.713   0.397   2.929 -0.0804  0.0031  0.6383
  908TIP3    H2 2731   0.857   0.399   2.976  0.2761  0.4666 -0.4494
  909TIP3   OH2 2732   0.058   2.554   3.830  0.2773 -0.5290 -0.5515
  909TIP3    H1 2733   0.083   2.463   3.849  1.4540 -0.1576 -0.2214
  909TIP3    H2 2734   0.138   2.604   3.846  0.3226  0.2835 -2.9762
  910TIP3   OH2 2735   3.462   0.580   3.403  0.2951 -0.0046 -0.4917
  910TIP3    H1 2736   3.413   0.511   3.449  0.3671  0.1385 -0.1954
  910TIP3    H2 2737   3.500   0.633   3.474  0.1911  0.3730 -0.7171
  911TIP3   OH2 2738   0.602   2.800   4.718 -0.7239  0.0085  0.3809
  911TIP3    H1 2739   0.668   2.852   4.673 -0.9233  0.3826  0.5107
  911TIP3    H2 2740   0.518   2.839   4.691 -0.8276  0.5432  1.4312
  912TIP3   OH2 2741   0.445   0.950   3.040 -0.0065  0.0977  0.2677
  912TIP3    H1 2742   0.531   0.910   3.023 -0.7082 -2.0626  1.3745
  912TIP3    H2 2743   0.389   0.915   2.971 -0.5744 -0.6582  1.0919
  913TIP3   OH2 2744   1.804   0.326   2.842 -0.5302  0.0575 -0.0919
  913TIP3    H1 2745   1.888   0.370   2.857 -1.0146  0.2624  2.3751
  913TIP3    H2 2746   1.818   0.236   2.869 -1.6339  0.5985  2.5507
  914TIP3   OH2 2747   2.479   1.188   1.901  0.1580  0.4425 -0.0110
  914TIP3    H1 2748   2.459   1.263   1.845 -2.0147  0.0130  0.0992
  914TIP3    H2 2749   2.398   1.137   1.903  1.4587 -1.7753  0.1712
  915TIP3   OH2 2750   0.039   4.031   0.044 -0.1826 -0.2503 -0.0781
  915TIP3    H1 2751  -0.042   4.043  -0.006 -0.3195  0.0174  0.2032
  915TIP3    H2 2752   0.082   3.957   0.003  0.0896  0.4579 -1.1004
  916TIP3   OH2 2753   0.521   1.042   0.758 -0.3037 -0.0900  0.0434
  916TIP3    H1 2754   0.437   1.087   0.750 -0.4064 -0.3304 -0.2522
  916TIP3    H2 2755   0.498   0.953   0.786 -0.2483 -0.5570 -1.3434
  917TIP3   OH2 2756   3.189   1.811   3.834  0.3851 -0.4659  0.4872
  917TIP3    H1 2757   3.128   1.844   3.900  0.6217 -2.5209  1.8279
  917TIP3    H2 2758   3.275   1.841   3.864  0.5302 -1.6600  1.3726
  918TIP3   OH2 2759   0.323   1.538   1.932 -0.4486 -0.2578  0.4155
  918TIP3    H1 2760   0.239   1.573   1.963 -1.5064 -0.4606 -2.0380
  918TIP3    H2 2761   0.307   1.445   1.916  0.7517 -0.6852  1.4742
  919TIP3   OH2 2762   3.794   1.472   2.262 -0.0157  0.0588 -0.4157
  919TIP3    H1 2763   3.707   1.438   2.284  0.2015 -0.2244  0.0262
  919TIP3    H2 2764   3.839   1.397   2.222 -0.1425  0.3503 -1.1185
  920TIP3   OH2 2765   5.413   3.290   4.550  0.2788 -0.3880 -0.0095
  920TIP3    H1 2766   5.489   3.347   4.540 -0.0668  0.1703  0.4546
  920TIP3    H2 2767   5.352   3.340   4.604  0.2658 -1.4768  1.0392
  921TIP3   OH2 2768   4.298   0.295   4.055  0.6019  0.2895  0.1588
  921TIP3    H1 2769   4.313   0.229   4.122 -2.9282 -1.2993 -0.3450
  921TIP3    H2 2770   4.343   0.261   3.977  1.4349  0.1393  0.6950
  922TIP3   OH2 2771   3.364   0.626   0.777  0.2272 -0.6612  0.5616
  922TIP3    H1 2772   3.273   0.595   0.778  0.2730 -0.7973  1.0362
  922TIP3    H2 2773   3.362   0.706   0.830  0.3897 -0.6860  0.6052
  923TIP3   OH2 2774   1.151   4.937   2.375  0.0375 -0.2382 -0.1156
  923TIP3    H1 2775   1.188   4.996   2.309  0.1218 -1.0673 -0.8354
  923TIP3    H2 2776   1.057   4.952   2.371  0.1971  1.3877  1.2373
  924TIP3   OH2 2777   1.157   5.828   1.245  0.3229  0.3991 -0.6512
  924TIP3    H1 2778   1.146   5.734   1.227  0.7112 -0.0047  1.0377
  924TIP3    H2 2779   1.240   5.833   1.292 -0.3270  1.4125  0.4361
  925TIP3   OH2 2780   2.877   5.324   1.621  0.1650 -0.5675  0.4643
  925TIP3    H1 2781   2.798   5.365   1.654  1.1453  0.2590  1.8645
  925TIP3    H2 2782   2.854   5.296   1.532 -2.2024 -1.8663  1.4069
  926TIP3   OH2 2783   1.398   4.111   2.620  0.4161 -0.5194 -0.1507
  926TIP3    H1 2784   1.436   4.162   2.548 -0.6971  1.4829  0.6040
  926TIP3    H2 2785   1.471   4.093   2.679  1.0563 -0.9247 -1.0484
  927TIP3   OH2 2786   1.250   1.075   1.838  0.2822 -0.5010 -0.3703
  927TIP3    H1 2787   1.211   1.155   1.874 -0.2759 -0.6253 -0.6851
  927TIP3    H2 2788   1.203   1.004   1.881  1.2870 -0.6819  0.4646
  928TIP3   OH2 2789   2.311   0.371   3.999  0.6858 -0.2256  0.5525
  928TIP3    H1 2790   2.255   0.295   4.017 -2.2225  1.7040  0.2966
  928TIP3    H2 2791   2.337   0.361   3.908  0.2080 -0.8249  0.4775
  929TIP3   OH2 2792   6.014   5.364   2.567 -0.3747 -0.2862 -0.2802
  929TIP3    H1 2793   6.108   5.346   2.567  0.2765  2.6348 -1.2713
  929TIP3    H2 2794   5.998   5.410   2.650 -0.6163  0.5034 -0.7533
  930TIP3   OH2 2795   3.197   4.086   2.868  0.1366 -0.1382  0.4460
  930TIP3    H1 2796   3.214   4.065   2.960 -2.6548  0.0737  1.0792
  930TIP3    H2 2797   3.259   4.031   2.819  2.3976  0.4988  2.4184
  931TIP3   OH2 2798   0.746   1.511   4.659  0.4956 -0.5547 -0.2862
  931TIP3    H1 2799   0.771   1.589   4.609 -1.7460  0.9913  0.8082
  931TIP3    H2 2800   0.695   1.459   4.597  1.7676 -1.0714 -0.9424
  932TIP3   OH2 2801   3.842   4.840   3.217  0.3187 -0.6267  0.3161
  932TIP3    H1 2802   3.752   4.829   3.248 -0.0284  0.4365 -0.2567
  932TIP3    H2 2803   3.838   4.913   3.156  1.4815 -0.9189 -0.1482
  933TIP3   OH2 2804   4.727   2.075   1.761 -0.3108 -0.2256  0.4658
  933TIP3    H1 2805   4.720   2.107   1.851 -1.3530  0.0823  0.2868
  933TIP3    H2 2806   4.764   2.148   1.712  0.4320 -0.4548  0.6595
  934TIP3   OH2 2807   3.594   4.408   0.867 -0.2244  0.0232 -0.0734
  934TIP3    H1 2808   3.660   4.375   0.928  1.3636  0.5668 -1.4238
  934TIP3    H2 2809   3.596   4.503   0.878 -3.0026 -0.0318  2.0087
  935TIP3   OH2 2810   3.642   1.388   1.297  0.0733 -0.0970 -0.4317
  935TIP3    H1 2811   3.577   1.406   1.365  0.4805  0.0321 -0.0700
  935TIP3    H2 2812   3.725   1.387   1.344  0.5412  1.5024 -1.1539
  936TIP3   OH2 2813   1.115   4.574   3.278 -0.6147  0.1389 -0.1745
  936TIP3    H1 2814   1.098   4.499   3.221  0.0285 -0.8692  0.9103
  936TIP3    H2 2815   1.072   4.552   3.360 -0.5384  1.0394  0.1235
  937TIP3   OH2 2816   6.030   1.080   0.053  0.1672  0.3978 -0.2923
  937TIP3    H1 2817   6.109   1.116   0.012  1.8209 -0.0268  2.3123
  937TIP3    H2 2818   6.061   1.002   0.099 -2.2431 -1.0971 -1.0043
  938TIP3   OH2 2819   3.202   2.333   1.674  0.7065  0.0387 -0.0942
  938TIP3    H1 2820   3.231   2.351   1.763 -3.6267  1.1673  1.3661
  938TIP3    H2 2821   3.172   2.418   1.640 -0.3315 -0.8251 -1.4880
  939TIP3   OH2 2822   5.627   1.050   5.072  0.3775 -0.2562 -0.2391
  939TIP3    H1 2823   5.638   1.023   4.981 -0.0437  2.0577 -1.0395
  939TIP3    H2 2824   5.560   0.992   5.107 -0.5924 -0.1826 -1.8873
  940TIP3   OH2 2825   1.548   5.440   2.558 -0.0344 -0.4029  0.3996
  940TIP3    H1 2826   1.618   5.440   2.624 -0.6574  0.9425  1.1003
  940TIP3    H2 2827   1.470   5.415   2.606 -0.0020 -2.3921 -0.4840
  941TIP3   OH2 2828   5.687   0.850   0.673  0.3374  0.4653  0.1285
  941TIP3    H1 2829   5.661   0.934   0.634  0.9193  0.6215  0.0619
  941TIP3    H2 2830   5.705   0.871   0.765  1.7217  0.6892 -0.1713
  942TIP3   OH2 2831   0.222   4.890   0.858  0.4867 -0.1116 -0.0084
  942TIP3    H1 2832   0.249   4.965   0.911  1.1123 -0.3824  0.0639
  942TIP3    H2 2833   0.304   4.851   0.827  0.1980 -1.0559  0.3658
  943TIP3   OH2 2834   0.192   4.234   1.485  0.0548  0.2770  0.2698
  943TIP3    H1 2835   0.191   4.200   1.574 -0.1000 -0.6851 -0.0842
  943TIP3    H2 2836   0.241   4.316   1.490 -0.1970  0.3689  1.2842
  944TIP3   OH2 2837   1.494   2.065   3.700  0.5243 -0.0705  0.0987
  944TIP3    H1 2838   1.455   2.119   3.770  0.1420  0.3756 -0.4455
  944TIP3    H2 2839   1.527   2.129   3.637  0.1621 -0.4758 -0.5087
  945TIP3   OH2 2840   5.872   5.577   1.616  0.2347 -0.1984 -0.4157
  945TIP3    H1 2841   5.903   5.487   1.629  0.9217 -0.2038 -1.8438
  945TIP3    H2 2842   5.881   5.619   1.702  0.0067 -1.4520  0.2397
  946TIP3   OH2 2843   0.068   1.225   0.454 -0.2230 -0.5236  0.0341
  946TIP3    H1 2844   0.022   1.214   0.371  0.5502  0.6327 -0.5894
  946TIP3    H2 2845   0.028   1.303   0.492 -0.4165 -0.9194  0.6386
  947TIP3   OH2 2846   4.947   0.515   1.718  0.1551 -0.0343  0.2569
  947TIP3    H1 2847   4.891   0.541   1.791 -0.2898  0.2621 -0.1840
  947TIP3    H2 2848   5.033   0.549   1.741  0.5335 -1.7971  1.6645
  948TIP3   OH2 2849   2.233   5.609   4.019  0.0362 -0.0773  0.2661
  948TIP3    H1 2850   2.170   5.539   4.002  1.0488 -0.7033 -1.1007
  948TIP3    H2 2851   2.246   5.608   4.113 -0.8227 -0.9653  0.3868
  949TIP3   OH2 2852   1.080   0.687   4.258 -0.1660  0.5495 -0.7557
  949TIP3    H1 2853   1.024   0.699   4.181 -1.0692 -0.0646 -0.2096
  949TIP3    H2 2854   1.152   0.632   4.226  1.1029  2.7034 -1.8910
  950TIP3   OH2 2855   0.676   5.212   1.398  0.5230  0.0398  0.2388
  950TIP3    H1 2856   0.640   5.199   1.485 -1.9407  2.9111 -0.2234
  950TIP3    H2 2857   0.714   5.300   1.400 -0.2440  0.4619 -1.7685
  951TIP3   OH2 2858   1.922   0.066   2.223  0.5199 -0.0762 -0.1735
  951TIP3    H1 2859   1.944   0.008   2.149 -1.1146 -1.5380  0.4122
  951TIP3    H2 2860   1.922   0.008   2.299  2.7979  1.5304  1.1427
  952TIP3   OH2 2861   2.537   5.418   2.162  0.5755  0.0591 -0.5617
  952TIP3    H1 2862   2.596   5.348   2.189  0.2595 -1.1694 -2.8289
  952TIP3    H2 2863   2.594   5.487   2.128  0.8216  0.3528  0.4174
  953TIP3   OH2 2864   4.189   2.897   3.717 -0.4256 -0.2591 -0.1503
  953TIP3    H1 2865   4.102   2.897   3.676  0.5918 -0.2953 -2.4325
  953TIP3    H2 2866   4.244   2.849   3.656  1.0175 -1.1321  1.7666
  954TIP3   OH2 2867   0.299   1.195   0.780  0.2310 -0.0768 -0.0803
  954TIP3    H1 2868   0.230   1.246   0.737  0.6839  0.7502  0.1458
  954TIP3    H2 2869   0.321   1.246   0.858  0.6296 -0.6789  0.2046
  955TIP3   OH2 2870   2.881   0.337   1.746  0.3105  0.3289  0.1064
  955TIP3    H1 2871   2.824   0.408   1.717 -0.6034 -0.0842  0.8304
  955TIP3    H2 2872   2.823   0.280   1.797  1.1047 -0.7572 -0.1870
  956TIP3   OH2 2873   4.083   2.285   4.534 -0.0458 -0.6049  0.1442
  956TIP3    H1 2874   4.035   2.331   4.465 -0.1065 -0.5857  0.1985
  956TIP3    H2 2875   4.107   2.201   4.495  0.2000 -0.4667 -0.0076
  957TIP3   OH2 2876   0.559   5.813   2.520  0.2514 -0.3515 -0.2944
  957TIP3    H1 2877   0.633   5.774   2.472 -0.2378 -0.8744 -0.6472
  957TIP3    H2 2878   0.540   5.894   2.473 -0.7024 -1.2193 -1.4908
  958TIP3   OH2 2879   0.717   3.594   0.792  0.2067  0.3275 -0.3226
  958TIP3    H1 2880   0.708   3.519   0.734 -0.3216  1.0515 -1.2014
  958TIP3    H2 2881   0.779   3.566   0.858  0.6467 -0.5986 -1.1104
  959TIP3   OH2 2882   2.324   2.410   3.805 -0.6886  1.0443 -0.1700
  959TIP3    H1 2883   2.234   2.383   3.828  0.0967 -2.2215 -0.4735
  959TIP3    H2 2884   2.321   2.428   3.712 -0.7034 -1.0147 -0.6161
  960TIP3   OH2 2885   2.125   5.296   3.055 -0.3943 -0.2379 -0.2478
  960TIP3    H1 2886   2.130   5.238   2.979 -0.9832  0.5909 -0.9321
  960TIP3    H2 2887   2.032   5.299   3.076 -0.3577  0.3985 -0.1730
  961TIP3   OH2 2888   5.332   0.823   0.971 -0.2669  0.0701 -0.5654
  961TIP3    H1 2889   5.261   0.785   0.919  0.3800 -0.1400 -1.3103
  961TIP3    H2 2890   5.410   0.775   0.944  0.1346  0.1589  0.3944
  962TIP3   OH2 2891   4.778   2.677   2.168  0.3929  0.3319 -0.1380
  962TIP3    H1 2892   4.864   2.666   2.207  0.3564  0.3322 -0.0565
  962TIP3    H2 2893   4.735   2.743   2.223  1.2161  2.1557 -1.6194
  963TIP3   OH2 2894   2.329   0.346   0.203 -0.4163 -0.3071 -0.2528
  963TIP3    H1 2895   2.415   0.379   0.175 -0.5126  0.8862  0.8113
  963TIP3    H2 2896   2.277   0.345   0.123  1.2358 -3.4159 -1.4804
  964TIP3   OH2 2897   3.328   4.601   4.960  0.1399 -0.1257 -0.2338
  964TIP3    H1 2898   3.313   4.610   4.866 -0.2959 -0.9648 -0.2546
  964TIP3    H2 2899   3.274   4.669   5.000 -1.0912 -0.8961 -0.5096
  965TIP3   OH2 2900   4.505   0.738   2.076  0.1552  0.1138 -0.1852
  965TIP3    H1 2901   4.483   0.793   2.001  0.4689 -1.2910 -1.3453
  965TIP3    H2 2902   4.569   0.789   2.126 -1.7303  2.0443  0.4196
  966TIP3   OH2 2903   2.668   0.227   1.880  0.4866 -0.0043 -0.4716
  966TIP3    H1 2904   2.630   0.240   1.967  2.4812  1.6285  0.2228
  966TIP3    H2 2905   2.598   0.252   1.819 -0.6524 -0.3600  0.6384
  967TIP3   OH2 2906   1.161   3.004   4.780 -0.0813 -0.1369 -0.0297
  967TIP3    H1 2907   1.216   3.082   4.777  0.6161 -0.6296 -0.5650
  967TIP3    H2 2908   1.223   2.931   4.770 -0.1988 -0.9989  3.8908
  968TIP3   OH2 2909   1.757   0.217   2.530  0.4543  0.3592  0.0697
  968TIP3    H1 2910   1.715   0.242   2.613 -0.6048  0.0584 -0.3583
  968TIP3    H2 2911   1.828   0.158   2.556 -0.8142 -0.9668  0.6840
  969TIP3   OH2 2912   4.495   0.180   1.368 -0.1090  0.5071  0.1712
  969TIP3    H1 2913   4.500   0.227   1.452 -0.3884  0.8653 -0.0083
  969TIP3    H2 2914   4.476   0.090   1.392  2.6210 -0.0232  0.6557
  970TIP3   OH2 2915   1.101   4.437   4.534  0.1439 -0.1085  0.4301
  970TIP3    H1 2916   1.175   4.497   4.520  1.8079 -1.9634  0.7494
  970TIP3    H2 2917   1.035   4.465   4.471  0.5287  2.4866  1.0849
  971TIP3   OH2 2918   5.170   1.783   2.719  0.1081 -0.2841  0.3212
  971TIP3    H1 2919   5.194   1.794   2.811 -0.2014  0.0160  0.3684
  971TIP3    H2 2920   5.214   1.855   2.674  0.2689 -0.4378  0.2317
  972TIP3   OH2 2921   4.309   1.379   0.022 -0.1907  0.3860 -0.1711
  972TIP3    H1 2922   4.285   1.291  -0.005 -1.0624  0.4012  0.4948
  972TIP3    H2 2923   4.329   1.372   0.115  0.6158  0.7356 -0.3050
  973TIP3   OH2 2924   6.198   4.026   0.980  0.0928  0.0096 -0.6444
  973TIP3    H1 2925   6.235   3.946   0.941  1.5623  0.6402 -0.5987
  973TIP3    H2 2926   6.236   4.097   0.929  2.1936  0.8850  1.9392
  974TIP3   OH2 2927   3.019   1.458   4.822 -0.3319  0.2106 -0.0635
  974TIP3    H1 2928   3.062   1.435   4.739  1.3881  1.0628  0.5419
  974TIP3    H2 2929   2.927   1.467   4.799  0.1733  0.9472 -2.0127
  975TIP3   OH2 2930   0.610   1.552   3.254  0.0670 -0.2822  0.0316
  975TIP3    H1 2931   0.538   1.604   3.217  0.6907  0.8577  0.3720
  975TIP3    H2 2932   0.672   1.617   3.287  0.9763 -1.2558  0.2881
  976TIP3   OH2 2933   0.573   0.726   4.034 -0.3135  0.1054  0.6383
  976TIP3    H1 2934   0.527   0.655   3.991  1.5506 -1.2254  0.7197
  976TIP3    H2 2935   0.615   0.775   3.963  0.5072 -0.4410  0.7346
  977TIP3   OH2 2936   3.259   5.838   3.377 -0.6701  0.1832  0.6735
  977TIP3    H1 2937   3.208   5.918   3.374 -1.3440 -0.0216  3.3725
  977TIP3    H2 2938   3.309   5.845   3.459  1.2340 -1.0391 -0.2973
  978TIP3   OH2 2939   6.295   1.995   2.690 -0.2333  0.5841  0.4858
  978TIP3    H1 2940   6.373   1.961   2.736  0.6718 -0.6268 -1.7980
  978TIP3    H2 2941   6.302   2.090   2.699  1.5501  0.5036  0.2986
  979TIP3   OH2 2942   3.771   5.464   1.611 -0.2356  0.0745  0.6334
  979TIP3    H1 2943   3.722   5.542   1.585 -0.6317  0.4897  2.4797
  979TIP3    H2 2944   3.705   5.406   1.650 -0.0301 -1.4242 -1.0828
  980TIP3   OH2 2945   0.390   5.851   0.925  0.0788 -0.0448 -0.0653
  980TIP3    H1 2946   0.303   5.847   0.886 -0.0168  0.6742  0.0677
  980TIP3    H2 2947   0.450   5.865   0.851 -0.0326  0.5965 -0.0389
  981TIP3   OH2 2948   3.944   1.412   4.351 -0.1841 -0.2985  0.4057
  981TIP3    H1 2949   3.978   1.430   4.439  0.8467 -0.3944  0.0409
  981TIP3    H2 2950   4.016   1.436   4.292 -0.7459 -0.5408 -0.3920
  982TIP3   OH2 2951   2.892   0.817   0.247 -0.1156 -0.0129 -0.3011
  982TIP3    H1 2952   2.977   0.860   0.253 -0.8956  1.5690  0.0369
  982TIP3    H2 2953   2.912   0.726   0.226  1.6403  0.3612 -0.3793
  983TIP3   OH2 2954   1.099   5.703   4.572 -0.4323 -0.6300  0.3802
  983TIP3    H1 2955   1.085   5.628   4.630  0.1216 -0.1406  1.1666
  983TIP3    H2 2956   1.193   5.705   4.558 -0.3944  0.1346  0.6761
  984TIP3   OH2 2957   0.904   2.424   1.886 -0.0613 -0.0907  0.3037
  984TIP3    H1 2958   0.997   2.441   1.875 -0.6076  2.0342 -2.1215
  984TIP3    H2 2959   0.873   2.497   1.940 -0.7260  1.0000 -1.4408
  985TIP3   OH2 2960   5.538   1.936   1.806  0.1200  0.1327 -0.3787
  985TIP3    H1 2961   5.489   1.855   1.786  0.0035  0.0893  0.0647
  985TIP3    H2 2962   5.470   2.002   1.818  0.1701  0.0982  0.1277
  986TIP3   OH2 2963   3.946   3.853   4.530 -0.6304  0.4703 -0.8727
  986TIP3    H1 2964   3.884   3.847   4.458 -0.0844 -2.3388 -1.2333
  986TIP3    H2 2965   3.906   3.803   4.601 -0.8805  2.6861  0.6477
  987TIP3   OH2 2966   2.060   2.222   3.669  0.1217  0.6437 -0.1001
  987TIP3    H1 2967   2.026   2.142   3.630  1.7252 -0.5768  0.8559
  987TIP3    H2 2968   2.036   2.216   3.761  2.0582  0.1438  0.4315
  988TIP3   OH2 2969   5.956   2.610   1.856 -0.0237  0.3230 -0.0608
  988TIP3    H1 2970   5.920   2.696   1.836 -1.4695 -0.4195 -0.8220
  988TIP3    H2 2971   6.036   2.605   1.804 -0.3040  0.9391 -0.5628
  989TIP3   OH2 2972   1.085   0.664   3.301  0.1375  0.2803 -0.8098
  989TIP3    H1 2973   1.067   0.714   3.221 -3.9919 -1.1074 -0.9800
  989TIP3    H2 2974   1.011   0.684   3.359  2.1555 -0.0426  2.0842
  990TIP3   OH2 2975   5.233   4.258   3.358  0.1086  0.0074 -0.7460
  990TIP3    H1 2976   5.221   4.164   3.348  0.6070 -0.3228  1.2470
  990TIP3    H2 2977   5.305   4.267   3.420  0.8227  1.7431 -1.7478
  991TIP3   OH2 2978   0.462   0.017   3.140  0.6873  0.3181  0.2588
  991TIP3    H1 2979   0.481   0.100   3.185  0.9580  0.8140 -0.7528
  991TIP3    H2 2980   0.373  -0.005   3.168  0.4998  1.1041  0.3173
  992TIP3   OH2 2981   0.505   4.368   4.045  0.1357 -0.3628  0.2365
  992TIP3    H1 2982   0.461   4.390   3.962  0.2129 -1.8249 -0.2272
  992TIP3    H2 2983   0.567   4.440   4.059 -1.3545  0.9932  0.1487
  993TIP3   OH2 2984   6.161   3.358   0.883 -0.0856  0.4483  0.2046
  993TIP3    H1 2985   6.207   3.442   0.894 -0.1549  0.3583  1.2691
  993TIP3    H2 2986   6.174   3.312   0.965 -0.1626 -0.5460 -0.3237
  994TIP3   OH2 2987   0.146   3.005   2.285  0.5663 -0.3016 -0.1860
  994TIP3    H1 2988   0.118   3.051   2.205  1.3487 -1.8873 -1.4309
  994TIP3    H2 2989   0.236   3.037   2.300  0.8781 -0.9205 -0.6858
  995TIP3   OH2 2990   1.407   0.827   4.872  0.0313  0.0045 -0.1435
  995TIP3    H1 2991   1.413   0.737   4.840  3.0021 -0.3253  1.1138
  995TIP3    H2 2992   1.343   0.823   4.943 -1.4302 -0.6045 -1.4088
  996TIP3   OH2 2993   0.535   5.295   2.928  0.5960 -0.6144  0.4131
  996TIP3    H1 2994   0.620   5.279   2.887  0.5173 -0.6528  0.2621
  996TIP3    H2 2995   0.515   5.213   2.974  0.4162 -0.7852  0.0406
  997TIP3   OH2 2996   6.265   4.691   4.880 -0.2522  0.2287 -0.3244
  997TIP3    H1 2997   6.225   4.627   4.940 -1.0059  0.0461 -1.0145
  997TIP3    H2 2998   6.257   4.652   4.793  2.5921 -0.4233 -0.3977
  998TIP3   OH2 2999   2.944   0.966   2.136 -0.1870  0.2626 -0.8478
  998TIP3    H1 3000   2.864   0.923   2.106  0.5284 -2.4646  0.7694
  998TIP3    H2 3001   3.013   0.934   2.077  0.6439 -2.4593  1.3598
  999TIP3   OH2 3002   0.336   3.200   0.367  0.5976 -0.7020 -0.7349
  999TIP3    H1 3003   0.302   3.110   0.376 -0.1104 -0.2942  1.1591
  999TIP3    H2 3004   0.383   3.199   0.283  0.2403 -2.7131 -0.9814
 1000TIP3   OH2 3005   4.895   0.453   4.100 -0.5226 -0.1689 -0.0351
 1000TIP3    H1 3006   4.886   0.542   4.068  0.6855 -0.2462 -0.6432
 1000TIP3    H2 3007   4.831   0.403   4.049 -2.2412  0.5492  1.3160
 1001TIP3   OH2 3008   4.271   3.835   2.802 -0.0336  1.1807 -0.1853
 1001TIP3    H1 3009   4.242   3.925   2.792  2.5742  1.8754 -2.8694
 1001TIP3    H2 3010   4.360   3.834   2.767  1.0859 -1.9149  2.2389
 1002TIP3   OH2 3011   5.441   1.119   3.474 -0.6412  0.6255  0.1747
 1002TIP3    H1 3012   5.391   1.169   3.410 -0.2428  0.3595 -0.3513
 1002TIP3    H2 3013   5.380   1.052   3.504 -1.0775  1.2180  0.6540
 1003TIP3   OH2 3014   0.206   0.741   0.292 -0.9267  0.0057 -0.4722
 1003TIP3    H1 3015   0.300   0.759   0.287 -0.8906 -0.3832 -1.5732
 1003TIP3    H2 3016   0.165   0.827   0.286 -0.6422  0.1766 -0.0138
 1004TIP3   OH2 3017   3.997   4.704   2.601  0.5210 -0.0796 -0.8704
 1004TIP3    H1 3018   3.911   4.732   2.570 -0.1456 -1.6508 -0.5224
 1004TIP3    H2 3019   4.050   4.784   2.601 -0.8298  0.8430 -1.4262
 1005TIP3   OH2 3020   5.014   0.641   2.391  0.0289  0.6016 -0.1526
 1005TIP3    H1 3021   5.083   0.612   2.332 -0.8956 -0.2759 -0.8215
 1005TIP3    H2 3022   4.933   0.633   2.341 -0.7266  0.2976  1.0567
 1006TIP3   OH2 3023   1.535   3.069   2.326  0.6318  0.1360 -0.0810
 1006TIP3    H1 3024   1.536   3.161   2.300  1.5117  0.0650 -0.3504
 1006TIP3    H2 3025   1.527   3.071   2.422  0.2189  0.4747 -0.1206
 1007TIP3   OH2 3026   0.473   4.774   4.748  0.0869  0.0472 -0.1404
 1007TIP3    H1 3027   0.404   4.748   4.687 -1.6996 -2.3333  2.6126
 1007TIP3    H2 3028   0.530   4.698   4.754  0.6261  0.4946  0.6147
 1008TIP3   OH2 3029   1.733   0.848   1.065  0.7570 -0.7483 -0.1046
 1008TIP3    H1 3030   1.727   0.758   1.096 -0.5767 -1.4890 -2.2666
 1008TIP3    H2 3031   1.654   0.890   1.100  1.0104 -0.6294  0.3193
 1009TIP3   OH2 3032   0.716   5.683   4.337  0.0657  0.0004  0.1901
 1009TIP3    H1 3033   0.780   5.616   4.358  0.7885  0.6848  0.2180
 1009TIP3    H2 3034   0.760   5.766   4.359 -0.4162  0.5390 -0.8302
 1010TIP3   OH2 3035   1.095   3.705   0.817  0.0565 -0.3410  0.6332
 1010TIP3    H1 3036   1.083   3.716   0.723  0.4494 -0.9722  0.5024
 1010TIP3    H2 3037   1.188   3.726   0.832 -0.0713  0.0229  0.9201
 1011TIP3   OH2 3038   2.488   2.830   0.839  0.2104  0.2432 -0.1115
 1011TIP3    H1 3039   2.481   2.894   0.909  0.1408 -0.2096  0.3025
 1011TIP3    H2 3040   2.400   2.795   0.829  0.7782 -2.0392  1.8438
 1012TIP3   OH2 3041   1.338   3.334   2.707  0.2224 -0.0934 -0.0186
 1012TIP3    H1 3042   1.340   3.322   2.802  0.4239 -2.3890 -0.2507
 1012TIP3    H2 3043   1.298   3.420   2.694 -0.1407  0.1148  2.1237
 1013TIP3   OH2 3044   2.073   1.636   2.829  0.2692 -0.3622 -0.0543
 1013TIP3    H1 3045   2.057   1.581   2.753 -2.1288 -1.2784  1.0237
 1013TIP3    H2 3046   2.016   1.601   2.897  1.3601  1.2315  1.8036
 1014TIP3   OH2 3047   6.354   1.954   1.319 -0.3061  0.1454 -0.3704
 1014TIP3    H1 3048   6.413   1.930   1.248 -0.1000 -0.6812  0.0729
 1014TIP3    H2 3049   6.268   1.924   1.290 -0.3567  0.5087 -0.6049
 1015TIP3   OH2 3050   5.724   3.017   1.161 -0.4495 -0.2922  0.0468
 1015TIP3    H1 3051   5.795   3.043   1.102  1.0484 -1.2549  1.3555
 1015TIP3    H2 3052   5.736   3.070   1.239 -0.4108 -1.3164  0.7576
 1016TIP3   OH2 3053   2.982   2.415  -0.026  0.1035 -0.7529  0.0053
 1016TIP3    H1 3054   2.940   2.345   0.024 -1.3293 -0.0550 -0.1537
 1016TIP3    H2 3055   2.979   2.491   0.033 -0.5202 -0.2369 -0.6704
 1017TIP3   OH2 3056   3.470   5.516   5.158  0.0779  0.4843  0.4110
 1017TIP3    H1 3057   3.489   5.607   5.138  0.8963  0.5402  1.3990
 1017TIP3    H2 3058   3.515   5.466   5.090 -0.8219  0.8087 -0.4583
 1018TIP3   OH2 3059   4.474   0.126   2.885 -0.3098  0.0244 -0.4956
 1018TIP3    H1 3060   4.428   0.125   2.969 -1.3734  1.6222 -1.0112
 1018TIP3    H2 3061   4.439   0.050   2.838  1.0281 -1.4689  0.8339
 1019TIP3   OH2 3062   3.567   2.150   2.373 -0.2452 -0.4761 -0.3492
 1019TIP3    H1 3063   3.659   2.158   2.349  0.2752  1.8476  1.9819
 1019TIP3    H2 3064   3.567   2.091   2.449 -0.4953  0.5173  0.4347
 1020TIP3   OH2 3065   1.507   5.024   3.717 -0.1199  0.0877  0.8914
 1020TIP3    H1 3066   1.471   4.973   3.644  0.6476  1.0995 -0.2333
 1020TIP3    H2 3067   1.443   5.094   3.731 -0.3857 -0.2482  1.3516
 1021TIP3   OH2 3068   5.594   3.472   4.816  0.3510 -0.1631  0.2647
 1021TIP3    H1 3069   5.512   3.422   4.813  0.5355 -0.5269  0.9242
 1021TIP3    H2 3070   5.639   3.449   4.735 -0.4387  0.4798 -0.3785
 1022TIP3   OH2 3071   5.674   4.917   0.707  0.3123 -0.2522  0.4890
 1022TIP3    H1 3072   5.686   5.007   0.739 -1.1535  0.1817 -0.0823
 1022TIP3    H2 3073   5.728   4.913   0.628  0.1477  0.2469  0.3445
 1023TIP3   OH2 3074   5.165   5.316   3.738  0.2507 -0.2468 -0.2248
 1023TIP3    H1 3075   5.228   5.308   3.810 -0.7296 -0.5122  0.6379
 1023TIP3    H2 3076   5.085   5.350   3.780  0.3975  1.9991 -1.6328
 1024TIP3   OH2 3077   4.814   2.107   0.910  0.0431  0.2077 -0.4837
 1024TIP3    H1 3078   4.832   2.066   0.995 -1.1529 -0.8045 -0.6822
 1024TIP3    H2 3079   4.891   2.160   0.892  0.5878 -0.0478  0.9479
 1025TIP3   OH2 3080   0.497   3.683   4.852 -0.5128  0.4299  0.2964
 1025TIP3    H1 3081   0.471   3.744   4.783 -2.6043 -0.8966 -0.1761
 1025TIP3    H2 3082   0.561   3.626   4.810 -0.3688  0.7958  0.0125
 1026TIP3   OH2 3083   2.446   3.410   0.963  0.1127  0.3793 -0.3452
 1026TIP3    H1 3084   2.456   3.342   0.896 -0.2819 -0.1682  0.1385
 1026TIP3    H2 3085   2.499   3.378   1.037 -0.2603  0.4769 -0.0314
 1027TIP3   OH2 3086   2.128   0.081   0.439  0.4978 -0.0858  0.8489
 1027TIP3    H1 3087   2.215   0.116   0.460  0.0231  1.5844  0.1861
 1027TIP3    H2 3088   2.143   0.021   0.366  0.9847  1.0584 -0.0289
 1028TIP3   OH2 3089   0.419   0.296   0.691 -0.3489 -0.2531 -0.6313
 1028TIP3    H1 3090   0.471   0.264   0.765 -0.9867 -1.2978 -0.6143
 1028TIP3    H2 3091   0.368   0.368   0.727 -1.5897 -1.5448  0.3198
 1029TIP3   OH2 3092   4.071   3.402   1.002 -0.1224  0.1836 -0.1932
 1029TIP3    H1 3093   4.047   3.332   0.941  0.0204  0.0250 -0.0670
 1029TIP3    H2 3094   4.075   3.359   1.088  0.0689  0.3243 -0.1317
 1030TIP3   OH2 3095   1.143   0.168   0.060  0.2993 -0.1393 -0.2986
 1030TIP3    H1 3096   1.111   0.124  -0.019 -4.2917 -0.3525  1.3811
 1030TIP3    H2 3097   1.214   0.112   0.091  1.7743 -0.4198 -3.7539
 1031TIP3   OH2 3098   0.350   2.315   1.715 -0.5304 -0.1692  0.0809
 1031TIP3    H1 3099   0.328   2.337   1.805  0.3785  2.0700 -0.1881
 1031TIP3    H2 3100   0.435   2.271   1.721 -0.6617 -0.3965  0.3196
 1032TIP3   OH2 3101   0.479   4.192   4.880 -1.1344  0.4666 -0.5345
 1032TIP3    H1 3102   0.420   4.190   4.805  1.5571  1.0086 -2.8420
 1032TIP3    H2 3103   0.552   4.135   4.854  0.8703  2.2943  0.7819
 1033TIP3   OH2 3104   0.405   0.807   4.686 -0.2141  0.3993  0.2153
 1033TIP3    H1 3105   0.408   0.808   4.782 -1.7369  1.6200  0.2865
 1033TIP3    H2 3106   0.392   0.898   4.661 -2.8339 -0.1863 -0.9709
 1034TIP3   OH2 3107   3.843   5.799   0.292 -0.9190 -0.5866 -0.2965
 1034TIP3    H1 3108   3.804   5.784   0.206 -0.0962 -0.1236 -0.7570
 1034TIP3    H2 3109   3.768   5.815   0.350 -1.4164  1.5297 -1.4048
 1035TIP3   OH2 3110   6.192   2.112   2.995  0.2204  0.0845 -0.3896
 1035TIP3    H1 3111   6.245   2.173   3.048 -3.3811  2.2813  1.0467
 1035TIP3    H2 3112   6.214   2.135   2.904  2.5370  0.0265  0.0904
 1036TIP3   OH2 3113   2.213   0.337   2.558  0.4491  0.0594  0.0513
 1036TIP3    H1 3114   2.284   0.291   2.602  2.0769 -0.2278 -2.6980
 1036TIP3    H2 3115   2.187   0.405   2.620  2.8711 -0.0568  1.2981
 1037TIP3   OH2 3116   5.063   3.478   0.616  0.1944  0.1687 -0.0804
 1037TIP3    H1 3117   5.133   3.416   0.636  0.4370  0.7690  1.0282
 1037TIP3    H2 3118   5.096   3.562   0.648  0.0472  0.9771 -1.9073
 1038TIP3   OH2 3119   5.633   1.051   0.503  0.1454 -0.2280 -0.8349
 1038TIP3    H1 3120   5.686   1.129   0.521  0.7017 -0.4173 -1.6021
 1038TIP3    H2 3121   5.683   1.003   0.437  0.6103 -2.0630  0.7493
 1039TIP3   OH2 3122   0.608   5.393   4.637 -0.2049 -0.6609 -0.6652
 1039TIP3    H1 3123   0.642   5.364   4.721  0.0794 -0.1719 -0.6074
 1039TIP3    H2 3124   0.515   5.368   4.638 -0.0115 -1.3940 -0.5512
 1040TIP3   OH2 3125   5.111   4.088   1.401 -0.0881 -0.1648  0.1801
 1040TIP3    H1 3126   5.185   4.032   1.378 -0.3762 -0.1704 -0.8063
 1040TIP3    H2 3127   5.045   4.027   1.435  0.4207 -0.1335  1.2548
 1041TIP3   OH2 3128   1.867   1.043   2.942 -0.5598 -0.0526  0.7159
 1041TIP3    H1 3129   1.890   1.130   2.975  0.6196 -1.0770  2.8025
 1041TIP3    H2 3130   1.823   1.000   3.016  0.7913 -1.9517  0.4962
 1042TIP3   OH2 3131   0.321   2.462   4.829 -0.0452  0.2904 -0.2988
 1042TIP3    H1 3132   0.370   2.475   4.910 -0.9290  1.3981  0.0902
 1042TIP3    H2 3133   0.375   2.501   4.761  1.1570 -1.5097 -0.4301
 1043TIP3   OH2 3134   5.759   0.906   0.937 -0.2212  0.0984 -0.1126
 1043TIP3    H1 3135   5.776   0.818   0.970  0.3447 -0.5704 -2.0679
 1043TIP3    H2 3136   5.765   0.962   1.014 -0.2275 -1.5168  1.1117
 1044TIP3   OH2 3137   0.332   3.854   3.358 -0.6872  0.1456  0.2023
 1044TIP3    H1 3138   0.362   3.764   3.372 -1.6450 -0.4374 -1.2539
 1044TIP3    H2 3139   0.274   3.871   3.432 -1.7871 -1.0562 -0.3373
 1045TIP3   OH2 3140   4.408   1.565   4.632 -0.3437  0.2161  0.3270
 1045TIP3    H1 3141   4.329   1.523   4.667 -2.1436  2.3919 -0.8569
 1045TIP3    H2 3142   4.437   1.623   4.702 -1.8135  1.8781 -0.3805
 1046TIP3   OH2 3143   1.968   4.176   4.267 -0.1473  0.0163  0.3796
 1046TIP3    H1 3144   1.972   4.222   4.184 -1.1700 -1.2239 -0.3968
 1046TIP3    H2 3145   2.060   4.167   4.294  0.6324 -2.8741 -2.5650
 1047TIP3   OH2 3146   4.390   3.970   3.446  0.1823  0.1527  0.0981
 1047TIP3    H1 3147   4.465   3.945   3.501 -1.0452  0.4952  2.0167
 1047TIP3    H2 3148   4.349   4.042   3.492 -1.5951 -0.3041 -0.6746
 1048TIP3   OH2 3149   3.167   5.379   2.775  0.0011 -0.1430  0.0660
 1048TIP3    H1 3150   3.085   5.328   2.776  1.3689 -2.5359 -0.7444
 1048TIP3    H2 3151   3.171   5.415   2.687  0.5318 -1.3440 -0.4211
 1049TIP3   OH2 3152   0.892   2.087   0.137  0.0624  0.0223 -0.4912
 1049TIP3    H1 3153   0.902   2.156   0.202 -0.4510 -0.1756 -0.2030
 1049TIP3    H2 3154   0.860   2.011   0.186  2.1387 -0.9435 -0.5090
 1050TIP3   OH2 3155   1.599   1.004   4.292  0.2757 -0.7183  0.0420
 1050TIP3    H1 3156   1.577   0.936   4.227 -1.7781  0.6896 -0.8657
 1050TIP3    H2 3157   1.515   1.048   4.309  1.4694  1.3800  0.8317
 1051TIP3   OH2 3158   4.680   4.051   3.244  0.1570 -0.0234 -0.1266
 1051TIP3    H1 3159   4.658   4.079   3.333  0.6313 -0.8158  0.2482
 1051TIP3    H2 3160   4.768   4.088   3.228 -0.2336  0.7553 -0.5634
 1052TIP3   OH2 3161   0.037   3.957   0.674 -0.4586  0.3085 -0.1473
 1052TIP3    H1 3162  -0.011   3.892   0.724  1.5154 -0.5814  0.7015
 1052TIP3    H2 3163  -0.011   3.964   0.591 -1.3206 -1.4435  0.1553
 1053TIP3   OH2 3164   1.774   5.799   1.013  0.2929 -0.7097  0.2466
 1053TIP3    H1 3165   1.863   5.810   0.980 -0.4174  1.6948 -1.1457
 1053TIP3    H2 3166   1.722   5.781   0.935 -0.9033  1.4337  0.4644
 1054TIP3   OH2 3167   6.342   2.692   1.264 -0.2318  0.0444 -0.4865
 1054TIP3    H1 3168   6.294   2.612   1.284  1.4148 -1.5724 -2.4720
 1054TIP3    H2 3169   6.426   2.682   1.308  0.3701  0.1634 -1.5644
 1055TIP3   OH2 3170   4.762   3.182   2.362 -0.3728 -0.1529 -0.1998
 1055TIP3    H1 3171   4.809   3.108   2.401  0.5685 -0.2869 -1.5471
 1055TIP3    H2 3172   4.828   3.228   2.310 -1.4381  0.4138 -1.0781
 1056TIP3   OH2 3173   3.209   2.180   2.699 -0.3654  0.2875  0.5174
 1056TIP3    H1 3174   3.138   2.134   2.743 -0.2463  0.1422  0.5580
 1056TIP3    H2 3175   3.165   2.232   2.631 -0.4981  0.0930  0.4526
 1057TIP3   OH2 3176   5.605   1.742   4.377 -0.3578 -0.0760  0.2330
 1057TIP3    H1 3177   5.536   1.713   4.317  1.3908  0.5112 -2.2226
 1057TIP3    H2 3178   5.617   1.669   4.438  0.0753 -2.2639 -2.2720
 1058TIP3   OH2 3179   6.283   5.940   2.019 -0.5056 -0.0749  0.1547
 1058TIP3    H1 3180   6.364   5.982   2.049 -0.5552 -0.6079  1.0695
 1058TIP3    H2 3181   6.313   5.873   1.957 -0.2730  0.0436  0.1375
 1059TIP3   OH2 3182   1.561   2.862   2.089  0.6376 -0.8085 -0.0776
 1059TIP3    H1 3183   1.561   2.951   2.125 -0.3404 -0.7848 -0.1229
 1059TIP3    H2 3184   1.597   2.873   2.000  0.9102 -0.5289  0.0617
 1060TIP3   OH2 3185   4.107   5.681   1.648 -0.1247  0.0213  0.7138
 1060TIP3    H1 3186   4.161   5.602   1.638 -1.1306 -0.6163  0.1908
 1060TIP3    H2 3187   4.128   5.734   1.572  0.6315  0.3158  1.1183
 1061TIP3   OH2 3188   5.565   5.759   5.034 -0.4048 -0.1386 -0.0824
 1061TIP3    H1 3189   5.651   5.800   5.044 -0.1815 -0.3462 -1.0212
 1061TIP3    H2 3190   5.543   5.726   5.122  1.2019 -1.4802 -0.1307
 1062TIP3   OH2 3191   0.790   4.049   1.124 -0.4835  0.2265 -0.7599
 1062TIP3    H1 3192   0.752   4.072   1.208  1.0082  1.8385 -0.4712
 1062TIP3    H2 3193   0.715   4.045   1.064 -1.3410  1.2380  0.2015
 1063TIP3   OH2 3194   4.920   5.407   0.953  0.4606 -0.1449 -0.2655
 1063TIP3    H1 3195   4.986   5.380   1.017 -1.2914  0.1727  1.7913
 1063TIP3    H2 3196   4.855   5.337   0.954 -0.5948  0.7990 -0.1613
 1064TIP3   OH2 3197   5.829   2.834   3.626 -0.0046 -0.4732 -0.1041
 1064TIP3    H1 3198   5.825   2.897   3.554 -1.0035  1.2529  1.3800
 1064TIP3    H2 3199   5.739   2.827   3.657  0.2499 -1.9401  0.3791
 1065TIP3   OH2 3200   0.606   1.625   0.489 -0.2707 -0.0896 -0.0347
 1065TIP3    H1 3201   0.580   1.623   0.397 -1.5194 -2.7433  0.2778
 1065TIP3    H2 3202   0.609   1.718   0.511  0.5172  0.6656 -2.8277
 1066TIP3   OH2 3203   4.284   5.119   4.373 -0.0972 -0.2349  0.5162
 1066TIP3    H1 3204   4.361   5.093   4.424 -0.5034 -0.0815  1.2297
 1066TIP3    H2 3205   4.273   5.048   4.310 -0.6043 -1.3398  1.7923
 1067TIP3   OH2 3206   4.148   2.382   4.791 -0.5817  0.2850  0.6670
 1067TIP3    H1 3207   4.125   2.319   4.723  1.0005  0.1785  0.1948
 1067TIP3    H2 3208   4.151   2.330   4.872  2.8525 -0.8420 -0.0206
 1068TIP3   OH2 3209   3.714   1.088   3.932 -0.0407  0.3429 -0.0962
 1068TIP3    H1 3210   3.623   1.079   3.959  0.1789 -1.5761  0.0818
 1068TIP3    H2 3211   3.759   1.014   3.971  1.2530  0.2402 -1.6557
 1069TIP3   OH2 3212   5.343   2.044   3.649  0.2380  0.2410  0.3343
 1069TIP3    H1 3213   5.265   2.078   3.605  0.3038 -0.4672 -0.3470
 1069TIP3    H2 3214   5.416   2.086   3.604  0.4151 -2.0291 -1.7383
 1070TIP3   OH2 3215   2.702   5.811   3.822  0.2347 -0.4351  0.0536
 1070TIP3    H1 3216   2.637   5.773   3.882  0.0810 -1.4886 -0.7352
 1070TIP3    H2 3217   2.658   5.888   3.785  0.3584  0.2652  1.3166
 1071TIP3   OH2 3218   5.639   0.824   2.061 -0.3330 -0.2570  0.4614
 1071TIP3    H1 3219   5.656   0.813   2.154  2.7367 -2.2066 -0.1566
 1071TIP3    H2 3220   5.609   0.739   2.031 -0.1021 -0.0107 -0.5213
 1072TIP3   OH2 3221   3.548   3.494   4.519 -0.4200  0.2238 -0.5212
 1072TIP3    H1 3222   3.529   3.543   4.439 -0.5790  1.0557  0.0026
 1072TIP3    H2 3223   3.540   3.560   4.589 -0.2768 -0.4814  0.1718
 1073TIP3   OH2 3224   5.215   2.375   4.603  0.3333 -0.1408 -0.6086
 1073TIP3    H1 3225   5.120   2.383   4.617  0.2776 -1.4584 -0.0240
 1073TIP3    H2 3226   5.254   2.421   4.677  0.0713 -2.6443  1.2439
 1074TIP3   OH2 3227   1.805   0.844   5.179 -0.3204 -0.1858  0.4516
 1074TIP3    H1 3228   1.793   0.866   5.086 -0.5251  0.4080  0.6098
 1074TIP3    H2 3229   1.833   0.927   5.219 -0.9146 -0.2661  1.0400
 1075TIP3   OH2 3230   3.374   2.872   0.421 -0.0666 -0.0854 -0.3383
 1075TIP3    H1 3231   3.290   2.836   0.392  0.9619 -3.2584  0.2279
 1075TIP3    H2 3232   3.370   2.868   0.517  0.0080  1.6989 -0.2292
 1076TIP3   OH2 3233   4.079   4.327   1.151  0.5356 -0.4234 -0.1877
 1076TIP3    H1 3234   4.055   4.327   1.058  0.2650 -0.1703 -0.1217
 1076TIP3    H2 3235   4.053   4.241   1.183 -0.8701  0.0479  0.0215
 1077TIP3   OH2 3236   6.057   5.931   4.682  0.3987  0.6027 -0.6538
 1077TIP3    H1 3237   6.000   5.945   4.607 -1.0297  1.3863  0.5339
 1077TIP3    H2 3238   6.115   5.860   4.654 -0.0919  0.8543 -2.4761
 1078TIP3   OH2 3239   3.554   5.720   5.012  0.2125 -0.1486 -0.3753
 1078TIP3    H1 3240   3.628   5.671   4.976 -1.5110 -2.2737 -1.3073
 1078TIP3    H2 3241   3.504   5.747   4.935  0.0231  1.3450  0.2374
 1079TIP3   OH2 3242   5.557   2.061   2.202  0.3733 -0.2097 -0.1189
 1079TIP3    H1 3243   5.521   2.125   2.264  0.1040  0.8173 -1.3033
 1079TIP3    H2 3244   5.641   2.099   2.175  0.0969 -0.2239 -1.0183
 1080TIP3   OH2 3245   0.898   3.788   0.992 -0.2184  0.4539  0.4091
 1080TIP3    H1 3246   0.929   3.878   1.005 -0.8728  0.7559 -0.0550
 1080TIP3    H2 3247   0.962   3.750   0.932 -0.4921  0.9339 -0.1964
 1081TIP3   OH2 3248   3.123   1.078   1.566 -0.0433  0.1721  0.9275
 1081TIP3    H1 3249   3.097   0.986   1.560  2.4282 -0.5552  0.3908
 1081TIP3    H2 3250   3.061   1.116   1.628 -2.0263 -1.4696  0.0902
 1082TIP3   OH2 3251   1.817   4.362   3.362  0.0436  0.1977  0.2061
 1082TIP3    H1 3252   1.849   4.292   3.306 -0.7557  0.7595 -0.9973
 1082TIP3    H2 3253   1.731   4.332   3.391  0.8064 -0.4735  1.8835
 1083TIP3   OH2 3254   5.981   1.076   4.815  0.4524  0.4795  0.2803
 1083TIP3    H1 3255   5.974   1.051   4.907 -0.0013  1.5124  0.5404
 1083TIP3    H2 3256   6.023   1.001   4.773  2.2037  0.6221  1.6294
 1084TIP3   OH2 3257   4.264   0.702   3.355 -0.1622  0.1434 -0.2337
 1084TIP3    H1 3258   4.190   0.683   3.297  0.2119 -2.3347  0.0005
 1084TIP3    H2 3259   4.233   0.675   3.442  1.2170 -1.6579 -0.2490
 1085TIP3   OH2 3260   6.272   3.484   3.968  0.3756  0.5993 -0.0197
 1085TIP3    H1 3261   6.294   3.525   3.884  0.8724 -0.9945 -0.6936
 1085TIP3    H2 3262   6.202   3.422   3.947  1.0162 -0.3519  0.5807
 1086TIP3   OH2 3263   1.269   4.161   2.169  0.3244  0.4776 -0.0743
 1086TIP3    H1 3264   1.343   4.101   2.155 -0.8798 -0.8784 -1.0279
 1086TIP3    H2 3265   1.303   4.227   2.229  1.9878 -0.6928  0.3727
 1087TIP3   OH2 3266   3.233   2.445   3.174 -0.2470 -0.5870  0.3647
 1087TIP3    H1 3267   3.291   2.518   3.153 -1.6005  1.2117  2.4419
 1087TIP3    H2 3268   3.176   2.437   3.098  0.3141  0.0898 -0.1428
 1088TIP3   OH2 3269   2.354   0.939   3.687 -0.4207  0.8473 -0.2108
 1088TIP3    H1 3270   2.281   0.890   3.649 -1.3546  0.5150  1.8921
 1088TIP3    H2 3271   2.319   0.977   3.768  1.4168  1.6538  0.2645
 1089TIP3   OH2 3272   4.132   4.363   3.331 -0.1757 -0.2134  0.1255
 1089TIP3    H1 3273   4.060   4.301   3.342  0.1620 -0.7924 -0.8548
 1089TIP3    H2 3274   4.093   4.437   3.283 -0.3509 -0.0753  0.4757
 1090TIP3   OH2 3275   2.291   0.660   2.933  0.0031 -0.3683  0.2063
 1090TIP3    H1 3276   2.283   0.612   2.851  0.5342 -2.0945  1.1160
 1090TIP3    H2 3277   2.230   0.734   2.924  1.0445  0.2812 -2.2306
 1091TIP3   OH2 3278   0.846   2.846   2.136 -0.1505  0.1829  0.2256
 1091TIP3    H1 3279   0.892   2.777   2.183 -0.3055  1.0698  1.7221
 1091TIP3    H2 3280   0.783   2.881   2.198 -0.9004  0.8864 -0.8874
 1092TIP3   OH2 3281   5.606   1.298   5.152 -0.2220  0.6014  0.4746
 1092TIP3    H1 3282   5.608   1.205   5.127  1.5694  0.3313  1.4707
 1092TIP3    H2 3283   5.522   1.309   5.196  0.2653 -1.0032  1.9180
 1093TIP3   OH2 3284   2.573   5.383   1.654 -0.1290 -0.1108  0.4325
 1093TIP3    H1 3285   2.521   5.409   1.578  0.6929  0.6677  0.1203
 1093TIP3    H2 3286   2.514   5.327   1.705 -0.8101 -0.3775 -0.5990
 1094TIP3   OH2 3287   1.269   0.138   4.905 -0.1778  0.0804  0.1603
 1094TIP3    H1 3288   1.264   0.161   4.812  0.5205  1.9192  0.5575
 1094TIP3    H2 3289   1.223   0.208   4.950  1.7554  0.6069  1.3993
 1095TIP3   OH2 3290   5.005   2.734   3.541 -0.3537  0.6034  0.1289
 1095TIP3    H1 3291   5.045   2.820   3.525 -0.6742  0.5032 -1.3686
 1095TIP3    H2 3292   5.051   2.701   3.618 -0.5831  2.3291  1.0703
 1096TIP3   OH2 3293   1.971   0.239   0.263  0.0378 -0.2533  0.0094
 1096TIP3    H1 3294   2.029   0.193   0.323  1.1214  2.2079  0.9759
 1096TIP3    H2 3295   2.023   0.250   0.183 -0.2550 -0.7355 -0.2561
 1097TIP3   OH2 3296   4.519   4.751   4.827  0.4791 -0.2110 -0.3722
 1097TIP3    H1 3297   4.586   4.746   4.759 -0.1838  1.8408 -1.2563
 1097TIP3    H2 3298   4.565   4.786   4.903  0.7294 -0.2490 -0.5051
 1098TIP3   OH2 3299   3.369   3.875   2.736 -0.3181 -0.1210 -0.6459
 1098TIP3    H1 3300   3.462   3.851   2.738 -0.1422  0.5962 -0.2379
 1098TIP3    H2 3301   3.364   3.945   2.672 -0.7734 -0.9333 -1.5285
 1099TIP3   OH2 3302   4.728   1.391   3.312  0.7031  0.1409  0.5100
 1099TIP3    H1 3303   4.674   1.369   3.237  1.1488 -0.1641  0.2718
 1099TIP3    H2 3304   4.700   1.479   3.337 -1.2028 -0.6994  1.5559
 1100TIP3   OH2 3305   5.417   4.884   3.722 -0.2495  0.4285 -0.0631
 1100TIP3    H1 3306   5.397   4.916   3.634 -1.5765 -3.9451 -1.6272
 1100TIP3    H2 3307   5.507   4.852   3.717  0.1444  1.3532  0.6592
 1101TIP3   OH2 3308   0.877   1.404   2.635  0.1079  0.5866 -0.0047
 1101TIP3    H1 3309   0.813   1.347   2.591  0.3583 -0.3797  0.8547
 1101TIP3    H2 3310   0.887   1.366   2.722  2.0428  0.5468 -0.1911
 1102TIP3   OH2 3311   4.290   0.555   1.238 -0.0189 -0.0335 -0.2903
 1102TIP3    H1 3312   4.381   0.527   1.244 -0.3880 -1.4204 -0.8717
 1102TIP3    H2 3313   4.247   0.512   1.311 -0.8730 -2.2477 -1.9850
 1103TIP3   OH2 3314   3.942   3.598   4.146 -0.0054  1.1718  0.2870
 1103TIP3    H1 3315   3.910   3.542   4.217  0.0867  0.7188 -0.0235
 1103TIP3    H2 3316   3.890   3.678   4.153 -3.1990 -0.4587 -1.7937
 1104TIP3   OH2 3317   3.053   4.779   2.534  0.0489 -0.0006 -0.1879
 1104TIP3    H1 3318   3.068   4.755   2.625 -0.3651 -2.0693 -0.6115
 1104TIP3    H2 3319   3.140   4.783   2.495  0.1953  0.3646  0.1792
 1105TIP3   OH2 3320   3.751   1.504   2.974  0.0446 -0.2552  0.1617
 1105TIP3    H1 3321   3.720   1.521   2.885 -1.6787  0.5970  0.8694
 1105TIP3    H2 3322   3.786   1.588   3.003  2.6366 -1.0618 -0.4119
 1106TIP3   OH2 3323   5.151   4.299   1.955  0.1385 -0.0951 -0.4183
 1106TIP3    H1 3324   5.082   4.365   1.965  0.6887  0.9680 -2.9954
 1106TIP3    H2 3325   5.118   4.239   1.888  1.2289 -0.2542 -0.8364
 1107TIP3   OH2 3326   5.162   4.560   1.079 -0.3124 -0.5869  0.7849
 1107TIP3    H1 3327   5.190   4.630   1.138  2.8011 -1.3268  0.3444
 1107TIP3    H2 3328   5.166   4.599   0.991 -0.3652 -0.8080  0.6820
 1108TIP3   OH2 3329   1.401   5.734   2.666  0.1293 -0.5159 -0.6159
 1108TIP3    H1 3330   1.342   5.765   2.597 -1.5381 -0.8723  0.5761
 1108TIP3    H2 3331   1.470   5.687   2.620 -1.0151 -0.8752 -2.0268
 1109TIP3   OH2 3332   1.198   1.533   0.951  0.4569 -0.8827 -0.1946
 1109TIP3    H1 3333   1.284   1.554   0.913  1.1547 -0.8199  1.3290
 1109TIP3    H2 3334   1.138   1.596   0.911  1.2803 -0.3802 -0.6631
 1110TIP3   OH2 3335   5.803   5.533   4.258 -0.5866 -0.5988 -0.1615
 1110TIP3    H1 3336   5.819   5.444   4.289  1.4860 -0.7110 -1.3808
 1110TIP3    H2 3337   5.775   5.523   4.167 -0.7949 -0.0297 -0.1673
 1111TIP3   OH2 3338   0.585   0.431   3.568 -0.1326  0.2906  0.3847
 1111TIP3    H1 3339   0.505   0.438   3.620  0.3629 -0.0474  1.2102
 1111TIP3    H2 3340   0.586   0.510   3.514 -0.6667  0.6428  0.8862
 1112TIP3   OH2 3341   1.623   3.247   2.070 -0.0455 -0.4438 -0.0384
 1112TIP3    H1 3342   1.632   3.337   2.037  0.6446 -0.2268  0.7115
 1112TIP3    H2 3343   1.604   3.257   2.163  0.7692 -1.0790  0.2063
 1113TIP3   OH2 3344   1.344   1.084   3.972  0.1696 -0.5246  0.1351
 1113TIP3    H1 3345   1.288   1.124   4.038  0.3240  1.5600 -0.8930
 1113TIP3    H2 3346   1.396   1.020   4.020 -1.9194 -1.3844  1.4032
 1114TIP3   OH2 3347   3.781   5.941   2.523  0.2064 -0.0103 -0.0063
 1114TIP3    H1 3348   3.835   6.002   2.573  0.4007  0.4809 -0.7998
 1114TIP3    H2 3349   3.790   5.969   2.432  1.4838 -2.1127 -0.5877
 1115TIP3   OH2 3350   1.853   5.374   3.081 -0.1115 -0.0242 -0.6437
 1115TIP3    H1 3351   1.815   5.416   3.159 -0.7436  0.6739 -1.3036
 1115TIP3    H2 3352   1.907   5.443   3.042  1.6176 -0.9040  0.0965
 1116TIP3   OH2 3353   0.371   3.527   3.187 -0.3251  0.3148 -0.2464
 1116TIP3    H1 3354   0.391   3.619   3.171  0.9800 -0.0194 -0.6867
 1116TIP3    H2 3355   0.356   3.490   3.100  2.0482 -0.4819 -0.3828
 1117TIP3   OH2 3356   0.114   1.155   3.454  0.2356  0.2523 -0.0515
 1117TIP3    H1 3357   0.135   1.116   3.369 -0.6880  0.3260 -0.3251
 1117TIP3    H2 3358   0.032   1.201   3.439 -0.6395 -0.8213  1.2094
 1118TIP3   OH2 3359   1.692   0.235   1.176  0.0133  0.2787  0.5886
 1118TIP3    H1 3360   1.782   0.247   1.204  0.7495  1.6264 -1.9704
 1118TIP3    H2 3361   1.655   0.324   1.174 -1.4710 -0.2612  1.7605
 1119TIP3   OH2 3362   0.662   0.266   4.823 -0.2365  0.3603  0.5586
 1119TIP3    H1 3363   0.743   0.233   4.785 -0.1657 -0.0007  1.0119
 1119TIP3    H2 3364   0.618   0.189   4.858 -0.9758  0.4990 -0.0413
 1120TIP3   OH2 3365   4.150   3.531   3.845  0.0556  0.1895 -0.2592
 1120TIP3    H1 3366   4.162   3.569   3.758  1.8298 -1.1693 -0.6695
 1120TIP3    H2 3367   4.156   3.437   3.831 -0.3158 -0.0846  1.2553
 1121TIP3   OH2 3368   2.948   3.529   0.991 -0.0978 -0.3716 -0.3660
 1121TIP3    H1 3369   2.907   3.452   0.952 -0.4736  0.4868 -1.7254
 1121TIP3    H2 3370   2.876   3.590   1.004 -0.1770 -0.9305  2.6318
 1122TIP3   OH2 3371   5.476   2.112   0.702  0.6017  0.0065  0.3028
 1122TIP3    H1 3372   5.493   2.080   0.791 -0.0605  1.1764  0.8809
 1122TIP3    H2 3373   5.473   2.207   0.712  0.6971  0.1585 -1.0188
 1123TIP3   OH2 3374   1.017   5.062   0.254  0.2427 -0.6670  0.0575
 1123TIP3    H1 3375   1.031   5.145   0.207 -1.0400 -1.0423 -1.0389
 1123TIP3    H2 3376   0.993   5.000   0.185  0.4697 -1.7849  0.9663
 1124TIP3   OH2 3377   0.900   3.439   1.172 -0.0001 -0.5451  0.3184
 1124TIP3    H1 3378   0.904   3.369   1.237 -2.2795 -0.3156  0.7762
 1124TIP3    H2 3379   0.982   3.430   1.122  2.0399 -0.4861  3.3798
 1125TIP3   OH2 3380   1.419   1.852   1.342 -0.1185  0.3775 -0.3376
 1125TIP3    H1 3381   1.501   1.802   1.342  0.8059  1.8390 -0.7994
 1125TIP3    H2 3382   1.442   1.935   1.383 -1.7173  0.3099  0.7625
 1126TIP3   OH2 3383   1.333   5.362   4.029 -0.1580 -0.4690 -0.7123
 1126TIP3    H1 3384   1.359   5.331   3.943 -0.5406 -1.7930 -0.3771
 1126TIP3    H2 3385   1.240   5.382   4.020  0.0518  0.4471 -0.8846
 1127TIP3   OH2 3386   4.503   0.959   1.145 -0.0673 -0.1414  0.0154
 1127TIP3    H1 3387   4.554   0.903   1.203  1.6815  1.4712  0.1339
 1127TIP3    H2 3388   4.425   0.907   1.124  1.0014 -2.2068  0.8461
 1128TIP3   OH2 3389   4.002   3.028   0.311 -0.5484 -0.1096  0.0308
 1128TIP3    H1 3390   4.066   2.960   0.289 -1.8561 -1.6000  0.7144
 1128TIP3    H2 3391   4.052   3.110   0.303  1.1436 -1.1341 -0.5273
 1129TIP3   OH2 3392   6.123   5.575   4.372  0.0490 -1.1678  0.0549
 1129TIP3    H1 3393   6.117   5.584   4.277 -0.1279 -0.1378  0.1532
 1129TIP3    H2 3394   6.124   5.481   4.387  0.7134 -1.3467 -1.0082
 1130TIP3   OH2 3395   1.016   0.971   4.473 -0.1133  1.0204 -0.2740
 1130TIP3    H1 3396   1.061   0.887   4.488  0.4699  1.3600 -0.0900
 1130TIP3    H2 3397   0.954   0.953   4.402 -1.8733 -0.2602  1.4755
 1131TIP3   OH2 3398   1.018   2.730   4.971  0.7085  0.5078  0.3061
 1131TIP3    H1 3399   1.042   2.716   4.879  1.0349 -0.2783  0.5025
 1131TIP3    H2 3400   0.923   2.744   4.969  0.1868 -2.4148  0.1039
 1132TIP3   OH2 3401   6.319   2.867   3.065  0.3525 -0.4134 -0.7875
 1132TIP3    H1 3402   6.343   2.937   3.126  0.4924 -0.6465 -0.5771
 1132TIP3    H2 3403   6.223   2.871   3.061  0.4226  0.9511 -2.1407
 1133TIP3   OH2 3404   6.245   0.747   1.820  0.0220 -0.2820 -0.1922
 1133TIP3    H1 3405   6.201   0.680   1.767 -1.6057  1.5243 -1.2818
 1133TIP3    H2 3406   6.181   0.772   1.886  0.7406 -0.0396  0.4307
 1134TIP3   OH2 3407   2.823   1.543   2.580  0.1536  0.0346  0.2093
 1134TIP3    H1 3408   2.861   1.484   2.645  0.6489 -0.5699 -0.6019
 1134TIP3    H2 3409   2.737   1.506   2.561  0.7169 -0.8277 -0.7690
 1135TIP3   OH2 3410   4.084   3.644   2.206 -0.3669 -0.3257  0.5092
 1135TIP3    H1 3411   4.113   3.731   2.234  1.1072 -0.2113 -1.1996
 1135TIP3    H2 3412   4.048   3.658   2.119  1.0292 -1.5964 -0.3129
 1136TIP3   OH2 3413   1.770   2.807   3.790  0.0750  0.2917  0.3282
 1136TIP3    H1 3414   1.767   2.795   3.695  0.7758 -1.6947  0.5085
 1136TIP3    H2 3415   1.856   2.847   3.806  1.0946 -1.7057  0.2615
 1137TIP3   OH2 3416   0.635   3.906   3.464  0.2277  0.4470 -0.4754
 1137TIP3    H1 3417   0.562   3.885   3.522  0.6892 -2.5919 -0.7861
 1137TIP3    H2 3418   0.691   3.828   3.468  1.8313  1.3913 -2.6532
 1138TIP3   OH2 3419   6.230   4.510   4.423  0.3113 -0.4718  0.0204
 1138TIP3    H1 3420   6.201   4.511   4.514  0.4095 -0.3116  0.0507
 1138TIP3    H2 3421   6.325   4.505   4.429  0.3418 -0.0616 -0.0672
 1139TIP3   OH2 3422   0.433   2.039   2.615  0.0026 -0.2211 -0.1123
 1139TIP3    H1 3423   0.507   2.072   2.564 -1.2915  0.1598 -1.8174
 1139TIP3    H2 3424   0.399   2.116   2.660  0.0900 -0.2255 -0.0378
 1140TIP3   OH2 3425   2.883   5.697   0.838 -0.2519 -0.1767  0.0625
 1140TIP3    H1 3426   2.906   5.788   0.821 -3.2806  0.7912  0.5461
 1140TIP3    H2 3427   2.856   5.663   0.753 -1.2187  0.0874  0.2523
 1141TIP3   OH2 3428   4.379   2.400   0.095  0.2633 -0.1895  0.0728
 1141TIP3    H1 3429   4.375   2.400  -0.000  1.8146  0.2427 -0.0276
 1141TIP3    H2 3430   4.383   2.493   0.119 -0.8860 -0.2609  0.6251
 1142TIP3   OH2 3431   1.373   2.979   1.463  0.1859  0.4889  0.5186
 1142TIP3    H1 3432   1.396   3.067   1.436  3.0749 -0.3952 -0.2476
 1142TIP3    H2 3433   1.410   2.970   1.551 -0.4491  0.1410  0.7624
 1143TIP3   OH2 3434   6.021   4.810   3.109  0.3444 -0.3311  0.2086
 1143TIP3    H1 3435   6.062   4.831   3.025  1.4172  1.2927  1.0921
 1143TIP3    H2 3436   6.028   4.714   3.116  0.6211 -0.4479 -1.3362
 1144TIP3   OH2 3437   3.733   0.810   3.292  0.0474  0.4013 -0.0769
 1144TIP3    H1 3438   3.754   0.796   3.199  0.0730  2.6702 -0.4890
 1144TIP3    H2 3439   3.637   0.817   3.294  0.0929  1.1010 -0.0793
 1145TIP3   OH2 3440   3.861   2.193   0.228  0.6327  0.1716 -0.1055
 1145TIP3    H1 3441   3.815   2.124   0.181 -2.5007  1.5081  0.7593
 1145TIP3    H2 3442   3.940   2.208   0.176 -0.3920 -1.5210 -2.3386
 1146TIP3   OH2 3443   2.259   4.616   2.888 -0.0199 -0.6990 -0.2478
 1146TIP3    H1 3444   2.199   4.568   2.831  0.3730 -0.7446 -0.6347
 1146TIP3    H2 3445   2.202   4.670   2.943 -0.4032 -0.3204 -0.9882
 1147TIP3   OH2 3446   3.208   0.045   1.470 -0.3939 -0.4964 -0.0641
 1147TIP3    H1 3447   3.176   0.065   1.381 -2.4831  1.0954  0.9594
 1147TIP3    H2 3448   3.302   0.064   1.466 -0.5000 -0.1172 -1.8446
 1148TIP3   OH2 3449   1.561   2.042   1.491  0.0949 -0.4369 -0.6033
 1148TIP3    H1 3450   1.614   2.118   1.516  2.7280 -1.0177 -3.7870
 1148TIP3    H2 3451   1.587   1.973   1.552  0.0169  0.3223  0.3168
 1149TIP3   OH2 3452   5.639   5.110   2.234 -0.0850 -0.6165  0.1842
 1149TIP3    H1 3453   5.676   5.070   2.313  0.1035 -1.9609 -0.5618
 1149TIP3    H2 3454   5.710   5.163   2.199 -0.5085  0.8802  1.4761
 1150TIP3   OH2 3455   5.733   5.811   3.603  0.2138  0.2295  0.6020
 1150TIP3    H1 3456   5.747   5.722   3.636 -1.6405 -0.5084 -0.4866
 1150TIP3    H2 3457   5.658   5.843   3.652  1.5790  1.7299  1.8646
 1151TIP3   OH2 3458   4.929   3.439   2.523  0.2637  0.0150  0.3372
 1151TIP3    H1 3459   4.920   3.504   2.592  0.7051 -0.1040  0.5105
 1151TIP3    H2 3460   4.913   3.355   2.567 -0.0029 -0.0168  0.1798
 1152TIP3   OH2 3461   4.357   2.688   4.214  0.1963  0.0210 -0.3219
 1152TIP3    H1 3462   4.429   2.726   4.164  0.6993  1.3388  1.2816
 1152TIP3    H2 3463   4.280   2.696   4.158  1.0388 -0.1691 -1.5315
 1153TIP3   OH2 3464   4.389   3.488   3.308 -0.0577  0.0746  0.1220
 1153TIP3    H1 3465   4.388   3.510   3.214 -0.9986 -0.1797  0.0659
 1153TIP3    H2 3466   4.340   3.559   3.350  0.0937  0.0237  0.3867
 1154TIP3   OH2 3467   3.511   2.993   1.289 -0.5231  0.2139  0.4615
 1154TIP3    H1 3468   3.570   3.030   1.354 -0.1672 -0.3129  0.4465
 1154TIP3    H2 3469   3.549   2.907   1.268 -0.4014  0.5427 -0.7493
 1155TIP3   OH2 3470   4.734   0.723   2.754  0.0597 -0.4999 -0.6261
 1155TIP3    H1 3471   4.718   0.651   2.815  0.8614 -1.1298 -1.1365
 1155TIP3    H2 3472   4.754   0.798   2.810 -0.5059 -0.7432 -0.0930
 1156TIP3   OH2 3473   2.928   3.933   0.495 -0.3254  0.2754 -0.7979
 1156TIP3    H1 3474   2.896   3.915   0.584 -1.2009 -0.5052 -1.2588
 1156TIP3    H2 3475   2.873   4.004   0.463 -1.7765 -1.1638 -1.6441
 1157TIP3   OH2 3476   2.659   0.323   2.906 -0.5950  0.4392  0.4596
 1157TIP3    H1 3477   2.647   0.335   2.812 -0.5095 -0.0179  0.3859
 1157TIP3    H2 3478   2.692   0.407   2.938 -1.8920  1.0122  0.3088
 1158TIP3   OH2 3479   5.455   1.074   1.240  0.4155 -0.6586 -0.3829
 1158TIP3    H1 3480   5.483   1.063   1.149 -1.7317 -1.3726 -1.0365
 1158TIP3    H2 3481   5.530   1.112   1.285  1.9936 -1.5502 -2.1530
 1159TIP3   OH2 3482   0.993   5.944   3.322 -0.1240  0.3601  0.1700
 1159TIP3    H1 3483   1.040   6.027   3.320  1.1030 -0.3174  0.3083
 1159TIP3    H2 3484   0.980   5.926   3.415  1.0761 -0.3937  0.2097
 1160TIP3   OH2 3485   3.817   1.200   1.516 -0.2800 -0.4893 -0.2225
 1160TIP3    H1 3486   3.726   1.171   1.524 -1.4104  3.1453  3.0907
 1160TIP3    H2 3487   3.863   1.159   1.589  0.4401 -1.0984 -0.9866
 1161TIP3   OH2 3488   1.675   3.375   0.494  0.0655 -0.1392  0.0933
 1161TIP3    H1 3489   1.760   3.343   0.525  0.0573 -0.3979 -0.1601
 1161TIP3    H2 3490   1.634   3.412   0.573  0.6070  0.4186  0.1281
 1162TIP3   OH2 3491   1.992   2.365   1.502 -0.0525 -0.0986  0.2042
 1162TIP3    H1 3492   1.903   2.389   1.527 -0.4387  1.3383 -2.2137
 1162TIP3    H2 3493   1.999   2.390   1.410  2.2841 -1.8897 -0.2121
 1163TIP3   OH2 3494   5.078   3.288   5.071 -0.5197 -0.1446 -0.5842
 1163TIP3    H1 3495   5.167   3.254   5.067  0.1678  1.6107 -1.5978
 1163TIP3    H2 3496   5.022   3.212   5.057  0.9055 -0.9394 -2.4514
 1164TIP3   OH2 3497   4.948   5.647   0.540 -0.1699 -0.2069 -0.0283
 1164TIP3    H1 3498   5.014   5.717   0.541 -1.2226  0.8200  0.0770
 1164TIP3    H2 3499   4.910   5.649   0.628 -0.0259 -1.1231  0.0671
 1165TIP3   OH2 3500   0.469   5.631   2.858  0.2357 -0.0445  1.0851
 1165TIP3    H1 3501   0.446   5.558   2.914 -2.1101  0.4514  0.8559
 1165TIP3    H2 3502   0.564   5.623   2.845  0.1029 -2.7590  1.3922
 1166TIP3   OH2 3503   0.798   1.957   0.887 -0.1888 -0.0727 -0.0562
 1166TIP3    H1 3504   0.873   1.955   0.828 -0.9577  0.2827 -1.0693
 1166TIP3    H2 3505   0.830   2.001   0.965  0.2038  1.6128 -1.1301
 1167TIP3   OH2 3506   5.679   0.309   2.117 -0.0067 -0.1971 -0.2834
 1167TIP3    H1 3507   5.635   0.340   2.196 -0.2168  2.8593 -1.4459
 1167TIP3    H2 3508   5.760   0.360   2.113  1.1919 -2.0562 -0.8266
 1168TIP3   OH2 3509   3.751   2.463   0.958 -0.0093 -0.2164 -0.2805
 1168TIP3    H1 3510   3.774   2.399   0.890  0.8627 -1.0060  0.7071
 1168TIP3    H2 3511   3.732   2.409   1.035 -0.4902  0.6766  0.2373
 1169TIP3   OH2 3512   5.271   3.082   2.322  0.2318 -0.0466 -0.5152
 1169TIP3    H1 3513   5.357   3.045   2.305  0.6511  0.2458  0.8392
 1169TIP3    H2 3514   5.288   3.175   2.341 -0.4047  0.0796 -0.5429
 1170TIP3   OH2 3515   0.536   4.674   2.877  0.6470 -0.1035  0.0353
 1170TIP3    H1 3516   0.490   4.590   2.872  0.3388  0.0089  0.8951
 1170TIP3    H2 3517   0.570   4.677   2.966  0.4852  0.7807  0.0673
 1171TIP3   OH2 3518   1.685   0.556   0.379  0.0865  0.1811 -0.1891
 1171TIP3    H1 3519   1.609   0.582   0.431 -0.2693 -1.7010  0.2883
 1171TIP3    H2 3520   1.714   0.474   0.418 -0.6023 -1.7039 -3.3141
 1172TIP3   OH2 3521   1.102   2.625   3.650 -0.2646 -0.3909 -0.8046
 1172TIP3    H1 3522   1.034   2.692   3.646  0.9014  0.9223  0.3334
 1172TIP3    H2 3523   1.105   2.589   3.561 -1.0803  0.9094 -1.3936
 1173TIP3   OH2 3524   5.627   4.052   1.347 -0.2983 -0.4529  0.1080
 1173TIP3    H1 3525   5.579   4.107   1.285 -0.5099 -0.2269  0.4658
 1173TIP3    H2 3526   5.561   4.023   1.410  0.3079  1.4319  1.7510
 1174TIP3   OH2 3527   1.997   2.360   3.928  0.2819 -0.4232  0.5386
 1174TIP3    H1 3528   1.909   2.332   3.951  0.3294 -0.7915  0.2734
 1174TIP3    H2 3529   1.986   2.417   3.852  0.4653 -2.5032 -1.1612
 1175TIP3   OH2 3530   0.670   2.718   4.418  0.2678  0.0020 -0.1139
 1175TIP3    H1 3531   0.691   2.694   4.508 -2.7057  2.0082  1.2808
 1175TIP3    H2 3532   0.584   2.678   4.401  0.6709 -0.1696 -2.0344
 1176TIP3   OH2 3533   4.986   1.468   0.937  0.5392  0.0856 -0.3962
 1176TIP3    H1 3534   5.030   1.385   0.920  2.3011  0.8016  0.3438
 1176TIP3    H2 3535   4.944   1.455   1.022 -0.1500 -0.3987 -0.8039
 1177TIP3   OH2 3536   1.098   3.630   1.768  0.1039 -0.3284  0.2021
 1177TIP3    H1 3537   1.112   3.609   1.676 -0.4436  1.3054 -0.2876
 1177TIP3    H2 3538   1.184   3.624   1.808  0.0895 -2.6877 -0.0279
 1178TIP3   OH2 3539   2.431   5.692   5.030  0.2467  0.1555 -0.2057
 1178TIP3    H1 3540   2.508   5.637   5.041  0.2187  0.1564 -0.0091
 1178TIP3    H2 3541   2.466   5.778   5.004  0.3587  0.3708  0.6303
 1179TIP3   OH2 3542   1.537   3.140   2.608  0.4419 -0.6473 -0.2262
 1179TIP3    H1 3543   1.480   3.215   2.625 -0.6799 -1.2722 -1.0767
 1179TIP3    H2 3544   1.519   3.079   2.680  0.3214 -0.6812 -0.2848
 1180TIP3   OH2 3545   1.449   1.896   3.936 -0.9169 -0.2574  0.3831
 1180TIP3    H1 3546   1.442   1.920   3.843 -1.9457  2.1304  1.0253
 1180TIP3    H2 3547   1.541   1.912   3.958 -1.0098  0.6408  0.1450
 1181TIP3   OH2 3548   4.865   1.830   5.083  0.0741 -0.4467  0.4047
 1181TIP3    H1 3549   4.770   1.834   5.087  0.0618 -1.4203  2.0270
 1181TIP3    H2 3550   4.885   1.819   4.990 -1.3645  0.1642  0.0028
 1182TIP3   OH2 3551   5.157   5.301   4.094 -0.6282 -0.2117 -0.6731
 1182TIP3    H1 3552   5.092   5.370   4.081 -1.1605 -0.5862 -0.0615
 1182TIP3    H2 3553   5.196   5.320   4.179  0.3486  0.2297 -1.2034
 1183TIP3   OH2 3554   4.879   2.106   0.636 -0.6245 -0.5359  0.6630
 1183TIP3    H1 3555   4.865   2.086   0.729  0.4324 -0.5523  0.8321
 1183TIP3    H2 3556   4.966   2.072   0.617 -0.1512  0.9306  0.0839
 1184TIP3   OH2 3557   4.160   2.207   3.792 -0.3734  0.0828  0.0338
 1184TIP3    H1 3558   4.125   2.173   3.710 -0.6892  1.6023 -0.4910
 1184TIP3    H2 3559   4.144   2.301   3.788  2.8610  0.7504  0.2129
 1185TIP3   OH2 3560   2.050   5.278   2.679 -0.1555  0.4180 -0.2779
 1185TIP3    H1 3561   2.041   5.244   2.590  0.3238 -1.3339  0.2957
 1185TIP3    H2 3562   2.139   5.312   2.682  0.3525 -0.8559 -0.0843
 1186TIP3   OH2 3563   1.616   3.064   4.734 -0.2702 -0.3575  0.2258
 1186TIP3    H1 3564   1.643   3.021   4.653 -0.1278  0.1919 -0.0215
 1186TIP3    H2 3565   1.698   3.077   4.782 -0.3284 -0.4752  0.3585
 1187TIP3   OH2 3566   4.092   5.344   0.207  0.2055  0.1830  0.0138
 1187TIP3    H1 3567   4.078   5.439   0.206  1.3725  0.3786  0.6084
 1187TIP3    H2 3568   4.146   5.329   0.285 -0.4739 -1.0480  0.2624
 1188TIP3   OH2 3569   4.009   0.688   4.944  0.1368 -0.0780 -0.3817
 1188TIP3    H1 3570   4.053   0.765   4.908 -3.1382  1.6996 -1.0297
 1188TIP3    H2 3571   4.004   0.627   4.871 -1.0405  0.9798 -1.2449
 1189TIP3   OH2 3572   2.054   0.941   0.589 -0.2973 -0.5283  0.1724
 1189TIP3    H1 3573   1.965   0.969   0.608 -0.3095 -0.4334 -0.0173
 1189TIP3    H2 3574   2.043   0.861   0.537 -0.2800 -0.3134 -0.1678
 1190TIP3   OH2 3575   0.399   4.781   0.437  0.0165 -0.0091 -0.3123
 1190TIP3    H1 3576   0.473   4.779   0.377  1.3393 -0.2711  1.2689
 1190TIP3    H2 3577   0.424   4.721   0.508 -1.5208  0.2222  0.4663
 1191TIP3   OH2 3578   3.261   2.043   1.324 -0.5553 -0.4880 -0.3545
 1191TIP3    H1 3579   3.324   2.086   1.382 -1.4294  0.2923  0.0436
 1191TIP3    H2 3580   3.315   1.991   1.265  0.4085 -0.6058  0.5883
 1192TIP3   OH2 3581   5.880   2.238   3.833  0.1070  0.5290 -0.0539
 1192TIP3    H1 3582   5.869   2.306   3.767  0.6608 -0.3398 -1.0690
 1192TIP3    H2 3583   5.808   2.177   3.816  0.5658  0.0251 -0.2121
 1193TIP3   OH2 3584   0.450   1.962   1.469 -0.0828  0.2062  0.3077
 1193TIP3    H1 3585   0.475   1.871   1.483  1.3075  0.8263  2.4297
 1193TIP3    H2 3586   0.358   1.967   1.494  0.2883 -0.3370  1.9484
 1194TIP3   OH2 3587   3.594   1.324   2.526  0.3487 -0.3067 -0.1144
 1194TIP3    H1 3588   3.598   1.405   2.577 -1.0112 -1.4791  2.0229
 1194TIP3    H2 3589   3.678   1.281   2.543  0.6979  0.2154 -0.4922
 1195TIP3   OH2 3590   1.065   5.140   5.101 -0.0635  0.0061  0.1644
 1195TIP3    H1 3591   1.065   5.235   5.091 -0.2268 -0.2458 -2.9436
 1195TIP3    H2 3592   1.094   5.126   5.192 -2.3927  3.0124  1.5422
 1196TIP3   OH2 3593   4.806   5.737   2.994 -0.2916  0.0056  0.1137
 1196TIP3    H1 3594   4.880   5.739   2.934 -0.6929  0.3956 -0.3779
 1196TIP3    H2 3595   4.793   5.828   3.020 -0.0306 -0.1753  0.9183
 1197TIP3   OH2 3596   3.015   1.890   0.875 -0.5783 -0.3933  0.0460
 1197TIP3    H1 3597   3.005   1.925   0.963  1.2852 -1.3038  0.6734
 1197TIP3    H2 3598   2.966   1.808   0.875 -0.0803 -0.6985  0.4529
 1198TIP3   OH2 3599   1.426   5.201   0.701 -0.2151 -0.2768 -0.4560
 1198TIP3    H1 3600   1.378   5.153   0.634 -1.6391  0.6279 -0.1371
 1198TIP3    H2 3601   1.372   5.279   0.717  2.1112  1.5828 -1.1480
 1199TIP3   OH2 3602   5.762   2.624   1.530 -0.4577 -0.7317  0.2074
 1199TIP3    H1 3603   5.803   2.710   1.525 -1.9412  0.0819  1.2200
 1199TIP3    H2 3604   5.835   2.562   1.528  0.6753  0.5550  0.0303
 1200TIP3   OH2 3605   5.142   5.888   4.796  0.0262  0.2700 -0.1128
 1200TIP3    H1 3606   5.142   5.982   4.776  1.0763  0.7496  1.8761
 1200TIP3    H2 3607   5.174   5.883   4.886  1.2484 -2.0982 -0.6049
 1201TIP3   OH2 3608   3.477   0.551   0.064 -0.1834  0.4527  0.6084
 1201TIP3    H1 3609   3.486   0.597  -0.020 -0.4485  1.5444  1.1549
 1201TIP3    H2 3610   3.390   0.512   0.061 -0.2126  0.5322  0.3933
 1202TIP3   OH2 3611   2.717   4.914   1.137  0.3027 -0.3369 -0.0863
 1202TIP3    H1 3612   2.778   4.848   1.171 -0.4783  0.1018  2.3730
 1202TIP3    H2 3613   2.632   4.870   1.137  0.2216 -0.1964 -1.1788
 1203TIP3   OH2 3614   5.893   1.814   0.995  0.5522 -0.0474 -0.7232
 1203TIP3    H1 3615   5.897   1.722   0.967  0.8470  0.2952 -1.8528
 1203TIP3    H2 3616   5.965   1.824   1.057  2.0022 -0.0295 -2.3308
 1204TIP3   OH2 3617   4.518   3.535   0.615 -0.4150  0.2126 -0.3133
 1204TIP3    H1 3618   4.530   3.580   0.698 -1.1574  0.2200 -0.2083
 1204TIP3    H2 3619   4.558   3.593   0.550  0.7816 -0.1123  0.1097
 1205TIP3   OH2 3620   4.469   1.933   3.245 -0.0021 -0.1335  0.3295
 1205TIP3    H1 3621   4.439   1.895   3.327 -0.8247  1.3063  0.7131
 1205TIP3    H2 3622   4.455   1.864   3.180 -1.0077 -0.6651  1.0894
 1206TIP3   OH2 3623   4.093   2.075   2.896  0.3998 -0.1611  0.0856
 1206TIP3    H1 3624   4.018   2.129   2.922  0.8270  1.1377 -1.2065
 1206TIP3    H2 3625   4.168   2.117   2.937  0.3888 -2.0264  2.1938
 1207TIP3   OH2 3626   0.733   0.916   4.455  0.6098  0.5549  0.4303
 1207TIP3    H1 3627   0.675   0.889   4.526 -2.2572  3.6735 -0.4792
 1207TIP3    H2 3628   0.758   1.005   4.477  2.1743  0.5339 -1.0199
 1208TIP3   OH2 3629   5.442   4.004   2.281  0.0271 -0.3768 -0.0734
 1208TIP3    H1 3630   5.485   4.007   2.196  1.6213  0.0630  0.6981
 1208TIP3    H2 3631   5.423   3.911   2.295 -0.1228 -0.4631 -0.8401
 1209TIP3   OH2 3632   5.732   0.489   3.124  0.7663  0.0232  0.2670
 1209TIP3    H1 3633   5.692   0.403   3.115  0.1260  0.0677  2.1489
 1209TIP3    H2 3634   5.694   0.525   3.204  1.1505  1.9977 -0.3690
 1210TIP3   OH2 3635   6.181   0.175   1.649  0.0381  0.2198  0.5159
 1210TIP3    H1 3636   6.227   0.115   1.708  0.7008  1.2015  1.0339
 1210TIP3    H2 3637   6.251   0.230   1.612 -0.5174  0.4720 -0.1951
 1211TIP3   OH2 3638   3.418   4.358   4.767 -0.5488  0.5717 -0.4470
 1211TIP3    H1 3639   3.389   4.447   4.748 -0.1243  0.6742 -0.6417
 1211TIP3    H2 3640   3.440   4.359   4.860 -1.0270  0.5289 -0.3311
 1212TIP3   OH2 3641   0.144   4.952   2.044  0.4429 -0.4769  0.3201
 1212TIP3    H1 3642   0.193   4.872   2.061  0.9129  0.1749  2.2421
 1212TIP3    H2 3643   0.053   4.928   2.061  0.6044 -0.5569  1.0827
 1213TIP3   OH2 3644   1.031   0.042   1.951  0.4033  0.5438  0.3489
 1213TIP3    H1 3645   0.995   0.030   2.038  0.4407 -1.6481  0.1157
 1213TIP3    H2 3646   1.107   0.099   1.964  0.9248 -0.4514  1.8866
 1214TIP3   OH2 3647   1.059   5.213   4.433 -0.4001 -0.1577  1.0786
 1214TIP3    H1 3648   1.078   5.302   4.402 -0.9997 -0.2999  0.2712
 1214TIP3    H2 3649   0.964   5.205   4.425 -0.2821 -1.1058  0.4732
 1215TIP3   OH2 3650   2.335   1.477   3.395  0.0368  0.5217 -0.6676
 1215TIP3    H1 3651   2.243   1.478   3.369 -0.1147  2.2691 -0.1833
 1215TIP3    H2 3652   2.342   1.403   3.455 -1.7973  2.1050  1.6919
 1216TIP3   OH2 3653   2.934   4.205   3.801 -0.7030 -0.5329 -0.2413
 1216TIP3    H1 3654   2.851   4.188   3.756 -1.5052 -1.7380  1.5836
 1216TIP3    H2 3655   2.908   4.247   3.883  0.5706 -0.2091  0.0099
 1217TIP3   OH2 3656   3.531   0.211   5.118  0.0423  0.3520  0.0215
 1217TIP3    H1 3657   3.450   0.215   5.169  1.0277 -1.2619  1.8810
 1217TIP3    H2 3658   3.583   0.284   5.150 -0.0305  0.3956  0.0406
 1218TIP3   OH2 3659   0.059   3.245   1.461 -0.0893  0.5933  0.0431
 1218TIP3    H1 3660   0.009   3.288   1.531 -0.4811  0.3087 -0.0541
 1218TIP3    H2 3661   0.082   3.159   1.498 -0.0025  0.5758 -0.0527
 1219TIP3   OH2 3662   2.055   0.520   2.222  0.2173 -0.6257 -0.6110
 1219TIP3    H1 3663   2.128   0.469   2.186  0.4246 -0.7875  0.0290
 1219TIP3    H2 3664   2.010   0.459   2.280 -0.4113 -0.5158 -0.9789
 1220TIP3   OH2 3665   4.413   3.039   4.015 -0.4954  0.4638 -0.4775
 1220TIP3    H1 3666   4.462   2.981   4.073 -1.7857 -0.1572  0.0300
 1220TIP3    H2 3667   4.472   3.055   3.941  0.7153  0.2864  0.4182
 1221TIP3   OH2 3668   1.997   4.217   4.543  0.2577 -0.4648 -0.2636
 1221TIP3    H1 3669   1.951   4.192   4.462  0.1050 -0.7394 -0.0925
 1221TIP3    H2 3670   1.930   4.218   4.610 -0.1106  2.1644 -0.5691
 1222TIP3   OH2 3671   0.060   2.424   1.601 -0.2075 -0.4256  0.4405
 1222TIP3    H1 3672   0.007   2.372   1.539 -0.1494 -1.2793  1.0926
 1222TIP3    H2 3673   0.118   2.360   1.642 -0.0114  0.1892  1.1368
 1223TIP3   OH2 3674   4.641   5.200   3.573 -0.0390 -0.0069 -0.2783
 1223TIP3    H1 3675   4.714   5.141   3.555  0.2076  0.9590 -2.8660
 1223TIP3    H2 3676   4.620   5.239   3.489 -3.7811 -0.4554  0.2478
 1224TIP3   OH2 3677   1.825   1.500   4.321  0.3079 -0.2196  0.5631
 1224TIP3    H1 3678   1.744   1.549   4.332 -0.4180 -1.3603  0.3829
 1224TIP3    H2 3679   1.880   1.556   4.266  0.0697  1.0225  1.5346
 1225TIP3   OH2 3680   3.496   5.018   2.994  0.4603  0.1143  0.4591
 1225TIP3    H1 3681   3.433   4.946   3.000  0.2753  0.2911  0.6673
 1225TIP3    H2 3682   3.444   5.092   2.963  0.8344 -0.0673 -0.6249
 1226TIP3   OH2 3683   0.122   1.057   4.249  0.0787  0.2096  0.2487
 1226TIP3    H1 3684   0.068   1.085   4.176  0.5704 -0.3407 -0.3412
 1226TIP3    H2 3685   0.208   1.042   4.210  0.7506  1.3451  1.2148
 1227TIP3   OH2 3686   0.149   3.015   1.571 -0.1084 -0.5065 -0.4620
 1227TIP3    H1 3687   0.222   2.976   1.522  1.4488 -1.0686  2.0724
 1227TIP3    H2 3688   0.111   2.942   1.619  0.6532  0.4366  1.7365
 1228TIP3   OH2 3689   1.097   3.759   0.553 -0.2646 -0.1208  1.0866
 1228TIP3    H1 3690   1.033   3.750   0.482  0.6743 -1.4408  0.3579
 1228TIP3    H2 3691   1.119   3.852   0.554 -1.0589  0.0934  0.3380
 1229TIP3   OH2 3692   4.664   3.938   1.048  0.2991  0.4562 -0.1728
 1229TIP3    H1 3693   4.705   4.024   1.056 -1.5215  1.6462 -2.3607
 1229TIP3    H2 3694   4.603   3.933   1.121  1.4017  0.3858  0.7660
 1230TIP3   OH2 3695   0.694   4.362   2.631 -0.1760  0.0710  0.4136
 1230TIP3    H1 3696   0.786   4.365   2.656 -0.5226  1.3554  1.6017
 1230TIP3    H2 3697   0.688   4.286   2.572  1.9938  1.0633 -1.2132
 1231TIP3   OH2 3698   2.573   4.411   1.278  0.0022 -0.2122  0.5030
 1231TIP3    H1 3699   2.512   4.468   1.231  0.8716  0.7711  0.5274
 1231TIP3    H2 3700   2.527   4.327   1.284 -2.0423  0.9052  1.9751
 1232TIP3   OH2 3701   0.873   1.656   0.088  0.0044  0.4334  0.9552
 1232TIP3    H1 3702   0.838   1.571   0.061  1.1929  0.3783 -0.5011
 1232TIP3    H2 3703   0.797   1.703   0.123 -1.2100 -0.2908 -0.5821
 1233TIP3   OH2 3704   1.063   2.142   3.181 -0.9569  0.2249  0.0924
 1233TIP3    H1 3705   1.010   2.217   3.152 -0.1066  0.3005 -1.3742
 1233TIP3    H2 3706   1.150   2.159   3.144 -1.1825 -2.3656 -1.8812
 1234TIP3   OH2 3707   2.967   3.766   1.589 -0.3652 -0.3963 -0.0737
 1234TIP3    H1 3708   2.891   3.810   1.552 -1.8412 -1.0108  2.0055
 1234TIP3    H2 3709   2.931   3.689   1.633  1.3886 -0.4484  1.4176
 1235TIP3   OH2 3710   4.583   5.691   2.172 -0.0760 -0.0611 -0.2050
 1235TIP3    H1 3711   4.613   5.674   2.083 -1.6081 -0.8797 -0.5949
 1235TIP3    H2 3712   4.640   5.637   2.227  0.7050  0.2433 -0.7092
 1236TIP3   OH2 3713   1.052   2.517   0.591  0.2978 -0.2377 -0.1626
 1236TIP3    H1 3714   0.958   2.497   0.594 -0.1173  1.3769 -1.1199
 1236TIP3    H2 3715   1.059   2.604   0.631  1.4658 -0.5600  0.3645
 1237TIP3   OH2 3716   5.789   4.144   4.379  0.7288  0.2238  0.3527
 1237TIP3    H1 3717   5.766   4.089   4.304  0.3647 -0.2737  0.8200
 1237TIP3    H2 3718   5.805   4.082   4.450 -2.8336  0.7259  1.8179
 1238TIP3   OH2 3719   5.170   4.489   0.208  0.1742  0.3017 -0.1426
 1238TIP3    H1 3720   5.133   4.456   0.290  0.2073  1.6488  0.4476
 1238TIP3    H2 3721   5.094   4.509   0.154  0.0181  2.0740  0.6677
 1239TIP3   OH2 3722   3.945   0.832   4.519 -0.1621 -1.0623  0.3902
 1239TIP3    H1 3723   3.994   0.793   4.447 -0.4417 -1.9553  0.6737
 1239TIP3    H2 3724   3.859   0.789   4.516 -0.7318  0.0552  0.2613
 1240TIP3   OH2 3725   2.379   1.676   4.552 -0.5879  0.0141  0.0608
 1240TIP3    H1 3726   2.437   1.727   4.496 -0.4575 -0.5777 -0.3565
 1240TIP3    H2 3727   2.383   1.587   4.516 -2.2744  0.0862 -0.4004
 1241TIP3   OH2 3728   6.337   5.850   4.810 -0.4687  0.4138 -0.3801
 1241TIP3    H1 3729   6.284   5.798   4.871 -0.7889  0.3455 -0.7132
 1241TIP3    H2 3730   6.302   5.827   4.724  1.3615 -1.0945 -0.7768
 1242TIP3   OH2 3731   5.928   1.279   1.111 -0.4747  0.4485 -0.6062
 1242TIP3    H1 3732   5.960   1.236   1.032 -0.5002 -1.1558  0.2070
 1242TIP3    H2 3733   5.853   1.226   1.138 -0.1663  0.6632  0.7362
 1243TIP3   OH2 3734   1.570   2.330   5.117  0.0768  0.6350 -0.2798
 1243TIP3    H1 3735   1.625   2.311   5.192  0.4969 -0.3314 -0.8084
 1243TIP3    H2 3736   1.626   2.380   5.057  0.8953 -1.4914 -1.4117
 1244TIP3   OH2 3737   0.177   3.092   3.640 -0.2429 -0.0922 -0.3059
 1244TIP3    H1 3738   0.190   3.187   3.639 -2.0243  0.1875 -0.1522
 1244TIP3    H2 3739   0.138   3.073   3.554  2.6938 -1.1566 -1.5263
 1245TIP3   OH2 3740   5.781   4.764   2.365 -0.0277  0.2611 -0.5258
 1245TIP3    H1 3741   5.781   4.726   2.453  1.4945  1.8869  0.2690
 1245TIP3    H2 3742   5.697   4.809   2.358  1.0979  3.0649  1.6221
 1246TIP3   OH2 3743   3.291   0.163   3.231 -0.3455  0.0137 -0.1624
 1246TIP3    H1 3744   3.374   0.133   3.269  0.7261 -0.3773 -2.5896
 1246TIP3    H2 3745   3.289   0.257   3.250  0.9094  0.1217 -0.4499
 1247TIP3   OH2 3746   3.956   2.399   1.780  0.3182  0.4272 -0.2110
 1247TIP3    H1 3747   3.962   2.307   1.806 -1.9250 -0.1630 -1.5005
 1247TIP3    H2 3748   3.931   2.396   1.687 -0.5842  2.3231 -0.0813
 1248TIP3   OH2 3749   3.910   1.806   2.081 -0.7012 -0.0265  0.1856
 1248TIP3    H1 3750   3.957   1.764   2.153 -1.5604 -1.5061 -0.0567
 1248TIP3    H2 3751   3.820   1.815   2.114 -0.8094  0.4751 -0.2399
 1249TIP3   OH2 3752   6.287   2.604   2.455  0.5096  0.2183 -0.4797
 1249TIP3    H1 3753   6.275   2.587   2.362 -1.2371  2.7645 -0.8387
 1249TIP3    H2 3754   6.322   2.693   2.459  0.4617  0.1907  1.2962
 1250TIP3   OH2 3755   2.084   1.256   2.744 -0.1697  0.0802  0.0166
 1250TIP3    H1 3756   2.049   1.188   2.687 -0.4585 -0.1287  0.4357
 1250TIP3    H2 3757   2.046   1.337   2.711 -0.2020 -0.0198 -0.1937
 1251TIP3   OH2 3758   5.051   5.203   3.040 -0.2291  0.1198  0.9248
 1251TIP3    H1 3759   5.012   5.120   3.068 -1.6696  0.2463 -0.5075
 1251TIP3    H2 3760   5.120   5.178   2.979 -3.2655 -0.1507 -2.7637
 1252TIP3   OH2 3761   0.413   3.826   0.243  0.2062  0.2506  0.3478
 1252TIP3    H1 3762   0.405   3.790   0.332 -0.5759 -0.1505  0.1255
 1252TIP3    H2 3763   0.459   3.909   0.255 -0.0384  0.2849  1.1526
 1253TIP3   OH2 3764   4.734   0.019   3.183  0.2813 -1.0139  0.1153
 1253TIP3    H1 3765   4.720   0.068   3.264 -0.1910 -1.6073  0.3985
 1253TIP3    H2 3766   4.658   0.039   3.130 -0.4073 -2.1970  0.6230
 1254TIP3   OH2 3767   4.917   0.478   4.925 -0.3299  0.1274  0.2249
 1254TIP3    H1 3768   4.829   0.440   4.928 -0.6753  0.8038 -0.7302
 1254TIP3    H2 3769   4.976   0.403   4.929 -0.8591 -0.2342  3.1562
 1255TIP3   OH2 3770   6.131   3.424   1.946  0.0953  0.2141 -0.3552
 1255TIP3    H1 3771   6.043   3.408   1.980  1.1725  0.8127  3.0513
 1255TIP3    H2 3772   6.120   3.498   1.886 -1.7045  0.2701 -0.0215
 1256TIP3   OH2 3773   5.061   2.619   4.738 -0.1794 -0.2998  0.5667
 1256TIP3    H1 3774   5.075   2.565   4.816 -1.2630  1.2721  1.8954
 1256TIP3    H2 3775   5.093   2.706   4.763 -1.8680  0.5782 -0.2141
 1257TIP3   OH2 3776   3.600   3.274   1.725  0.1588  0.3573  0.0310
 1257TIP3    H1 3777   3.681   3.224   1.713 -0.1947 -1.0498  2.7926
 1257TIP3    H2 3778   3.623   3.363   1.698  1.9900 -0.4339 -1.2466
 1258TIP3   OH2 3779   0.052   0.556   0.425  0.4161  0.6322  0.6702
 1258TIP3    H1 3780   0.060   0.465   0.394 -1.0403  1.0299 -1.0412
 1258TIP3    H2 3781   0.137   0.595   0.406  0.3304  0.2055 -0.7196
 1259TIP3   OH2 3782   3.166   0.766   3.916 -0.2233  0.0739  0.6013
 1259TIP3    H1 3783   3.099   0.724   3.970 -0.4349 -0.9695 -0.4333
 1259TIP3    H2 3784   3.243   0.710   3.924 -0.5886 -0.7232 -1.0105
 1260TIP3   OH2 3785   1.473   2.998   3.221  0.2332  0.3208  0.0327
 1260TIP3    H1 3786   1.446   3.060   3.154 -1.2038  0.9379  1.1408
 1260TIP3    H2 3787   1.475   3.048   3.302 -1.0391 -1.0478  0.9742
 1261TIP3   OH2 3788   2.040   1.884   2.285 -0.2723  1.0883  0.5418
 1261TIP3    H1 3789   2.127   1.877   2.245 -0.8414  0.1995 -0.5761
 1261TIP3    H2 3790   1.990   1.812   2.247 -1.3206  1.2004  1.6612
 1262TIP3   OH2 3791   1.014   2.055   1.981  0.7012 -0.2395 -0.3531
 1262TIP3    H1 3792   0.957   2.132   1.980  0.3148 -0.5264 -0.7575
 1262TIP3    H2 3793   1.099   2.088   2.009  0.5983  0.3750 -0.7543
 1263TIP3   OH2 3794   1.626   5.952   0.612  0.8108  0.0674  0.1272
 1263TIP3    H1 3795   1.552   5.995   0.655  1.7911  0.6365  1.3281
 1263TIP3    H2 3796   1.624   5.862   0.643  1.6204  0.5194  1.5978
 1264TIP3   OH2 3797   4.297   2.666   0.499  0.3262 -0.7232  0.1171
 1264TIP3    H1 3798   4.354   2.597   0.533  1.8369 -0.5473 -1.7946
 1264TIP3    H2 3799   4.356   2.741   0.487 -0.5920 -0.1022 -0.6804
 1265TIP3   OH2 3800   6.039   2.059   1.456  0.6651  0.5220  0.2637
 1265TIP3    H1 3801   6.046   1.964   1.456 -0.1667  0.4427  1.1070
 1265TIP3    H2 3802   5.965   2.078   1.398  2.6803  0.8776 -2.3808
 1266TIP3   OH2 3803   4.997   1.165   3.013  0.3572  0.4644  0.1214
 1266TIP3    H1 3804   5.013   1.255   3.042  0.0737  1.2056 -1.8116
 1266TIP3    H2 3805   4.910   1.168   2.973  0.7010 -0.4430 -0.7374
 1267TIP3   OH2 3806   3.904   4.248   3.910  0.2706  0.2773 -0.1417
 1267TIP3    H1 3807   3.992   4.281   3.926  1.4762 -2.4431 -0.6451
 1267TIP3    H2 3808   3.903   4.228   3.816 -0.2423 -1.3185  0.1655
 1268TIP3   OH2 3809   0.948   5.458   1.140  0.3001  0.4745 -0.0653
 1268TIP3    H1 3810   0.988   5.405   1.209  0.3815  0.1559 -0.3571
 1268TIP3    H2 3811   0.872   5.498   1.182 -0.6816 -1.1131 -0.2708
 1269TIP3   OH2 3812   2.636   2.060   2.838 -0.3809 -0.3147 -0.3135
 1269TIP3    H1 3813   2.557   2.017   2.868 -0.5065  1.1988  1.7307
 1269TIP3    H2 3814   2.612   2.099   2.754 -1.2877 -1.2190 -0.4910
 1270TIP3   OH2 3815   1.755   0.516   3.121 -0.8712  0.0553 -0.3098
 1270TIP3    H1 3816   1.798   0.489   3.040 -0.2824 -1.8899  0.5971
 1270TIP3    H2 3817   1.662   0.496   3.107 -0.8267  0.0918 -0.6472
 1271TIP3   OH2 3818   3.018   2.668   4.472 -0.1394 -0.2287 -0.0086
 1271TIP3    H1 3819   2.959   2.652   4.398 -1.0957 -2.5108  1.1525
 1271TIP3    H2 3820   3.070   2.744   4.445 -1.1107 -0.3846 -2.6045
 1272TIP3   OH2 3821   1.845   5.712   3.223  0.3332 -0.0328 -0.4051
 1272TIP3    H1 3822   1.812   5.634   3.268 -0.2854  1.1013  1.2126
 1272TIP3    H2 3823   1.785   5.781   3.250  0.8893  1.0194 -1.7838
 1273TIP3   OH2 3824   1.755   0.731   4.737 -0.2420 -0.3074 -0.4928
 1273TIP3    H1 3825   1.718   0.789   4.671  0.3875  0.5756 -0.0909
 1273TIP3    H2 3826   1.762   0.646   4.694  2.3271  0.7275 -2.4059
 1274TIP3   OH2 3827   5.589   1.602   4.609  0.5600  0.3266  0.0831
 1274TIP3    H1 3828   5.667   1.553   4.635  1.0946  1.0341 -0.1414
 1274TIP3    H2 3829   5.575   1.665   4.679 -0.3150 -0.3463  0.5251
 1275TIP3   OH2 3830   3.090   1.966   4.060  0.2985  0.4637  0.8117
 1275TIP3    H1 3831   3.044   1.889   4.091  0.6065  0.3074  0.8823
 1275TIP3    H2 3832   3.028   2.038   4.071 -0.2398  0.1225  0.1160
 1276TIP3   OH2 3833   0.229   2.430   0.137  0.5178 -0.2639 -1.0281
 1276TIP3    H1 3834   0.207   2.435   0.044 -4.4350 -0.3804 -0.1228
 1276TIP3    H2 3835   0.169   2.365   0.172  0.6596  1.3396  2.6135
 1277TIP3   OH2 3836   3.824   2.127   5.109  0.2202 -0.4929  0.1996
 1277TIP3    H1 3837   3.761   2.193   5.138 -0.5473 -0.2816 -1.7685
 1277TIP3    H2 3838   3.812   2.054   5.170  0.2316  0.6907  1.6823
 1278TIP3   OH2 3839   5.478   3.855   1.539  0.1159 -0.4431  0.5115
 1278TIP3    H1 3840   5.464   3.764   1.567  0.5158 -0.6399  0.0721
 1278TIP3    H2 3841   5.478   3.905   1.621  1.5599 -1.0540  0.9067
 1279TIP3   OH2 3842   2.381   4.502   0.070 -0.1194  0.0631 -0.0972
 1279TIP3    H1 3843   2.318   4.432   0.054 -0.3350 -0.2150  1.7965
 1279TIP3    H2 3844   2.327   4.578   0.091  0.1547 -0.0205  0.9344
 1280TIP3   OH2 3845   2.895   0.782   3.688 -1.0935 -0.6397  0.1270
 1280TIP3    H1 3846   2.913   0.733   3.609  0.6047 -0.0597  0.1040
 1280TIP3    H2 3847   2.891   0.716   3.757 -1.0257 -1.0017 -0.2114
 1281TIP3   OH2 3848   0.904   2.570   2.295 -0.5564  0.6284 -0.5750
 1281TIP3    H1 3849   0.951   2.624   2.358  3.1400  0.1563 -2.6376
 1281TIP3    H2 3850   0.898   2.484   2.335 -1.3182  1.1171  0.4088
 1282TIP3   OH2 3851   4.032   0.010   2.271 -0.1613 -0.2658  0.8942
 1282TIP3    H1 3852   3.954   0.057   2.242 -0.3463 -1.1418 -0.1019
 1282TIP3    H2 3853   4.100   0.077   2.277 -1.4969  1.0210  4.1975
 1283TIP3   OH2 3854   5.379   4.142   4.685 -0.7263 -0.9781 -0.4170
 1283TIP3    H1 3855   5.376   4.083   4.610 -0.8503 -1.8792  0.2804
 1283TIP3    H2 3856   5.317   4.105   4.748  0.0712 -0.7769  0.5215
 1284TIP3   OH2 3857   2.622   4.404   1.832  0.7019 -0.2769 -1.1729
 1284TIP3    H1 3858   2.694   4.372   1.885 -0.4542  1.1666  1.4444
 1284TIP3    H2 3859   2.645   4.495   1.812 -0.6119  0.4450  0.3257
 1285TIP3   OH2 3860   2.491   4.775   1.122  0.2655 -0.0507  0.5528
 1285TIP3    H1 3861   2.477   4.790   1.028  2.8182  0.2625  0.1629
 1285TIP3    H2 3862   2.444   4.693   1.140 -1.2785  0.5068 -0.6800
 1286TIP3   OH2 3863   2.153   1.602   3.960 -0.1001 -0.1778 -0.2727
 1286TIP3    H1 3864   2.165   1.562   3.873 -0.0301  0.8564 -0.7517
 1286TIP3    H2 3865   2.240   1.630   3.986 -0.0459 -0.9123  0.3536
 1287TIP3   OH2 3866   1.047   3.590   3.276  0.4685 -0.4880 -0.2957
 1287TIP3    H1 3867   1.053   3.683   3.252  0.3538 -0.1689  0.8385
 1287TIP3    H2 3868   1.044   3.544   3.193  0.1515  0.5543 -0.8847
 1288TIP3   OH2 3869   2.544   2.701   2.563 -0.4284 -0.3339 -0.4894
 1288TIP3    H1 3870   2.638   2.691   2.549 -0.4887 -0.5836 -0.7179
 1288TIP3    H2 3871   2.515   2.758   2.493 -0.5161 -0.5880 -0.6629
 1289TIP3   OH2 3872   3.637   5.706   2.497  0.7322  0.0455  0.1143
 1289TIP3    H1 3873   3.681   5.669   2.421  0.8242 -2.4910  1.3184
 1289TIP3    H2 3874   3.683   5.789   2.513  1.5795 -0.0206 -1.7548
 1290TIP3   OH2 3875   1.765   1.282   2.253 -0.2543  0.7425 -0.4939
 1290TIP3    H1 3876   1.816   1.236   2.320 -0.4510  0.3508 -0.6081
 1290TIP3    H2 3877   1.760   1.372   2.284 -1.3834  0.3071  0.6441
 1291TIP3   OH2 3878   0.904   5.133   2.452  0.1381  0.3933 -0.0060
 1291TIP3    H1 3879   0.916   5.146   2.546  1.9278 -1.8446  0.1602
 1291TIP3    H2 3880   0.920   5.219   2.413  2.1382  0.7929  1.5591
 1292TIP3   OH2 3881   4.737   1.619   4.670 -0.3739 -0.1351 -0.1812
 1292TIP3    H1 3882   4.746   1.696   4.615  0.1866  0.5260  0.8137
 1292TIP3    H2 3883   4.667   1.641   4.731  0.1087 -0.2180  0.4127
 1293TIP3   OH2 3884   1.813   4.435   0.323 -0.5449  0.2722  0.2926
 1293TIP3    H1 3885   1.896   4.410   0.364 -0.4816 -0.3983 -0.2159
 1293TIP3    H2 3886   1.838   4.480   0.243 -0.6602  2.2369  1.3175
 1294TIP3   OH2 3887   3.781   5.085   2.675 -0.5499 -0.0512 -0.5184
 1294TIP3    H1 3888   3.842   5.027   2.721 -0.7426 -0.0038 -0.1969
 1294TIP3    H2 3889   3.826   5.169   2.674 -0.0041 -0.3356 -1.5233
 1295TIP3   OH2 3890   0.612   2.263   0.616  0.3454 -0.5017 -0.2772
 1295TIP3    H1 3891   0.589   2.187   0.669  0.9865 -0.7766 -0.3822
 1295TIP3    H2 3892   0.558   2.254   0.537  0.4299 -0.8606 -0.2962
 1296TIP3   OH2 3893   1.035   1.351   1.748  0.3855  0.0854 -0.0630
 1296TIP3    H1 3894   1.026   1.389   1.836 -0.9292  0.0551 -0.1602
 1296TIP3    H2 3895   1.073   1.265   1.763  0.8791  0.3753  0.4017
 1297TIP3   OH2 3896   1.348   1.470   2.607 -0.1776 -0.5016 -1.0017
 1297TIP3    H1 3897   1.299   1.552   2.612  0.1488 -0.3402 -0.2867
 1297TIP3    H2 3898   1.434   1.495   2.575 -0.3789 -0.7097 -1.7295
 1298TIP3   OH2 3899   2.710   0.533   1.633 -0.0272 -0.7500  0.0619
 1298TIP3    H1 3900   2.743   0.608   1.584  2.5311 -3.0417 -2.0518
 1298TIP3    H2 3901   2.615   0.536   1.623 -0.0046  2.1101  0.0356
 1299TIP3   OH2 3902   1.617   3.384   3.044 -0.1804  0.6135 -0.0862
 1299TIP3    H1 3903   1.561   3.311   3.018 -0.9612  0.8810  0.8112
 1299TIP3    H2 3904   1.628   3.373   3.138  0.8316  0.8822 -0.1627
 1300TIP3   OH2 3905   2.646   6.015   4.940 -0.0033  0.1102 -0.1433
 1300TIP3    H1 3906   2.647   5.980   4.850  0.1831 -1.3774  0.4055
 1300TIP3    H2 3907   2.682   5.944   4.993 -2.3984 -0.0220  1.4403
 1301TIP3   OH2 3908   4.539   5.195   1.137 -0.1435 -0.3667 -0.7010
 1301TIP3    H1 3909   4.629   5.221   1.120 -0.1654  0.0103 -0.2275
 1301TIP3    H2 3910   4.543   5.099   1.146  0.1694 -0.3738 -0.8997
 1302TIP3   OH2 3911   6.005   4.079   1.153  0.2970 -0.0623 -0.5763
 1302TIP3    H1 3912   5.962   4.144   1.097 -0.1738  0.5866  0.5078
 1302TIP3    H2 3913   6.072   4.040   1.097 -2.2715 -1.8063 -2.6650
 1303TIP3   OH2 3914   3.795   3.863   4.288 -0.4354  0.1431 -0.2068
 1303TIP3    H1 3915   3.710   3.853   4.330 -0.6237  0.1675 -0.5763
 1303TIP3    H2 3916   3.779   3.925   4.216  0.3928  2.0620  1.1593
 1304TIP3   OH2 3917   4.960   4.127   0.536 -0.3238 -0.7991  0.0080
 1304TIP3    H1 3918   4.949   4.149   0.629  0.6074  1.1511 -0.3057
 1304TIP3    H2 3919   4.905   4.049   0.524 -0.0434 -1.4431  2.3074
 1305TIP3   OH2 3920   1.634   5.741   4.697 -0.0580 -0.3199  0.6432
 1305TIP3    H1 3921   1.613   5.648   4.699 -3.0295  0.1974 -0.8385
 1305TIP3    H2 3922   1.640   5.762   4.604  0.4765  1.0239  0.9549
 1306TIP3   OH2 3923   5.954   2.366   1.957  0.0280  0.6215 -0.1345
 1306TIP3    H1 3924   5.946   2.459   1.937 -0.7024  0.4280 -0.8248
 1306TIP3    H2 3925   5.932   2.322   1.875 -3.5710 -0.2301  1.0869
 1307TIP3   OH2 3926   2.985   3.963   3.680 -0.0586 -0.2763 -0.5485
 1307TIP3    H1 3927   2.965   4.035   3.740  0.7701 -1.5466  1.3703
 1307TIP3    H2 3928   3.035   4.003   3.610  0.7583  0.9696  0.6939
 1308TIP3   OH2 3929   1.749   5.191   1.165 -0.0982  0.3227  0.0598
 1308TIP3    H1 3930   1.720   5.245   1.091 -1.6791 -1.6210 -0.8219
 1308TIP3    H2 3931   1.765   5.105   1.127  3.3908  0.2875  1.2254
 1309TIP3   OH2 3932   0.568   1.945   4.504 -0.7331 -0.3452 -0.4986
 1309TIP3    H1 3933   0.477   1.964   4.527 -0.8098 -0.8504 -0.3838
 1309TIP3    H2 3934   0.613   1.941   4.588 -0.7078 -0.6309 -0.5270
 1310TIP3   OH2 3935   2.149   3.492   2.590 -0.0060 -0.3609  0.2292
 1310TIP3    H1 3936   2.212   3.426   2.563  1.2120  1.1286 -0.7673
 1310TIP3    H2 3937   2.112   3.458   2.672  0.8682 -2.0426 -0.0247
 1311TIP3   OH2 3938   1.260   3.327   4.883  0.2649 -0.0384  0.0546
 1311TIP3    H1 3939   1.308   3.301   4.962  0.0234 -0.3104  0.1151
 1311TIP3    H2 3940   1.168   3.324   4.910  0.2125  0.4501 -0.0690
 1312TIP3   OH2 3941   5.477   3.736   2.330  0.2529  0.1718 -0.1535
 1312TIP3    H1 3942   5.538   3.692   2.390 -0.7822 -0.3479  0.5584
 1312TIP3    H2 3943   5.393   3.736   2.377 -0.0597  1.8314 -0.6543
 1313TIP3   OH2 3944   2.579   4.764   4.658 -0.0874  0.2666  0.2529
 1313TIP3    H1 3945   2.644   4.740   4.725 -0.1121  1.1946  0.6189
 1313TIP3    H2 3946   2.598   4.705   4.585  0.0956 -0.6005  0.9776
 1314TIP3   OH2 3947   1.814   1.522   1.230 -0.6931 -0.4630  0.3156
 1314TIP3    H1 3948   1.904   1.546   1.207 -1.3741  0.5526 -1.4191
 1314TIP3    H2 3949   1.824   1.473   1.312  1.2867  0.9090  0.9925
 1315TIP3   OH2 3950   6.318   3.553   5.018  0.4908 -0.4364  0.1406
 1315TIP3    H1 3951   6.294   3.485   5.081 -1.2899  0.2836  0.3034
 1315TIP3    H2 3952   6.247   3.553   4.954  0.4364  1.2665  0.1565
 1316TIP3   OH2 3953   4.561   3.679   3.415  1.0109  0.0532 -0.1943
 1316TIP3    H1 3954   4.589   3.746   3.477  0.9496  0.1636 -0.2862
 1316TIP3    H2 3955   4.562   3.722   3.330  3.0011 -0.6399 -0.5641
 1317TIP3   OH2 3956   0.878   2.773   3.535 -0.7458  0.3071 -0.0487
 1317TIP3    H1 3957   0.836   2.832   3.473  1.1201 -0.4268 -2.1836
 1317TIP3    H2 3958   0.810   2.710   3.557 -1.3494  0.2184 -1.9268
 1318TIP3   OH2 3959   5.786   1.408   3.508  0.1385  0.1338  0.0587
 1318TIP3    H1 3960   5.748   1.448   3.430 -0.5858  0.4958  0.5817
 1318TIP3    H2 3961   5.711   1.388   3.564  0.5318 -1.4583  0.0641
 1319TIP3   OH2 3962   3.823   3.364   4.989 -0.0400  0.6744 -0.6357
 1319TIP3    H1 3963   3.804   3.274   4.963  0.9166 -0.6231  2.6528
 1319TIP3    H2 3964   3.762   3.382   5.060  2.0205  1.2648  1.1138
 1320TIP3   OH2 3965   3.860   3.003   3.099  0.2067  0.8593 -0.3389
 1320TIP3    H1 3966   3.770   3.031   3.085  0.5473  1.3420 -1.6818
 1320TIP3    H2 3967   3.896   3.070   3.158 -0.2881  0.6746  0.1890
 1321TIP3   OH2 3968   1.115   5.246   4.743  0.5598 -0.0491 -0.1287
 1321TIP3    H1 3969   1.167   5.242   4.663 -0.0220 -0.3357 -0.4973
 1321TIP3    H2 3970   1.145   5.172   4.796  0.2581 -0.4539 -0.5136
 1322TIP3   OH2 3971   1.805   1.222   4.245 -0.0614 -0.1609  0.0036
 1322TIP3    H1 3972   1.820   1.315   4.261 -0.4784  0.0870 -1.0031
 1322TIP3    H2 3973   1.715   1.206   4.276 -0.0437 -0.1961  0.0373
 1323TIP3   OH2 3974   5.728   4.577   0.421  0.3136 -0.1277  0.7142
 1323TIP3    H1 3975   5.701   4.566   0.330  1.8475  1.6781 -0.0372
 1323TIP3    H2 3976   5.814   4.536   0.425  0.3484 -0.0029  1.2882
 1324TIP3   OH2 3977   2.931   0.355   2.784 -0.1589 -0.4811 -0.1871
 1324TIP3    H1 3978   2.842   0.348   2.750  0.5886 -0.6338 -2.3051
 1324TIP3    H2 3979   2.953   0.266   2.812  0.1858 -1.0480 -2.1201
 1325TIP3   OH2 3980   6.275   4.572   1.070  0.1375  0.2307  0.7174
 1325TIP3    H1 3981   6.236   4.515   1.137  0.3946 -1.4718 -0.5097
 1325TIP3    H2 3982   6.358   4.600   1.107  0.2622 -0.6630  1.1455
 1326TIP3   OH2 3983   6.052   1.294   4.485 -0.0876  0.6596 -0.0338
 1326TIP3    H1 3984   6.119   1.285   4.553 -0.6436 -0.7111  0.3741
 1326TIP3    H2 3985   6.076   1.374   4.438 -0.4836  2.5396  2.6702
 1327TIP3   OH2 3986   0.966   3.738   4.094 -0.2004  0.5473  0.2214
 1327TIP3    H1 3987   0.944   3.689   4.174 -0.2554 -0.4624 -0.3904
 1327TIP3    H2 3988   0.881   3.758   4.055 -0.1502 -1.4762 -1.0378
 1328TIP3   OH2 3989   3.960   2.143   1.909 -0.1496 -0.2160 -0.3119
 1328TIP3    H1 3990   4.013   2.064   1.919  0.2564 -0.0804 -1.2615
 1328TIP3    H2 3991   3.969   2.189   1.993 -1.5177 -1.8243  0.7875
 1329TIP3   OH2 3992   0.664   0.882   2.396 -0.0011 -0.1052  0.1777
 1329TIP3    H1 3993   0.573   0.901   2.371  0.8200  1.0981 -2.1921
 1329TIP3    H2 3994   0.687   0.803   2.347 -0.2149 -1.4100  2.0703
 1330TIP3   OH2 3995   5.143   5.854   3.397 -0.7747  0.2045 -0.0077
 1330TIP3    H1 3996   5.176   5.830   3.483 -0.8362  0.2964  0.0409
 1330TIP3    H2 3997   5.167   5.946   3.387 -0.2201  0.0343 -0.3389
 1331TIP3   OH2 3998   0.462   4.123   0.617 -0.1486  0.4109  0.2028
 1331TIP3    H1 3999   0.440   4.168   0.536  0.3106  0.0742 -0.1205
 1331TIP3    H2 4000   0.557   4.130   0.623 -0.2879  1.5128  1.3695
 1332TIP3   OH2 4001   6.177   0.482   3.982  0.4449  0.3123 -0.1346
 1332TIP3    H1 4002   6.249   0.419   3.973  0.9817  0.9531 -0.3528
 1332TIP3    H2 4003   6.217   0.567   3.964  0.6752  1.2445  3.8426
 1333TIP3   OH2 4004   3.918   1.898   1.506 -0.0316  0.1550 -0.7000
 1333TIP3    H1 4005   4.008   1.887   1.476 -0.5790 -0.9604 -2.0395
 1333TIP3    H2 4006   3.918   1.863   1.595  0.9406  0.5668 -0.5210
 1334TIP3   OH2 4007   1.863   2.557   2.405 -0.5109  0.5705 -0.5277
 1334TIP3    H1 4008   1.907   2.640   2.384 -0.2196 -0.0599 -2.7132
 1334TIP3    H2 4009   1.771   2.574   2.386 -0.4932  0.5069 -0.6785
 1335TIP3   OH2 4010   4.759   5.319   4.213  0.0581  0.2444 -0.2187
 1335TIP3    H1 4011   4.790   5.229   4.220  0.6915 -0.0010 -3.9414
 1335TIP3    H2 4012   4.665   5.314   4.228  0.3801 -0.6049  1.7813
 1336TIP3   OH2 4013   1.494   0.943   2.393 -0.2078  0.1804  0.1445
 1336TIP3    H1 4014   1.518   0.903   2.477 -2.0648 -0.4489  0.4215
 1336TIP3    H2 4015   1.408   0.983   2.409  0.4131  2.0167 -0.8676
 1337TIP3   OH2 4016   4.484   4.212   4.359 -0.3492  0.0994 -0.2545
 1337TIP3    H1 4017   4.431   4.203   4.279 -0.4170 -1.8049 -0.0333
 1337TIP3    H2 4018   4.504   4.122   4.385  5.0171  0.5740 -1.6143
 1338TIP3   OH2 4019   5.874   4.521   4.578  0.2835 -0.2704 -0.0527
 1338TIP3    H1 4020   5.902   4.500   4.489 -3.1026  0.3695 -1.4411
 1338TIP3    H2 4021   5.830   4.442   4.608 -1.3451  0.5014 -0.2773
 1339TIP3   OH2 4022   3.850   4.133   0.954 -0.3590 -0.1836 -0.0121
 1339TIP3    H1 4023   3.895   4.049   0.943 -3.4575 -2.1395  0.7616
 1339TIP3    H2 4024   3.778   4.130   0.890 -0.7196  1.7976  0.2280
 1340TIP3   OH2 4025   4.422   2.215   3.757  0.0746  0.7855 -0.3316
 1340TIP3    H1 4026   4.329   2.203   3.738  0.2688  0.6832 -1.2784
 1340TIP3    H2 4027   4.447   2.137   3.806 -0.0587  0.2029 -1.1738
 1341TIP3   OH2 4028   2.156   4.823   3.813 -0.0408  0.5927  0.5412
 1341TIP3    H1 4029   2.064   4.819   3.786  0.2965 -0.2201 -0.5702
 1341TIP3    H2 4030   2.164   4.759   3.884  0.0543 -0.7917 -0.6707
 1342TIP3   OH2 4031   6.273   1.586   1.478 -0.1015 -0.1876  0.3385
 1342TIP3    H1 4032   6.190   1.624   1.448  0.2452  0.4360  0.1597
 1342TIP3    H2 4033   6.278   1.610   1.571 -0.5400 -0.9911  0.5850
 1343TIP3   OH2 4034   1.998   0.736   3.772 -0.5877 -0.2031 -0.2682
 1343TIP3    H1 4035   1.981   0.749   3.679  0.3627 -2.4657 -0.8385
 1343TIP3    H2 4036   2.080   0.782   3.789 -0.4016 -0.3672 -0.7231
 1344TIP3   OH2 4037   6.203   3.214   0.521  0.4891  0.6031 -0.3907
 1344TIP3    H1 4038   6.287   3.168   0.525  0.7212  1.0732  2.1458
 1344TIP3    H2 4039   6.206   3.263   0.439  1.7512 -1.0867 -1.3920
 1345TIP3   OH2 4040   0.578   5.002   3.370  0.5186 -0.0175 -0.5877
 1345TIP3    H1 4041   0.592   5.090   3.405  0.3556  1.4915 -3.9191
 1345TIP3    H2 4042   0.507   5.012   3.306  1.1499 -2.3579 -1.7768
 1346TIP3   OH2 4043   2.315   5.735   3.800 -0.5204 -0.2942  0.0829
 1346TIP3    H1 4044   2.307   5.679   3.877 -0.2415  0.6798  0.8480
 1346TIP3    H2 4045   2.284   5.820   3.829  0.0938  0.2259 -0.7258
 1347TIP3   OH2 4046   6.113   4.189   3.692 -0.6744 -0.6600  0.3528
 1347TIP3    H1 4047   6.083   4.168   3.603 -0.9684  0.2361  0.2335
 1347TIP3    H2 4048   6.208   4.179   3.688 -0.4204  1.5914 -0.7111
 1348TIP3   OH2 4049   3.093   2.713   2.104 -0.3407  0.3051  0.7906
 1348TIP3    H1 4050   3.068   2.637   2.051 -1.1225  0.3506  1.0726
 1348TIP3    H2 4051   3.093   2.786   2.041 -3.1009  0.7090  1.1169
 1349TIP3   OH2 4052   5.007   3.677   1.842  0.4058  0.5220 -0.1211
 1349TIP3    H1 4053   5.043   3.589   1.830  1.3946  0.9561 -0.4831
 1349TIP3    H2 4054   5.080   3.728   1.877 -0.7038  0.7498  2.0023
 1350TIP3   OH2 4055   1.032   1.552   1.975  0.1751  0.1877  0.4854
 1350TIP3    H1 4056   1.027   1.647   1.967  0.4841  0.2445  0.9707
 1350TIP3    H2 4057   1.089   1.536   2.050  0.8500 -0.3904 -0.1262
 1351TIP3   OH2 4058   5.896   0.740   3.826  0.2793 -0.2309  0.0235
 1351TIP3    H1 4059   5.911   0.646   3.836  0.8314 -0.3742 -1.9074
 1351TIP3    H2 4060   5.965   0.770   3.768  0.7997  1.6229  1.5010
 1352TIP3   OH2 4061   4.944   4.240   3.474 -0.5309 -0.5297 -0.3594
 1352TIP3    H1 4062   4.937   4.312   3.411 -1.3886  0.5576  0.9120
 1352TIP3    H2 4063   4.854   4.228   3.505 -0.1997 -1.3726  0.2955
 1353TIP3   OH2 4064   2.167   0.940   4.206 -0.0668 -0.0348  0.0531
 1353TIP3    H1 4065   2.089   0.946   4.260 -0.1695 -0.8427  0.0199
 1353TIP3    H2 4066   2.232   0.994   4.250 -0.3621 -0.1193  0.5986
 1354TIP3   OH2 4067   5.910   0.145   4.397 -0.1242  0.2688 -0.1111
 1354TIP3    H1 4068   5.867   0.204   4.459  0.1863  0.1964  0.1692
 1354TIP3    H2 4069   5.945   0.203   4.329  0.6128  0.4463  0.4205
 1355TIP3   OH2 4070   4.288   3.762   0.740 -0.5920 -0.4835  0.1768
 1355TIP3    H1 4071   4.289   3.667   0.754 -0.6258 -0.4864  0.1602
 1355TIP3    H2 4072   4.377   3.790   0.761 -0.0097 -0.7936 -1.7040
 1356TIP3   OH2 4073   0.901   2.164   4.896  0.8204 -0.2422 -0.4492
 1356TIP3    H1 4074   0.864   2.240   4.941 -2.5388 -1.1685 -1.3695
 1356TIP3    H2 4075   0.953   2.201   4.824 -1.1021  1.2426 -1.1442
 1357TIP3   OH2 4076   3.856   5.234   0.156  0.5115 -0.1748 -0.0352
 1357TIP3    H1 4077   3.946   5.266   0.165  0.5452  0.2812 -1.6628
 1357TIP3    H2 4078   3.864   5.150   0.112  0.2703 -1.4883  2.2685
 1358TIP3   OH2 4079   6.205   4.302   4.281  0.2843  0.6863 -0.0029
 1358TIP3    H1 4080   6.265   4.327   4.211 -0.7381  0.1196 -1.1335
 1358TIP3    H2 4081   6.181   4.385   4.323 -0.0560  1.1903 -1.1601
 1359TIP3   OH2 4082   0.118   3.094   1.160  0.2189 -0.1292 -0.2307
 1359TIP3    H1 4083   0.036   3.047   1.145 -0.6628  1.9277 -2.3935
 1359TIP3    H2 4084   0.098   3.156   1.230 -0.0809  0.3446 -0.7301
 1360TIP3   OH2 4085   1.887   2.177   4.530  0.4101  0.2272 -0.9437
 1360TIP3    H1 4086   1.898   2.087   4.559  0.1954  0.4731 -0.0487
 1360TIP3    H2 4087   1.800   2.179   4.489 -1.4171  0.8309  2.5716
 1361TIP3   OH2 4088   3.301   0.774   1.752  0.6247  0.3917 -0.1329
 1361TIP3    H1 4089   3.337   0.686   1.755  0.5067  0.2997 -1.0339
 1361TIP3    H2 4090   3.365   0.828   1.798  1.2937  0.0233 -0.6123
 1362TIP3   OH2 4091   5.244   0.413   0.139 -0.3964 -0.2783  0.1331
 1362TIP3    H1 4092   5.154   0.382   0.131 -0.7092  0.2197  1.4510
 1362TIP3    H2 4093   5.266   0.400   0.231  0.4761  0.6720  0.0785
 1363TIP3   OH2 4094   3.455   2.370   1.128  0.0686 -0.3688  0.0783
 1363TIP3    H1 4095   3.550   2.371   1.118 -0.0228 -1.3795 -1.2352
 1363TIP3    H2 4096   3.426   2.301   1.068 -1.5325  0.2373  0.1219
 1364TIP3   OH2 4097   2.965   0.379   0.640 -0.2759 -0.1935 -0.1815
 1364TIP3    H1 4098   2.929   0.376   0.552 -2.2820  0.5709  0.5627
 1364TIP3    H2 4099   3.006   0.293   0.652 -1.2939 -0.8655 -1.3291
 1365TIP3   OH2 4100   3.136   0.606   1.413 -0.2902  0.1481 -0.1088
 1365TIP3    H1 4101   3.143   0.589   1.507 -1.8862 -0.6580 -0.1059
 1365TIP3    H2 4102   3.098   0.526   1.377  1.6770 -0.1513 -1.6964
 1366TIP3   OH2 4103   0.272   1.157   3.678  0.4426  0.3189  0.1544
 1366TIP3    H1 4104   0.247   1.094   3.745 -0.9220  2.3501  1.7073
 1366TIP3    H2 4105   0.194   1.165   3.623  0.7123  0.4142 -0.2189
 1367TIP3   OH2 4106   4.185   5.953   1.762 -0.1250  0.3764 -0.2353
 1367TIP3    H1 4107   4.135   5.873   1.744  0.3721 -0.0574  0.2935
 1367TIP3    H2 4108   4.214   5.943   1.853  0.1192  1.0644 -0.2354
 1368TIP3   OH2 4109   3.534   5.152   1.399  0.0536 -0.3822 -0.4014
 1368TIP3    H1 4110   3.605   5.146   1.463 -0.9015  0.7588  0.8276
 1368TIP3    H2 4111   3.483   5.073   1.413 -0.3131 -0.0022  0.4803
 1369TIP3   OH2 4112   5.859   4.139   4.986 -0.1509  0.1911 -0.4719
 1369TIP3    H1 4113   5.903   4.054   4.983  0.1151  0.3444 -1.4055
 1369TIP3    H2 4114   5.773   4.123   4.947  1.0847  0.9709 -3.8720
 1370TIP3   OH2 4115   4.805   2.709   4.316 -0.0216  0.3193 -0.1452
 1370TIP3    H1 4116   4.860   2.677   4.387 -0.8880 -0.2842  0.2822
 1370TIP3    H2 4117   4.849   2.787   4.283  0.6569  0.3036  0.7158
 1371TIP3   OH2 4118   2.879   1.716   1.276  0.5963 -0.0697 -0.7533
 1371TIP3    H1 4119   2.943   1.670   1.329  0.5877  0.1509 -0.5531
 1371TIP3    H2 4120   2.794   1.682   1.306  0.6666 -1.7472 -2.2812
 1372TIP3   OH2 4121   5.911   4.790   5.020  0.3354  0.5762 -0.5088
 1372TIP3    H1 4122   5.926   4.705   4.978 -0.6415  0.3017 -0.3206
 1372TIP3    H2 4123   5.973   4.791   5.094 -1.0814 -0.9074  0.7828
 1373TIP3   OH2 4124   5.294   1.040   3.838 -0.5071  0.6604 -0.1237
 1373TIP3    H1 4125   5.270   1.083   3.756  0.2554  0.2650 -0.5643
 1373TIP3    H2 4126   5.376   0.995   3.819 -0.9264 -0.4133  0.5275
 1374TIP3   OH2 4127   5.712   5.184   3.046 -0.1944 -0.3048  0.9723
 1374TIP3    H1 4128   5.724   5.101   3.093 -0.6520  0.1072  1.8542
 1374TIP3    H2 4129   5.680   5.158   2.960  2.6451 -1.1922  0.0816
 1375TIP3   OH2 4130   0.990   1.749   1.168  0.0379 -0.5097  0.2545
 1375TIP3    H1 4131   1.072   1.700   1.166  1.4938  1.7101  1.3559
 1375TIP3    H2 4132   0.928   1.694   1.119  1.9208 -2.6540  0.1076
 1376TIP3   OH2 4133   5.423   2.042   1.383 -0.4877  0.0710  0.0076
 1376TIP3    H1 4134   5.375   1.959   1.381 -1.3410  0.4537  1.9545
 1376TIP3    H2 4135   5.363   2.104   1.343  0.1338 -0.2195 -1.4117
 1377TIP3   OH2 4136   0.051   2.334   0.428 -0.1626  0.2111 -0.0082
 1377TIP3    H1 4137   0.091   2.386   0.497  0.2952 -0.0997 -0.0310
 1377TIP3    H2 4138   0.125   2.291   0.385 -0.4979 -0.1290 -0.2530
 1378TIP3   OH2 4139   0.495   4.085   1.571 -0.3202 -0.5563  0.0228
 1378TIP3    H1 4140   0.465   4.151   1.633 -1.2570 -1.5402  0.6631
 1378TIP3    H2 4141   0.440   4.009   1.589 -0.0758 -1.1264 -1.4967
 1379TIP3   OH2 4142   4.916   0.542   2.634 -0.1352 -0.3730  0.1293
 1379TIP3    H1 4143   4.958   0.585   2.560  3.5092  0.8277  2.6376
 1379TIP3    H2 4144   4.858   0.608   2.672  0.6387  0.1829  0.3421
 1380TIP3   OH2 4145   0.275   2.949   0.094  0.2554  0.3164  0.1641
 1380TIP3    H1 4146   0.300   3.040   0.078  0.4667  0.3073  0.4182
 1380TIP3    H2 4147   0.285   2.938   0.189  0.4562 -0.0352  0.1047
 1381TIP3   OH2 4148   3.829   5.553   0.971  0.1735  0.0850 -0.0361
 1381TIP3    H1 4149   3.743   5.511   0.964  0.1119  0.2198 -0.0833
 1381TIP3    H2 4150   3.880   5.515   0.899  0.3945 -0.5580  0.4414
 1382TIP3   OH2 4151   4.262   5.280   3.656  0.1710 -0.0145 -0.1371
 1382TIP3    H1 4152   4.307   5.361   3.680  0.8365  0.0437 -1.4562
 1382TIP3    H2 4153   4.259   5.283   3.560  0.9259 -1.9426 -0.2449
 1383TIP3   OH2 4154   5.885   4.153   1.401  0.4971 -0.1092 -0.4624
 1383TIP3    H1 4155   5.930   4.124   1.321 -0.1377 -1.5858 -0.2991
 1383TIP3    H2 4156   5.793   4.132   1.386 -0.0331  1.8904 -0.3390
 1384TIP3   OH2 4157   3.466   3.497   1.575  0.3612 -0.3017  0.0395
 1384TIP3    H1 4158   3.499   3.584   1.598  1.6725 -0.7422 -0.0914
 1384TIP3    H2 4159   3.371   3.508   1.567  0.4237  0.9353  0.8005
 1385TIP3   OH2 4160   0.161   4.786   4.836  0.5231 -0.5471 -0.6398
 1385TIP3    H1 4161   0.068   4.766   4.842  0.8309 -1.9080  0.2904
 1385TIP3    H2 4162   0.204   4.710   4.877  2.0309  0.0687 -1.0068
 1386TIP3   OH2 4163   3.118   4.631   2.778 -0.5772  0.3080  0.3495
 1386TIP3    H1 4164   3.026   4.620   2.804 -0.6706  0.9717  0.3163
 1386TIP3    H2 4165   3.150   4.541   2.765 -1.7224  0.0822 -1.3788
 1387TIP3   OH2 4166   4.364   2.710   2.590 -0.3501 -0.2576 -0.1215
 1387TIP3    H1 4167   4.365   2.804   2.609  1.1227 -0.6165  1.8351
 1387TIP3    H2 4168   4.412   2.702   2.508 -0.0066  0.6459 -0.0182
 1388TIP3   OH2 4169   1.924   4.245   1.202 -0.2083 -0.3058 -0.1903
 1388TIP3    H1 4170   1.937   4.266   1.295 -1.0241  1.9701 -0.5247
 1388TIP3    H2 4171   1.855   4.178   1.202 -0.3157 -0.2109  0.8374
 1389TIP3   OH2 4172   4.270   1.048   0.806 -0.7013  0.8434 -0.2824
 1389TIP3    H1 4173   4.287   0.975   0.746  0.5450  0.1207  0.8930
 1389TIP3    H2 4174   4.213   1.011   0.874 -3.3534  2.0307 -1.6811
 1390TIP3   OH2 4175   1.938   0.202   1.299  0.1880  0.4040 -0.3305
 1390TIP3    H1 4176   2.020   0.249   1.282 -0.1869  0.4757 -2.1346
 1390TIP3    H2 4177   1.962   0.110   1.300  0.4899  0.4778  0.5491
 1391TIP3   OH2 4178   2.677   1.208   1.081 -0.0141  0.1166 -0.2016
 1391TIP3    H1 4179   2.675   1.144   1.153  0.5374 -0.9716 -1.1143
 1391TIP3    H2 4180   2.767   1.204   1.048 -0.6832 -0.7116 -2.0507
 1392TIP3   OH2 4181   4.666   2.215   1.995 -0.8095 -0.3554 -0.4982
 1392TIP3    H1 4182   4.603   2.223   2.067 -0.2400 -1.7889  0.2170
 1392TIP3    H2 4183   4.698   2.304   1.981 -1.3216  0.0416  0.6832
 1393TIP3   OH2 4184   3.170   5.495   0.643 -0.0006  0.7389  0.6085
 1393TIP3    H1 4185   3.158   5.509   0.549  0.2588  1.6068  0.6959
 1393TIP3    H2 4186   3.256   5.530   0.662  0.4116 -0.4252  0.9892
 1394TIP3   OH2 4187   1.139   5.728   3.257 -0.7078 -0.4157  0.2702
 1394TIP3    H1 4188   1.226   5.734   3.297  0.4569 -0.6619 -2.0184
 1394TIP3    H2 4189   1.092   5.806   3.288  1.5386  1.5840 -1.0470
 1395TIP3   OH2 4190   0.369   3.540   1.465  0.2405  0.3072  0.5603
 1395TIP3    H1 4191   0.379   3.454   1.506  0.4007  0.3519  0.6115
 1395TIP3    H2 4192   0.458   3.570   1.448  0.2130  0.8340  1.2905
 1396TIP3   OH2 4193   1.074   0.845   1.984  0.8826  0.3536  0.6650
 1396TIP3    H1 4194   1.036   0.764   2.016  2.2755 -0.6830 -0.1764
 1396TIP3    H2 4195   1.100   0.893   2.063 -0.5859  0.3234  1.1861
 1397TIP3   OH2 4196   2.182   5.894   4.496  0.0668 -0.2521  0.2827
 1397TIP3    H1 4197   2.224   5.947   4.564  1.1217 -1.3569  0.5498
 1397TIP3    H2 4198   2.093   5.880   4.528  0.4248 -0.4138  1.2594
 1398TIP3   OH2 4199   5.130   4.515   3.100 -0.0936 -0.0397  0.4041
 1398TIP3    H1 4200   5.100   4.497   3.189  1.3163 -0.0838  0.8915
 1398TIP3    H2 4201   5.072   4.584   3.069  0.1847  0.8898  1.8331
 1399TIP3   OH2 4202   2.952   4.223   2.909  0.2954  0.4970  1.2534
 1399TIP3    H1 4203   3.021   4.174   2.863 -0.4247  0.5889  0.0435
 1399TIP3    H2 4204   2.983   4.227   3.000  1.4175 -0.3025  0.9365
 1400TIP3   OH2 4205   4.183   4.931   3.147  0.2914  0.0571 -0.1277
 1400TIP3    H1 4206   4.152   4.869   3.214 -2.4835  0.4390 -0.9126
 1400TIP3    H2 4207   4.127   5.008   3.159  2.9587  2.0965  0.1515
 1401TIP3   OH2 4208   0.883   2.962   1.892 -0.0912  0.2963 -0.0960
 1401TIP3    H1 4209   0.953   3.016   1.928 -0.4680  0.0255  1.1040
 1401TIP3    H2 4210   0.857   2.905   1.965 -0.0717 -1.1361 -1.1624
 1402TIP3   OH2 4211   2.039   0.287   4.577  0.2969 -0.3327  0.4416
 1402TIP3    H1 4212   2.021   0.224   4.507  2.1720 -1.0697  0.5449
 1402TIP3    H2 4213   2.046   0.233   4.656 -0.7345  0.3567  1.0202
 1403TIP3   OH2 4214   1.417   0.757   3.600  0.5063  0.1133 -0.2005
 1403TIP3    H1 4215   1.360   0.696   3.648 -0.2834 -1.1785 -2.5902
 1403TIP3    H2 4216   1.369   0.839   3.600 -0.6485 -0.5331 -0.8227
 1404TIP3   OH2 4217   6.289   4.985   0.847 -0.4484 -0.0385  0.0041
 1404TIP3    H1 4218   6.378   5.014   0.866 -0.2261  0.4256 -1.5985
 1404TIP3    H2 4219   6.273   4.916   0.911  0.8046  0.3355  0.7656
 1405TIP3   OH2 4220   3.332   4.420   3.907 -0.3089  0.0728 -0.4449
 1405TIP3    H1 4221   3.341   4.329   3.881 -0.2451 -0.0756  0.0847
 1405TIP3    H2 4222   3.339   4.419   4.003 -2.0421  0.4196 -0.2876
 1406TIP3   OH2 4223   3.804   0.728   1.169 -0.2582 -0.2716 -0.5228
 1406TIP3    H1 4224   3.864   0.792   1.131  1.6590 -1.0855  0.9696
 1406TIP3    H2 4225   3.738   0.780   1.215  0.0222  0.6267 -1.1109
 1407TIP3   OH2 4226   3.261   1.548   4.422 -0.2609 -0.1853 -0.1563
 1407TIP3    H1 4227   3.199   1.488   4.463 -1.8606  1.3834 -0.1601
 1407TIP3    H2 4228   3.243   1.539   4.328  0.2210 -0.4275 -0.2306
 1408TIP3   OH2 4229   3.401   0.242   1.679 -0.1221 -0.5963 -0.0101
 1408TIP3    H1 4230   3.419   0.192   1.599  1.3029 -0.1219 -0.0095
 1408TIP3    H2 4231   3.458   0.202   1.745 -2.1255 -1.7600  1.1203
 1409TIP3   OH2 4232   2.607   0.334   4.005 -0.2475 -0.5172 -0.3679
 1409TIP3    H1 4233   2.546   0.400   3.973 -0.6365 -0.5186  0.3374
 1409TIP3    H2 4234   2.551   0.266   4.043  0.1831 -0.4508  0.4133
 1410TIP3   OH2 4235   0.647   0.375   0.500  0.2767 -0.1394  0.4719
 1410TIP3    H1 4236   0.618   0.462   0.472  0.0242 -0.3849 -0.0313
 1410TIP3    H2 4237   0.581   0.347   0.563  0.6184  0.2310  1.0155
 1411TIP3   OH2 4238   3.890   5.618   1.820 -0.6163  0.0615 -0.0965
 1411TIP3    H1 4239   3.952   5.656   1.758 -0.5860  1.2203  0.6221
 1411TIP3    H2 4240   3.805   5.623   1.776 -0.1769 -2.0150 -1.3016
 1412TIP3   OH2 4241   1.232   1.814   0.224 -0.2017 -0.0685 -0.2972
 1412TIP3    H1 4242   1.321   1.809   0.186  1.0483  2.4537  1.9553
 1412TIP3    H2 4243   1.196   1.894   0.187  0.4197  1.5494  2.3307
 1413TIP3   OH2 4244   0.910   2.048   3.435 -0.0830  0.1952 -0.0993
 1413TIP3    H1 4245   0.954   2.134   3.436  0.6316 -0.1682  0.8950
 1413TIP3    H2 4246   0.951   2.002   3.362  1.3941 -0.2067  0.9218
 1414TIP3   OH2 4247   6.046   5.279   1.631 -0.5245 -0.1142  0.3278
 1414TIP3    H1 4248   6.005   5.257   1.547  0.1534 -0.0431 -0.0300
 1414TIP3    H2 4249   6.121   5.333   1.607 -0.0337 -0.5123  0.9473
 1415TIP3   OH2 4250   2.035   1.189   4.081  0.0890 -0.6001  0.0039
 1415TIP3    H1 4251   2.010   1.097   4.078  0.3451 -0.6436 -1.2989
 1415TIP3    H2 4252   1.979   1.227   4.149 -1.5218 -1.2661 -0.9171
 1416TIP3   OH2 4253   5.182   5.677   4.214 -0.0089 -0.3233  0.1197
 1416TIP3    H1 4254   5.267   5.669   4.170 -0.3493 -0.4335 -0.5393
 1416TIP3    H2 4255   5.165   5.771   4.215 -0.1567 -0.3428 -0.3030
 1417TIP3   OH2 4256   0.557   1.089   3.715 -0.0402 -0.4635 -0.6773
 1417TIP3    H1 4257   0.549   1.007   3.666 -0.0777 -0.0128 -1.4377
 1417TIP3    H2 4258   0.480   1.140   3.689 -1.2766 -1.0653  1.5225
 1418TIP3   OH2 4259   0.688   5.388   3.908  0.0482 -0.0122 -0.3425
 1418TIP3    H1 4260   0.733   5.355   3.830  0.7309  1.7182 -0.7259
 1418TIP3    H2 4261   0.716   5.479   3.916 -1.5886  0.4555  0.7688
 1419TIP3   OH2 4262   5.105   2.030   1.156  0.1488  0.1920  0.4547
 1419TIP3    H1 4263   5.168   2.034   1.084 -0.9885 -1.2667 -0.7044
 1419TIP3    H2 4264   5.071   2.119   1.164  1.1438  0.6244 -0.0313
 1420TIP3   OH2 4265   3.323   4.079   3.326  0.3297 -0.0310  0.0431
 1420TIP3    H1 4266   3.362   4.141   3.264 -0.3301  0.1664 -0.1842
 1420TIP3    H2 4267   3.362   3.995   3.303 -1.2618 -0.3214 -1.9157
 1421TIP3   OH2 4268   2.020   5.599   2.307 -0.2020 -0.1315  0.3849
 1421TIP3    H1 4269   1.963   5.592   2.230  0.6798  0.0774 -0.3006
 1421TIP3    H2 4270   2.056   5.511   2.317  1.3821  0.3280 -0.8034
 1422TIP3   OH2 4271   6.244   3.713   0.419  0.2031 -0.3753 -0.1040
 1422TIP3    H1 4272   6.299   3.657   0.364 -0.6781 -1.1707 -0.2080
 1422TIP3    H2 4273   6.226   3.659   0.496 -0.7995 -0.2971 -0.2800
 1423TIP3   OH2 4274   4.539   4.787   2.094 -0.2526 -0.2734  0.2335
 1423TIP3    H1 4275   4.559   4.751   2.181  0.6834  0.6486  0.4143
 1423TIP3    H2 4276   4.443   4.781   2.088 -0.2533 -1.2236  0.9312
 1424TIP3   OH2 4277   3.129   5.131   3.632 -0.0325 -0.9814  0.5119
 1424TIP3    H1 4278   3.056   5.166   3.580  1.3571  1.5873  0.1229
 1424TIP3    H2 4279   3.106   5.153   3.723  0.4748  0.3890  0.3365
 1425TIP3   OH2 4280   3.562   2.976   0.213 -0.2730 -0.5579  0.5688
 1425TIP3    H1 4281   3.500   2.971   0.286 -0.9268 -0.2319  0.0522
 1425TIP3    H2 4282   3.507   2.998   0.137  0.2846 -1.6579 -0.1681
 1426TIP3   OH2 4283   6.331   1.165   4.044 -0.0269  0.5685  0.4444
 1426TIP3    H1 4284   6.364   1.156   3.955  2.3462  1.2401  1.1768
 1426TIP3    H2 4285   6.329   1.259   4.060  0.5348  0.4352  1.4032
 1427TIP3   OH2 4286   3.497   1.809   5.137 -0.3338 -0.1860  0.0853
 1427TIP3    H1 4287   3.543   1.740   5.089  1.0648  0.9310 -0.2457
 1427TIP3    H2 4288   3.524   1.797   5.228 -0.2365 -0.1734  0.0576
 1428TIP3   OH2 4289   0.340   1.077   1.462  0.0280  0.3137 -0.0744
 1428TIP3    H1 4290   0.324   0.988   1.429 -0.4753  0.5145 -0.3793
 1428TIP3    H2 4291   0.434   1.091   1.447  0.2566 -0.3970  0.5598
 1429TIP3   OH2 4292   2.006   5.779   4.007  0.0521  0.1331 -0.4345
 1429TIP3    H1 4293   2.029   5.839   4.078 -1.3503  0.8694 -0.5554
 1429TIP3    H2 4294   2.086   5.729   3.991  0.7838  0.8482  0.7722
 1430TIP3   OH2 4295   4.668   3.918   4.609 -0.1964  0.0954  0.2174
 1430TIP3    H1 4296   4.653   3.845   4.668  1.9603  0.9945  2.0018
 1430TIP3    H2 4297   4.583   3.933   4.567 -1.4029 -1.5869  1.9134
 1431TIP3   OH2 4298   1.556   0.096   1.934  0.0424 -0.3223  0.8067
 1431TIP3    H1 4299   1.632   0.097   1.875  0.3395  0.1476  1.1833
 1431TIP3    H2 4300   1.541   0.188   1.953 -1.0496 -0.3600  0.2130
 1432TIP3   OH2 4301   2.330   3.891   2.001  0.7257  0.5076  0.0150
 1432TIP3    H1 4302   2.340   3.799   2.027 -0.7157 -1.3569 -4.8931
 1432TIP3    H2 4303   2.243   3.916   2.031 -0.0494 -0.7976 -1.0588
 1433TIP3   OH2 4304   3.633   3.000   0.577 -0.4401 -0.6363  0.2399
 1433TIP3    H1 4305   3.620   3.068   0.511 -0.4409  0.2277  1.1015
 1433TIP3    H2 4306   3.649   2.920   0.527 -0.0827  0.0628 -0.7985
 1434TIP3   OH2 4307   5.864   1.066   4.431 -0.6156  0.5505 -0.0909
 1434TIP3    H1 4308   5.921   1.143   4.425  0.5023 -0.2057  0.4589
 1434TIP3    H2 4309   5.855   1.050   4.525  2.0501 -2.0094 -0.1521
 1435TIP3   OH2 4310   0.454   0.377   4.701 -0.0156  0.5015 -0.3852
 1435TIP3    H1 4311   0.416   0.290   4.701  0.6097  0.1447  2.3050
 1435TIP3    H2 4312   0.546   0.363   4.725  0.0633  1.9013  0.2056
 1436TIP3   OH2 4313   3.414   0.151   3.909  0.3730 -0.1790  0.6949
 1436TIP3    H1 4314   3.509   0.154   3.922  0.3488  1.9128  0.6678
 1436TIP3    H2 4315   3.377   0.171   3.995  0.0078  1.0253  0.2707
 1437TIP3   OH2 4316   5.624   1.817   0.700  0.3673  0.4893  0.1872
 1437TIP3    H1 4317   5.700   1.760   0.712  0.3343  0.4973  0.4477
 1437TIP3    H2 4318   5.635   1.885   0.767  0.3628  0.7412 -0.0686
 1438TIP3   OH2 4319   0.099   4.277   2.056  0.1934 -0.1068 -0.5670
 1438TIP3    H1 4320   0.030   4.233   2.105  1.2466 -0.5804  0.5581
 1438TIP3    H2 4321   0.138   4.338   2.118  0.2148  0.8090 -1.4504
 1439TIP3   OH2 4322   2.884   5.967   3.488  0.1853  0.1570  0.1026
 1439TIP3    H1 4323   2.852   5.905   3.423 -0.7515 -0.4251  1.0867
 1439TIP3    H2 4324   2.960   6.009   3.447 -0.7117  0.2059 -1.5529
 1440TIP3   OH2 4325   2.454   5.113   1.940  0.9759  0.6746 -0.3628
 1440TIP3    H1 4326   2.431   5.129   2.032  0.0296 -0.9168 -0.2807
 1440TIP3    H2 4327   2.549   5.108   1.939  0.9358 -1.0476  0.8889
 1441TIP3   OH2 4328   1.404   0.439   0.687 -0.0756 -0.5462 -0.4517
 1441TIP3    H1 4329   1.472   0.395   0.739  0.8580  1.9473  0.5746
 1441TIP3    H2 4330   1.361   0.498   0.749 -1.0833  0.2306 -1.8345
 1442TIP3   OH2 4331   2.870   2.759   2.844  0.5705 -0.4758 -0.5961
 1442TIP3    H1 4332   2.859   2.838   2.791 -1.7753 -1.5095 -1.8142
 1442TIP3    H2 4333   2.860   2.687   2.781 -0.3309 -1.7342  0.9231
 1443TIP3   OH2 4334   5.454   1.584   0.698 -0.7780  0.0468  0.1940
 1443TIP3    H1 4335   5.502   1.667   0.692 -0.1481 -0.3332 -0.1591
 1443TIP3    H2 4336   5.514   1.525   0.745 -0.4254 -0.7518 -1.1919
 1444TIP3   OH2 4337   2.626   0.702   4.011  0.4284  0.4006 -0.5672
 1444TIP3    H1 4338   2.560   0.720   4.078  0.9226 -0.7225  0.2714
 1444TIP3    H2 4339   2.575   0.687   3.931 -0.1767  1.6913 -0.4484
 1445TIP3   OH2 4340   1.745   4.382   1.980  0.5886  0.1058 -1.0123
 1445TIP3    H1 4341   1.804   4.318   1.940  0.9982  0.7268 -1.4337
 1445TIP3    H2 4342   1.803   4.451   2.013  0.3138 -0.6529  1.2060
 1446TIP3   OH2 4343   1.174   5.378   1.470  0.2767  0.1210  0.0767
 1446TIP3    H1 4344   1.117   5.453   1.457  0.3499 -0.0700 -1.5618
 1446TIP3    H2 4345   1.237   5.406   1.536 -0.4133  1.0675  0.3493
 1447TIP3   OH2 4346   3.348   2.038   4.647  0.4727  0.2036 -0.0600
 1447TIP3    H1 4347   3.379   1.969   4.706 -0.3163 -1.5481 -1.5729
 1447TIP3    H2 4348   3.258   2.012   4.624  0.4791  1.2273 -1.4006
 1448TIP3   OH2 4349   4.051   2.474   4.279  0.5589  1.0521 -0.0040
 1448TIP3    H1 4350   3.990   2.439   4.214  0.8199 -1.3932  0.9808
 1448TIP3    H2 4351   4.137   2.451   4.246  0.6719 -1.0587  1.5560
 1449TIP3   OH2 4352   2.094   4.722   0.542 -0.1248 -0.3488  0.2372
 1449TIP3    H1 4353   2.079   4.709   0.635 -2.1113 -1.5464 -0.1920
 1449TIP3    H2 4354   2.149   4.648   0.516 -0.4575 -0.6010  0.2556
 1450TIP3   OH2 4355   1.168   4.265   3.775  0.2585  0.2193  0.3945
 1450TIP3    H1 4356   1.175   4.358   3.795  0.4034  1.2121 -3.4186
 1450TIP3    H2 4357   1.074   4.247   3.773  0.1302  0.9192 -1.0087
 1451TIP3   OH2 4358   0.699   0.312   4.542  0.1270  0.0225  0.0152
 1451TIP3    H1 4359   0.645   0.355   4.476 -0.1644  0.0820  0.2885
 1451TIP3    H2 4360   0.732   0.384   4.596 -1.2515 -0.1342  1.1529
 1452TIP3   OH2 4361   4.996   2.685   3.157  0.8009  0.0721  0.3493
 1452TIP3    H1 4362   4.967   2.635   3.081  0.6452  1.3506 -0.4500
 1452TIP3    H2 4363   4.917   2.694   3.211  1.1173 -1.6714  1.1980
 1453TIP3   OH2 4364   2.731   3.409   2.592 -0.4272  0.0355  0.0066
 1453TIP3    H1 4365   2.718   3.379   2.681 -0.7358 -0.7592 -0.2979
 1453TIP3    H2 4366   2.654   3.461   2.571 -1.4923 -1.7053 -0.5758
 1454TIP3   OH2 4367   2.943   3.794   2.470 -0.2262 -0.9668  0.4404
 1454TIP3    H1 4368   2.858   3.829   2.445  0.0535 -1.8687 -2.1685
 1454TIP3    H2 4369   3.004   3.836   2.409  0.5345 -3.4667 -0.6658
 1455TIP3   OH2 4370   3.443   0.692   4.643  0.5743  0.1019  0.0469
 1455TIP3    H1 4371   3.490   0.751   4.584 -0.5403  1.0358  0.0659
 1455TIP3    H2 4372   3.456   0.729   4.730  0.5617 -0.1500  0.1570
 1456TIP3   OH2 4373   0.750   4.465   0.987  0.1920 -0.0608  0.1632
 1456TIP3    H1 4374   0.655   4.453   0.991  0.3092 -0.7902  1.0034
 1456TIP3    H2 4375   0.776   4.482   1.078  0.7044  1.5424 -0.2386
 1457TIP3   OH2 4376   6.169   4.185   1.766 -0.6449 -0.0054 -0.3478
 1457TIP3    H1 4377   6.190   4.092   1.760  1.2737  0.2515  1.1859
 1457TIP3    H2 4378   6.102   4.190   1.835 -1.3263 -0.3120 -0.9843
 1458TIP3   OH2 4379   3.313   4.087   4.715  0.1922 -0.2538 -0.0280
 1458TIP3    H1 4380   3.274   4.067   4.630  2.6266 -1.0939 -1.0061
 1458TIP3    H2 4381   3.288   4.178   4.732 -1.6573 -0.5641 -0.8396
 1459TIP3   OH2 4382   6.340   0.573   0.058  0.0826  0.7657  0.1502
 1459TIP3    H1 4383   6.253   0.556   0.093 -0.1758  1.3902 -0.1730
 1459TIP3    H2 4384   6.397   0.514   0.107 -0.5940 -0.0774 -0.0367
 1460TIP3   OH2 4385   2.284   1.137   0.561 -0.4074 -0.1531 -0.1078
 1460TIP3    H1 4386   2.201   1.094   0.582 -0.3834  0.2330  0.8394
 1460TIP3    H2 4387   2.272   1.227   0.591 -0.0643  0.2209 -1.0690
 1461TIP3   OH2 4388   5.484   5.359   4.224  0.3036  0.3094  0.5140
 1461TIP3    H1 4389   5.550   5.301   4.262  2.3328  2.0383 -0.2204
 1461TIP3    H2 4390   5.423   5.376   4.296  1.1448 -0.5917  1.4816
 1462TIP3   OH2 4391   4.500   0.124   0.106 -0.1992 -0.6367 -0.4590
 1462TIP3    H1 4392   4.473   0.214   0.091 -2.6704 -1.2796 -0.2592
 1462TIP3    H2 4393   4.583   0.115   0.059  0.1948  1.7539 -0.3341
 1463TIP3   OH2 4394   0.762   3.264   5.066 -0.0411  0.0014 -0.1659
 1463TIP3    H1 4395   0.715   3.291   5.145 -0.2520  1.8199 -0.8762
 1463TIP3    H2 4396   0.693   3.233   5.007 -0.2507  1.4337 -0.7142
 1464TIP3   OH2 4397   5.225   2.772   1.456  0.7641 -0.1394 -0.1585
 1464TIP3    H1 4398   5.317   2.772   1.480  0.4891  0.0099  0.9125
 1464TIP3    H2 4399   5.223   2.814   1.369  1.8782 -1.6901 -0.9825
 1465TIP3   OH2 4400   0.552   3.271   4.232 -0.0266 -0.0898  0.1018
 1465TIP3    H1 4401   0.469   3.283   4.278 -0.3314  0.9732 -0.6873
 1465TIP3    H2 4402   0.570   3.177   4.239 -0.4009 -0.0704  1.7893
 1466TIP3   OH2 4403   4.112   0.544   0.759 -0.1705 -0.6637  0.1175
 1466TIP3    H1 4404   4.089   0.629   0.721 -0.0747 -0.3228  0.7977
 1466TIP3    H2 4405   4.046   0.530   0.826  0.3494 -0.6865  0.6321
 1467TIP3   OH2 4406   5.015   0.247   1.782  0.2207  0.1612  0.2596
 1467TIP3    H1 4407   4.941   0.210   1.734 -0.4995  0.4993  1.1010
 1467TIP3    H2 4408   5.011   0.341   1.762  1.2292  0.0173 -0.7602
 1468TIP3   OH2 4409   5.704   1.391   1.155 -0.2493  0.0848 -0.2940
 1468TIP3    H1 4410   5.793   1.382   1.120 -0.3049 -1.0890 -0.1787
 1468TIP3    H2 4411   5.717   1.433   1.241  0.0956  0.7844 -0.6794
 1469TIP3   OH2 4412   3.973   3.453   3.526 -0.1573 -0.3575  0.0826
 1469TIP3    H1 4413   3.881   3.475   3.536 -0.2871 -0.5010 -0.7268
 1469TIP3    H2 4414   3.995   3.403   3.605 -1.2965 -2.0273 -0.5920
 1470TIP3   OH2 4415   4.071   4.492   4.286  0.5173 -0.3542 -0.0618
 1470TIP3    H1 4416   4.123   4.443   4.349  0.2858 -0.9181 -0.3021
 1470TIP3    H2 4417   4.104   4.582   4.292 -1.6691  0.4009  3.2303
 1471TIP3   OH2 4418   5.879   2.019   1.883 -0.0453  0.3193  0.2994
 1471TIP3    H1 4419   5.852   2.088   1.822  0.9342 -0.0607 -0.5878
 1471TIP3    H2 4420   5.868   1.937   1.834 -0.1752 -0.0809  0.9744
 1472TIP3   OH2 4421   0.996   4.508   3.519  0.0661  0.1401 -0.1478
 1472TIP3    H1 4422   0.907   4.542   3.531 -0.7172 -1.0847 -1.9600
 1472TIP3    H2 4423   1.053   4.577   3.551 -1.5252  1.1573  0.6243
 1473TIP3   OH2 4424   4.169   0.753   2.144  0.6881 -0.6618  0.1685
 1473TIP3    H1 4425   4.215   0.834   2.165  1.1649 -0.4726 -1.4627
 1473TIP3    H2 4426   4.090   0.781   2.099  0.2298 -1.0700  0.7094
 1474TIP3   OH2 4427   1.319   5.173   3.487  0.2262  0.4952 -0.1207
 1474TIP3    H1 4428   1.291   5.251   3.535  1.7276  0.7635  0.3668
 1474TIP3    H2 4429   1.267   5.102   3.523 -0.1224  1.0363  0.4494
 1475TIP3   OH2 4430   0.142   3.676   1.386  0.5667 -0.1828  0.0383
 1475TIP3    H1 4431   0.164   3.735   1.314  1.4734  0.4368  0.8127
 1475TIP3    H2 4432   0.225   3.634   1.409  0.1004 -1.0993  0.0963
 1476TIP3   OH2 4433   2.424   3.732   0.682 -0.0166 -0.7174  0.1116
 1476TIP3    H1 4434   2.344   3.747   0.631 -0.2627 -0.0531  0.6715
 1476TIP3    H2 4435   2.494   3.745   0.619 -0.3421 -0.9323 -0.3010
 1477TIP3   OH2 4436   1.324   2.946   5.075 -0.7367  0.2892 -0.3645
 1477TIP3    H1 4437   1.419   2.952   5.078 -0.6778 -0.5243 -0.4327
 1477TIP3    H2 4438   1.306   2.859   5.040 -1.5026  0.8679 -1.4990
 1478TIP3   OH2 4439   4.949   2.833   5.019 -0.2909  0.2824 -0.4241
 1478TIP3    H1 4440   5.031   2.783   5.023 -0.0514  0.6991 -0.0664
 1478TIP3    H2 4441   4.892   2.788   5.082  0.1490  0.8423  0.4029
 1479TIP3   OH2 4442   3.160   4.868   3.004  0.5280 -0.2947  0.8638
 1479TIP3    H1 4443   3.080   4.907   2.970 -0.1131 -1.3691  1.0835
 1479TIP3    H2 4444   3.213   4.848   2.927  0.1951 -0.3852  0.6607
 1480TIP3   OH2 4445   4.633   3.089   2.943 -0.7540 -0.1380  0.2913
 1480TIP3    H1 4446   4.597   3.129   2.864 -1.9212 -1.3704  0.1563
 1480TIP3    H2 4447   4.564   3.099   3.008 -0.2498 -0.1334  0.8258
 1481TIP3   OH2 4448   4.933   5.715   5.057 -0.2382  0.3893  0.0700
 1481TIP3    H1 4449   4.906   5.781   5.121 -0.1685 -0.2891  0.8171
 1481TIP3    H2 4450   4.890   5.634   5.086 -0.9794  0.2547 -1.2862
 1482TIP3   OH2 4451   2.360   5.824   1.982 -0.1958  0.9341 -0.2574
 1482TIP3    H1 4452   2.366   5.854   2.072 -1.3127  1.0909 -0.2161
 1482TIP3    H2 4453   2.450   5.822   1.950  0.1096  1.9712  0.5066
 1483TIP3   OH2 4454   1.310   1.017   4.684 -0.5899  0.1884  0.1635
 1483TIP3    H1 4455   1.245   1.007   4.614  0.0389 -1.0194 -0.2784
 1483TIP3    H2 4456   1.321   0.928   4.720  0.0908  0.5532  0.8896
 1484TIP3   OH2 4457   5.947   4.950   1.565 -0.0847  0.2320  0.4910
 1484TIP3    H1 4458   5.990   4.884   1.511  0.4723 -1.0726  2.4137
 1484TIP3    H2 4459   5.984   5.033   1.536  2.0472 -0.6474  0.4916
 1485TIP3   OH2 4460   5.284   5.091   1.157  0.9599 -0.1772 -0.0733
 1485TIP3    H1 4461   5.274   5.186   1.147 -0.1745 -0.3657 -0.9897
 1485TIP3    H2 4462   5.299   5.078   1.251  0.5131  0.8654  0.1548
 1486TIP3   OH2 4463   4.384   3.441   3.020  0.5031  0.0114  0.0418
 1486TIP3    H1 4464   4.394   3.536   3.021 -1.5035  0.2928 -1.3250
 1486TIP3    H2 4465   4.415   3.415   2.934 -1.3150 -0.2080 -0.5896
 1487TIP3   OH2 4466   5.497   2.457   0.411  0.2229 -0.5923  0.3460
 1487TIP3    H1 4467   5.573   2.459   0.353 -1.6197 -0.3557 -2.2230
 1487TIP3    H2 4468   5.497   2.368   0.447  1.5396 -0.6697  0.2000
 1488TIP3   OH2 4469   1.782   4.501   3.778 -0.2649 -0.1528 -0.4366
 1488TIP3    H1 4470   1.864   4.467   3.742  0.0319  0.2090 -0.1092
 1488TIP3    H2 4471   1.805   4.529   3.867 -0.8920 -0.6417 -0.1223
 1489TIP3   OH2 4472   0.999   0.612   0.644 -0.0044 -0.2653  0.6247
 1489TIP3    H1 4473   0.959   0.639   0.562  0.7281 -0.9118  0.0356
 1489TIP3    H2 4474   1.058   0.540   0.620  0.5735 -0.1609  1.6403
 1490TIP3   OH2 4475   6.300   5.664   1.097 -0.2132 -0.3044  0.7139
 1490TIP3    H1 4476   6.292   5.582   1.049  0.6892 -0.1959  0.3595
 1490TIP3    H2 4477   6.224   5.715   1.069  0.7077  0.0725 -1.2831
 1491TIP3   OH2 4478   0.523   3.736   3.724 -0.3638  0.1509  0.1057
 1491TIP3    H1 4479   0.537   3.724   3.818 -1.0392  2.4488  0.5417
 1491TIP3    H2 4480   0.467   3.662   3.699  1.6354 -1.7963  0.9698
 1492TIP3   OH2 4481   4.131   0.119   4.577  0.3760  0.3650 -0.4925
 1492TIP3    H1 4482   4.190   0.194   4.576 -0.4969  1.1028 -2.2859
 1492TIP3    H2 4483   4.083   0.126   4.660  1.8723  0.4791  0.3867
 1493TIP3   OH2 4484   0.368   5.449   3.257 -0.3984 -0.2542 -0.1164
 1493TIP3    H1 4485   0.462   5.449   3.272 -0.7534 -1.2786  2.7942
 1493TIP3    H2 4486   0.358   5.462   3.163  2.5255  2.7668 -0.1962
 1494TIP3   OH2 4487   4.694   0.931   4.463 -0.4022 -0.1450  0.0078
 1494TIP3    H1 4488   4.721   0.978   4.543  1.5323  2.1710 -1.8515
 1494TIP3    H2 4489   4.759   0.861   4.454  1.1809  1.3520 -0.9350
 1495TIP3   OH2 4490   1.354   1.041   3.579  0.3265  0.5633 -0.7136
 1495TIP3    H1 4491   1.344   1.078   3.492 -0.4086  1.0654 -0.4292
 1495TIP3    H2 4492   1.382   1.115   3.633 -2.9748  1.3090  0.2552
 1496TIP3   OH2 4493   3.830   1.583   0.221 -0.0016 -0.1026 -0.3797
 1496TIP3    H1 4494   3.812   1.629   0.303  0.5483 -1.1940  0.3658
 1496TIP3    H2 4495   3.744   1.566   0.184 -0.2352  1.0411 -0.4189
 1497TIP3   OH2 4496   2.640   2.255   3.088  0.2663  0.1660  0.3830
 1497TIP3    H1 4497   2.589   2.289   3.015  0.5545 -0.3058 -0.0444
 1497TIP3    H2 4498   2.626   2.160   3.085  0.4152  0.1283  0.8295
 1498TIP3   OH2 4499   6.022   0.582   2.213 -0.0002  0.2213  0.4750
 1498TIP3    H1 4500   5.964   0.524   2.164 -0.1089  1.1847 -0.5885
 1498TIP3    H2 4501   5.999   0.670   2.182 -0.0831  0.8790  2.2884
 1499TIP3   OH2 4502   4.843   0.786   0.632 -0.4831  0.1928 -0.1807
 1499TIP3    H1 4503   4.863   0.827   0.716  1.2582 -1.6461  0.3866
 1499TIP3    H2 4504   4.770   0.837   0.597  0.8640  3.0698  0.8919
 1500TIP3   OH2 4505   2.181   2.294   3.449  0.7026 -0.5718 -0.4715
 1500TIP3    H1 4506   2.218   2.211   3.418 -0.1454 -1.7870  1.5549
 1500TIP3    H2 4507   2.129   2.270   3.525 -2.7764  1.2915 -2.0341
 1501TIP3   OH2 4508   4.271   2.629   0.939 -0.0053 -0.3827 -0.1695
 1501TIP3    H1 4509   4.185   2.592   0.958 -0.2514  0.2560  0.0033
 1501TIP3    H2 4510   4.281   2.701   1.001  0.4062 -0.0827 -0.5662
 1502TIP3   OH2 4511   1.739   4.248   0.055 -0.0062  0.0163 -0.9863
 1502TIP3    H1 4512   1.764   4.340   0.039 -3.5435  1.0957 -1.1546
 1502TIP3    H2 4513   1.759   4.234   0.148 -1.8842  1.9689 -0.1848
 1503TIP3   OH2 4514   1.565   1.465   4.726 -0.0752 -0.1839  0.5411
 1503TIP3    H1 4515   1.499   1.531   4.704  0.9757  0.2886 -1.4405
 1503TIP3    H2 4516   1.515   1.383   4.732 -0.9354  0.2346 -0.4404
 1504TIP3   OH2 4517   3.135   2.241   0.930 -0.4532  0.1083  0.7086
 1504TIP3    H1 4518   3.225   2.274   0.938 -0.3228 -0.1941  0.4862
 1504TIP3    H2 4519   3.083   2.301   0.984 -0.4281  1.5732 -0.8214
 1505TIP3   OH2 4520   3.348   1.072   4.829 -0.1883  0.2618  0.2301
 1505TIP3    H1 4521   3.263   1.112   4.849 -0.6133 -0.1704 -0.6809
 1505TIP3    H2 4522   3.406   1.145   4.811 -0.0336  0.6330  2.0222
 1506TIP3   OH2 4523   2.990   0.264   3.694 -0.5282  0.2738 -0.0857
 1506TIP3    H1 4524   3.057   0.331   3.707  0.7902 -0.9424 -0.2844
 1506TIP3    H2 4525   2.995   0.243   3.601 -1.2372  0.2030 -0.1135
 1507TIP3   OH2 4526   5.234   2.003   2.532 -0.0239  0.0119  0.1543
 1507TIP3    H1 4527   5.155   2.032   2.487  1.6803  1.4677 -2.0899
 1507TIP3    H2 4528   5.259   2.077   2.587  0.6878  0.2292 -0.4481
 1508TIP3   OH2 4529   3.821   5.013   4.165 -0.2263 -0.3499 -0.0897
 1508TIP3    H1 4530   3.839   4.958   4.241  0.3862  0.7319  0.5728
 1508TIP3    H2 4531   3.907   5.033   4.128 -0.4858 -0.4471 -0.7700
 1509TIP3   OH2 4532   2.767   5.801   5.052  0.5166 -0.6590  0.0710
 1509TIP3    H1 4533   2.855   5.801   5.015  0.4865 -0.7229 -0.0006
 1509TIP3    H2 4534   2.780   5.823   5.144  0.4440  1.3250 -0.3465
 1510TIP3   OH2 4535   1.233   5.210   3.212  0.2768 -0.4329  0.2552
 1510TIP3    H1 4536   1.299   5.154   3.171  2.3147  0.4795  2.0674
 1510TIP3    H2 4537   1.266   5.225   3.301 -1.2356  1.9539  0.5152
 1511TIP3   OH2 4538   0.710   0.161   3.132  0.2637 -0.0523 -0.1646
 1511TIP3    H1 4539   0.803   0.146   3.151  0.4215  1.0942 -0.0005
 1511TIP3    H2 4540   0.699   0.131   3.042  1.1090  1.0812 -0.6598
 1512TIP3   OH2 4541   3.902   3.045   2.117 -0.2155 -0.5259  0.2797
 1512TIP3    H1 4542   3.953   3.011   2.044  0.4399  0.0310  0.4685
 1512TIP3    H2 4543   3.865   3.127   2.085  0.6912  0.0969  0.8146
 1513TIP3   OH2 4544   4.709   1.700   3.348 -0.2528  0.1844 -0.1439
 1513TIP3    H1 4545   4.792   1.735   3.379  0.5218 -1.5543 -0.1652
 1513TIP3    H2 4546   4.646   1.770   3.365  0.9326  0.9631  1.2578
 1514TIP3   OH2 4547   0.332   5.521   4.008  0.0859  0.3266 -0.1276
 1514TIP3    H1 4548   0.427   5.506   4.004  0.3614  0.8547  2.6362
 1514TIP3    H2 4549   0.295   5.435   4.027  0.4424  0.6966  2.6124
 1515TIP3   OH2 4550   3.355   5.723   4.723 -0.0764  0.3531 -0.6310
 1515TIP3    H1 4551   3.310   5.787   4.667 -0.7786 -1.3429 -2.0997
 1515TIP3    H2 4552   3.382   5.654   4.663  3.0317  0.4621  0.4779
 1516TIP3   OH2 4553   5.380   5.027   3.936 -0.3788  0.0838 -0.4039
 1516TIP3    H1 4554   5.287   5.031   3.961  0.1521  0.5008  1.6313
 1516TIP3    H2 4555   5.378   4.989   3.847 -2.4389 -0.6985 -0.1011
 1517TIP3   OH2 4556   3.916   1.767   0.775  0.0193  0.5029  0.2072
 1517TIP3    H1 4557   3.830   1.747   0.811 -0.1378  1.5840  0.4512
 1517TIP3    H2 4558   3.899   1.819   0.697  0.4530  1.0152  0.4440
 1518TIP3   OH2 4559   0.947   0.163   4.729 -0.1771 -0.0075 -0.9743
 1518TIP3    H1 4560   0.973   0.156   4.637 -0.1340  3.4424 -1.3662
 1518TIP3    H2 4561   1.007   0.228   4.766 -0.1477 -1.3615  1.5834
 1519TIP3   OH2 4562   1.100   3.815   2.025 -0.2833  0.4935  0.0359
 1519TIP3    H1 4563   1.065   3.903   2.010  0.1502  0.4867 -1.0536
 1519TIP3    H2 4564   1.162   3.801   1.953 -0.9778 -1.0350 -0.2910
 1520TIP3   OH2 4565   0.987   3.769   2.435 -0.4262 -0.0554  0.0676
 1520TIP3    H1 4566   0.911   3.792   2.488 -1.1572 -0.9961 -0.5528
 1520TIP3    H2 4567   1.046   3.844   2.445 -0.6825 -0.0535  1.9365
 1521TIP3   OH2 4568   5.294   4.785   4.311 -0.1446 -0.2137  0.6435
 1521TIP3    H1 4569   5.383   4.758   4.289 -0.1419  0.6460 -0.4947
 1521TIP3    H2 4570   5.306   4.860   4.370 -0.0881  0.4920 -0.2479
 1522TIP3   OH2 4571   3.722   5.161   0.432  0.1087  0.0952 -0.1445
 1522TIP3    H1 4572   3.777   5.180   0.356  0.8132  0.3843  0.4279
 1522TIP3    H2 4573   3.647   5.115   0.396  0.5948 -0.0646 -0.9801
 1523TIP3   OH2 4574   0.315   5.284   1.527 -0.2940 -0.3683 -0.1295
 1523TIP3    H1 4575   0.395   5.233   1.509  0.4374  0.6941  0.0233
 1523TIP3    H2 4576   0.295   5.265   1.618 -0.6422 -1.2022 -0.3716
 1524TIP3   OH2 4577   5.225   1.061   4.775 -0.1636  0.0841 -0.0241
 1524TIP3    H1 4578   5.201   1.079   4.684 -1.8366  0.3298  0.4284
 1524TIP3    H2 4579   5.253   1.145   4.809 -1.8458  0.5448  0.3190
 1525TIP3   OH2 4580   3.933   4.895   3.811 -0.1696 -0.0436 -0.2279
 1525TIP3    H1 4581   3.940   4.984   3.848  1.2049  0.5141 -1.7331
 1525TIP3    H2 4582   3.982   4.899   3.729 -0.8947 -1.9639 -0.8022
 1526TIP3   OH2 4583   1.291   5.771   1.665  0.1162 -0.3513  0.1746
 1526TIP3    H1 4584   1.353   5.806   1.729  1.1665 -2.2544  0.2692
 1526TIP3    H2 4585   1.298   5.676   1.674 -0.2885 -0.6739 -2.1974
 1527TIP3   OH2 4586   6.255   1.321   3.438  0.2515  0.4374  0.2308
 1527TIP3    H1 4587   6.177   1.311   3.493  0.5494 -0.6984  0.4709
 1527TIP3    H2 4588   6.222   1.352   3.354 -0.6023 -1.1015 -0.0272
 1528TIP3   OH2 4589   6.053   1.535   4.075 -0.9181  0.0448 -0.3172
 1528TIP3    H1 4590   5.985   1.469   4.065 -1.5848  1.0122 -3.0098
 1528TIP3    H2 4591   6.011   1.617   4.051 -0.2226  1.6693  3.2511
 1529TIP3   OH2 4592   5.847   5.496   0.994 -0.1753  0.5061 -0.5561
 1529TIP3    H1 4593   5.928   5.502   0.943  1.5083 -0.5173  1.8604
 1529TIP3    H2 4594   5.835   5.583   1.030 -0.6298  0.8662 -1.5268
 1530TIP3   OH2 4595   0.701   2.824   0.933 -0.2139 -0.6582 -0.1508
 1530TIP3    H1 4596   0.676   2.893   0.994  0.7947  0.0950 -0.5544
 1530TIP3    H2 4597   0.672   2.855   0.847  0.6908 -0.4798 -0.4056
 1531TIP3   OH2 4598   3.917   3.604   0.548  0.1071 -0.0413 -0.2550
 1531TIP3    H1 4599   3.832   3.562   0.561  0.9637 -1.2901  1.6188
 1531TIP3    H2 4600   3.910   3.687   0.596 -0.0426 -0.1630 -0.0646
 1532TIP3   OH2 4601   2.000   0.779   4.858 -1.0563 -0.0445 -0.2275
 1532TIP3    H1 4602   2.005   0.874   4.849  1.3751 -0.1630 -0.7859
 1532TIP3    H2 4603   1.920   0.755   4.810 -0.3506  1.5065 -2.3654
 1533TIP3   OH2 4604   4.776   4.843   0.004  0.3109 -0.1481  0.0190
 1533TIP3    H1 4605   4.813   4.916   0.055  0.3076 -0.0783 -0.0785
 1533TIP3    H2 4606   4.681   4.852   0.015  0.1983  0.9554 -1.4648
 1534TIP3   OH2 4607   6.301   5.770   0.649  0.0965  0.0749 -0.4967
 1534TIP3    H1 4608   6.300   5.864   0.665  0.4148  0.1407 -0.8647
 1534TIP3    H2 4609   6.209   5.746   0.639  0.1171  0.6691 -2.3031
 1535TIP3   OH2 4610   3.763   3.253   1.996  0.4571  0.0741 -0.1713
 1535TIP3    H1 4611   3.761   3.257   1.900 -1.3455 -2.5649 -0.3338
 1535TIP3    H2 4612   3.739   3.341   2.024  0.9160  0.8744 -2.1219
 1536TIP3   OH2 4613   4.064   1.221   1.351 -0.0769  0.2142  0.2077
 1536TIP3    H1 4614   4.104   1.306   1.335 -1.3459  0.5726 -1.3489
 1536TIP3    H2 4615   3.991   1.240   1.410  0.4042 -0.0171  0.8901
 1537TIP3   OH2 4616   3.731   5.231   4.032  0.2576 -0.2061 -0.1164
 1537TIP3    H1 4617   3.759   5.156   4.085  0.1642 -0.4152 -0.3644
 1537TIP3    H2 4618   3.716   5.195   3.944 -2.7110 -0.5090  0.4129
 1538TIP3   OH2 4619   2.065   4.665   1.105  0.1334  0.4366  0.0375
 1538TIP3    H1 4620   1.999   4.654   1.173  0.4594  1.5770  0.5572
 1538TIP3    H2 4621   2.135   4.715   1.147  0.3160  1.2085 -1.1424
 1539TIP3   OH2 4622   5.892   1.863   2.118 -0.0092  0.3347 -0.2668
 1539TIP3    H1 4623   5.808   1.872   2.073 -0.2879  0.4257  0.2647
 1539TIP3    H2 4624   5.875   1.799   2.187  0.6470 -0.4842 -0.8478
 1540TIP3   OH2 4625   3.016   1.801   4.809 -0.1131  0.1562  0.4778
 1540TIP3    H1 4626   2.944   1.850   4.850  0.4450 -0.9658  2.9894
 1540TIP3    H2 4627   3.073   1.868   4.773 -1.1292  1.1889  0.7145
 1541TIP3   OH2 4628   0.294   1.163   1.065  0.5929 -0.3188 -0.2328
 1541TIP3    H1 4629   0.269   1.189   1.154  2.2259  0.0493  0.1608
 1541TIP3    H2 4630   0.336   1.078   1.077 -0.4515 -0.9399 -0.8670
 1542TIP3   OH2 4631   5.599   0.732   4.789 -0.3393 -0.2813 -0.0600
 1542TIP3    H1 4632   5.618   0.825   4.804 -0.7530 -0.4542  1.6990
 1542TIP3    H2 4633   5.504   0.729   4.777 -0.1010 -0.2098 -2.6534
 1543TIP3   OH2 4634   0.680   5.595   3.555  0.7363  0.0249 -0.2124
 1543TIP3    H1 4635   0.624   5.655   3.506 -1.1140 -1.2596  0.2277
 1543TIP3    H2 4636   0.675   5.513   3.506  1.4946 -0.3802  0.3667
 1544TIP3   OH2 4637   4.709   1.135   4.680 -0.0300  0.1349 -0.2783
 1544TIP3    H1 4638   4.772   1.155   4.610 -0.1826 -0.2699 -0.5382
 1544TIP3    H2 4639   4.647   1.207   4.679  0.5468  0.6511  0.1229
 1545TIP3   OH2 4640   0.845   2.129   4.037 -0.0278 -0.2217 -0.1182
 1545TIP3    H1 4641   0.756   2.104   4.011 -0.2795  0.0478  0.4610
 1545TIP3    H2 4642   0.901   2.092   3.969 -0.4831 -1.3726  0.1165
 1546TIP3   OH2 4643   3.761   3.501   1.210  0.2662  0.0407 -0.6140
 1546TIP3    H1 4644   3.807   3.542   1.136  1.5363  0.3529  0.3107
 1546TIP3    H2 4645   3.715   3.426   1.171  0.0805  0.7825 -1.8813
 1547TIP3   OH2 4646   2.147   2.377   3.148 -0.2188 -0.4636 -0.2734
 1547TIP3    H1 4647   2.156   2.442   3.217  0.4926 -2.0759  1.2409
 1547TIP3    H2 4648   2.212   2.310   3.170 -0.0371 -1.0791 -2.4812
 1548TIP3   OH2 4649   3.821   3.958   1.942 -0.1060 -0.2589 -0.0129
 1548TIP3    H1 4650   3.740   3.933   1.898  0.0451 -1.2205  0.2186
 1548TIP3    H2 4651   3.798   4.032   1.997 -0.4328  0.5830 -1.2541
 1549TIP3   OH2 4652   3.956   2.903   3.563 -0.4992  0.5048 -0.2047
 1549TIP3    H1 4653   3.916   2.866   3.484 -1.3157  1.9383 -0.4837
 1549TIP3    H2 4654   3.906   2.982   3.581  0.7498  1.1042  0.7863
 1550TIP3   OH2 4655   1.173   0.391   2.183  0.2913 -0.1459  0.1006
 1550TIP3    H1 4656   1.195   0.381   2.276 -2.5425 -1.2115  0.7793
 1550TIP3    H2 4657   1.202   0.311   2.142 -0.8135 -0.8710  0.6680
 1551TIP3   OH2 4658   2.430   2.020   3.465  0.2244 -1.0630 -0.3735
 1551TIP3    H1 4659   2.387   1.981   3.541 -2.7091  1.2409 -0.6442
 1551TIP3    H2 4660   2.500   2.074   3.502 -1.3142  0.2300  0.8072
 1552TIP3   OH2 4661   5.972   1.800   2.729 -0.0851 -0.0412  0.7090
 1552TIP3    H1 4662   5.997   1.892   2.715  0.2424  0.3456  3.2626
 1552TIP3    H2 4663   5.878   1.798   2.712  0.0544  0.5570 -0.2020
 1553TIP3   OH2 4664   1.024   5.613   1.444  0.0503  0.5581  0.0288
 1553TIP3    H1 4665   1.005   5.707   1.440 -0.3525  0.5846  1.8262
 1553TIP3    H2 4666   0.939   5.573   1.465 -0.0275 -0.3498 -1.8104
 1554TIP3   OH2 4667   1.414   5.059   3.089 -0.0358 -0.3038 -0.6423
 1554TIP3    H1 4668   1.465   5.041   3.168 -0.7235  0.8394  0.0920
 1554TIP3    H2 4669   1.461   5.014   3.019  1.3561 -0.1985  0.1907
 1555TIP3   OH2 4670   4.742   5.296   1.776  0.0610 -0.0310 -0.2896
 1555TIP3    H1 4671   4.699   5.230   1.722 -0.8367  0.4363 -0.1697
 1555TIP3    H2 4672   4.821   5.320   1.727 -1.0432  0.8378 -1.7475
 1556TIP3   OH2 4673   2.554   4.764   2.373  0.5821  0.3481 -0.0403
 1556TIP3    H1 4674   2.529   4.694   2.433 -2.7324  0.6919 -0.8385
 1556TIP3    H2 4675   2.581   4.836   2.430  0.6192 -0.3877  0.9023
 1557TIP3   OH2 4676   5.592   5.332   2.469  0.4598  0.1496 -0.1357
 1557TIP3    H1 4677   5.532   5.283   2.412  0.9131  1.3569 -1.7207
 1557TIP3    H2 4678   5.667   5.353   2.413  0.5509  2.0976  0.6283
 1558TIP3   OH2 4679   4.247   5.262   2.462 -0.1159  0.5432  0.3496
 1558TIP3    H1 4680   4.154   5.249   2.442 -0.2147  1.5822  0.0562
 1558TIP3    H2 4681   4.289   5.180   2.436 -0.6320  0.8527 -1.6489
 1559TIP3   OH2 4682   5.961   0.382   2.412 -0.3292 -0.0278  0.2423
 1559TIP3    H1 4683   6.009   0.376   2.495  1.0882 -0.9098 -0.6038
 1559TIP3    H2 4684   5.947   0.476   2.399  0.5359  0.1931  0.8613
 1560TIP3   OH2 4685   4.904   2.155   4.242 -0.3943  0.3121  0.3349
 1560TIP3    H1 4686   4.959   2.202   4.179  0.4510 -0.3568  0.5527
 1560TIP3    H2 4687   4.870   2.223   4.300  0.2095  0.7398  0.2014
 1561TIP3   OH2 4688   2.921   4.708   0.630  0.0561 -0.9135 -0.1713
 1561TIP3    H1 4689   2.869   4.694   0.551  1.1073 -1.1508 -0.8392
 1561TIP3    H2 4690   2.905   4.799   0.654  1.4327 -0.1483 -1.9608
 1562TIP3   OH2 4691   3.704   5.424   2.310 -0.0765 -0.4266  0.3837
 1562TIP3    H1 4692   3.647   5.410   2.386  0.0980  0.1218  0.6226
 1562TIP3    H2 4693   3.662   5.376   2.239 -0.0657 -1.2318  0.9089
 1563TIP3   OH2 4694   3.283   1.910   0.330 -0.4206  0.4254 -0.2451
 1563TIP3    H1 4695   3.262   1.823   0.297 -1.0621  0.4733  0.0269
 1563TIP3    H2 4696   3.244   1.970   0.267  2.1259  0.5833 -1.8353
 1564TIP3   OH2 4697   1.999   2.271   0.866 -0.8514 -0.2925 -0.1494
 1564TIP3    H1 4698   1.968   2.339   0.806 -0.0177  0.3040  0.0784
 1564TIP3    H2 4699   1.931   2.266   0.933 -0.7457  0.5919  0.0371
 1565TIP3   OH2 4700   6.139   5.878   0.385 -0.2679 -0.0972  0.0416
 1565TIP3    H1 4701   6.213   5.926   0.423 -0.4882  0.1580  0.1526
 1565TIP3    H2 4702   6.104   5.938   0.318  0.6494 -0.8787 -1.1973
 1566TIP3   OH2 4703   4.415   1.088   3.751  0.1403 -0.2361 -0.2198
 1566TIP3    H1 4704   4.322   1.108   3.757  0.4261  2.0069 -1.6976
 1566TIP3    H2 4705   4.458   1.170   3.778  1.6954 -1.2206  0.4168
 1567TIP3   OH2 4706   3.952   1.381   3.298  0.5129 -0.3431 -0.7957
 1567TIP3    H1 4707   4.014   1.309   3.301  0.0623 -0.6995  0.9478
 1567TIP3    H2 4708   3.904   1.376   3.380 -1.1057  0.5763 -1.6192
 1568TIP3   OH2 4709   4.925   3.959   4.802 -0.2025  0.1086  0.1349
 1568TIP3    H1 4710   4.844   3.985   4.757  0.1977  0.9412 -0.1278
 1568TIP3    H2 4711   4.899   3.885   4.856 -1.0711  0.1466 -0.2047
 1569TIP3   OH2 4712   1.111   4.330   0.051  0.1348 -0.3053 -0.4001
 1569TIP3    H1 4713   1.074   4.246   0.077  1.5071 -0.3509  1.6736
 1569TIP3    H2 4714   1.048   4.395   0.082 -0.5069 -0.5274 -1.2262
 1570TIP3   OH2 4715   1.059   3.862   3.221 -0.3852  0.6677 -0.1744
 1570TIP3    H1 4716   0.983   3.914   3.194  0.5503  0.6483 -3.2117
 1570TIP3    H2 4717   1.132   3.925   3.222  0.1144  0.1141 -0.4742
 1571TIP3   OH2 4718   5.655   3.523   1.816  0.0118  0.5740 -0.4358
 1571TIP3    H1 4719   5.694   3.605   1.786  2.5171 -0.6354 -0.7496
 1571TIP3    H2 4720   5.615   3.485   1.738  0.1474  0.7931 -0.6119
 1572TIP3   OH2 4721   5.072   0.803   2.923 -0.1176  0.1873  0.3561
 1572TIP3    H1 4722   5.064   0.796   2.828 -0.0697  2.2639  0.1506
 1572TIP3    H2 4723   5.125   0.881   2.937  0.2070 -0.2970  2.0990
 1573TIP3   OH2 4724   5.981   5.354   4.094  0.0047  0.2205  0.4112
 1573TIP3    H1 4725   5.924   5.301   4.038  2.7309 -1.6763 -0.7943
 1573TIP3    H2 4726   6.015   5.422   4.036  0.7703 -0.1101  0.4608
 1574TIP3   OH2 4727   1.521   4.967   1.711 -0.3473 -0.4214  0.0078
 1574TIP3    H1 4728   1.540   4.982   1.618  2.9668 -3.4861 -0.0156
 1574TIP3    H2 4729   1.429   4.941   1.713 -0.2816 -1.1363 -2.5557
 1575TIP3   OH2 4730   2.296   4.934   2.416 -0.5182  0.3607 -0.7176
 1575TIP3    H1 4731   2.306   4.879   2.493 -2.1514  1.1639  0.1229
 1575TIP3    H2 4732   2.222   4.896   2.369 -0.8591  1.0778 -0.7836
 1576TIP3   OH2 4733   6.133   1.767   2.497 -0.3063 -0.0432  0.0940
 1576TIP3    H1 4734   6.102   1.676   2.494 -0.8491  0.1009  0.9293
 1576TIP3    H2 4735   6.086   1.806   2.571  1.3230  0.4059  0.9304
 1577TIP3   OH2 4736   6.063   0.836   0.199 -0.0610  0.0861  0.5860
 1577TIP3    H1 4737   6.076   0.767   0.135  0.1478  0.6998 -0.0532
 1577TIP3    H2 4738   6.066   0.792   0.284 -0.1205 -0.7054  0.1852
 1578TIP3   OH2 4739   3.653   0.571   1.911 -0.1059 -0.2605  0.2106
 1578TIP3    H1 4740   3.652   0.580   1.816 -0.9207  0.9171  0.3092
 1578TIP3    H2 4741   3.743   0.590   1.936 -0.2068  0.8696 -0.2221
 1579TIP3   OH2 4742   3.432   3.458   4.921 -0.1982  0.0527 -0.7045
 1579TIP3    H1 4743   3.363   3.429   4.981  0.8250 -2.7969 -0.7870
 1579TIP3    H2 4744   3.506   3.481   4.977  0.2137 -1.0557 -0.7776
 1580TIP3   OH2 4745   0.566   0.612   4.554 -0.1556 -0.5138 -0.1436
 1580TIP3    H1 4746   0.531   0.543   4.611 -0.6941  0.2599  0.4719
 1580TIP3    H2 4747   0.543   0.694   4.598  2.3556  0.0515  0.2614
 1581TIP3   OH2 4748   5.847   5.266   1.144 -0.2448  0.3678 -0.0778
 1581TIP3    H1 4749   5.761   5.227   1.130 -0.6623  0.9931  0.6267
 1581TIP3    H2 4750   5.847   5.346   1.091 -0.7085  1.1831  1.1068
 1582TIP3   OH2 4751   6.143   0.160   3.906  0.6542 -0.2363  0.2924
 1582TIP3    H1 4752   6.217   0.112   3.943  0.4863 -0.5552  0.2197
 1582TIP3    H2 4753   6.080   0.167   3.978 -0.0556 -1.6358 -0.1396
 1583TIP3   OH2 4754   6.191   1.761   1.187  0.3756  0.5346  0.3107
 1583TIP3    H1 4755   6.132   1.766   1.262  0.9367  3.0926  0.6599
 1583TIP3    H2 4756   6.263   1.707   1.217 -0.2753  0.0166  0.9717
 1584TIP3   OH2 4757   2.749   5.921   1.513 -0.0203 -0.7224 -0.2112
 1584TIP3    H1 4758   2.740   5.939   1.419 -1.7858 -0.9570 -0.1171
 1584TIP3    H2 4759   2.693   5.844   1.528 -0.7967  0.0991  1.2649
 1585TIP3   OH2 4760   2.556   2.924   4.092 -0.1111 -0.5303 -0.5206
 1585TIP3    H1 4761   2.607   2.920   4.011 -1.2293 -1.4411 -1.2072
 1585TIP3    H2 4762   2.583   3.006   4.134  0.6205 -0.1409 -1.7175
 1586TIP3   OH2 4763   0.516   5.608   0.293 -0.2868  0.2453  0.1798
 1586TIP3    H1 4764   0.517   5.555   0.373 -1.4917  0.2500  0.2144
 1586TIP3    H2 4765   0.468   5.555   0.230  2.6393 -0.8344 -1.3605
 1587TIP3   OH2 4766   0.392   2.709   1.770 -0.2767  0.4386 -0.5009
 1587TIP3    H1 4767   0.462   2.733   1.830 -0.1501  0.8537 -0.8060
 1587TIP3    H2 4768   0.431   2.641   1.714 -0.0878  0.7302 -0.7261
 1588TIP3   OH2 4769   3.034   1.112   4.640 -0.3468  0.3933  0.0401
 1588TIP3    H1 4770   2.975   1.153   4.704  1.0131  1.9548  0.3371
 1588TIP3    H2 4771   3.081   1.045   4.690 -0.8507  0.1014  0.1317
 1589TIP3   OH2 4772   5.867   4.693   2.642  0.0148 -0.1399  0.2864
 1589TIP3    H1 4773   5.800   4.741   2.692  0.6854 -0.2144  1.2867
 1589TIP3    H2 4774   5.842   4.601   2.652 -0.0647 -0.1313  0.1681
 1590TIP3   OH2 4775   1.707   2.722   0.800  0.2260  0.1024 -0.0857
 1590TIP3    H1 4776   1.783   2.674   0.832  0.3413  0.2682 -0.1112
 1590TIP3    H2 4777   1.715   2.718   0.705  0.9778  1.3343 -0.1006
 1591TIP3   OH2 4778   1.932   3.043   4.561  0.8000 -0.6151  0.0594
 1591TIP3    H1 4779   1.886   2.964   4.587 -1.3391  0.4266 -0.3617
 1591TIP3    H2 4780   1.983   3.068   4.638 -0.4084 -1.0884  1.0467
 1592TIP3   OH2 4781   1.320   5.193   1.879 -0.1598 -0.3735  0.1836
 1592TIP3    H1 4782   1.408   5.177   1.912  0.6669 -0.4133 -1.9004
 1592TIP3    H2 4783   1.324   5.281   1.841 -0.7784 -0.6666 -0.6005
 1593TIP3   OH2 4784   0.301   2.051   3.961  0.2430  0.8822 -0.2197
 1593TIP3    H1 4785   0.267   1.973   3.918  2.1922 -0.8239  1.1044
 1593TIP3    H2 4786   0.309   2.026   4.053  0.8438  2.6918  0.2599
 1594TIP3   OH2 4787   4.496   1.364   3.780 -0.1378 -0.2317 -0.0152
 1594TIP3    H1 4788   4.429   1.414   3.827  0.2724  1.1459 -0.8520
 1594TIP3    H2 4789   4.554   1.332   3.849  1.2328  2.9011  0.4302
 1595TIP3   OH2 4790   4.653   5.765   5.047  0.6263  0.4143  0.7758
 1595TIP3    H1 4791   4.691   5.682   5.021  1.5696  1.0571  0.0277
 1595TIP3    H2 4792   4.653   5.763   5.142  0.2809 -0.5903  0.7660
 1596TIP3   OH2 4793   2.068   3.374   1.098  0.0763  0.1891 -0.2735
 1596TIP3    H1 4794   2.081   3.444   1.161  0.6488 -1.1020  1.1015
 1596TIP3    H2 4795   1.977   3.385   1.069  0.2914  1.7506 -0.4476
 1597TIP3   OH2 4796   2.322   0.230   2.337  0.2086 -0.6380 -0.3187
 1597TIP3    H1 4797   2.281   0.277   2.410 -0.9842 -1.4772 -0.4247
 1597TIP3    H2 4798   2.407   0.201   2.371  0.6466  0.9050 -0.0089
 1598TIP3   OH2 4799   0.758   1.902   0.258  0.3305  0.2119 -0.3344
 1598TIP3    H1 4800   0.758   1.929   0.350  1.8681 -0.4834 -0.1030
 1598TIP3    H2 4801   0.672   1.863   0.245 -0.1821  0.9710  0.6082
 1599TIP3   OH2 4802   4.332   5.244   3.160 -0.3684  0.1409 -0.2406
 1599TIP3    H1 4803   4.269   5.249   3.087  0.9604 -1.7202 -1.6239
 1599TIP3    H2 4804   4.383   5.165   3.141  2.3994  1.5649  0.7912
 1600TIP3   OH2 4805   2.675   4.155   2.985  0.2254 -0.3705 -0.0083
 1600TIP3    H1 4806   2.753   4.194   2.946  1.0245 -4.1535 -2.7054
 1600TIP3    H2 4807   2.607   4.223   2.975  1.7700  0.8922 -3.0928
 1601TIP3   OH2 4808   5.173   0.442   0.990 -0.5277  0.0543 -0.0031
 1601TIP3    H1 4809   5.141   0.533   0.993  0.5591  0.4742 -0.4197
 1601TIP3    H2 4810   5.266   0.449   1.010 -0.6183 -1.1027  0.9359
 1602TIP3   OH2 4811   5.485   1.267   0.351 -0.3448  0.1775 -0.0427
 1602TIP3    H1 4812   5.497   1.207   0.425 -0.5327  0.8222  0.5256
 1602TIP3    H2 4813   5.574   1.289   0.324 -0.2581  0.6532  0.5966
 1603TIP3   OH2 4814   1.002   4.366   2.266 -0.1823  0.0212  0.1961
 1603TIP3    H1 4815   1.044   4.323   2.340  0.7441  0.0967 -0.2635
 1603TIP3    H2 4816   1.040   4.454   2.265 -1.7063  0.7206  0.8506
 1604TIP3   OH2 4817   3.448   5.829   3.585 -0.3813  0.6470  0.4250
 1604TIP3    H1 4818   3.503   5.752   3.596 -1.0163 -0.0490 -0.9437
 1604TIP3    H2 4819   3.389   5.828   3.661 -1.9325 -1.6054 -0.6839
 1605TIP3   OH2 4820   1.086   1.291   3.198 -0.4067  0.9015  0.3676
 1605TIP3    H1 4821   1.047   1.211   3.164 -0.3295  0.3427  1.5465
 1605TIP3    H2 4822   1.115   1.339   3.120  3.1610 -2.0035 -0.3973
 1606TIP3   OH2 4823   4.791   3.005   3.309 -0.2295  0.0046  0.4016
 1606TIP3    H1 4824   4.858   3.032   3.246 -2.2740  2.0213 -1.0575
 1606TIP3    H2 4825   4.766   2.917   3.281  1.1754 -0.4574  0.4858
 1607TIP3   OH2 4826   1.334   2.434   3.951 -0.3589 -0.5487  0.2869
 1607TIP3    H1 4827   1.360   2.342   3.942  1.4460  0.0444 -1.4888
 1607TIP3    H2 4828   1.295   2.456   3.866  2.1658  1.0870 -0.5722
 1608TIP3   OH2 4829   4.009   3.339   2.217 -0.6966 -0.2687 -0.6107
 1608TIP3    H1 4830   4.098   3.303   2.217  0.4188  2.0248  2.6624
 1608TIP3    H2 4831   4.021   3.433   2.206 -2.4181  0.4221  2.3753
 1609TIP3   OH2 4832   2.840   2.377   3.263  0.1811  0.7502  0.1543
 1609TIP3    H1 4833   2.766   2.382   3.203 -0.0316 -0.8081  0.2466
 1609TIP3    H2 4834   2.846   2.284   3.286 -0.0120  1.3475  2.8781
 1610TIP3   OH2 4835   3.825   1.206   2.602 -0.2479  0.2287  0.1823
 1610TIP3    H1 4836   3.878   1.134   2.568 -1.0006 -0.6724  0.8515
 1610TIP3    H2 4837   3.856   1.217   2.692 -0.1574  0.7245  0.0902
 1611TIP3   OH2 4838   0.727   1.006   3.149 -0.0653 -0.0560  0.3340
 1611TIP3    H1 4839   0.792   1.041   3.089  0.5986 -1.5936  0.1132
 1611TIP3    H2 4840   0.663   1.077   3.159  0.2526  0.5567 -1.5087
 1612TIP3   OH2 4841   1.757   1.158   0.370  0.5668  0.1788 -0.1092
 1612TIP3    H1 4842   1.794   1.070   0.376 -1.1286 -0.5965 -0.3557
 1612TIP3    H2 4843   1.710   1.170   0.452 -1.5330 -0.3106 -1.1817
 1613TIP3   OH2 4844   3.019   0.098   2.142 -0.0546 -0.9052  0.0854
 1613TIP3    H1 4845   3.051   0.082   2.053  1.2914 -0.9623  0.5581
 1613TIP3    H2 4846   2.946   0.037   2.152  0.4460 -1.6473 -0.6233
 1614TIP3   OH2 4847   5.871   2.302   2.539 -0.1986 -0.0156  0.1061
 1614TIP3    H1 4848   5.944   2.250   2.575  2.2372  2.7733 -0.3816
 1614TIP3    H2 4849   5.864   2.377   2.599  0.2542  1.9199 -2.1228
 1615TIP3   OH2 4850   5.067   5.046   0.808 -0.4776  0.6388  0.1512
 1615TIP3    H1 4851   4.990   5.013   0.854 -0.4997 -1.2005 -1.0829
 1615TIP3    H2 4852   5.060   5.010   0.720  0.6269  2.3439 -0.6913
 1616TIP3   OH2 4853   1.590   3.662   4.073  0.1110  0.3527 -0.4558
 1616TIP3    H1 4854   1.511   3.686   4.024  0.2484 -0.6250 -1.1871
 1616TIP3    H2 4855   1.656   3.726   4.046  0.3647 -0.5357 -2.0744
 1617TIP3   OH2 4856   0.080   2.346   4.851  0.1837 -0.0527  0.4172
 1617TIP3    H1 4857   0.169   2.377   4.835  0.2218 -0.3184  0.1207
 1617TIP3    H2 4858   0.064   2.365   4.944 -0.4376  2.5375 -0.1311
 1618TIP3   OH2 4859   2.557   5.038   1.571 -0.0129 -0.8823 -1.0694
 1618TIP3    H1 4860   2.577   4.957   1.620  4.0529 -0.0002 -0.9569
 1618TIP3    H2 4861   2.510   5.092   1.634 -2.1412 -2.7849 -0.8994
 1619TIP3   OH2 4862   0.829   5.130   0.464 -0.1608  0.0168 -0.2717
 1619TIP3    H1 4863   0.892   5.102   0.397  0.0978  0.4187 -0.1959
 1619TIP3    H2 4864   0.791   5.211   0.430  0.2702  0.4443  0.2508
 1620TIP3   OH2 4865   1.803   3.715   1.809  0.2085  0.6531  0.3951
 1620TIP3    H1 4866   1.800   3.650   1.879  2.4652  0.9257  0.8051
 1620TIP3    H2 4867   1.794   3.664   1.728  1.2442 -0.1043  0.7435
 1621TIP3   OH2 4868   0.909   3.026   1.154  0.3599  0.1570 -0.1324
 1621TIP3    H1 4869   0.919   3.096   1.219 -0.2334  0.8418 -0.7471
 1621TIP3    H2 4870   0.814   3.023   1.138  0.3671 -0.8670 -0.0467
 1622TIP3   OH2 4871   0.771   0.726   2.188 -0.5646 -0.2429 -0.4497
 1622TIP3    H1 4872   0.858   0.693   2.165 -0.7137  0.0954 -1.5987
 1622TIP3    H2 4873   0.711   0.663   2.149 -0.8433 -0.3058  0.0731
 1623TIP3   OH2 4874   0.358   0.129   0.266 -0.5307  0.0213 -0.6069
 1623TIP3    H1 4875   0.284   0.189   0.256 -0.3794  0.1581 -0.9284
 1623TIP3    H2 4876   0.430   0.184   0.297 -1.8218 -0.8744  5.0057
 1624TIP3   OH2 4877   0.647   1.886   3.267  0.4255 -0.7977  0.1280
 1624TIP3    H1 4878   0.732   1.892   3.223  0.1681  0.5584 -0.2275
 1624TIP3    H2 4879   0.656   1.942   3.344 -1.0534  1.8921 -1.5140
 1625TIP3   OH2 4880   4.235   1.745   3.956 -0.5469 -0.4599  0.0249
 1625TIP3    H1 4881   4.261   1.835   3.935 -1.5783 -0.3426 -0.8831
 1625TIP3    H2 4882   4.287   1.722   4.032  0.0136  0.7766  0.0465
 1626TIP3   OH2 4883   0.192   4.850   3.506 -0.1520  0.0182 -0.1996
 1626TIP3    H1 4884   0.182   4.759   3.478 -0.0262  0.6928 -2.6818
 1626TIP3    H2 4885   0.104   4.877   3.530 -0.1876 -0.7420  0.5810
 1627TIP3   OH2 4886   0.126   2.079   1.810 -0.2267 -0.7493 -0.0921
 1627TIP3    H1 4887   0.184   2.022   1.860  2.0711 -0.4609 -2.2438
 1627TIP3    H2 4888   0.142   2.166   1.845  0.6697 -0.6754 -0.6627
 1628TIP3   OH2 4889   1.365   5.513   3.318  0.2591  0.2037 -0.0781
 1628TIP3    H1 4890   1.306   5.561   3.259  1.7548  1.4670 -0.6305
 1628TIP3    H2 4891   1.307   5.455   3.367 -1.4442  1.3253 -0.6304
 1629TIP3   OH2 4892   6.068   3.612   3.713 -0.0983  0.0096 -0.1417
 1629TIP3    H1 4893   6.078   3.590   3.621  0.4909 -0.2544 -0.0204
 1629TIP3    H2 4894   6.158   3.619   3.746 -0.2991 -1.5479  0.7983
 1630TIP3   OH2 4895   2.124   2.563   4.106  0.3524  0.5452  0.3118
 1630TIP3    H1 4896   2.112   2.490   4.046  0.4199  0.6266  0.1994
 1630TIP3    H2 4897   2.176   2.627   4.057  0.0532  0.7905  0.3077
 1631TIP3   OH2 4898   3.729   2.427   2.968  0.2882 -0.2414  0.1534
 1631TIP3    H1 4899   3.798   2.420   3.033 -1.0674 -0.7718  1.6067
 1631TIP3    H2 4900   3.722   2.339   2.931 -0.0832 -0.3813  0.5432
 1632TIP3   OH2 4901   6.209   1.644   2.240 -0.0710 -0.1529 -0.1558
 1632TIP3    H1 4902   6.209   1.712   2.173 -1.3825 -0.7205 -0.7687
 1632TIP3    H2 4903   6.193   1.690   2.322 -0.5334  0.3252 -0.5093
 1633TIP3   OH2 4904   3.347   2.495   0.875 -0.2256 -0.5185 -0.8239
 1633TIP3    H1 4905   3.419   2.534   0.825 -0.4341 -0.2214 -0.8907
 1633TIP3    H2 4906   3.377   2.497   0.966 -0.1680 -0.3617 -0.8468
 1634TIP3   OH2 4907   1.638   0.127   4.725 -0.0150  0.1219 -0.4092
 1634TIP3    H1 4908   1.604   0.071   4.794  1.5572 -0.4483 -0.0671
 1634TIP3    H2 4909   1.723   0.089   4.702  0.8527  2.0232 -0.5470
 1635TIP3   OH2 4910   2.156   1.401   0.487 -0.1640  0.4653  0.3154
 1635TIP3    H1 4911   2.065   1.379   0.505  0.3504 -2.3704 -0.0562
 1635TIP3    H2 4912   2.159   1.418   0.392 -0.3507  0.8687  0.3813
 1636TIP3   OH2 4913   0.360   0.840   0.597 -0.0930  0.3222  0.1061
 1636TIP3    H1 4914   0.269   0.871   0.598 -0.2047  0.0089 -0.1381
 1636TIP3    H2 4915   0.371   0.795   0.680 -0.5314 -0.6821 -0.3708
 1637TIP3   OH2 4916   6.085   4.931   3.786  0.1230  0.3407  0.1884
 1637TIP3    H1 4917   6.179   4.949   3.787  0.1786  0.1352 -0.5847
 1637TIP3    H2 4918   6.076   4.853   3.732 -0.5940  0.9949 -0.6776
 1638TIP3   OH2 4919   2.405   5.477   0.844 -0.4449  0.2697 -0.1284
 1638TIP3    H1 4920   2.402   5.382   0.836 -1.5593  0.2669  0.0494
 1638TIP3    H2 4921   2.483   5.495   0.896 -0.2083 -0.5500 -0.1939
 1639TIP3   OH2 4922   2.000   1.318   3.833 -0.7537 -0.0516 -0.6061
 1639TIP3    H1 4923   2.040   1.252   3.776 -1.0971 -0.0749 -0.8183
 1639TIP3    H2 4924   2.012   1.284   3.921 -0.0419  0.0764 -0.6471
 1640TIP3   OH2 4925   3.495   0.578   1.127 -0.1463  0.1346  0.8315
 1640TIP3    H1 4926   3.443   0.560   1.048 -1.1127  1.1030  1.2226
 1640TIP3    H2 4927   3.585   0.569   1.098 -0.5091 -1.1361  0.0175
 1641TIP3   OH2 4928   3.470   4.447   2.689  0.2657  0.0776  0.1828
 1641TIP3    H1 4929   3.504   4.401   2.612 -1.7919 -1.0553 -0.1082
 1641TIP3    H2 4930   3.519   4.529   2.691  1.8022 -0.7439 -1.1259
 1642TIP3   OH2 4931   6.085   4.560   1.532 -0.5254 -0.0041 -0.2842
 1642TIP3    H1 4932   6.144   4.516   1.593 -1.1086  1.5211  1.4649
 1642TIP3    H2 4933   5.997   4.534   1.560 -0.7764 -0.7345 -1.6604
 1643TIP3   OH2 4934   2.050   0.807   3.108  0.2266  0.1668  0.6387
 1643TIP3    H1 4935   1.963   0.832   3.137 -0.2776 -1.7451  0.9324
 1643TIP3    H2 4936   2.089   0.888   3.075 -1.5187  1.1241  0.8143
 1644TIP3   OH2 4937   1.370   4.190   2.998 -0.2351 -0.1681 -0.8847
 1644TIP3    H1 4938   1.410   4.140   3.068 -0.5373  0.3272 -0.3494
 1644TIP3    H2 4939   1.416   4.162   2.919  1.8380  1.0557 -0.2026
 1645TIP3   OH2 4940   4.348   3.222   1.808 -0.1942 -0.2660 -0.0026
 1645TIP3    H1 4941   4.350   3.292   1.742  0.4781 -1.2125 -1.0090
 1645TIP3    H2 4942   4.420   3.243   1.868  1.5071 -1.2611 -1.5818
 1646TIP3   OH2 4943   3.176   5.420   2.505  0.8644  1.1264 -0.0305
 1646TIP3    H1 4944   3.251   5.467   2.469 -0.2265  1.4035 -2.0847
 1646TIP3    H2 4945   3.102   5.479   2.492 -0.1720 -0.2543 -0.6115
 1647TIP3   OH2 4946   2.005   5.976   2.694  0.1873  0.1223 -0.7289
 1647TIP3    H1 4947   2.099   5.967   2.679  0.2605 -0.2405 -0.0646
 1647TIP3    H2 4948   1.966   5.970   2.606  0.5727 -2.5936 -0.8134
 1648TIP3   OH2 4949   4.121   4.330   1.686 -0.2113  0.0576 -0.1635
 1648TIP3    H1 4950   4.057   4.286   1.632 -0.8816 -0.3353  0.9257
 1648TIP3    H2 4951   4.126   4.419   1.650  1.0704 -0.8000 -2.2975
 1649TIP3   OH2 4952   1.090   4.009   4.482 -0.7368 -0.1738  0.1171
 1649TIP3    H1 4953   1.083   3.915   4.495 -1.0590 -0.3782 -1.3527
 1649TIP3    H2 4954   1.127   4.019   4.395  2.6224  1.0685  1.5119
 1650TIP3   OH2 4955   5.096   4.069   0.224 -0.2083 -0.7771  0.1231
 1650TIP3    H1 4956   5.188   4.067   0.248 -0.3206 -2.4741  0.5207
 1650TIP3    H2 4957   5.093   4.121   0.143  1.0816 -0.6967  0.1118
 1651TIP3   OH2 4958   3.407   3.357   0.505  0.2048 -0.1514 -0.0069
 1651TIP3    H1 4959   3.349   3.282   0.492  1.0338 -0.6612 -0.9007
 1651TIP3    H2 4960   3.461   3.359   0.426  0.9680  0.7011  0.5226
 1652TIP3   OH2 4961   0.260   2.837   3.711 -0.3911 -0.7682  0.7316
 1652TIP3    H1 4962   0.225   2.917   3.673  0.3945 -0.1170  1.3434
 1652TIP3    H2 4963   0.196   2.770   3.688 -0.7909 -0.0792 -0.2563
 1653TIP3   OH2 4964   6.218   0.247   2.389  0.2065  0.0076  0.1745
 1653TIP3    H1 4965   6.242   0.323   2.442  0.3012 -1.2029  1.9262
 1653TIP3    H2 4966   6.125   0.260   2.370  0.6028  1.3810 -1.0070
 1654TIP3   OH2 4967   2.979   1.182   4.185  0.4395 -0.6936  0.1353
 1654TIP3    H1 4968   2.902   1.214   4.233 -0.6975 -1.9766 -0.7521
 1654TIP3    H2 4969   2.944   1.152   4.101  2.1771  0.2072 -0.9694
 1655TIP3   OH2 4970   5.804   5.685   0.757 -0.0403 -0.2544 -0.3819
 1655TIP3    H1 4971   5.781   5.593   0.743 -1.7904 -0.1153  1.1559
 1655TIP3    H2 4972   5.777   5.703   0.847  1.2603  1.4963 -0.2932
 1656TIP3   OH2 4973   5.816   3.858   1.383  0.0490 -0.1328 -0.0845
 1656TIP3    H1 4974   5.875   3.902   1.445  0.4463 -0.2451 -0.3766
 1656TIP3    H2 4975   5.757   3.926   1.353  0.5008  0.1525 -0.3413
 1657TIP3   OH2 4976   1.623   4.081   3.813 -0.3252  0.0378  0.4218
 1657TIP3    H1 4977   1.539   4.039   3.797  1.0440 -2.2975 -1.2405
 1657TIP3    H2 4978   1.603   4.154   3.872 -3.3864 -0.7709  0.5279
 1658TIP3   OH2 4979   1.584   5.413   3.771  0.2596  0.0121 -0.2747
 1658TIP3    H1 4980   1.668   5.457   3.755 -0.3023  0.8717 -0.9749
 1658TIP3    H2 4981   1.532   5.479   3.817  0.3313 -0.9097  1.1861
 1659TIP3   OH2 4982   3.452   3.995   1.175  0.0281  0.1645 -0.1640
 1659TIP3    H1 4983   3.504   3.925   1.135  1.3307  1.3888 -0.7006
 1659TIP3    H2 4984   3.422   4.048   1.101  0.4075  1.0684  0.3116
 1660TIP3   OH2 4985   5.953   5.942   1.187  0.3824 -0.1697  0.9208
 1660TIP3    H1 4986   5.960   6.035   1.170  1.5518 -0.3151  0.5069
 1660TIP3    H2 4987   6.040   5.907   1.165 -0.4416 -1.5732 -0.3024
 1661TIP3   OH2 4988   0.788   0.042   5.029  0.1355 -0.4870  0.5685
 1661TIP3    H1 4989   0.716   0.034   4.967  1.0587 -0.8240 -0.4822
 1661TIP3    H2 4990   0.764  -0.017   5.100 -0.2822 -1.1376 -0.1007
 1662TIP3   OH2 4991   0.797   2.192   0.415  0.1211 -0.4932 -0.2180
 1662TIP3    H1 4992   0.799   2.105   0.455  1.2490  1.0096  3.4051
 1662TIP3    H2 4993   0.731   2.239   0.465  0.6260  1.1756 -1.0551
 1663TIP3   OH2 4994   3.510   0.474   4.502  0.4923 -0.5298  0.0580
 1663TIP3    H1 4995   3.592   0.501   4.544 -0.1430 -0.1828  1.1131
 1663TIP3    H2 4996   3.441   0.507   4.560 -0.4346  0.1384 -1.3512
 1664TIP3   OH2 4997   2.900   2.976   4.850 -0.4441  0.6467 -0.0685
 1664TIP3    H1 4998   2.819   2.932   4.876  0.4250 -0.2361  1.2884
 1664TIP3    H2 4999   2.932   2.926   4.775  0.1623 -0.6268  1.0163
 1665TIP3   OH2 5000   2.181   2.851   2.857  0.0305 -0.2126 -0.1905
 1665TIP3    H1 5001   2.234   2.772   2.850 -0.4952 -0.5551 -0.2762
 1665TIP3    H2 5002   2.193   2.895   2.773  0.3689 -0.1676 -0.1210
 1666TIP3   OH2 5003   4.442   3.671   2.237 -0.3780  0.5556 -0.1680
 1666TIP3    H1 5004   4.357   3.696   2.200  0.0535  0.1903 -1.4202
 1666TIP3    H2 5005   4.496   3.649   2.162  0.6432  0.1654  0.6596
 1667TIP3   OH2 5006   3.491   1.832   2.918  0.0481  0.2565  0.1476
 1667TIP3    H1 5007   3.550   1.814   2.846 -0.1766  2.2382 -0.5978
 1667TIP3    H2 5008   3.422   1.766   2.910  0.3828  0.0312 -1.0507
 1668TIP3   OH2 5009   5.933   2.082   4.060 -0.7897 -0.3188 -0.0274
 1668TIP3    H1 5010   5.933   2.146   3.989 -1.7328  0.1605  0.3824
 1668TIP3    H2 5011   5.849   2.036   4.050 -0.4306 -1.0192  0.1078
 1669TIP3   OH2 5012   2.816   2.363   1.511 -0.0748 -0.1300 -0.6774
 1669TIP3    H1 5013   2.811   2.303   1.437  2.6635  0.6778 -1.6446
 1669TIP3    H2 5014   2.860   2.441   1.476 -0.9140  1.2932  1.2364
 1670TIP3   OH2 5015   1.914   0.310   2.341  0.1481  0.1571  0.0570
 1670TIP3    H1 5016   1.897   0.219   2.315 -1.7824  0.3315  0.5276
 1670TIP3    H2 5017   1.872   0.318   2.427  0.6960  1.3822  0.2340
 1671TIP3   OH2 5018   5.033   0.858   2.614  0.2125 -0.1139 -0.5460
 1671TIP3    H1 5019   5.067   0.934   2.567  0.3049 -0.3476 -0.8634
 1671TIP3    H2 5020   4.994   0.803   2.546  1.5805 -1.1225 -0.5640
 1672TIP3   OH2 5021   4.601   0.443   5.060  0.0523  0.5614  0.2664
 1672TIP3    H1 5022   4.621   0.397   4.979 -1.3723 -0.3208  0.3705
 1672TIP3    H2 5023   4.549   0.518   5.032  0.1843  0.6676  0.3056
 1673TIP3   OH2 5024   5.293   4.559   4.811 -0.0713 -0.2063 -0.1994
 1673TIP3    H1 5025   5.315   4.496   4.880 -0.7902  0.3833  0.5907
 1673TIP3    H2 5026   5.347   4.635   4.828 -1.7448  0.7783  1.0358
 1674TIP3   OH2 5027   5.641   0.247   1.861 -0.1879  0.6651  0.0791
 1674TIP3    H1 5028   5.667   0.331   1.823  0.6001  0.5315  0.3087
 1674TIP3    H2 5029   5.660   0.255   1.954  0.5278 -0.0001 -0.0035
 1675TIP3   OH2 5030   3.631   1.658   3.495 -0.2750 -0.1272  0.0392
 1675TIP3    H1 5031   3.607   1.604   3.420 -0.5307 -0.8880  0.6563
 1675TIP3    H2 5032   3.548   1.674   3.540  0.0802 -1.1226  1.1006
 1676TIP3   OH2 5033   4.454   4.916   1.134 -0.3589 -0.1813 -1.0003
 1676TIP3    H1 5034   4.443   4.873   1.049 -0.3854 -0.8400 -0.6765
 1676TIP3    H2 5035   4.463   4.843   1.196  2.2632  0.2685 -0.7537
 1677TIP3   OH2 5036   3.618   5.599   3.258  0.4253  0.4545 -0.4352
 1677TIP3    H1 5037   3.603   5.512   3.223  0.5830 -0.8138  2.3303
 1677TIP3    H2 5038   3.710   5.617   3.239  1.1402 -1.1780  1.1769
 1678TIP3   OH2 5039   1.585   2.922   1.679  0.0060  0.3771 -0.8456
 1678TIP3    H1 5040   1.588   2.838   1.724 -0.6522  0.9943  0.3933
 1678TIP3    H2 5041   1.619   2.985   1.743  2.3844  0.8233 -2.4008
 1679TIP3   OH2 5042   2.591   2.496   4.322 -0.0745 -0.2632 -0.1588
 1679TIP3    H1 5043   2.557   2.533   4.240 -2.6316 -0.0917  0.8902
 1679TIP3    H2 5044   2.560   2.406   4.323 -0.5911 -0.0903  0.8818
 1680TIP3   OH2 5045   0.047   4.758   1.323 -0.0566  0.0839  0.0420
 1680TIP3    H1 5046   0.065   4.730   1.413 -0.3926 -0.4340 -0.0482
 1680TIP3    H2 5047   0.121   4.723   1.273  0.1323  0.3750  0.1152
 1681TIP3   OH2 5048   4.516   3.163   2.222 -0.6230  0.1982  0.7915
 1681TIP3    H1 5049   4.529   3.079   2.176 -1.4124 -0.0115  0.9454
 1681TIP3    H2 5050   4.595   3.172   2.275 -0.3021 -0.2076  0.3986
 1682TIP3   OH2 5051   4.085   4.963   5.043 -0.0901 -0.1698 -0.2493
 1682TIP3    H1 5052   4.049   5.045   5.010 -1.2473 -0.5851 -0.0619
 1682TIP3    H2 5053   4.132   4.925   4.969  0.2892  0.5473 -0.3927
 1683TIP3   OH2 5054   2.416   1.281   3.115 -0.0784  1.0147  0.4285
 1683TIP3    H1 5055   2.380   1.196   3.139  2.7116 -0.4797 -0.2627
 1683TIP3    H2 5056   2.355   1.316   3.051 -0.9549 -0.7880  0.2196
 1684TIP3   OH2 5057   5.981   3.572   1.710  0.2311  0.2388 -0.5313
 1684TIP3    H1 5058   6.036   3.544   1.638  0.5535 -0.1855 -0.1218
 1684TIP3    H2 5059   5.947   3.657   1.682  2.2776  1.2279 -0.1664
 1685TIP3   OH2 5060   1.165   1.080   0.168  0.4979 -0.4943  0.3585
 1685TIP3    H1 5061   1.106   1.102   0.096  1.3336  0.0105 -0.1929
 1685TIP3    H2 5062   1.120   1.110   0.246  0.9028  1.8338 -0.2340
 1686TIP3   OH2 5063   0.818   1.347   1.177 -1.2707  0.0817  0.2561
 1686TIP3    H1 5064   0.787   1.314   1.092 -0.3741 -1.8915  0.6460
 1686TIP3    H2 5065   0.863   1.429   1.156  0.0932 -1.0195 -1.4081
 1687TIP3   OH2 5066   0.954   0.050   1.079 -0.0177  0.4059 -0.0501
 1687TIP3    H1 5067   0.938   0.032   1.172 -0.4353 -1.7089 -0.4687
 1687TIP3    H2 5068   1.041   0.090   1.077 -0.4751  1.5552  1.3249
 1688TIP3   OH2 5069   1.851   2.661   1.217  0.5009  0.2414  0.3851
 1688TIP3    H1 5070   1.859   2.687   1.309  0.9639  2.3266 -0.1924
 1688TIP3    H2 5071   1.773   2.606   1.214  1.5636 -1.5061  2.3293
 1689TIP3   OH2 5072   5.602   1.215   1.676  0.1343  0.1935 -0.3298
 1689TIP3    H1 5073   5.632   1.169   1.755 -0.4761  0.2444 -0.0650
 1689TIP3    H2 5074   5.516   1.249   1.699 -0.0639  0.1828 -1.0346
 1690TIP3   OH2 5075   0.509   5.730  -0.008 -0.3172  0.1278 -0.1828
 1690TIP3    H1 5076   0.415   5.744   0.006  0.0636  2.1224  0.7847
 1690TIP3    H2 5077   0.546   5.733   0.080  0.8169  0.8618 -0.6689
 1691TIP3   OH2 5078   1.373   0.643   2.555  0.1592 -0.8044  0.5020
 1691TIP3    H1 5079   1.370   0.547   2.551 -0.3213 -0.9082  2.3393
 1691TIP3    H2 5080   1.466   0.665   2.553  0.2535 -1.1658 -1.5648
 1692TIP3   OH2 5081   3.337   3.908   1.419 -0.6653  0.3194  0.6684
 1692TIP3    H1 5082   3.363   3.969   1.350  1.4990 -0.4861  0.7060
 1692TIP3    H2 5083   3.280   3.845   1.375  0.8530 -0.3135 -0.4945
 1693TIP3   OH2 5084   1.090   0.377   3.352  0.5601 -0.3344  0.3170
 1693TIP3    H1 5085   1.165   0.332   3.313  1.5952  0.2901  1.5283
 1693TIP3    H2 5086   1.113   0.469   3.350 -0.3024 -0.1032  0.4905
 1694TIP3   OH2 5087   5.667   1.909   5.148  0.0830 -0.3087 -0.2418
 1694TIP3    H1 5088   5.603   1.839   5.137  0.3271 -0.7193  0.8477
 1694TIP3    H2 5089   5.638   1.956   5.226  0.4764  0.2071 -0.3979
 1695TIP3   OH2 5090   5.016   2.026   0.175 -0.1760 -0.8176  0.3214
 1695TIP3    H1 5091   5.069   1.958   0.135  1.0836 -0.4500  1.2922
 1695TIP3    H2 5092   5.014   2.004   0.268 -0.3736  0.0607  0.5428
 1696TIP3   OH2 5093   5.051   2.348   0.397 -0.2342 -0.4133 -0.1590
 1696TIP3    H1 5094   5.058   2.442   0.384  0.2599 -0.6007 -1.3717
 1696TIP3    H2 5095   4.962   2.326   0.369 -0.3140 -0.3331  0.0257
 1697TIP3   OH2 5096   4.121   1.160   3.048  0.3710  0.2044 -0.6992
 1697TIP3    H1 5097   4.145   1.133   3.137  0.5576  0.8204 -0.5634
 1697TIP3    H2 5098   4.030   1.131   3.039 -0.0026  1.0803  0.0762
 1698TIP3   OH2 5099   0.744   1.886   3.556 -0.4228  0.1130  0.0574
 1698TIP3    H1 5100   0.799   1.862   3.630 -0.9608 -0.7170  0.1979
 1698TIP3    H2 5101   0.799   1.944   3.503  0.5314 -0.5860  0.2671
 1699TIP3   OH2 5102   3.338   5.549   3.343  0.8975  0.0118  0.1340
 1699TIP3    H1 5103   3.289   5.626   3.374  1.8154  0.1484  1.3288
 1699TIP3    H2 5104   3.426   5.582   3.328  0.9922 -0.5519 -0.5709
 1700TIP3   OH2 5105   0.514   4.646   1.967  0.1585 -0.4205 -0.2896
 1700TIP3    H1 5106   0.549   4.710   1.905 -2.7371  0.9738 -0.7006
 1700TIP3    H2 5107   0.513   4.692   2.051  1.0109 -1.1019  0.0996
 1701TIP3   OH2 5108   0.766   0.795   4.751  0.0214  0.3964  0.5509
 1701TIP3    H1 5109   0.717   0.798   4.833  0.8364  1.3127  1.0277
 1701TIP3    H2 5110   0.839   0.856   4.764  0.3940  0.2586 -0.7093
 1702TIP3   OH2 5111   4.731   2.880   2.383 -0.6725  0.0904  0.4888
 1702TIP3    H1 5112   4.811   2.925   2.357 -0.5947 -0.2210  0.1801
 1702TIP3    H2 5113   4.742   2.863   2.476  0.0901 -0.8829  0.2402
 1703TIP3   OH2 5114   4.029   0.884   1.512 -0.7170  0.0570  0.0033
 1703TIP3    H1 5115   4.042   0.792   1.532 -1.4480 -0.0730 -0.0926
 1703TIP3    H2 5116   4.097   0.906   1.449  0.8946  0.1650  1.6864
 1704TIP3   OH2 5117   5.971   1.355   0.126 -0.0948 -0.1731 -0.0538
 1704TIP3    H1 5118   5.908   1.309   0.070 -1.1774  3.3928 -2.1168
 1704TIP3    H2 5119   6.054   1.310   0.110 -1.3011 -2.4214 -0.5151
 1705TIP3   OH2 5120   2.269   0.769   3.312 -0.0156 -0.7105  0.5435
 1705TIP3    H1 5121   2.221   0.793   3.233 -2.6574 -1.1592  1.8772
 1705TIP3    H2 5122   2.351   0.731   3.281 -0.7742 -0.4471 -1.9419
 1706TIP3   OH2 5123   4.875   4.479   3.875 -0.1230  0.2151  0.9302
 1706TIP3    H1 5124   4.898   4.493   3.967  1.9692  0.4078  0.4434
 1706TIP3    H2 5125   4.872   4.568   3.838  0.2925  0.0818  0.5650
 1707TIP3   OH2 5126   3.561   0.965   0.962 -0.4858  0.1051  0.3307
 1707TIP3    H1 5127   3.467   0.947   0.955 -0.5812  0.3860  0.8028
 1707TIP3    H2 5128   3.570   1.014   1.044  0.1806 -0.6044  0.6959
 1708TIP3   OH2 5129   0.743   4.804   3.338 -0.1136 -0.2459  0.2370
 1708TIP3    H1 5130   0.671   4.867   3.348 -1.8839 -2.2622  0.9371
 1708TIP3    H2 5131   0.735   4.747   3.414 -0.3774 -3.0032 -1.7073
 1709TIP3   OH2 5132   4.680   2.863   2.663 -0.1822 -0.5738  0.7611
 1709TIP3    H1 5133   4.593   2.891   2.690 -0.0300  0.4371  0.2724
 1709TIP3    H2 5134   4.670   2.772   2.635 -1.5626  0.1408 -1.3429
 1710TIP3   OH2 5135   5.681   0.646   2.467 -0.4160 -0.2140 -0.4444
 1710TIP3    H1 5136   5.766   0.688   2.454 -0.7121  0.5115 -0.1031
 1710TIP3    H2 5137   5.647   0.686   2.547 -1.3254 -0.0668 -0.8868
 1711TIP3   OH2 5138   2.048   3.013   4.047  0.1265  0.9683 -0.4235
 1711TIP3    H1 5139   2.059   3.021   4.142 -0.4444 -1.5065 -0.0743
 1711TIP3    H2 5140   1.968   3.061   4.028 -0.5436  0.3246  0.6145
 1712TIP3   OH2 5141   4.962   2.275   2.265 -0.0458  0.1141  0.1376
 1712TIP3    H1 5142   4.870   2.298   2.271 -0.6656 -2.3775  1.5892
 1712TIP3    H2 5143   4.984   2.285   2.172 -2.2841 -0.9379 -0.5581
 1713TIP3   OH2 5144   5.928   1.161   1.994  0.1974 -0.0246 -0.5225
 1713TIP3    H1 5145   5.834   1.172   2.007 -0.0695 -0.3066 -2.0421
 1713TIP3    H2 5146   5.952   1.228   1.930  1.1927  0.5477  0.4242
 1714TIP3   OH2 5147   5.057   2.762   2.087  0.3465  0.4692 -0.1339
 1714TIP3    H1 5148   5.121   2.722   2.145 -0.3328  1.1832  1.1447
 1714TIP3    H2 5149   5.017   2.687   2.041  1.1967 -0.0676 -0.0217
 1715TIP3   OH2 5150   0.662   3.566   3.247  0.0692  0.2346 -0.4223
 1715TIP3    H1 5151   0.646   3.474   3.269 -0.1828  0.0609 -1.3152
 1715TIP3    H2 5152   0.733   3.592   3.306  2.4133 -1.4539 -2.3169
 1716TIP3   OH2 5153   3.721   5.465   4.721 -0.3328  0.2341 -0.5997
 1716TIP3    H1 5154   3.784   5.479   4.792 -2.8572  1.5902  1.5629
 1716TIP3    H2 5155   3.728   5.543   4.667 -0.2397  0.4332 -0.3036
 1717TIP3   OH2 5156   2.528   0.097   0.034 -0.4964 -0.3574 -0.0973
 1717TIP3    H1 5157   2.552   0.145   0.114  1.4688 -1.6277  0.1474
 1717TIP3    H2 5158   2.511   0.008   0.063  1.8522 -1.2604 -1.1915
 1718TIP3   OH2 5159   5.896   0.791   2.477  0.1026  0.4079  0.5817
 1718TIP3    H1 5160   5.986   0.800   2.446  0.0920  0.0465  0.4336
 1718TIP3    H2 5161   5.899   0.819   2.568  1.2382 -3.2961  1.9044
 1719TIP3   OH2 5162   0.707   4.523   0.700 -0.0924 -0.6314  0.0511
 1719TIP3    H1 5163   0.741   4.613   0.700 -0.1509 -0.5173 -2.6209
 1719TIP3    H2 5164   0.718   4.493   0.790  1.8248  1.3569  0.5698
 1720TIP3   OH2 5165   0.300   3.946   1.316  0.4602  0.1994  0.0472
 1720TIP3    H1 5166   0.387   3.908   1.302  0.2238 -0.0388 -0.8265
 1720TIP3    H2 5167   0.269   3.906   1.397  0.9958 -0.0146  0.1517
 1721TIP3   OH2 5168   0.755   3.003   1.452 -0.2208  0.0591  0.0302
 1721TIP3    H1 5169   0.837   3.038   1.486  0.3187  1.5980 -2.5753
 1721TIP3    H2 5170   0.781   2.932   1.394 -0.9142 -0.8355  0.7832
 1722TIP3   OH2 5171   4.214   4.879   3.626 -0.0376  0.3670 -0.2877
 1722TIP3    H1 5172   4.167   4.931   3.561 -0.1407 -1.3952 -1.7160
 1722TIP3    H2 5173   4.286   4.935   3.654  0.4177  0.9614 -2.4506
 1723TIP3   OH2 5174   5.506   4.247   1.226  0.0628 -0.3164  0.5299
 1723TIP3    H1 5175   5.529   4.333   1.261  0.0404 -0.3350  0.5910
 1723TIP3    H2 5176   5.417   4.258   1.192  0.4860 -0.0089 -0.5184
 1724TIP3   OH2 5177   5.891   1.184   1.575 -0.4359  0.3636  0.0805
 1724TIP3    H1 5178   5.836   1.255   1.608  1.1918  1.7331 -0.0528
 1724TIP3    H2 5179   5.891   1.195   1.480  0.4241  0.6654  0.1077
 1725TIP3   OH2 5180   3.830   2.799   3.345 -0.1590  0.3560  0.0842
 1725TIP3    H1 5181   3.735   2.809   3.350 -0.5454 -0.8142 -2.7941
 1725TIP3    H2 5182   3.854   2.841   3.262  1.8744  0.7134  0.7990
 1726TIP3   OH2 5183   3.137   1.202   4.928  0.0195  0.9941  0.0940
 1726TIP3    H1 5184   3.160   1.222   5.019 -1.7513 -1.0027  1.0775
 1726TIP3    H2 5185   3.090   1.279   4.898 -0.4237  1.2218  1.2971
 1727TIP3   OH2 5186   1.731   5.556   2.750 -0.0075 -0.3653 -0.2420
 1727TIP3    H1 5187   1.821   5.564   2.782 -0.0878  0.9455 -0.3178
 1727TIP3    H2 5188   1.726   5.616   2.676 -1.0980  0.0022  0.1100
 1728TIP3   OH2 5189   0.375   3.566   2.114  0.1016 -0.1720 -0.0394
 1728TIP3    H1 5190   0.338   3.599   2.195  0.3493 -0.0161  0.0114
 1728TIP3    H2 5191   0.469   3.556   2.132 -0.1504 -2.2291  0.3987
 1729TIP3   OH2 5192   4.626   1.952   4.922 -0.0282  0.3137 -0.2490
 1729TIP3    H1 5193   4.654   1.985   4.837 -1.8639 -2.0762 -1.8951
 1729TIP3    H2 5194   4.606   2.031   4.972  0.4718  1.7766 -2.2204
 1730TIP3   OH2 5195   1.456   0.203   1.317 -0.3284  0.0027  0.1147
 1730TIP3    H1 5196   1.427   0.285   1.276 -1.1333 -0.0515  0.5740
 1730TIP3    H2 5197   1.548   0.218   1.338 -1.2801  2.1617  3.4663
 1731TIP3   OH2 5198   1.192   2.075   4.605 -0.2806 -0.6223  0.1858
 1731TIP3    H1 5199   1.220   2.133   4.534 -0.0194 -1.7706 -0.6784
 1731TIP3    H2 5200   1.218   2.121   4.685 -1.1979  1.0215 -0.4057
 1732TIP3   OH2 5201   3.593   1.572   0.642  0.2106 -0.4219 -0.0283
 1732TIP3    H1 5202   3.616   1.649   0.591 -0.6900 -1.8216 -2.7720
 1732TIP3    H2 5203   3.577   1.605   0.730  1.6550  2.1982 -0.6487
 1733TIP3   OH2 5204   1.652   4.164   1.371 -0.0145 -0.0596 -0.4613
 1733TIP3    H1 5205   1.666   4.128   1.458  0.0309 -0.9942 -0.8512
 1733TIP3    H2 5206   1.605   4.246   1.386 -0.5427 -0.5169  0.4033
 1734TIP3   OH2 5207   2.675   2.390   0.701 -0.6723  0.3178  0.4473
 1734TIP3    H1 5208   2.665   2.298   0.675 -3.3255  0.8128 -0.6230
 1734TIP3    H2 5209   2.609   2.403   0.769 -1.8492  1.8730 -0.8936
 1735TIP3   OH2 5210   3.901   1.302   3.995  0.3803  0.2466 -0.2149
 1735TIP3    H1 5211   3.848   1.224   3.975  1.4802 -0.3778 -0.7699
 1735TIP3    H2 5212   3.986   1.267   4.021  1.5164  1.2693 -2.2862
 1736TIP3   OH2 5213   2.583   4.994   0.437  1.2586 -0.1723 -0.4366
 1736TIP3    H1 5214   2.525   5.031   0.371  0.3540 -0.1284  0.3654
 1736TIP3    H2 5215   2.646   5.065   0.455 -0.1445  0.8508  0.7042
 1737TIP3   OH2 5216   5.166   0.889   4.016  0.1949  0.2389  0.0156
 1737TIP3    H1 5217   5.229   0.900   4.088 -0.2940 -0.5087  0.5797
 1737TIP3    H2 5218   5.195   0.950   3.949 -0.3611  2.2702  1.5278
 1738TIP3   OH2 5219   0.596   4.543   4.634 -0.2457 -0.0056 -0.8274
 1738TIP3    H1 5220   0.630   4.468   4.584 -0.6718 -0.2397 -0.7722
 1738TIP3    H2 5221   0.503   4.547   4.610  0.0735  1.4184 -1.9723
 1739TIP3   OH2 5222   1.287   2.801   3.978 -0.3532 -0.3469  0.1457
 1739TIP3    H1 5223   1.321   2.752   4.053  0.3663  1.5799  1.1541
 1739TIP3    H2 5224   1.192   2.798   3.988 -0.2868 -0.8167  0.6772
 1740TIP3   OH2 5225   1.799   0.888   3.199 -0.1238 -0.1527  0.7109
 1740TIP3    H1 5226   1.728   0.847   3.150 -0.3568  0.6242  0.3944
 1740TIP3    H2 5227   1.756   0.954   3.253  0.2739 -0.2019  1.1014
 1741TIP3   OH2 5228   0.354   4.167   4.284 -0.1168  0.2247 -0.4638
 1741TIP3    H1 5229   0.366   4.083   4.328 -0.1298  0.3787 -0.1638
 1741TIP3    H2 5230   0.420   4.167   4.214  0.2062  0.1674 -0.1606
 1742TIP3   OH2 5231   5.445   2.399   5.141 -0.3090  0.3532 -0.3601
 1742TIP3    H1 5232   5.515   2.335   5.127 -1.2164 -0.5393 -0.8543
 1742TIP3    H2 5233   5.464   2.469   5.079 -0.3314 -0.2797 -1.0828
 1743TIP3   OH2 5234   1.175   2.167   4.873 -0.0326  0.3110  0.1570
 1743TIP3    H1 5235   1.210   2.233   4.932 -0.3093 -0.0911  0.7787
 1743TIP3    H2 5236   1.106   2.123   4.923  0.4265 -0.7335 -0.0964
 1744TIP3   OH2 5237   4.938   0.496   4.612 -0.0465  0.5894 -0.5913
 1744TIP3    H1 5238   4.854   0.541   4.612 -0.2886  0.1566  0.7448
 1744TIP3    H2 5239   4.992   0.545   4.674  0.3401  0.2324 -0.6397
 1745TIP3   OH2 5240   3.261   5.370   5.018 -0.0347 -0.1936 -0.0459
 1745TIP3    H1 5241   3.333   5.389   4.958 -2.6822  0.6194 -3.2674
 1745TIP3    H2 5242   3.284   5.417   5.098  1.2887  3.3717 -2.2459
 1746TIP3   OH2 5243   6.035   5.762   2.689 -0.5672 -0.0278 -0.4788
 1746TIP3    H1 5244   6.071   5.789   2.605 -0.3040 -1.5703 -0.9023
 1746TIP3    H2 5245   5.974   5.832   2.714  0.1118  0.9259 -1.4516
 1747TIP3   OH2 5246   3.610   0.574   0.556  0.3249  0.0309 -0.4167
 1747TIP3    H1 5247   3.614   0.487   0.516 -1.8807 -0.2827 -0.1241
 1747TIP3    H2 5248   3.547   0.622   0.502 -0.6676  0.4724  1.0690
 1748TIP3   OH2 5249   2.442   4.455   4.651  0.3693 -0.0071  0.0235
 1748TIP3    H1 5250   2.366   4.402   4.672  0.7644 -0.1905  1.0352
 1748TIP3    H2 5251   2.437   4.468   4.556 -1.2990  0.5940  0.1692
 1749TIP3   OH2 5252   2.106   2.579   4.768  0.0193 -0.2353 -0.3157
 1749TIP3    H1 5253   2.142   2.508   4.714  0.9131 -0.2727  0.3091
 1749TIP3    H2 5254   2.130   2.555   4.858 -1.6351 -0.2932  0.1458
 1750TIP3   OH2 5255   6.150   1.406   2.102  0.1059  0.4670 -0.3074
 1750TIP3    H1 5256   6.066   1.442   2.076  0.1423  0.1488 -0.8643
 1750TIP3    H2 5257   6.185   1.471   2.164 -0.1743  1.0054 -0.7055
 1751TIP3   OH2 5258   6.271   2.112   1.003 -0.2731 -1.0959 -0.3405
 1751TIP3    H1 5259   6.293   2.184   1.063 -1.0376  1.8653 -3.3236
 1751TIP3    H2 5260   6.324   2.129   0.925 -0.5804 -3.7725 -1.2121
 1752TIP3   OH2 5261   5.140   4.927   0.328  0.2411 -0.0692  0.0554
 1752TIP3    H1 5262   5.172   4.990   0.392  0.4790  0.8807 -0.9645
 1752TIP3    H2 5263   5.212   4.863   0.319  0.8070  0.5987 -0.3067
 1753TIP3   OH2 5264   1.951   3.615   0.416 -0.5127 -0.2078  0.0888
 1753TIP3    H1 5265   1.994   3.663   0.345 -0.0919 -2.2693 -1.1439
 1753TIP3    H2 5266   1.928   3.530   0.377 -4.1301  0.0724  1.1709
 1754TIP3   OH2 5267   0.203   2.900   1.853 -0.0251 -0.1457 -0.4240
 1754TIP3    H1 5268   0.277   2.849   1.820 -0.0142 -0.8667  0.6614
 1754TIP3    H2 5269   0.243   2.977   1.893  0.1377 -0.4743  0.0521
 1755TIP3   OH2 5270   4.203   0.156   2.038 -0.9829 -0.5286  0.4047
 1755TIP3    H1 5271   4.124   0.166   1.985  0.3283  0.6923 -1.4892
 1755TIP3    H2 5272   4.274   0.160   1.974  0.6272 -1.0860  2.0889
 1756TIP3   OH2 5273   4.037   5.873   3.775  0.3121 -0.8147 -0.0717
 1756TIP3    H1 5274   4.123   5.832   3.771  0.2263 -1.0693  0.5271
 1756TIP3    H2 5275   4.055   5.966   3.788  0.4942 -0.9437  0.6194
 1757TIP3   OH2 5276   5.238   1.061   3.165  0.4066 -0.5246  0.0563
 1757TIP3    H1 5277   5.231   0.993   3.233  0.7644  1.4876  2.2357
 1757TIP3    H2 5278   5.147   1.076   3.138  0.2415 -1.2716  0.1633
 1758TIP3   OH2 5279   4.843   0.629   1.112  0.1152  0.4229  0.0315
 1758TIP3    H1 5280   4.773   0.645   1.175 -2.8160 -0.5138 -2.7755
 1758TIP3    H2 5281   4.868   0.716   1.080 -0.1226  0.7278  0.6640
 1759TIP3   OH2 5282   1.267   4.738   4.420  0.5315  0.1871 -0.0410
 1759TIP3    H1 5283   1.289   4.814   4.366  0.8808  0.0432 -0.1028
 1759TIP3    H2 5284   1.223   4.775   4.497  0.8794  0.4690  0.0250
 1760TIP3   OH2 5285   2.628   0.465   5.103 -0.2465  0.3423 -0.1821
 1760TIP3    H1 5286   2.647   0.375   5.077  1.7443  1.0131 -1.2041
 1760TIP3    H2 5287   2.593   0.506   5.024 -2.0205  0.2803  0.5207
 1761TIP3   OH2 5288   6.208   5.614   4.118  0.3302  0.3161  0.0034
 1761TIP3    H1 5289   6.146   5.594   4.048 -1.3653  1.6694  1.0381
 1761TIP3    H2 5290   6.282   5.655   4.074 -1.7032  3.3588 -0.8944
 1762TIP3   OH2 5291   6.229   0.542   4.589  0.9411 -0.0234  0.4015
 1762TIP3    H1 5292   6.144   0.585   4.577  0.9793  0.0149  0.2690
 1762TIP3    H2 5293   6.282   0.574   4.517  0.1630 -2.3100 -1.3142
 1763TIP3   OH2 5294   3.621   5.574   3.538 -0.1235  0.1087  0.1058
 1763TIP3    H1 5295   3.701   5.621   3.563  0.6488 -0.6664 -0.8567
 1763TIP3    H2 5296   3.622   5.573   3.442 -0.6731 -0.9421  0.0957
 1764TIP3   OH2 5297   0.224   3.064   4.783 -0.8098 -0.9227  0.2715
 1764TIP3    H1 5298   0.156   3.013   4.737 -0.5393 -2.8594  1.8608
 1764TIP3    H2 5299   0.306   3.031   4.747 -0.6146  1.0463 -1.2672
 1765TIP3   OH2 5300   5.611   3.036   0.610 -0.5275 -0.4453 -0.4184
 1765TIP3    H1 5301   5.659   2.978   0.669 -1.0882 -1.1968 -0.6889
 1765TIP3    H2 5302   5.668   3.046   0.534 -0.3788 -0.5401 -0.3200
 1766TIP3   OH2 5303   1.360   3.923   3.238  0.0215  0.5938  0.0630
 1766TIP3    H1 5304   1.350   3.889   3.149  1.5609 -0.3827  0.2116
 1766TIP3    H2 5305   1.431   3.987   3.231  1.9219 -1.2967  0.9555
 1767TIP3   OH2 5306   3.741   5.728   4.612  0.4668  0.0591 -0.4074
 1767TIP3    H1 5307   3.808   5.781   4.656 -1.0072  0.4951  1.4621
 1767TIP3    H2 5308   3.676   5.792   4.581  0.3666 -0.4209 -1.2191
 1768TIP3   OH2 5309   2.067   3.727   1.462 -0.0626  0.1858 -0.0163
 1768TIP3    H1 5310   2.026   3.812   1.474 -0.0572 -0.0629  2.4584
 1768TIP3    H2 5311   2.070   3.714   1.368 -1.8475  2.0487 -0.4025
 1769TIP3   OH2 5312   5.460   4.515   4.124  0.0091  0.5475 -0.5639
 1769TIP3    H1 5313   5.369   4.493   4.105  0.1210 -0.7041  0.1824
 1769TIP3    H2 5314   5.477   4.474   4.209  1.1602  1.0948 -0.5067
 1770TIP3   OH2 5315   0.385   1.160   2.714  0.1333  0.4950 -0.6102
 1770TIP3    H1 5316   0.342   1.094   2.659  0.1350 -0.2399  0.2429
 1770TIP3    H2 5317   0.349   1.145   2.802  0.8287  1.0221 -0.2225
 1771TIP3   OH2 5318   1.164   1.259   2.044 -0.2357 -0.3045  0.5090
 1771TIP3    H1 5319   1.156   1.189   2.110  0.3749 -0.7602  0.1122
 1771TIP3    H2 5320   1.078   1.301   2.043 -0.4528 -0.7232  1.1235
 1772TIP3   OH2 5321   4.716   3.129   0.795  0.4510  0.2113 -0.2466
 1772TIP3    H1 5322   4.737   3.159   0.707 -0.0730  1.3383 -0.0036
 1772TIP3    H2 5323   4.794   3.082   0.824  0.9448  0.5562 -0.9916
 1773TIP3   OH2 5324   2.533   2.263   3.875  0.3210  0.3985 -0.1461
 1773TIP3    H1 5325   2.440   2.255   3.854  0.4861 -1.6149 -0.2797
 1773TIP3    H2 5326   2.546   2.357   3.892 -1.7520  0.6862  0.0557
 1774TIP3   OH2 5327   4.450   3.961   1.553 -0.1876  0.3515 -0.1527
 1774TIP3    H1 5328   4.505   3.981   1.629  0.3014  1.7731 -0.8429
 1774TIP3    H2 5329   4.381   4.028   1.555 -0.2669  0.2993 -0.8496
 1775TIP3   OH2 5330   0.757   0.112   2.005 -0.7920 -0.4633 -0.5138
 1775TIP3    H1 5331   0.661   0.109   2.012 -0.7471  0.7338  1.0153
 1775TIP3    H2 5332   0.785   0.021   2.014 -1.7545 -0.7584 -0.3903
 1776TIP3   OH2 5333   0.124   4.168   2.945 -0.3937  0.0251  0.4601
 1776TIP3    H1 5334   0.184   4.099   2.973  0.8988 -0.9894 -3.9482
 1776TIP3    H2 5335   0.038   4.126   2.942  0.2784 -1.3772 -1.5702
 1777TIP3   OH2 5336   4.036   5.742   5.153  0.5512 -0.2512  0.3047
 1777TIP3    H1 5337   4.117   5.769   5.109  0.3566 -0.5555 -0.2575
 1777TIP3    H2 5338   3.976   5.814   5.139  1.1246  0.5732  1.8855
 1778TIP3   OH2 5339   3.945   1.980   0.995  0.1049  0.5587 -0.3363
 1778TIP3    H1 5340   3.924   2.071   0.975 -1.3355  0.6585  1.3717
 1778TIP3    H2 5341   3.860   1.935   0.994  0.5600 -0.3738  0.6748
 1779TIP3   OH2 5342   3.462   0.870   3.269  0.2728 -0.0521  0.0560
 1779TIP3    H1 5343   3.482   0.952   3.222 -1.9235  0.7854  0.4738
 1779TIP3    H2 5344   3.392   0.894   3.329 -1.8589 -2.6787 -1.2193
 1780TIP3   OH2 5345   5.180   1.083   2.075  0.0717  0.5727 -0.4421
 1780TIP3    H1 5346   5.203   1.065   1.984 -1.9161  1.1904 -1.1309
 1780TIP3    H2 5347   5.186   0.998   2.119  1.6844  0.3805 -0.9652
 1781TIP3   OH2 5348   4.151   1.173   3.330 -0.2039  0.0951  0.4033
 1781TIP3    H1 5349   4.173   1.088   3.368  2.6678  0.3120 -0.5069
 1781TIP3    H2 5350   4.234   1.221   3.330 -0.6910  1.2285 -3.2004
 1782TIP3   OH2 5351   1.340   4.682   1.804 -0.0837  0.1726 -0.2072
 1782TIP3    H1 5352   1.327   4.749   1.872  2.4538  0.3712  0.1733
 1782TIP3    H2 5353   1.355   4.601   1.853  3.5476  0.6201 -0.2817
 1783TIP3   OH2 5354   1.827   0.146   5.072  0.0689 -0.2656 -0.2113
 1783TIP3    H1 5355   1.774   0.196   5.134 -0.3195 -0.2185 -0.5810
 1783TIP3    H2 5356   1.811   0.054   5.094  0.0089 -0.2467 -0.1780
 1784TIP3   OH2 5357   1.995   2.799   2.182  0.3579 -0.5477 -0.4691
 1784TIP3    H1 5358   1.942   2.871   2.216 -0.6443 -1.0476 -0.9650
 1784TIP3    H2 5359   2.023   2.828   2.095  1.3421 -0.0803 -0.0251
 1785TIP3   OH2 5360   1.776   5.966   3.982  0.0055  0.1278 -0.3935
 1785TIP3    H1 5361   1.811   6.055   3.972 -0.7608  0.2866 -1.7513
 1785TIP3    H2 5362   1.853   5.910   3.976  0.2491  0.5746 -1.6969
 1786TIP3   OH2 5363   4.819   1.293   1.117  0.2588 -0.6156  0.4178
 1786TIP3    H1 5364   4.730   1.293   1.080  0.3726 -0.3067  0.1379
 1786TIP3    H2 5365   4.813   1.236   1.193 -0.3142 -0.1644  0.7196
 1787TIP3   OH2 5366   4.908   1.949   3.246 -0.1471 -0.3531  0.3142
 1787TIP3    H1 5367   4.869   2.018   3.193  0.8151  0.7509  0.9811
 1787TIP3    H2 5368   4.866   1.958   3.332 -1.5011 -1.9538 -0.1229
 1788TIP3   OH2 5369   1.972   4.292   0.513  0.1982  1.0629 -0.1130
 1788TIP3    H1 5370   1.975   4.334   0.598 -0.1587 -1.3095  1.1467
 1788TIP3    H2 5371   2.051   4.238   0.509 -0.4226  0.1685 -0.7198
 1789TIP3   OH2 5372   0.639   0.823   5.150  0.0656  0.0474 -0.2985
 1789TIP3    H1 5373   0.624   0.899   5.094  1.3660  0.0800 -0.6299
 1789TIP3    H2 5374   0.685   0.859   5.226 -2.4271  0.1587  1.2833
 1790TIP3   OH2 5375   6.140   4.806   1.041 -0.4308 -0.1224  0.0295
 1790TIP3    H1 5376   6.045   4.814   1.032 -0.3131 -0.7767 -3.6333
 1790TIP3    H2 5377   6.154   4.712   1.055 -0.3419 -0.3007 -1.1020
 1791TIP3   OH2 5378   0.946   5.563   0.708 -0.1984  0.8753  0.4896
 1791TIP3    H1 5379   0.973   5.497   0.644  1.0514  1.6865  0.1303
 1791TIP3    H2 5380   0.856   5.539   0.732 -0.1579 -0.2971 -0.4510
 1792TIP3   OH2 5381  -0.026   4.467   1.614 -0.3478  0.1938  0.3528
 1792TIP3    H1 5382  -0.027   4.563   1.616 -0.1945  0.2069 -0.1060
 1792TIP3    H2 5383   0.056   4.442   1.655 -0.6063  0.2436  0.9092
 1793TIP3   OH2 5384   1.306   3.739   4.719 -0.3586 -0.0156 -0.5603
 1793TIP3    H1 5385   1.359   3.732   4.799 -1.3463  0.9169  0.2077
 1793TIP3    H2 5386   1.366   3.772   4.653  0.6103 -1.3019 -0.3537
 1794TIP3   OH2 5387   5.891   3.812   2.169 -0.6237  0.3767  0.5584
 1794TIP3    H1 5388   5.864   3.723   2.146  1.0380 -0.2302  0.8296
 1794TIP3    H2 5389   5.826   3.868   2.127 -0.6067 -0.8799 -1.2443
 1795TIP3   OH2 5390   2.217   2.135   0.029 -0.2178 -0.7392  0.4032
 1795TIP3    H1 5391   2.166   2.210  -0.002  0.3932 -0.8947 -1.0576
 1795TIP3    H2 5392   2.156   2.086   0.084 -1.3581 -0.3975 -0.5060
 1796TIP3   OH2 5393   3.546   5.093   3.840  0.0475 -0.1162 -0.2411
 1796TIP3    H1 5394   3.506   5.013   3.874  0.3710  0.1144  0.6922
 1796TIP3    H2 5395   3.518   5.096   3.748 -1.4192 -0.3672  0.1774
 1797TIP3   OH2 5396   4.454   2.172   4.717  0.4383  0.1557 -0.3133
 1797TIP3    H1 5397   4.406   2.237   4.665  0.3637  0.3092 -0.0503
 1797TIP3    H2 5398   4.527   2.221   4.755 -0.1752  0.3044  0.6828
 1798TIP3   OH2 5399   1.232   2.062   2.542 -0.0350  0.0850 -0.5090
 1798TIP3    H1 5400   1.256   2.065   2.635 -0.0575  0.7594 -0.5226
 1798TIP3    H2 5401   1.306   2.102   2.497  0.2938 -0.8807 -0.8572
 1799TIP3   OH2 5402   0.070   5.141   3.262 -0.4473 -0.5263  0.4327
 1799TIP3    H1 5403  -0.010   5.113   3.305 -1.1529 -1.6003 -1.4436
 1799TIP3    H2 5404   0.040   5.190   3.185  0.7000 -0.6353 -0.1062
 1800TIP3   OH2 5405   4.227   0.457   0.492  0.8869  0.1833  0.2755
 1800TIP3    H1 5406   4.191   0.486   0.577  0.1771  0.9214 -0.2591
 1800TIP3    H2 5407   4.197   0.524   0.430  0.5302 -0.8883 -0.7406
 1801TIP3   OH2 5408   2.786   4.595   2.409 -0.4887  0.0051 -0.0939
 1801TIP3    H1 5409   2.768   4.560   2.322 -1.4463  1.2550 -0.4247
 1801TIP3    H2 5410   2.708   4.576   2.460  0.6440 -2.0625  0.9823
 1802TIP3   OH2 5411   6.308   2.138   3.390  1.1163  0.2868 -0.2040
 1802TIP3    H1 5412   6.295   2.075   3.461 -1.1231  0.0642 -0.7342
 1802TIP3    H2 5413   6.221   2.174   3.374  2.2720  3.4613 -0.0462
 1803TIP3   OH2 5414   2.988   2.501   1.957  0.1678 -0.5030 -0.0026
 1803TIP3    H1 5415   2.946   2.542   1.881  0.8303 -0.8293 -0.5436
 1803TIP3    H2 5416   2.916   2.491   2.020 -0.3748 -0.1724 -0.5491
 1804TIP3   OH2 5417   2.847   4.880   1.746 -0.2048 -0.2330 -0.5958
 1804TIP3    H1 5418   2.783   4.814   1.719 -0.4384  0.2174 -1.1850
 1804TIP3    H2 5419   2.892   4.842   1.821 -1.2382 -0.5208 -0.1066
 1805TIP3   OH2 5420   0.991   2.237   1.330 -0.0225 -0.1559  0.4239
 1805TIP3    H1 5421   0.909   2.262   1.374 -0.0450  0.6678 -0.0748
 1805TIP3    H2 5422   1.057   2.242   1.399 -0.3321 -0.5017  0.7525
 1806TIP3   OH2 5423   0.008   5.362   4.575 -0.1110 -0.1822  0.1841
 1806TIP3    H1 5424  -0.059   5.321   4.521 -2.2974  1.2526  1.6628
 1806TIP3    H2 5425   0.071   5.397   4.512 -0.7707 -1.4601 -1.2647
 1807TIP3   OH2 5426   5.786   1.227   4.726  0.1079  0.0395  0.0881
 1807TIP3    H1 5427   5.807   1.315   4.695 -1.4601  0.4842  0.1641
 1807TIP3    H2 5428   5.869   1.191   4.755  0.5713  2.0697  1.5150
 1808TIP3   OH2 5429   4.998   1.684   3.179 -0.3607 -0.6872  0.4034
 1808TIP3    H1 5430   5.038   1.680   3.266 -1.5038 -0.1221  0.9777
 1808TIP3    H2 5431   4.953   1.769   3.177  0.9646  0.0631 -1.3538
 1809TIP3   OH2 5432   2.382   0.417   0.676 -0.9315 -0.4571 -0.1883
 1809TIP3    H1 5433   2.423   0.503   0.683  1.0590 -1.4426  2.0414
 1809TIP3    H2 5434   2.289   0.435   0.662 -0.5079  2.0200 -0.2268
 1810TIP3   OH2 5435   2.032   5.878   0.910  0.3065  0.0334 -0.1878
 1810TIP3    H1 5436   2.118   5.859   0.948 -0.4962 -1.4353  1.0141
 1810TIP3    H2 5437   2.046   5.870   0.816  1.6925  0.7928 -0.0822
 1811TIP3   OH2 5438   3.649   2.214   3.811 -0.3608 -0.0962 -0.1634
 1811TIP3    H1 5439   3.703   2.292   3.796  0.3312 -0.2033  1.5278
 1811TIP3    H2 5440   3.627   2.218   3.904 -1.7943 -1.0135 -0.4239
 1812TIP3   OH2 5441   0.175   3.378   4.240 -0.3389  0.2320  0.2029
 1812TIP3    H1 5442   0.164   3.452   4.179  0.3730  1.0772  1.0550
 1812TIP3    H2 5443   0.090   3.334   4.241 -0.3688  0.2117 -1.3694
 1813TIP3   OH2 5444   2.622   4.389   2.610 -0.2507  0.7786  0.3844
 1813TIP3    H1 5445   2.695   4.406   2.669  0.3732 -0.2901 -0.0679
 1813TIP3    H2 5446   2.584   4.307   2.642 -0.2993  0.5281 -0.3110
 1814TIP3   OH2 5447   5.131   2.495   1.396  0.4045  0.4812  0.1588
 1814TIP3    H1 5448   5.084   2.540   1.326  1.1232  0.5639 -0.2717
 1814TIP3    H2 5449   5.194   2.558   1.428 -0.6226  0.8131  1.6183
 1815TIP3   OH2 5450   1.722   5.107   1.429  1.0656 -0.6807  0.1836
 1815TIP3    H1 5451   1.641   5.147   1.461  2.0322  0.2796  1.5407
 1815TIP3    H2 5452   1.732   5.140   1.340  0.7129  0.3855  0.5216
 1816TIP3   OH2 5453   4.734   5.188   0.787 -0.4419  0.6350 -0.3039
 1816TIP3    H1 5454   4.770   5.132   0.856 -1.3992  0.3534 -0.0206
 1816TIP3    H2 5455   4.795   5.177   0.714 -0.3970 -0.4933 -0.1222
 1817TIP3   OH2 5456   5.948   1.647   3.549  0.2734 -0.6059 -0.8172
 1817TIP3    H1 5457   5.976   1.607   3.467 -0.9930 -0.1476 -1.4933
 1817TIP3    H2 5458   5.907   1.576   3.599  1.6599 -1.0466 -0.2498
 1818TIP3   OH2 5459   2.481   0.618   3.143  0.0574 -0.1268  0.4315
 1818TIP3    H1 5460   2.566   0.607   3.100  0.0353  1.3972 -0.0757
 1818TIP3    H2 5461   2.418   0.605   3.073 -0.1184 -0.8044  0.7104
 1819TIP3   OH2 5462   5.878   5.752   1.870  0.0576  0.2607  0.1281
 1819TIP3    H1 5463   5.852   5.668   1.909  0.2783  0.9450  1.8143
 1819TIP3    H2 5464   5.885   5.812   1.944  2.6104  1.1060 -0.6718
 1820TIP3   OH2 5465   1.185   2.684   4.442  0.0266  0.3467  0.8905
 1820TIP3    H1 5466   1.149   2.772   4.429 -0.7296 -0.2267 -1.2510
 1820TIP3    H2 5467   1.114   2.625   4.419  1.6390 -0.8048 -1.5233
 1821TIP3   OH2 5468   5.552   2.173   3.499 -0.4905 -0.0654  0.1728
 1821TIP3    H1 5469   5.539   2.267   3.487 -1.3512 -0.3512 -1.2937
 1821TIP3    H2 5470   5.527   2.134   3.416  0.6353 -1.5420  0.4880
 1822TIP3   OH2 5471   5.010   5.085   3.737  0.1194  0.5653 -0.0027
 1822TIP3    H1 5472   5.053   5.003   3.709 -0.3878 -0.1539  1.2156
 1822TIP3    H2 5473   5.049   5.152   3.682  1.0510 -0.4074 -0.5830
 1823TIP3   OH2 5474   4.422   4.573   3.647  0.3651 -0.2295 -0.4810
 1823TIP3    H1 5475   4.432   4.528   3.731  1.7604  0.1635 -0.4088
 1823TIP3    H2 5476   4.328   4.583   3.637  0.1703  0.7774  1.6450
 1824TIP3   OH2 5477   2.059   2.559   2.630  0.3654  0.3138  0.2946
 1824TIP3    H1 5478   2.091   2.601   2.549  0.8862  0.5141  0.5990
 1824TIP3    H2 5479   2.052   2.466   2.607  1.6533  0.1799  0.3540
 1825TIP3   OH2 5480   0.552   2.802   3.903  0.2028 -0.2636 -0.0850
 1825TIP3    H1 5481   0.535   2.895   3.885  0.8496  0.1812  1.3996
 1825TIP3    H2 5482   0.577   2.800   3.995  0.7240 -1.8578 -0.2279
 1826TIP3   OH2 5483   5.646   1.856   2.035  0.2401  0.0316 -0.1311
 1826TIP3    H1 5484   5.600   1.900   1.964 -1.5731 -3.4822 -1.3531
 1826TIP3    H2 5485   5.599   1.883   2.114  0.1896  1.4298 -0.6113
 1827TIP3   OH2 5486   4.349   2.011   0.696  0.5298  0.2469  0.0027
 1827TIP3    H1 5487   4.390   1.946   0.639  2.4940  1.9440 -0.6693
 1827TIP3    H2 5488   4.415   2.027   0.764 -0.4056  0.6904  0.8203
 1828TIP3   OH2 5489   3.159   0.819   2.063 -0.4932  0.3253 -0.0858
 1828TIP3    H1 5490   3.166   0.833   1.968 -0.0812 -0.4520 -0.1763
 1828TIP3    H2 5491   3.135   0.727   2.072 -0.7065  0.4391  0.5653
 1829TIP3   OH2 5492   0.436   1.005   2.224 -0.7307  0.8110 -0.2173
 1829TIP3    H1 5493   0.459   0.957   2.144  0.9336 -2.6481  2.0984
 1829TIP3    H2 5494   0.342   1.019   2.217 -0.6724  0.4278 -2.6221
 1830TIP3   OH2 5495   5.307   5.635   0.243  0.4178  0.1616  0.3497
 1830TIP3    H1 5496   5.237   5.577   0.214  0.3170 -0.5334  1.8902
 1830TIP3    H2 5497   5.325   5.690   0.167 -0.5189 -0.8758 -0.6699
 1831TIP3   OH2 5498   3.052   4.497   2.005  0.5910  0.0980 -0.0973
 1831TIP3    H1 5499   3.142   4.482   1.976  0.0306 -2.2529 -0.8349
 1831TIP3    H2 5500   3.021   4.569   1.950  1.0592 -1.1354 -2.0634
 1832TIP3   OH2 5501   4.077   1.496   1.643 -0.3708  0.6778 -0.1870
 1832TIP3    H1 5502   4.006   1.464   1.589 -0.6587  0.5128  0.2834
 1832TIP3    H2 5503   4.040   1.503   1.731  0.2076  0.5275  0.0778
 1833TIP3   OH2 5504   0.305   2.825   4.642  0.1207 -0.2640 -0.5677
 1833TIP3    H1 5505   0.316   2.738   4.604  1.5345 -0.2119 -0.3469
 1833TIP3    H2 5506   0.217   2.825   4.677  0.6246 -2.1915  0.8717
 1834TIP3   OH2 5507   2.462   1.013   0.023 -0.6915  0.1733 -1.0552
 1834TIP3    H1 5508   2.483   1.088  -0.032 -0.8738  0.6589 -0.4855
 1834TIP3    H2 5509   2.546   0.975   0.046 -0.4177  1.5812  0.5041
 1835TIP3   OH2 5510   4.494   3.034   3.719 -0.5020  0.5758 -0.2017
 1835TIP3    H1 5511   4.455   2.953   3.686 -0.0427  0.7480 -1.2109
 1835TIP3    H2 5512   4.587   3.025   3.699 -0.0617  0.3772  1.7364
 1836TIP3   OH2 5513   4.810   3.483   0.697  0.4791  0.1120 -0.1366
 1836TIP3    H1 5514   4.906   3.484   0.695  0.4806  0.0460 -1.8964
 1836TIP3    H2 5515   4.785   3.553   0.636 -0.5926  0.3268  0.5453
 1837TIP3   OH2 5516   1.407   3.768   0.187  0.1320 -0.2785  0.2747
 1837TIP3    H1 5517   1.410   3.732   0.275  0.3659  0.6993  0.6838
 1837TIP3    H2 5518   1.331   3.825   0.187 -1.0145 -1.7338 -0.7674
 1838TIP3   OH2 5519   4.263   1.406   3.092 -0.3346  0.3087  0.0943
 1838TIP3    H1 5520   4.187   1.463   3.085 -1.6082 -0.8895  2.6614
 1838TIP3    H2 5521   4.230   1.318   3.071  0.8224  0.0370 -0.6873
 1839TIP3   OH2 5522   5.821   5.028   4.523 -0.0443 -0.1752  0.0905
 1839TIP3    H1 5523   5.899   4.997   4.568 -2.0710 -1.3845  3.0815
 1839TIP3    H2 5524   5.761   4.954   4.526 -1.7388  1.0785 -1.0456
 1840TIP3   OH2 5525   1.846   4.103   2.947  0.5088 -0.2916 -0.2339
 1840TIP3    H1 5526   1.809   4.017   2.967 -0.1108 -0.5017 -2.1201
 1840TIP3    H2 5527   1.935   4.085   2.917 -0.1288 -0.4883 -2.1476
 1841TIP3   OH2 5528   2.070   0.239   5.148  0.5897 -0.2335 -0.2028
 1841TIP3    H1 5529   1.988   0.212   5.106 -0.0279  0.1676  0.7176
 1841TIP3    H2 5530   2.045   0.259   5.238  1.9204 -1.2866  0.4337
 1842TIP3   OH2 5531   5.137   4.807   0.643  0.2177 -0.5839  0.0099
 1842TIP3    H1 5532   5.202   4.878   0.639  0.5479 -0.8499  0.5312
 1842TIP3    H2 5533   5.182   4.731   0.606  0.2547 -0.8062  0.5062
 1843TIP3   OH2 5534   4.838   3.643   4.423 -0.0378  0.1324  0.2961
 1843TIP3    H1 5535   4.782   3.630   4.346 -0.5526  1.3182  0.4502
 1843TIP3    H2 5536   4.779   3.630   4.498  0.3632 -0.5881  0.5014
 1844TIP3   OH2 5537   3.221   3.748   4.388  0.4125 -0.6232 -0.0518
 1844TIP3    H1 5538   3.189   3.658   4.395  0.3445 -0.6378 -0.4959
 1844TIP3    H2 5539   3.142   3.802   4.390  0.3451 -0.6576 -1.1144
 1845TIP3   OH2 5540   5.703   4.837   4.831  0.7040  0.2370 -0.3885
 1845TIP3    H1 5541   5.656   4.920   4.820 -0.1009 -0.0943  0.4724
 1845TIP3    H2 5542   5.706   4.824   4.926  0.3536 -1.0011 -0.5441
 1846TIP3   OH2 5543   3.860   5.450   3.844 -0.1697  0.2328  0.4102
 1846TIP3    H1 5544   3.929   5.404   3.891  0.1745 -1.6495 -1.7795
 1846TIP3    H2 5545   3.902   5.482   3.765 -1.4140  0.6058 -0.1251
 1847TIP3   OH2 5546   5.811   5.484   4.736  0.0836  0.4205  0.2436
 1847TIP3    H1 5547   5.854   5.559   4.777  1.6764 -0.4479  0.2479
 1847TIP3    H2 5548   5.769   5.438   4.808 -0.1346  0.8109  0.3693
 1848TIP3   OH2 5549   4.555   3.305   1.994 -0.3378  0.4605 -0.0834
 1848TIP3    H1 5550   4.539   3.399   2.010  0.2273  0.5512 -0.0338
 1848TIP3    H2 5551   4.528   3.262   2.076 -3.9042  0.1675 -1.2264
 1849TIP3   OH2 5552   4.959   0.217   3.631  0.4923 -0.1019 -0.6943
 1849TIP3    H1 5553   5.019   0.192   3.701  2.6917  1.4584 -1.8923
 1849TIP3    H2 5554   4.976   0.154   3.561  0.0754 -0.1927 -0.7148
 1850TIP3   OH2 5555   5.699   2.049   0.229 -0.0934  0.3059  0.4211
 1850TIP3    H1 5556   5.776   2.100   0.253 -0.3166  1.3085 -0.8775
 1850TIP3    H2 5557   5.691   2.060   0.134 -2.2809  0.9174  0.6166
 1851TIP3   OH2 5558   5.011   2.278   0.846  0.1552  0.4310  0.0881
 1851TIP3    H1 5559   4.959   2.354   0.819  0.4422  0.9380  0.9225
 1851TIP3    H2 5560   5.079   2.269   0.778  0.6658  1.4768  0.4439
 1852TIP3   OH2 5561   4.281   0.588   3.652  0.1410 -0.0499  0.2837
 1852TIP3    H1 5562   4.320   0.526   3.590  0.6088 -1.0307  1.5314
 1852TIP3    H2 5563   4.347   0.656   3.662  0.3617 -0.2534  0.2431
 1853TIP3   OH2 5564   5.197   3.526   3.884  0.1823  0.5282 -0.4548
 1853TIP3    H1 5565   5.167   3.437   3.867 -0.7680  1.0749 -1.8079
 1853TIP3    H2 5566   5.153   3.579   3.818  3.3419  1.5591 -1.9390
 1854TIP3   OH2 5567   4.687   5.376   4.739  0.0247 -0.0661 -0.1525
 1854TIP3    H1 5568   4.734   5.449   4.698 -2.6319  0.8005 -1.8580
 1854TIP3    H2 5569   4.606   5.368   4.689 -1.6954 -1.4572  2.6214
 1855TIP3   OH2 5570   1.599   1.470   0.624  0.4344 -0.0794  0.0619
 1855TIP3    H1 5571   1.672   1.526   0.602 -0.4858  1.3073  0.4025
 1855TIP3    H2 5572   1.540   1.475   0.549  0.2139 -0.3505  0.2118
 1856TIP3   OH2 5573   4.380   0.364   3.241 -0.6718 -0.0280  0.1959
 1856TIP3    H1 5574   4.396   0.270   3.229  0.4835  0.1507  0.2411
 1856TIP3    H2 5575   4.332   0.390   3.163  0.1758 -0.3864 -0.4504
 1857TIP3   OH2 5576   2.895   3.929   0.199 -0.2518  0.1106 -0.2890
 1857TIP3    H1 5577   2.950   3.903   0.272 -3.1244 -0.7509  1.7088
 1857TIP3    H2 5578   2.895   4.025   0.202 -0.2027  0.0821  0.6981
 1858TIP3   OH2 5579   2.250   2.200   0.979 -0.0055  0.0264 -0.1392
 1858TIP3    H1 5580   2.167   2.187   1.024  0.6502 -1.1209  0.8045
 1858TIP3    H2 5581   2.243   2.288   0.941 -1.5611  0.0243  0.0608
 1859TIP3   OH2 5582   4.665   4.230   0.740  0.3792 -0.1086  0.5791
 1859TIP3    H1 5583   4.733   4.163   0.734  0.0510 -0.3225 -1.1646
 1859TIP3    H2 5584   4.676   4.267   0.828  1.7642 -1.1586  0.8846
 1860TIP3   OH2 5585   4.151   1.511   4.715  0.9735  0.2318  0.0870
 1860TIP3    H1 5586   4.167   1.539   4.805  0.8646  1.0381 -0.1355
 1860TIP3    H2 5587   4.090   1.438   4.724 -0.6668  1.5809  0.6005
 1861TIP3   OH2 5588   0.880   3.121   4.256  0.1766  0.1736  0.0378
 1861TIP3    H1 5589   0.914   3.190   4.313  0.6328 -0.0381  0.0274
 1861TIP3    H2 5590   0.924   3.041   4.286  0.9933  0.1750 -1.0730
 1862TIP3   OH2 5591   4.436   2.558   5.063  0.3215  0.4360 -0.4362
 1862TIP3    H1 5592   4.393   2.475   5.081  1.6857 -0.4962 -1.2660
 1862TIP3    H2 5593   4.527   2.534   5.043  0.9171  2.1897 -0.0390
 1863TIP3   OH2 5594   3.449   0.626   1.399 -0.4024 -0.5493  0.0799
 1863TIP3    H1 5595   3.354   0.636   1.393 -0.1814  1.2205 -1.1931
 1863TIP3    H2 5596   3.473   0.580   1.318  0.1419  2.4390 -1.6257
 1864TIP3   OH2 5597   3.452   5.728   2.803  0.0578  0.2609 -0.5382
 1864TIP3    H1 5598   3.527   5.670   2.789 -0.2017 -0.3572  0.5176
 1864TIP3    H2 5599   3.488   5.816   2.795  0.7776 -0.0283 -0.6045
 1865TIP3   OH2 5600   3.477   4.648   1.360  0.5360  0.1872  0.0926
 1865TIP3    H1 5601   3.512   4.720   1.307 -0.1501  0.5769  0.1568
 1865TIP3    H2 5602   3.474   4.573   1.299 -0.4469  0.6875 -0.5002
 1866TIP3   OH2 5603   6.140   0.659   3.647 -0.7865  0.0620 -0.4915
 1866TIP3    H1 5604   6.152   0.564   3.656  0.2174  0.1481 -0.7682
 1866TIP3    H2 5605   6.223   0.696   3.676 -0.8412  0.8018 -1.2443
 1867TIP3   OH2 5606   2.510   3.199   3.947  0.0975 -0.4894 -0.4701
 1867TIP3    H1 5607   2.589   3.247   3.973 -0.6877 -0.0054  1.1890
 1867TIP3    H2 5608   2.537   3.107   3.944  0.6689 -0.3558  0.3471
 1868TIP3   OH2 5609   2.208   4.077   3.508 -0.4252 -0.1861 -0.2612
 1868TIP3    H1 5610   2.148   4.048   3.578  0.4759 -0.6199  0.3464
 1868TIP3    H2 5611   2.265   4.002   3.493  1.4218  0.9638  0.7490
 1869TIP3   OH2 5612   5.116   3.376   0.359 -0.1186  1.0108 -0.4741
 1869TIP3    H1 5613   5.053   3.316   0.319 -0.2407  0.9972 -0.2594
 1869TIP3    H2 5614   5.071   3.411   0.436  0.5263  0.1641  0.3136
 1870TIP3   OH2 5615   2.462   0.959   3.156 -0.0509  0.4613 -0.5940
 1870TIP3    H1 5616   2.547   0.957   3.200 -0.4061  0.3214  0.1025
 1870TIP3    H2 5617   2.477   0.917   3.072 -0.1221 -2.5815  0.7960
 1871TIP3   OH2 5618   5.422   5.726   4.541  0.0076 -0.1303 -0.1894
 1871TIP3    H1 5619   5.422   5.714   4.636  0.4768  0.2502 -0.1374
 1871TIP3    H2 5620   5.499   5.678   4.511 -0.0436 -0.1087 -0.3564
 1872TIP3   OH2 5621   3.825   5.767   3.589 -0.4171 -0.3655 -0.7723
 1872TIP3    H1 5622   3.815   5.862   3.583  1.9053 -0.0760 -0.8992
 1872TIP3    H2 5623   3.911   5.754   3.630 -1.3810 -2.4328  0.8143
 1873TIP3   OH2 5624   4.990   5.243   4.436 -0.3160 -0.0908 -0.1045
 1873TIP3    H1 5625   5.047   5.318   4.419 -1.9171  1.2140 -0.0193
 1873TIP3    H2 5626   5.032   5.170   4.391  1.5797  0.7147  0.2511
 1874TIP3   OH2 5627   2.900   0.910   0.646  0.8098  0.5823  0.3747
 1874TIP3    H1 5628   2.893   0.846   0.717  0.6148  1.9333  1.6164
 1874TIP3    H2 5629   2.994   0.916   0.627  0.7326 -1.1494 -0.8281
 1875TIP3   OH2 5630   0.182   0.963   3.894  0.4997  0.0429 -0.1894
 1875TIP3    H1 5631   0.253   0.913   3.853  0.1912 -0.5846  0.0234
 1875TIP3    H2 5632   0.216   0.987   3.980 -0.0828 -1.6230  0.5632
 1876TIP3   OH2 5633   4.030   5.481   3.643  0.2384  0.4146 -0.1667
 1876TIP3    H1 5634   4.038   5.550   3.577 -1.3132  0.0687 -0.7585
 1876TIP3    H2 5635   4.114   5.436   3.642  0.1572  0.2463 -2.1369
 1877TIP3   OH2 5636   1.057   3.558   0.135 -0.3800  0.3260 -0.7464
 1877TIP3    H1 5637   1.130   3.510   0.173  0.5077  1.6188 -0.7376
 1877TIP3    H2 5638   1.020   3.499   0.070  1.6048  0.1803 -1.8013
 1878TIP3   OH2 5639   3.555   5.028   3.268  0.2993 -0.0260  0.0619
 1878TIP3    H1 5640   3.520   5.052   3.183 -1.0451 -1.2940  0.2257
 1878TIP3    H2 5641   3.532   4.935   3.279  0.7118  0.0255  1.6637
 1879TIP3   OH2 5642   0.933   3.572   2.771 -0.3848 -0.2773 -0.0786
 1879TIP3    H1 5643   0.907   3.660   2.800 -2.8891 -0.8716 -0.2870
 1879TIP3    H2 5644   0.864   3.546   2.710  2.3069 -0.9244 -3.0891
 1880TIP3   OH2 5645   3.087   0.531   1.678 -0.7168 -0.5135  0.2548
 1880TIP3    H1 5646   3.175   0.525   1.716 -1.2529 -1.6836  1.3610
 1880TIP3    H2 5647   3.039   0.458   1.716 -1.5139 -1.3462 -2.1290
 1881TIP3   OH2 5648   3.484   2.512   3.922 -0.4612  0.2348  0.2467
 1881TIP3    H1 5649   3.569   2.520   3.877  0.8439 -1.2212  2.3037
 1881TIP3    H2 5650   3.472   2.597   3.964 -0.8661  1.0147 -1.3611
 1882TIP3   OH2 5651   2.529   4.599   4.440 -0.2213 -0.0650  0.0233
 1882TIP3    H1 5652   2.450   4.610   4.493  0.0281 -1.1013  0.6442
 1882TIP3    H2 5653   2.500   4.615   4.350 -0.8444  0.8467  0.3748
 1883TIP3   OH2 5654   2.197   4.342   1.264  0.4184 -0.1137  0.0405
 1883TIP3    H1 5655   2.104   4.353   1.247  0.4987  1.0961  0.3296
 1883TIP3    H2 5656   2.211   4.247   1.257 -0.5430 -0.1893 -1.4564
 1884TIP3   OH2 5657   3.553   3.739   4.985 -0.0544 -0.1515  0.1201
 1884TIP3    H1 5658   3.473   3.692   5.007  0.8950 -1.5707  0.7357
 1884TIP3    H2 5659   3.526   3.831   4.976 -1.8046 -0.6680 -0.1786
 1885TIP3   OH2 5660   0.974   1.412   4.000  0.2846  0.4343 -0.1327
 1885TIP3    H1 5661   1.021   1.353   3.941  0.3793 -0.5843  0.9134
 1885TIP3    H2 5662   0.991   1.500   3.965  2.9291  0.1315  0.1420
 1886TIP3   OH2 5663   5.738   2.712   2.743 -0.0670 -0.2627  0.2758
 1886TIP3    H1 5664   5.712   2.759   2.822  0.6201 -0.0836  0.3977
 1886TIP3    H2 5665   5.665   2.727   2.682  1.3205  3.4313 -0.7533
 1887TIP3   OH2 5666   1.844   2.081   1.345  0.3141 -0.0600  0.0473
 1887TIP3    H1 5667   1.777   2.019   1.373 -1.5634  1.6292 -0.4471
 1887TIP3    H2 5668   1.805   2.127   1.271  1.3163  2.1782  0.8214
 1888TIP3   OH2 5669   6.025   3.910   2.912 -0.3238  0.2887 -0.1912
 1888TIP3    H1 5670   6.045   3.824   2.946 -0.3592  0.2031 -0.3822
 1888TIP3    H2 5671   5.995   3.894   2.822  0.9029  0.6123 -0.6776
 1889TIP3   OH2 5672   4.904   5.676   4.336 -0.0520 -0.0557  0.0799
 1889TIP3    H1 5673   4.984   5.690   4.387  0.0521  0.0537 -0.1153
 1889TIP3    H2 5674   4.901   5.750   4.275  0.6295 -0.9943 -1.1285
 1890TIP3   OH2 5675   3.656   1.914   2.125 -0.3748 -0.6234  0.3006
 1890TIP3    H1 5676   3.719   1.978   2.159  2.0027 -1.5702 -1.9674
 1890TIP3    H2 5677   3.608   1.961   2.058  0.2933 -0.7638 -0.2896
 1891TIP3   OH2 5678   3.574   4.796   4.716  0.0082  0.4745 -0.1477
 1891TIP3    H1 5679   3.649   4.745   4.686 -0.0107  0.7841 -0.7193
 1891TIP3    H2 5680   3.607   4.845   4.792 -0.0601 -0.6279  0.6199
 1892TIP3   OH2 5681   4.148   5.585   2.975 -0.1049 -0.1635 -0.0077
 1892TIP3    H1 5682   4.085   5.636   2.923 -0.1562  0.4005  0.5913
 1892TIP3    H2 5683   4.224   5.574   2.918 -0.5224 -0.3672 -0.5367
 1893TIP3   OH2 5684   3.935   2.632   0.266 -0.7990 -0.4614  0.0363
 1893TIP3    H1 5685   3.925   2.643   0.361  0.4187  1.2330  0.0174
 1893TIP3    H2 5686   3.856   2.669   0.229 -0.5915  0.3068  0.3448
 1894TIP3   OH2 5687   4.626   4.371   0.995 -0.4449 -0.4122 -0.2903
 1894TIP3    H1 5688   4.541   4.399   0.960 -0.7998 -1.2392 -0.1281
 1894TIP3    H2 5689   4.639   4.424   1.073  0.3121  1.3986 -1.5717
 1895TIP3   OH2 5690   3.460   3.540   3.252  0.0802  0.5308  0.4191
 1895TIP3    H1 5691   3.509   3.504   3.179 -1.0641 -0.2831  0.0182
 1895TIP3    H2 5692   3.368   3.528   3.228 -0.3421 -0.7841  2.4519
 1896TIP3   OH2 5693   2.568   5.686   1.857 -0.2738 -0.2528 -0.0262
 1896TIP3    H1 5694   2.621   5.650   1.928 -2.1484  0.0752  1.6202
 1896TIP3    H2 5695   2.502   5.620   1.839 -1.8960  1.0285  0.9445
 1897TIP3   OH2 5696   1.344   4.980   2.580 -0.5101  0.1061  0.2169
 1897TIP3    H1 5697   1.273   4.946   2.525  0.5446  0.4252 -1.4281
 1897TIP3    H2 5698   1.360   5.069   2.546  1.3140 -0.3185 -0.1342
 1898TIP3   OH2 5699   2.199   2.511   4.367  0.8457  0.4450 -0.0481
 1898TIP3    H1 5700   2.287   2.546   4.380  2.1266 -2.4646  0.0666
 1898TIP3    H2 5701   2.176   2.536   4.277  1.9350  1.0168 -0.1869
 1899TIP3   OH2 5702   3.385   4.471   1.142  0.1833  0.1465 -0.7386
 1899TIP3    H1 5703   3.299   4.437   1.165  0.7130 -1.4479 -0.9715
 1899TIP3    H2 5704   3.400   4.438   1.053  1.1905  0.0440 -0.5440
 1900TIP3   OH2 5705   1.813   5.065   3.069 -0.0489 -0.2380 -0.0643
 1900TIP3    H1 5706   1.864   5.029   3.141 -1.1047 -0.9189  0.3694
 1900TIP3    H2 5707   1.790   5.154   3.097 -0.3513 -0.4576  0.4010
 1901TIP3   OH2 5708   2.079   5.329   3.870  0.6166  0.0640  0.3573
 1901TIP3    H1 5709   2.142   5.374   3.813 -0.9982 -0.0600 -1.6093
 1901TIP3    H2 5710   2.093   5.236   3.854  0.1739  0.0255  0.1787
 1902TIP3   OH2 5711   1.709   4.020   1.589  0.2290  0.1095 -0.7666
 1902TIP3    H1 5712   1.661   3.938   1.591  0.0992  0.1719  1.0842
 1902TIP3    H2 5713   1.780   4.008   1.653 -0.2980  1.6858  0.1849
 1903TIP3   OH2 5714   5.309   0.939   2.814  0.3092 -0.1015 -0.0081
 1903TIP3    H1 5715   5.249   1.010   2.790 -0.5417 -0.8491 -0.1288
 1903TIP3    H2 5716   5.396   0.979   2.809 -0.0161  0.4764 -1.8297
 1904TIP3   OH2 5717   5.893   1.706   0.674  0.5505 -0.2167  0.5008
 1904TIP3    H1 5718   5.903   1.634   0.736  1.3543  0.4524  1.1933
 1904TIP3    H2 5719   5.972   1.759   0.687 -0.0982  0.8694  0.1339
 1905TIP3   OH2 5720   6.196   2.317   2.474  0.0897  0.1972  0.1642
 1905TIP3    H1 5721   6.261   2.270   2.421 -0.0876  0.5071 -0.3458
 1905TIP3    H2 5722   6.170   2.391   2.418 -1.4187 -0.4620 -0.0521
 1906TIP3   OH2 5723   3.426   5.697   1.785 -0.2979 -0.1420 -0.0197
 1906TIP3    H1 5724   3.380   5.776   1.757 -1.7049 -0.8131  0.2892
 1906TIP3    H2 5725   3.515   5.707   1.751 -0.2724  1.8214  0.5017
 1907TIP3   OH2 5726   4.180   4.089   2.924 -0.1366 -0.0527  0.7103
 1907TIP3    H1 5727   4.097   4.098   2.971 -0.7306 -0.1309 -0.2895
 1907TIP3    H2 5728   4.185   4.167   2.869 -1.7631 -1.9890 -2.5378
 1908TIP3   OH2 5729   2.243   3.920   0.859 -0.0367  0.5174  0.1603
 1908TIP3    H1 5730   2.282   3.872   0.933  1.6215  1.1246 -0.2664
 1908TIP3    H2 5731   2.154   3.886   0.853 -0.1257  0.2242  2.2402
 1909TIP3   OH2 5732   2.402   5.117   3.730 -0.1801 -0.1028 -0.6611
 1909TIP3    H1 5733   2.401   5.102   3.824 -0.3627 -1.0951 -0.8098
 1909TIP3    H2 5734   2.438   5.205   3.720  0.4253 -0.2281  0.3018
 1910TIP3   OH2 5735   6.023   4.899   2.470 -0.1274  0.7355  0.0523
 1910TIP3    H1 5736   5.954   4.854   2.518 -0.6444 -0.4017 -1.6738
 1910TIP3    H2 5737   5.985   4.918   2.385  2.0619 -1.2043 -1.4893
 1911TIP3   OH2 5738   6.331   2.326   0.126  0.4676  0.5342  0.2129
 1911TIP3    H1 5739   6.303   2.298   0.039  1.5626  0.9460 -0.2983
 1911TIP3    H2 5740   6.268   2.394   0.151  0.5247  0.8921 -0.5653
 1912TIP3   OH2 5741   4.816   0.457   4.353  0.1351  0.2119 -0.7452
 1912TIP3    H1 5742   4.871   0.417   4.420 -0.2959  1.4741  0.4104
 1912TIP3    H2 5743   4.867   0.451   4.272  1.6960  0.7757  0.1699
 1913TIP3   OH2 5744   1.471   2.467   3.338 -0.6503 -0.0426  0.1397
 1913TIP3    H1 5745   1.438   2.556   3.328  1.4472  0.6072 -1.7807
 1913TIP3    H2 5746   1.564   2.472   3.315 -0.5372 -2.7858 -0.4522
 1914TIP3   OH2 5747   6.026   2.048   0.268 -0.1644 -0.6029  0.3117
 1914TIP3    H1 5748   6.027   1.961   0.309  0.7361 -0.0442  1.5292
 1914TIP3    H2 5749   6.106   2.090   0.298  0.2346  0.0788 -1.5755
 1915TIP3   OH2 5750   2.074   2.191   1.204  0.7896  0.3068  0.0509
 1915TIP3    H1 5751   2.154   2.177   1.255  0.5959 -1.1098 -0.0114
 1915TIP3    H2 5752   2.005   2.150   1.256  0.4298 -0.2963 -0.8916
 1916TIP3   OH2 5753   0.306   2.830   5.135 -0.0918 -0.5325  0.8265
 1916TIP3    H1 5754   0.362   2.755   5.155  0.4462  0.5672  4.0469
 1916TIP3    H2 5755   0.368   2.900   5.113 -0.5758 -0.8059 -1.7645
 1917TIP3   OH2 5756   4.510   2.395   1.646  0.2889  0.0806  0.0631
 1917TIP3    H1 5757   4.598   2.384   1.681  0.8278  1.1544 -0.9111
 1917TIP3    H2 5758   4.486   2.485   1.669 -1.3278 -0.7702  1.9625
 1918TIP3   OH2 5759   1.003   1.987   0.687  0.4209  0.0751  0.5928
 1918TIP3    H1 5760   1.064   1.966   0.615  0.4252 -0.1710  0.6668
 1918TIP3    H2 5761   1.028   2.076   0.714  1.8790 -0.6290  1.7397
 1919TIP3   OH2 5762   0.016   0.742   3.074 -0.0098  0.0003 -0.4758
 1919TIP3    H1 5763   0.106   0.730   3.045  0.0112  0.5990 -0.6764
 1919TIP3    H2 5764  -0.038   0.708   3.002  0.0540 -0.7480 -0.1754
 1920TIP3   OH2 5765   4.187   5.285   2.871  0.0542 -0.0318  0.0184
 1920TIP3    H1 5766   4.171   5.314   2.781  1.5593  0.7411 -0.0299
 1920TIP3    H2 5767   4.281   5.265   2.874 -0.3784 -2.3055  0.8187
 1921TIP3   OH2 5768   3.447   1.345   4.560  0.4811  1.0925  0.3340
 1921TIP3    H1 5769   3.421   1.413   4.498 -1.2592  0.4119  0.2652
 1921TIP3    H2 5770   3.418   1.263   4.519  1.1854  0.4435  1.0988
 1922TIP3   OH2 5771   4.305   4.272   3.547  0.2047 -0.0322  0.1376
 1922TIP3    H1 5772   4.230   4.300   3.495 -0.4403 -0.4343  0.8446
 1922TIP3    H2 5773   4.281   4.290   3.637 -0.5369 -3.2936  0.7401
 1923TIP3   OH2 5774   3.604   3.012   0.938 -0.2007  0.6027  0.1549
 1923TIP3    H1 5775   3.638   2.981   0.854  0.4520  0.7968  0.3365
 1923TIP3    H2 5776   3.666   2.978   1.002 -0.0941  1.3408  0.4567
 1924TIP3   OH2 5777   3.816   5.688   4.040  0.5016 -0.0554 -0.4594
 1924TIP3    H1 5778   3.806   5.651   3.952 -0.5717 -1.4559  0.2182
 1924TIP3    H2 5779   3.830   5.612   4.097  0.9505  0.8102  0.6363
 1925TIP3   OH2 5780   4.001   1.051   0.553  0.2849 -0.0593 -0.7526
 1925TIP3    H1 5781   4.078   1.104   0.574  0.4633 -1.0909  1.6043
 1925TIP3    H2 5782   4.001   1.045   0.458  2.6242  0.6819 -0.8763
 1926TIP3   OH2 5783   2.373   4.880   4.813  0.2015 -0.1225 -0.2397
 1926TIP3    H1 5784   2.370   4.817   4.885 -0.6932 -0.0250 -0.1764
 1926TIP3    H2 5785   2.441   4.847   4.755  0.1859 -0.7993  0.1142
 1927TIP3   OH2 5786   3.018   3.053   2.284 -0.1752 -0.1728  0.3314
 1927TIP3    H1 5787   3.067   3.103   2.219 -1.0816  0.6133  0.2318
 1927TIP3    H2 5788   3.008   2.966   2.245 -0.9382  0.3639 -0.7217
 1928TIP3   OH2 5789   4.262   5.478   1.561  0.8625 -0.9481  0.5459
 1928TIP3    H1 5790   4.184   5.422   1.565  1.3166 -1.7029 -0.7274
 1928TIP3    H2 5791   4.326   5.434   1.616 -0.1476  0.6658  3.2088
 1929TIP3   OH2 5792   3.696   4.949   4.920  0.2391  0.0428 -0.1758
 1929TIP3    H1 5793   3.708   4.954   5.015 -0.0101 -0.7421 -0.0903
 1929TIP3    H2 5794   3.751   5.019   4.884 -1.2057  1.6686  0.6433
 1930TIP3   OH2 5795   1.979   1.650   0.588 -0.8216  0.0835  0.6403
 1930TIP3    H1 5796   1.893   1.684   0.563 -0.8153 -0.4622 -0.1529
 1930TIP3    H2 5797   2.040   1.692   0.527 -0.7695 -1.0175 -0.0979
 1931TIP3   OH2 5798   0.181   4.816   4.359  0.2231 -0.4485  0.1717
 1931TIP3    H1 5799   0.143   4.780   4.279  0.5784 -0.0871 -0.1706
 1931TIP3    H2 5800   0.253   4.871   4.328  1.2519 -1.3887  0.8107
 1932TIP3   OH2 5801   5.669   3.552   3.603 -0.1408 -0.4001  0.1512
 1932TIP3    H1 5802   5.691   3.639   3.567  0.0518 -1.0421 -1.3733
 1932TIP3    H2 5803   5.578   3.561   3.632 -0.3184  0.1729 -0.5359
 1933TIP3   OH2 5804   4.574   1.445   2.272  0.5191  0.4404 -0.0869
 1933TIP3    H1 5805   4.623   1.467   2.351  1.7526 -1.4549 -0.2529
 1933TIP3    H2 5806   4.604   1.508   2.207 -0.4020  1.9288  0.8732
 1934TIP3   OH2 5807   5.346   1.431   2.516  0.5273  0.1518 -0.1099
 1934TIP3    H1 5808   5.277   1.443   2.581  1.3469 -0.7359  0.9650
 1934TIP3    H2 5809   5.308   1.463   2.434 -0.4554  1.4985  0.8311
 1935TIP3   OH2 5810   5.045   4.779   1.398 -0.2734 -0.2207 -0.3178
 1935TIP3    H1 5811   5.062   4.857   1.451 -0.4105  0.7727 -1.6795
 1935TIP3    H2 5812   4.950   4.771   1.395 -0.3067  0.3645 -1.2676
 1936TIP3   OH2 5813   5.528   0.955   2.485 -0.3325 -0.5792  0.0942
 1936TIP3    H1 5814   5.436   0.980   2.479 -1.3059 -4.0448 -3.3505
 1936TIP3    H2 5815   5.534   0.908   2.568 -0.7512  2.1950  1.8321
 1937TIP3   OH2 5816   3.476   1.587   1.442 -0.2641  0.4369 -0.8027
 1937TIP3    H1 5817   3.511   1.654   1.502 -1.2821 -0.0544  0.3695
 1937TIP3    H2 5818   3.435   1.638   1.372  0.1240  1.0313 -0.6143
 1938TIP3   OH2 5819   2.764   2.430   0.435  0.8203  0.3115  0.5617
 1938TIP3    H1 5820   2.786   2.341   0.409 -0.8743 -0.3373  1.2681
 1938TIP3    H2 5821   2.757   2.427   0.530 -0.4380  0.8965  0.5074
 1939TIP3   OH2 5822   0.837   3.531   4.925  1.1423  0.0703 -0.1521
 1939TIP3    H1 5823   0.813   3.446   4.960  0.0242  0.2469 -0.4626
 1939TIP3    H2 5824   0.910   3.560   4.981  1.2404 -0.8802  0.2317
 1940TIP3   OH2 5825   0.025   1.173   4.840 -0.0065  0.1591  0.7416
 1940TIP3    H1 5826  -0.064   1.179   4.875 -0.0112 -2.0039  1.2485
 1940TIP3    H2 5827   0.039   1.079   4.827  1.4159  0.6086 -1.4422
 1941TIP3   OH2 5828   5.956   2.732   1.271  0.3743  0.5644  0.2433
 1941TIP3    H1 5829   5.902   2.751   1.195  0.2533 -0.9300 -0.0818
 1941TIP3    H2 5830   5.959   2.636   1.275  1.5835  0.6123  1.2618
 1942TIP3   OH2 5831   5.230   0.078   3.355  0.0440 -0.4869  0.2303
 1942TIP3    H1 5832   5.271   0.115   3.276 -0.8188 -0.4621 -0.2111
 1942TIP3    H2 5833   5.253   0.140   3.424 -0.1940  0.1290 -0.2330
 1943TIP3   OH2 5834   6.142   2.186   3.788  0.1045 -0.0164  0.0138
 1943TIP3    H1 5835   6.056   2.226   3.804  0.1571  0.6003 -1.1762
 1943TIP3    H2 5836   6.187   2.192   3.873 -1.2677 -0.9926  0.8458
 1944TIP3   OH2 5837   2.074   3.137   1.279 -0.5103  0.6201 -0.2103
 1944TIP3    H1 5838   2.044   3.191   1.206 -1.4193  0.9984  0.4154
 1944TIP3    H2 5839   2.150   3.184   1.314 -0.8930  1.1549 -0.0847
 1945TIP3   OH2 5840   0.935   5.208   0.726 -0.3339  0.4996  0.1461
 1945TIP3    H1 5841   0.998   5.137   0.736  0.5876  1.3508  0.5413
 1945TIP3    H2 5842   0.915   5.209   0.632 -0.6877 -0.5404  0.1998
 1946TIP3   OH2 5843   4.076   5.060   4.064 -0.4173  0.1130 -0.1075
 1946TIP3    H1 5844   4.150   5.011   4.099 -1.4024 -1.4179 -0.0544
 1946TIP3    H2 5845   4.115   5.135   4.020  1.3562 -1.6673 -1.7825
 1947TIP3   OH2 5846   0.069   4.355   3.954  0.0419  0.8212 -0.2467
 1947TIP3    H1 5847   0.060   4.334   4.047 -1.1308  3.3269  0.2833
 1947TIP3    H2 5848   0.143   4.417   3.951  0.9017 -0.2087 -1.1926
 1948TIP3   OH2 5849   2.840   4.115   3.340  0.4731  0.2730 -0.0197
 1948TIP3    H1 5850   2.761   4.166   3.323  0.9037  0.9323 -0.0831
 1948TIP3    H2 5851   2.818   4.026   3.311 -0.4424  0.3096  0.5274
 1949TIP3   OH2 5852   2.515   2.115   1.028 -0.2860  1.0581  0.1353
 1949TIP3    H1 5853   2.554   2.174   0.963 -1.5615 -0.6926 -2.4226
 1949TIP3    H2 5854   2.421   2.135   1.024 -0.5102  0.1428  0.5975
 1950TIP3   OH2 5855   3.473   4.939  -0.005  0.3017 -0.0091  0.1024
 1950TIP3    H1 5856   3.515   5.005  -0.060  0.5158 -0.3959 -0.1994
 1950TIP3    H2 5857   3.512   4.951   0.082 -0.7077  1.2223  0.4118
 1951TIP3   OH2 5858   2.336   1.243   3.950 -0.3517 -0.1113 -0.1565
 1951TIP3    H1 5859   2.351   1.336   3.964  1.4074 -0.6759  2.4944
 1951TIP3    H2 5860   2.260   1.222   4.005  1.1159 -0.7052  1.7747
 1952TIP3   OH2 5861   2.303   2.922   3.682  0.1391 -0.0270 -0.1827
 1952TIP3    H1 5862   2.339   2.939   3.595  0.0611 -0.9759 -0.4051
 1952TIP3    H2 5863   2.294   3.009   3.721  0.5271  0.3814 -0.9777
 1953TIP3   OH2 5864   0.576   4.993   1.850  0.0213 -0.1027 -0.3782
 1953TIP3    H1 5865   0.578   5.049   1.928  0.6555  0.1274 -0.5508
 1953TIP3    H2 5866   0.486   4.959   1.846  0.0888 -0.4171  0.6617
 1954TIP3   OH2 5867   1.761   3.838   3.949  0.3428 -0.3778  0.6413
 1954TIP3    H1 5868   1.848   3.879   3.948  0.5741 -0.8776  0.3660
 1954TIP3    H2 5869   1.719   3.872   3.870  0.5287 -0.6584  0.4214
 1955TIP3   OH2 5870   5.528   4.869   2.331 -0.0958  0.7340  0.4379
 1955TIP3    H1 5871   5.460   4.818   2.288 -0.4300  1.9890 -0.5633
 1955TIP3    H2 5872   5.534   4.950   2.280  0.8612  1.4319  1.6013
 1956TIP3   OH2 5873   1.745   3.884   3.054  0.0966 -0.1594  0.2220
 1956TIP3    H1 5874   1.695   3.805   3.073  0.8273 -0.8207 -0.5493
 1956TIP3    H2 5875   1.825   3.875   3.106  0.5872 -0.3714 -0.5560
 1957TIP3   OH2 5876   2.156   3.166   0.384 -0.2912 -0.6456  0.5200
 1957TIP3    H1 5877   2.115   3.250   0.364 -0.5403 -0.6456  1.0209
 1957TIP3    H2 5878   2.167   3.167   0.479  0.5378 -0.8004  0.4349
 1958TIP3   OH2 5879   5.253   4.326   1.121 -0.1723  0.3626 -0.0710
 1958TIP3    H1 5880   5.242   4.408   1.073 -0.7275  0.6852  0.6059
 1958TIP3    H2 5881   5.245   4.258   1.053 -1.1693  0.8060 -0.4113
 1959TIP3   OH2 5882   1.885   1.028   0.926 -0.0831 -0.0395  0.5786
 1959TIP3    H1 5883   1.883   1.088   1.000 -0.5027  0.2108  0.3653
 1959TIP3    H2 5884   1.819   0.962   0.946 -1.2528  0.8476 -0.2526
 1960TIP3   OH2 5885   6.255   5.640   2.524  0.1984 -0.0347  0.7006
 1960TIP3    H1 5886   6.262   5.601   2.437 -1.8282 -0.0651  0.5234
 1960TIP3    H2 5887   6.243   5.565   2.583  0.5337  0.0546  0.8866
 1961TIP3   OH2 5888   1.646   0.120   2.269  0.2454 -0.3869 -0.1474
 1961TIP3    H1 5889   1.667   0.161   2.353 -0.2988 -1.7573  0.6962
 1961TIP3    H2 5890   1.731   0.094   2.233  0.4269 -0.6124  0.4286
 1962TIP3   OH2 5891   1.160   1.955   1.756  0.1585 -0.8627 -0.2547
 1962TIP3    H1 5892   1.151   1.861   1.738  0.2591 -0.7561 -0.9173
 1962TIP3    H2 5893   1.095   1.974   1.823 -0.4559 -1.2491 -0.7300
 1963TIP3   OH2 5894   2.009   1.326   1.320 -0.0355 -0.4459 -0.2311
 1963TIP3    H1 5895   2.066   1.286   1.386 -2.2258 -1.6088  1.0527
 1963TIP3    H2 5896   2.064   1.331   1.242  1.5562 -2.4268  0.6577
 1964TIP3   OH2 5897   5.920   1.310   4.059 -0.3362  0.4354 -0.7683
 1964TIP3    H1 5898   5.835   1.288   4.020 -0.2542 -0.3856 -0.4919
 1964TIP3    H2 5899   5.970   1.228   4.057 -0.6331  0.0892  1.8665
 1965TIP3   OH2 5900   3.153   2.911   4.364  0.0453 -0.2830 -0.3519
 1965TIP3    H1 5901   3.121   2.965   4.292  1.0780  2.2006  0.9245
 1965TIP3    H2 5902   3.246   2.899   4.345  0.4172  0.7378  0.7216
 1966TIP3   OH2 5903   4.524   5.595   0.834 -0.4101 -1.1160 -0.6700
 1966TIP3    H1 5904   4.604   5.646   0.823 -1.3285  0.7186  0.4893
 1966TIP3    H2 5905   4.553   5.510   0.865  1.1129 -0.6445 -0.7139
 1967TIP3   OH2 5906   2.687   5.787   0.384 -0.5382 -0.4312 -0.1350
 1967TIP3    H1 5907   2.756   5.753   0.326  0.7281  2.3028 -0.4098
 1967TIP3    H2 5908   2.616   5.810   0.324 -0.3872 -0.2597 -0.2491
 1968TIP3   OH2 5909   6.342   2.313   3.120  0.3360  0.3822 -0.1244
 1968TIP3    H1 5910   6.287   2.388   3.144 -1.9485 -1.3517  0.4230
 1968TIP3    H2 5911   6.402   2.303   3.194 -0.1849  0.8966  0.3765
 1969TIP3   OH2 5912   0.099  -0.006   0.375  0.0271  0.3238  0.1859
 1969TIP3    H1 5913   0.034   0.031   0.434 -1.0057  0.2578 -0.8817
 1969TIP3    H2 5914   0.182   0.003   0.422 -0.9510 -1.2393  2.3740
 1970TIP3   OH2 5915   0.529   5.466   4.211 -0.2077 -0.6842 -1.0188
 1970TIP3    H1 5916   0.457   5.470   4.273 -0.5704 -1.4411 -1.3781
 1970TIP3    H2 5917   0.583   5.542   4.232 -1.3214  0.1248 -1.0093
 1971TIP3   OH2 5918   0.543   2.185   1.887  0.1052 -0.8610  0.4335
 1971TIP3    H1 5919   0.637   2.176   1.870 -0.2716 -1.7728 -1.5324
 1971TIP3    H2 5920   0.523   2.118   1.952  0.6820 -1.2429  0.2212
 1972TIP3   OH2 5921   3.932   3.833   1.243 -0.2065  0.0454 -0.4306
 1972TIP3    H1 5922   4.007   3.892   1.254  0.5441 -0.7691 -1.0648
 1972TIP3    H2 5923   3.918   3.829   1.149 -1.6211  0.8500 -0.2921
 1973TIP3   OH2 5924   4.455   5.763   4.824  0.2755 -0.2580 -0.0036
 1973TIP3    H1 5925   4.533   5.753   4.879  1.1019 -0.5430 -1.1942
 1973TIP3    H2 5926   4.479   5.829   4.760 -0.8072  0.3288  0.1684
 1974TIP3   OH2 5927   0.964   4.826   4.786 -0.1078 -0.5077  0.1040
 1974TIP3    H1 5928   0.898   4.895   4.788 -0.9569 -1.3095 -0.0071
 1974TIP3    H2 5929   0.915   4.744   4.794  0.9418 -1.0815  0.9213
 1975TIP3   OH2 5930   2.503   4.056   0.153  0.5988 -1.0365  0.0612
 1975TIP3    H1 5931   2.473   3.987   0.212  1.1414 -1.8378 -0.5723
 1975TIP3    H2 5932   2.429   4.072   0.094  0.4268 -0.9880  0.2914
 1976TIP3   OH2 5933   1.421   5.510   0.530 -0.2573  0.0026  0.1603
 1976TIP3    H1 5934   1.397   5.601   0.545  2.2545  0.3936  2.4915
 1976TIP3    H2 5935   1.357   5.459   0.581 -0.9372  0.4932 -0.1864
 1977TIP3   OH2 5936   4.792   3.387   5.011 -0.1705  0.5449  0.2498
 1977TIP3    H1 5937   4.805   3.450   4.940 -1.1758  0.4719 -0.0132
 1977TIP3    H2 5938   4.857   3.319   4.995  0.3220  1.0567  0.0166
 1978TIP3   OH2 5939   5.319   2.968   1.991  0.3565  0.1129  0.6127
 1978TIP3    H1 5940   5.250   2.938   2.051  0.1231  0.6573  0.6284
 1978TIP3    H2 5941   5.325   2.899   1.925 -1.0403  0.5755 -0.0516
 1979TIP3   OH2 5942   4.778   4.726   3.258  0.2257  0.0358 -0.3073
 1979TIP3    H1 5943   4.846   4.766   3.313  0.0621 -0.1491  0.0370
 1979TIP3    H2 5944   4.719   4.684   3.321 -0.0054 -0.1178 -0.6253
 1980TIP3   OH2 5945   1.820   5.045   4.686 -0.1045 -0.4846  0.2201
 1980TIP3    H1 5946   1.735   5.073   4.654  0.5032  0.6141 -0.4822
 1980TIP3    H2 5947   1.823   4.951   4.667 -0.8903 -0.4049 -0.3283
 1981TIP3   OH2 5948   1.537   4.858   2.416  0.2534  0.6790 -0.0620
 1981TIP3    H1 5949   1.480   4.902   2.479 -1.3242 -0.2521 -0.7963
 1981TIP3    H2 5950   1.563   4.927   2.355  0.0649  1.1499  0.3853
 1982TIP3   OH2 5951   2.742   3.429   4.187 -0.2590 -0.2700 -0.2356
 1982TIP3    H1 5952   2.830   3.416   4.151  0.1802  1.2018  0.2194
 1982TIP3    H2 5953   2.712   3.511   4.147 -1.2568 -0.5240 -0.0440
 1983TIP3   OH2 5954   2.749   0.395   4.240  0.1637  1.0531 -0.6290
 1983TIP3    H1 5955   2.684   0.392   4.170 -1.3158 -2.8106  0.6616
 1983TIP3    H2 5956   2.794   0.311   4.235  0.2259  0.7264  2.7998
 1984TIP3   OH2 5957   3.358   5.296   3.243  0.4603 -0.4489 -0.5330
 1984TIP3    H1 5958   3.335   5.364   3.306  1.0122 -2.7562  2.3969
 1984TIP3    H2 5959   3.443   5.323   3.209 -0.3346  1.3851 -1.1526
 1985TIP3   OH2 5960   5.603   5.957   0.037 -0.2532 -0.3627  0.1706
 1985TIP3    H1 5961   5.530   5.908   0.075 -0.6375 -1.7709 -2.1549
 1985TIP3    H2 5962   5.681   5.911   0.067 -0.3094  0.4705  1.7401
 1986TIP3   OH2 5963   4.450   5.013   1.687  0.0837 -0.1601 -0.0103
 1986TIP3    H1 5964   4.389   4.939   1.680 -0.6169  0.2454  1.3821
 1986TIP3    H2 5965   4.410   5.071   1.752  0.8635  1.2147 -0.7083
 1987TIP3   OH2 5966   2.974   4.657   3.618 -0.2038 -0.0044 -0.3346
 1987TIP3    H1 5967   2.954   4.577   3.569 -0.3700  0.4189 -0.9845
 1987TIP3    H2 5968   2.953   4.727   3.556  0.1828  0.5306  0.1384
 1988TIP3   OH2 5969   3.497   4.705   0.238 -0.5690  0.0968  0.6303
 1988TIP3    H1 5970   3.419   4.692   0.292  0.4414 -1.6175  1.7722
 1988TIP3    H2 5971   3.464   4.709   0.149 -2.0048 -0.3027  1.1203
 1989TIP3   OH2 5972   4.238   2.620   4.452  0.6130 -0.6192  0.0394
 1989TIP3    H1 5973   4.312   2.643   4.396 -0.2293 -1.0436 -1.3079
 1989TIP3    H2 5974   4.188   2.557   4.401  0.3476 -1.8447  1.7266
 1990TIP3   OH2 5975   4.064   2.158   4.048  0.2146  0.1341 -0.1814
 1990TIP3    H1 5976   4.115   2.231   4.084 -2.1076  1.3950  0.7710
 1990TIP3    H2 5977   4.103   2.142   3.962  1.2851  1.9822 -0.1003
 1991TIP3   OH2 5978   4.158   1.323   2.153  0.1566  0.3493 -0.4400
 1991TIP3    H1 5979   4.069   1.293   2.172 -0.2802  0.0296 -2.7471
 1991TIP3    H2 5980   4.171   1.304   2.061  2.3664  1.0998 -0.3463
 1992TIP3   OH2 5981   3.823   2.108   2.270  0.3273 -0.0808  0.0997
 1992TIP3    H1 5982   3.873   2.187   2.252 -0.6813  0.7650  0.8558
 1992TIP3    H2 5983   3.885   2.048   2.312  0.6782  0.9991  1.1805
 1993TIP3   OH2 5984   3.750   2.771   4.389  0.3590 -0.1899  0.1820
 1993TIP3    H1 5985   3.714   2.858   4.404 -0.5682 -0.3604 -0.9380
 1993TIP3    H2 5986   3.834   2.786   4.347  0.2908  0.1709  0.1754
 1994TIP3   OH2 5987   4.424   0.086   4.690  0.2329 -0.6960  0.0592
 1994TIP3    H1 5988   4.372   0.076   4.770  0.8361 -0.1294  0.5387
 1994TIP3    H2 5989   4.413   0.177   4.665 -0.1272 -0.9238 -0.6391
 1995TIP3   OH2 5990   3.043   2.938   2.997  0.0745  0.4010  0.3396
 1995TIP3    H1 5991   3.001   3.013   2.956 -1.5908  0.1216  1.4304
 1995TIP3    H2 5992   3.012   2.862   2.948  1.1167  0.3408 -0.2542
 1996TIP3   OH2 5993   2.380   5.534   1.486  0.6582 -0.0156 -0.2367
 1996TIP3    H1 5994   2.375   5.479   1.408 -0.0282  0.8632 -0.8292
 1996TIP3    H2 5995   2.416   5.616   1.454  0.2002  0.4147  0.3393
 1997TIP3   OH2 5996   4.221   0.977   1.347 -0.1674 -0.9128  0.7000
 1997TIP3    H1 5997   4.208   0.943   1.258 -1.6898 -0.7247  0.8171
 1997TIP3    H2 5998   4.193   1.069   1.341 -0.2185 -0.8834  1.3492
 1998TIP3   OH2 5999   2.190   3.166   0.950  0.2279 -0.2988 -0.5559
 1998TIP3    H1 6000   2.138   3.107   0.897  0.0351 -1.1431  0.5491
 1998TIP3    H2 6001   2.126   3.222   0.994  0.2701 -1.0154  0.4265
 1999TIP3   OH2 6002   5.377   5.594   1.436  0.5451  0.3701  0.2790
 1999TIP3    H1 6003   5.436   5.657   1.394  2.0772 -2.1971 -1.7564
 1999TIP3    H2 6004   5.415   5.581   1.523 -0.0169  2.4202  0.8870
 2000TIP3   OH2 6005   0.694   4.869   5.023 -0.1867  0.3560 -0.4359
 2000TIP3    H1 6006   0.661   4.934   4.961 -1.0708 -0.2372 -0.6043
 2000TIP3    H2 6007   0.618   4.845   5.075  0.1389 -0.5116 -0.3476
 2001TIP3   OH2 6008   4.346   4.715   3.982  0.0772 -0.3832  0.6249
 2001TIP3    H1 6009   4.254   4.697   3.964  0.2927 -0.6964 -0.1989
 2001TIP3    H2 6010   4.363   4.675   4.067 -0.5120 -0.4266  0.7226
 2002TIP3   OH2 6011   3.739   2.605   0.718 -0.1046 -0.3690  0.2797
 2002TIP3    H1 6012   3.736   2.623   0.812  1.3440  0.7288  0.1584
 2002TIP3    H2 6013   3.804   2.666   0.684  0.0258 -1.3288 -1.3155
 2003TIP3   OH2 6014   5.945   1.817   3.184 -1.2088  0.1050 -0.7739
 2003TIP3    H1 6015   5.962   1.745   3.123  0.4659  0.7038 -1.0441
 2003TIP3    H2 6016   6.024   1.822   3.238 -1.8801  0.8432  0.1780
 2004TIP3   OH2 6017   4.370   1.375   2.669  0.6985  0.3922 -0.0722
 2004TIP3    H1 6018   4.435   1.312   2.638  0.4031  0.3112 -0.5394
 2004TIP3    H2 6019   4.308   1.322   2.719  0.7473  0.3992 -0.0039
 2005TIP3   OH2 6020   4.437   5.049   2.386  0.2560 -0.4048 -0.3229
 2005TIP3    H1 6021   4.522   5.061   2.429 -0.5732  2.3215  0.7552
 2005TIP3    H2 6022   4.454   5.069   2.294  1.0792 -1.4998 -0.4298
 2006TIP3   OH2 6023   4.213   5.353   3.393 -0.2342  0.1822  0.2531
 2006TIP3    H1 6024   4.288   5.326   3.340  0.1592  1.1986  0.2585
 2006TIP3    H2 6025   4.147   5.380   3.329 -1.2638 -2.2653  0.1917
 2007TIP3   OH2 6026   5.188   3.286   1.545 -0.8121  0.4172 -0.3068
 2007TIP3    H1 6027   5.165   3.334   1.466  0.4961  0.2516 -0.8113
 2007TIP3    H2 6028   5.195   3.195   1.517  1.9426  0.6265 -0.5973
 2008TIP3   OH2 6029   5.972   5.207   2.189  0.0163 -0.0263  0.0631
 2008TIP3    H1 6030   5.921   5.163   2.120 -1.7066  0.9059  0.6713
 2008TIP3    H2 6031   5.967   5.300   2.166 -0.8430  0.3298  1.5702
 2009TIP3   OH2 6032   6.231   5.466   1.552 -0.2043 -0.4861  0.0462
 2009TIP3    H1 6033   6.169   5.535   1.530 -1.3232 -1.7875 -1.0631
 2009TIP3    H2 6034   6.287   5.458   1.474  0.0597 -0.6724  0.2525
 2010TIP3   OH2 6035   1.499   2.443   4.641 -0.2453  0.3457 -0.4172
 2010TIP3    H1 6036   1.526   2.534   4.627 -1.0868  0.8130  0.7850
 2010TIP3    H2 6037   1.580   2.393   4.636  0.5282  1.4079  0.7087
 2011TIP3   OH2 6038   1.961   2.230   0.447 -0.1580  0.8115  0.0358
 2011TIP3    H1 6039   2.048   2.238   0.486 -0.6903  0.3152  1.3746
 2011TIP3    H2 6040   1.917   2.312   0.471 -0.3252  0.7188  0.0454
 2012TIP3   OH2 6041   3.759   2.765   4.663  0.1652 -0.0221  0.2265
 2012TIP3    H1 6042   3.769   2.780   4.569  1.5196 -1.3367  0.1237
 2012TIP3    H2 6043   3.759   2.853   4.701 -0.1123  0.5185 -0.9607
 2013TIP3   OH2 6044   1.584   5.921   5.121  0.0898  0.2857  0.3670
 2013TIP3    H1 6045   1.568   5.938   5.028 -1.4812  0.2986  0.6182
 2013TIP3    H2 6046   1.547   5.834   5.136  0.8140  0.0541  0.8803
 2014TIP3   OH2 6047   6.352   1.970   0.192 -0.1830  0.1273 -0.1038
 2014TIP3    H1 6048   6.331   1.891   0.242  1.2324 -0.1132  0.1633
 2014TIP3    H2 6049   6.327   1.950   0.102  1.0119 -1.0175 -0.2210
 2015TIP3   OH2 6050   5.035   4.744   3.910  0.2775 -0.3576 -0.2226
 2015TIP3    H1 6051   5.068   4.743   3.821  0.9088 -1.1908  0.0167
 2015TIP3    H2 6052   4.965   4.810   3.909  1.5930  1.0839 -0.8445
 2016TIP3   OH2 6053   6.040   1.606   4.530 -0.6648  0.1240  0.3461
 2016TIP3    H1 6054   5.994   1.685   4.503 -1.2554 -0.8773 -1.8278
 2016TIP3    H2 6055   6.111   1.596   4.467  0.7156 -0.0171  1.8317
 2017TIP3   OH2 6056   0.951   2.058   1.101  0.4285  0.2490 -0.3344
 2017TIP3    H1 6057   0.951   2.090   1.191  1.5449  0.1405 -0.2867
 2017TIP3    H2 6058   0.973   1.965   1.107  0.2620  0.1819 -0.6980
 2018TIP3   OH2 6059   2.257   4.028   3.040  0.3583 -0.1742  0.0764
 2018TIP3    H1 6060   2.305   3.966   3.095 -0.2131 -0.6551  0.0368
 2018TIP3    H2 6061   2.280   4.003   2.951  0.8583  0.2663  0.0730
 2019TIP3   OH2 6062   5.318   0.790   4.758 -0.2667  0.3511 -0.2347
 2019TIP3    H1 6063   5.288   0.880   4.758  0.7025  0.6854  0.1187
 2019TIP3    H2 6064   5.243   0.739   4.788 -0.4155  1.1937  0.8668
 2020TIP3   OH2 6065   6.104   2.705   2.258 -0.0327  0.1708 -0.5629
 2020TIP3    H1 6066   6.095   2.674   2.348 -0.9479 -1.6212 -1.2204
 2020TIP3    H2 6067   6.018   2.692   2.219  0.3290  0.9658 -1.6907
 2021TIP3   OH2 6068   4.042   2.144   3.192 -0.5702  0.5934 -0.0141
 2021TIP3    H1 6069   3.947   2.141   3.177 -0.6553  1.9788  0.1255
 2021TIP3    H2 6070   4.051   2.154   3.286 -0.1451 -3.1670  0.4916
 2022TIP3   OH2 6071   4.617   0.944   0.623  0.6396  0.0156  0.8311
 2022TIP3    H1 6072   4.632   1.019   0.680  0.7852  0.1101  0.6699
 2022TIP3    H2 6073   4.541   0.900   0.661  0.6095  0.1922  0.9782
 2023TIP3   OH2 6074   6.263   4.559   2.440 -0.3432  0.1572  0.2205
 2023TIP3    H1 6075   6.213   4.598   2.511  0.2572 -0.5291  1.0366
 2023TIP3    H2 6076   6.305   4.482   2.478  2.6856  1.5885  0.0855
 2024TIP3   OH2 6077   6.132   4.704   3.656 -0.3578 -0.0135 -0.3944
 2024TIP3    H1 6078   6.171   4.724   3.571 -0.7555 -0.0978 -0.5954
 2024TIP3    H2 6079   6.149   4.610   3.669  1.0295  0.2948  0.3045
 2025TIP3   OH2 6080   5.071   5.290   1.147 -0.1870  0.1031 -0.2690
 2025TIP3    H1 6081   5.120   5.359   1.190 -0.0214 -0.2674  0.1503
 2025TIP3    H2 6082   5.033   5.239   1.219  0.0963 -0.5273 -0.5497
 2026TIP3   OH2 6083   0.107   1.938   3.258  0.2279  0.3197 -0.1945
 2026TIP3    H1 6084   0.149   1.867   3.307  1.9026  1.7992  0.6441
 2026TIP3    H2 6085   0.056   1.985   3.324 -1.2491 -0.3333 -0.8382
 2027TIP3   OH2 6086   4.777   4.865   4.717 -0.1636 -0.3472  0.3330
 2027TIP3    H1 6087   4.776   4.959   4.698  3.0834 -0.4401 -1.0502
 2027TIP3    H2 6088   4.734   4.825   4.641 -0.4193 -0.0587  0.3226
 2028TIP3   OH2 6089   1.920   3.953   1.749  0.4395 -0.4705 -0.2630
 2028TIP3    H1 6090   1.880   3.872   1.779 -0.7359  0.2595  0.2086
 2028TIP3    H2 6091   1.972   3.927   1.673  0.9442 -1.8255  0.5024
 2029TIP3   OH2 6092   2.353   5.431   3.083 -0.2898  0.0575 -0.1990
 2029TIP3    H1 6093   2.412   5.356   3.084 -0.5329 -0.1869 -1.6191
 2029TIP3    H2 6094   2.269   5.395   3.053 -1.0317  0.4954  1.2851
 2030TIP3   OH2 6095   1.742   4.507   2.311  0.3199  0.2017 -0.3650
 2030TIP3    H1 6096   1.772   4.597   2.316  0.8974 -0.0430  0.8592
 2030TIP3    H2 6097   1.648   4.514   2.296  0.4457  0.9956 -0.8310
 2031TIP3   OH2 6098   4.724   4.589   0.300 -0.1868 -0.0266 -0.4646
 2031TIP3    H1 6099   4.680   4.674   0.299 -0.3445 -0.1084 -1.2499
 2031TIP3    H2 6100   4.752   4.577   0.391  0.5050  1.2051 -0.4893
 2032TIP3   OH2 6101   4.630   1.011   4.925 -0.1168  0.4792 -0.2640
 2032TIP3    H1 6102   4.668   1.042   4.843 -0.1481  0.8373 -0.1466
 2032TIP3    H2 6103   4.698   0.956   4.964 -0.9541 -1.6469 -1.6342
 2033TIP3   OH2 6104   2.714   4.022   2.005  0.2591  0.2284  0.4649
 2033TIP3    H1 6105   2.718   4.095   1.944  1.7284  0.8060  1.2062
 2033TIP3    H2 6106   2.647   4.046   2.068 -1.2187 -0.3392 -0.8332
 2034TIP3   OH2 6107   2.216   1.889   2.499 -0.4977 -0.2138  0.2398
 2034TIP3    H1 6108   2.185   1.952   2.565 -0.0675  1.7953 -1.3699
 2034TIP3    H2 6109   2.143   1.881   2.438  0.0972  0.1633 -0.5389
 2035TIP3   OH2 6110   0.661   0.296   0.227 -0.2934 -0.1896 -0.2791
 2035TIP3    H1 6111   0.657   0.290   0.322 -1.3689 -0.9114 -0.3543
 2035TIP3    H2 6112   0.726   0.364   0.210 -0.6410  0.4886  0.9898
 2036TIP3   OH2 6113   2.989   1.233   2.104 -0.0512  0.0665  0.3461
 2036TIP3    H1 6114   2.987   1.138   2.107 -1.6909  0.0680  0.2149
 2036TIP3    H2 6115   2.926   1.261   2.171  0.5390  1.0591  0.5069
 2037TIP3   OH2 6116   0.896   3.640   4.353  0.2734  0.1094  0.2898
 2037TIP3    H1 6117   0.961   3.684   4.409  0.0190  1.7484 -0.6365
 2037TIP3    H2 6118   0.816   3.691   4.365 -0.4530 -1.0048  0.2832
 2038TIP3   OH2 6119   0.174   4.534   0.577 -0.0838  0.1277  0.1205
 2038TIP3    H1 6120   0.210   4.503   0.660 -1.0872 -2.5409 -0.3421
 2038TIP3    H2 6121   0.251   4.561   0.527  0.8302 -0.9381  0.8896
 2039TIP3   OH2 6122   2.401   1.729   3.119  0.6134 -0.1071 -0.3866
 2039TIP3    H1 6123   2.426   1.742   3.210  0.1658 -0.4839 -0.2035
 2039TIP3    H2 6124   2.472   1.769   3.068 -0.0876  1.9198  0.1148
 2040TIP3   OH2 6125   3.262   3.128   0.486  0.1379 -0.0423  0.3084
 2040TIP3    H1 6126   3.278   3.037   0.460  0.3678  0.0612  0.0819
 2040TIP3    H2 6127   3.178   3.125   0.532  0.1435 -0.3689  0.3024
 2041TIP3   OH2 6128   2.716   4.256   3.612 -0.6129 -0.1550 -0.3466
 2041TIP3    H1 6129   2.738   4.199   3.538 -2.8868 -0.6939 -0.6987
 2041TIP3    H2 6130   2.620   4.260   3.610 -0.6836  0.4851  2.0820
 2042TIP3   OH2 6131   5.414   1.535   1.532  0.7499 -0.0406  0.2718
 2042TIP3    H1 6132   5.396   1.477   1.458  1.5336 -0.1386  0.1429
 2042TIP3    H2 6133   5.434   1.477   1.605  1.1317  0.0627  0.2507
 2043TIP3   OH2 6134   2.742   4.840   2.890  0.2389 -0.4485 -0.1405
 2043TIP3    H1 6135   2.817   4.899   2.897  0.0756 -0.2386 -0.1692
 2043TIP3    H2 6136   2.693   4.853   2.971 -0.0273 -0.2284 -0.3355
 2044TIP3   OH2 6137   4.313   3.936   3.184  0.2475 -0.6340 -0.4023
 2044TIP3    H1 6138   4.312   3.842   3.169  0.3589 -0.7503  0.2730
 2044TIP3    H2 6139   4.353   3.946   3.271  1.0492  0.0824 -0.8347
 2045TIP3   OH2 6140   4.106   3.838   3.046  0.3853 -0.6322  0.4504
 2045TIP3    H1 6141   4.143   3.901   3.107  1.0234 -2.0659  1.6073
 2045TIP3    H2 6142   4.157   3.851   2.966 -0.9509  1.7653 -0.1160
 2046TIP3   OH2 6143   1.412   3.794   3.719  0.0202  0.2135  0.2690
 2046TIP3    H1 6144   1.395   3.794   3.625  1.1825  1.1131  0.0390
 2046TIP3    H2 6145   1.377   3.878   3.750  1.7945  1.0336  0.1839
 2047TIP3   OH2 6146   1.571   4.808   1.063 -0.1355 -0.5290 -0.2035
 2047TIP3    H1 6147   1.513   4.878   1.034 -0.5669 -1.4462 -1.6526
 2047TIP3    H2 6148   1.658   4.848   1.064 -0.4157  0.1150 -0.7331
 2048TIP3   OH2 6149   5.389   3.315   0.342  0.2845 -0.0808 -0.3572
 2048TIP3    H1 6150   5.393   3.230   0.299 -1.5305  0.4819 -1.7637
 2048TIP3    H2 6151   5.296   3.338   0.341  0.2957  0.5358  2.8382
 2049TIP3   OH2 6152   6.126   3.108   1.618  0.2049 -0.4810  0.4543
 2049TIP3    H1 6153   6.108   3.018   1.591  0.5361 -0.1346 -1.0119
 2049TIP3    H2 6154   6.189   3.140   1.552  0.4963  0.6488  1.2623
 2050TIP3   OH2 6155   1.328   5.920   2.463  0.4145 -0.3555  0.3591
 2050TIP3    H1 6156   1.268   5.983   2.422  0.4801 -0.7447 -0.3594
 2050TIP3    H2 6157   1.415   5.947   2.435  0.5217 -0.2036  0.8320
 2051TIP3   OH2 6158   1.789   5.755   3.552  0.1376  0.2452  0.3434
 2051TIP3    H1 6159   1.706   5.709   3.539 -0.0116  0.3300  0.9617
 2051TIP3    H2 6160   1.764   5.839   3.591  0.5772 -0.1068  1.4044
 2052TIP3   OH2 6161   1.268   5.623   0.235  0.1639 -0.3391  0.1030
 2052TIP3    H1 6162   1.237   5.698   0.184 -1.1151 -1.1275 -0.3013
 2052TIP3    H2 6163   1.364   5.630   0.231  0.0957  1.7821  0.8435
 2053TIP3   OH2 6164   4.995   3.580   2.920 -0.2854  0.9999  0.2678
 2053TIP3    H1 6165   4.977   3.627   2.838 -1.6822  1.8688  1.0278
 2053TIP3    H2 6166   4.971   3.489   2.902  0.9824  0.8439 -0.7591
 2054TIP3   OH2 6167   2.176   2.784   3.930 -0.4146 -0.3097  0.5221
 2054TIP3    H1 6168   2.116   2.855   3.953 -1.5581 -1.0328 -0.1699
 2054TIP3    H2 6169   2.223   2.816   3.853  0.1124  0.2601  1.0694
 2055TIP3   OH2 6170   3.922   1.822   3.776 -0.8158  0.3765 -0.2757
 2055TIP3    H1 6171   3.878   1.848   3.857 -2.9358 -1.7109 -0.6555
 2055TIP3    H2 6172   3.873   1.867   3.707 -0.0930  0.7985 -0.5232
 2056TIP3   OH2 6173   1.666   1.766   0.988  0.5516 -0.7070  0.3965
 2056TIP3    H1 6174   1.677   1.671   0.999  1.4627 -0.4534  2.0627
 2056TIP3    H2 6175   1.575   1.782   1.012  0.8322 -0.9973  1.7625
 2057TIP3   OH2 6176   6.008   0.916   0.780 -0.0072  0.2168  0.2138
 2057TIP3    H1 6177   6.073   0.949   0.842  0.3274 -2.2159  1.2743
 2057TIP3    H2 6178   5.929   0.903   0.833 -0.4021  0.1797 -0.3741
 2058TIP3   OH2 6179   0.876   4.077   2.255  0.5086 -0.1459  0.4463
 2058TIP3    H1 6180   0.961   4.075   2.299  1.3496  0.9665 -1.0535
 2058TIP3    H2 6181   0.867   4.167   2.225 -1.7513  0.0736  1.5497
 2059TIP3   OH2 6182   2.526   3.700   3.612  0.1574  0.3469 -0.6775
 2059TIP3    H1 6183   2.571   3.629   3.565  0.5021  1.0427 -1.4264
 2059TIP3    H2 6184   2.458   3.656   3.663  0.4764 -0.5370 -1.0013
 2060TIP3   OH2 6185   1.365   2.778   1.051 -0.3777 -0.1974  0.3144
 2060TIP3    H1 6186   1.446   2.811   1.091 -1.3058  0.4784  1.7016
 2060TIP3    H2 6187   1.362   2.686   1.075  0.6549 -0.5985 -0.9430
 2061TIP3   OH2 6188   6.165   3.791   1.203 -0.1835  0.2542  0.5454
 2061TIP3    H1 6189   6.099   3.852   1.169  0.7040  1.5037  0.9662
 2061TIP3    H2 6190   6.228   3.781   1.132  1.7128  2.9279  1.6913
 2062TIP3   OH2 6191   0.775   1.862   1.372 -0.1575  0.3875  0.0261
 2062TIP3    H1 6192   0.773   1.769   1.397  0.3018 -0.3149 -2.3716
 2062TIP3    H2 6193   0.867   1.881   1.355 -0.0693  1.6816  1.6783
 2063TIP3   OH2 6194   5.884   3.455   0.926  0.1718  0.4306 -0.6699
 2063TIP3    H1 6195   5.975   3.424   0.925 -0.0700 -0.3773  0.2862
 2063TIP3    H2 6196   5.832   3.375   0.914 -0.4526  0.4927  1.3127
 2064TIP3   OH2 6197   2.124   3.710   0.619 -0.0692  0.1570 -0.1240
 2064TIP3    H1 6198   2.053   3.678   0.563 -0.6382  0.9675  0.1124
 2064TIP3    H2 6199   2.153   3.632   0.667 -1.6755  0.0278  0.7295
 2065TIP3   OH2 6200   2.666   0.280   1.283 -0.4226  0.2852  0.0990
 2065TIP3    H1 6201   2.584   0.294   1.331 -1.4105 -0.3386 -1.3197
 2065TIP3    H2 6202   2.644   0.211   1.220  1.6017 -0.8819  0.6087
 2066TIP3   OH2 6203   0.434   5.178   0.200  0.3967  0.0980  0.1441
 2066TIP3    H1 6204   0.349   5.136   0.185  1.0235 -1.6177  1.0890
 2066TIP3    H2 6205   0.445   5.176   0.295  0.7012  2.0129  0.1868
 2067TIP3   OH2 6206   4.548   2.590   4.491  0.6282 -0.2472  0.6036
 2067TIP3    H1 6207   4.612   2.597   4.561 -0.3575  2.0346  1.3752
 2067TIP3    H2 6208   4.504   2.675   4.489 -1.0774 -1.0613 -1.1580
 2068TIP3   OH2 6209   5.333   3.964   4.477  0.2092 -0.1081 -0.7265
 2068TIP3    H1 6210   5.289   3.929   4.400 -0.3163 -1.4484  0.1496
 2068TIP3    H2 6211   5.368   3.887   4.522 -1.2640  0.3857  1.4574
 2069TIP3   OH2 6212   3.133   4.340   4.989  0.0847  0.3271  0.0950
 2069TIP3    H1 6213   3.110   4.373   4.903 -0.0107  0.6610  0.2458
 2069TIP3    H2 6214   3.229   4.348   4.993  0.1123  0.0668 -0.0789
 2070TIP3   OH2 6215   4.822   3.546   3.824 -0.0449  0.6484 -0.0001
 2070TIP3    H1 6216   4.825   3.639   3.846 -4.0558  1.1634 -0.7971
 2070TIP3    H2 6217   4.805   3.502   3.907 -0.5117  0.9264  0.0565
 2071TIP3   OH2 6218   0.323   4.441   3.012  0.3017  0.2990  0.2850
 2071TIP3    H1 6219   0.271   4.520   3.021  1.7362  1.2486  0.6036
 2071TIP3    H2 6220   0.314   4.415   2.921  1.3681  1.9899 -0.3502
 2072TIP3   OH2 6221   1.483   2.547   0.403  0.2219 -0.3557 -0.6117
 2072TIP3    H1 6222   1.483   2.493   0.323 -1.7432  0.3819 -1.1534
 2072TIP3    H2 6223   1.433   2.625   0.379  0.9689  0.6258  0.8935
 2073TIP3   OH2 6224   5.931   3.180   0.606  0.6147  0.2199 -0.3150
 2073TIP3    H1 6225   6.011   3.225   0.577  1.4652 -1.4174 -0.6303
 2073TIP3    H2 6226   5.905   3.126   0.532  0.3794 -0.7894  0.4757
 2074TIP3   OH2 6227   3.633   2.004   4.210  0.2418  0.4591  0.7293
 2074TIP3    H1 6228   3.572   1.934   4.189  2.0507 -1.1868  0.7028
 2074TIP3    H2 6229   3.578   2.073   4.247 -2.1183  0.5700 -2.5293
 2075TIP3   OH2 6230   2.836   0.127   4.218 -0.0669  0.2670  0.2273
 2075TIP3    H1 6231   2.762   0.071   4.243 -0.5313  0.4673 -0.6636
 2075TIP3    H2 6232   2.880   0.080   4.148  1.4875 -0.4957  1.6377
 2076TIP3   OH2 6233   5.388   1.719   2.198  0.3302 -0.0227  0.0896
 2076TIP3    H1 6234   5.443   1.734   2.275  2.8829  0.2959 -1.6778
 2076TIP3    H2 6235   5.350   1.805   2.179 -1.4750 -0.3828  1.7162
 2077TIP3   OH2 6236   0.868   5.568   4.961 -0.2400 -0.0038 -0.4046
 2077TIP3    H1 6237   0.943   5.628   4.966 -0.3869  0.1294  0.2682
 2077TIP3    H2 6238   0.798   5.613   5.007 -0.6906 -0.2074 -0.8791
 2078TIP3   OH2 6239   1.719   2.032   0.931 -0.1804  0.4179 -0.2458
 2078TIP3    H1 6240   1.737   1.938   0.939  0.5363  0.6340  1.0279
 2078TIP3    H2 6241   1.681   2.056   1.016  1.9272  1.7410  0.3893
 2079TIP3   OH2 6242   6.027   2.442   0.440 -0.2987 -0.4761  0.2710
 2079TIP3    H1 6243   5.951   2.486   0.477 -1.5967  0.6203 -3.2899
 2079TIP3    H2 6244   5.991   2.377   0.380  1.6222 -1.4730  0.1184
 2080TIP3   OH2 6245   3.264   0.663   2.679 -0.2926  0.4123  0.2619
 2080TIP3    H1 6246   3.213   0.604   2.734  0.3841 -0.7207 -0.2579
 2080TIP3    H2 6247   3.320   0.604   2.628 -0.3420  1.4562 -1.0615
 2081TIP3   OH2 6248   0.864   3.357   0.865 -0.7405 -0.9372  0.4023
 2081TIP3    H1 6249   0.803   3.328   0.933  0.9163 -3.1517  1.0693
 2081TIP3    H2 6250   0.844   3.301   0.790 -1.0259 -0.0768 -0.1798
 2082TIP3   OH2 6251   0.420   3.211   2.889 -0.5734  0.3900 -0.1623
 2082TIP3    H1 6252   0.471   3.259   2.954 -0.7655 -0.0022  0.2781
 2082TIP3    H2 6253   0.465   3.127   2.880 -0.2372  0.6359 -0.9331
 2083TIP3   OH2 6254   5.007   1.009   0.601  0.0393 -0.1993  0.2535
 2083TIP3    H1 6255   4.982   0.925   0.640 -0.9296  0.5293  1.2713
 2083TIP3    H2 6256   5.099   0.998   0.578 -0.3638 -1.9258 -0.7355
 2084TIP3   OH2 6257   1.152   3.147   4.452  0.6267 -0.3780 -0.4397
 2084TIP3    H1 6258   1.114   3.218   4.401 -0.1046 -0.6043 -0.2266
 2084TIP3    H2 6259   1.222   3.188   4.503  1.5400 -0.1885 -1.7840
 2085TIP3   OH2 6260   3.209   5.069   2.733  0.2893  0.6007  0.0694
 2085TIP3    H1 6261   3.225   5.070   2.639 -1.3118 -0.8029 -0.2642
 2085TIP3    H2 6262   3.123   5.111   2.743 -0.9261 -1.8201  0.5286
 2086TIP3   OH2 6263   1.086   2.632   4.722  0.2781  0.1537 -0.2807
 2086TIP3    H1 6264   1.131   2.647   4.639 -1.0316 -0.1001 -1.0640
 2086TIP3    H2 6265   1.122   2.550   4.755  1.1639  0.5057 -0.3235
 2087TIP3   OH2 6266   6.158   5.532   2.091  0.4780 -0.2181  0.3813
 2087TIP3    H1 6267   6.131   5.509   2.179  0.8992  0.7036  0.7734
 2087TIP3    H2 6268   6.214   5.609   2.103 -1.7875  1.7850 -0.9036
 2088TIP3   OH2 6269   0.510   4.089   3.909  0.3200 -0.4892  0.1361
 2088TIP3    H1 6270   0.542   4.158   3.966  1.6478  0.3541 -1.5323
 2088TIP3    H2 6271   0.494   4.133   3.825 -2.8428 -1.3980  0.1422
 2089TIP3   OH2 6272   2.022   4.515   4.580 -0.5762  0.1337  0.1851
 2089TIP3    H1 6273   1.978   4.450   4.524 -0.7265  2.2067 -2.2666
 2089TIP3    H2 6274   2.008   4.482   4.669 -1.4629 -2.6656 -0.8553
 2090TIP3   OH2 6275   5.715   5.335   4.970  0.2667  0.4542  0.7223
 2090TIP3    H1 6276   5.653   5.283   5.021  0.2620 -0.6843 -0.3953
 2090TIP3    H2 6277   5.787   5.275   4.952  0.6966  1.1218  0.1831
 2091TIP3   OH2 6278   6.280   0.696   5.024 -0.3877 -0.1144 -0.9433
 2091TIP3    H1 6279   6.195   0.738   5.034 -0.1074  0.0965  1.0588
 2091TIP3    H2 6280   6.268   0.608   5.060  0.1735 -0.1535 -0.8399
 2092TIP3   OH2 6281   5.780   4.635   1.843 -0.3094  0.2959 -0.4300
 2092TIP3    H1 6282   5.719   4.667   1.909  0.0357  0.8761 -0.3832
 2092TIP3    H2 6283   5.732   4.567   1.796 -1.1278  1.0134 -0.6535
 2093TIP3   OH2 6284   3.792   0.454   2.446  0.4258 -0.4866  0.0111
 2093TIP3    H1 6285   3.853   0.515   2.404 -0.4362  0.3123 -0.1214
 2093TIP3    H2 6286   3.736   0.510   2.500 -0.2491 -1.1876  0.0526
 2094TIP3   OH2 6287   4.723   1.519   2.781 -0.3928 -0.2115 -0.7193
 2094TIP3    H1 6288   4.812   1.546   2.806  0.2876 -1.3393 -1.8369
 2094TIP3    H2 6289   4.709   1.436   2.827 -0.2188 -0.8628 -1.8021
 2095TIP3   OH2 6290   3.375   0.492   4.257 -0.7748  0.8079  0.1321
 2095TIP3    H1 6291   3.437   0.493   4.331  0.4274 -1.9967 -0.6807
 2095TIP3    H2 6292   3.420   0.539   4.187  1.4782 -2.6573 -1.0258
 2096TIP3   OH2 6293   4.511   4.164   2.796  0.2255  0.4829  0.1876
 2096TIP3    H1 6294   4.508   4.183   2.890  1.2373  1.3818  0.0492
 2096TIP3    H2 6295   4.436   4.212   2.759  0.4981  1.0664  0.3827
 2097TIP3   OH2 6296   4.063   5.026   2.505  0.0527  0.0714 -0.2410
 2097TIP3    H1 6297   4.008   5.000   2.578 -0.5090 -2.4194 -1.4296
 2097TIP3    H2 6298   4.002   5.046   2.434  0.6268  0.1812 -0.7202
 2098TIP3   OH2 6299   5.818   5.108   1.980 -0.0185 -0.2734  0.3159
 2098TIP3    H1 6300   5.884   5.063   1.928  0.4618  0.3828  0.3354
 2098TIP3    H2 6301   5.735   5.085   1.940  0.3807  0.7713 -1.1992
 2099TIP3   OH2 6302   2.031   0.802   1.227  0.4314 -0.1997  0.2774
 2099TIP3    H1 6303   1.946   0.788   1.185  0.9548  1.7019 -1.5867
 2099TIP3    H2 6304   2.016   0.781   1.319 -2.3377  0.9915  0.1944
 2100TIP3   OH2 6305   4.002   2.428   1.274  0.0539 -0.1636 -0.5916
 2100TIP3    H1 6306   4.040   2.352   1.230 -0.3495 -0.6748 -0.0654
 2100TIP3    H2 6307   4.069   2.496   1.267  0.8490 -0.8915 -0.1215
 2101TIP3   OH2 6308   0.440   4.422   2.759 -0.5777 -0.4815  0.1448
 2101TIP3    H1 6309   0.533   4.408   2.742 -0.6956  0.1337 -1.0887
 2101TIP3    H2 6310   0.398   4.342   2.728 -0.8148  0.7077 -2.9341
 2102TIP3   OH2 6311   3.430   2.141   4.401  0.4759  0.4725  0.0671
 2102TIP3    H1 6312   3.420   2.085   4.477  0.5878 -0.6878 -0.7487
 2102TIP3    H2 6313   3.426   2.230   4.436 -0.7427 -0.0163  1.2564
 2103TIP3   OH2 6314   2.775   2.158   4.352  0.3287 -0.0353  0.4495
 2103TIP3    H1 6315   2.701   2.214   4.374 -0.6546 -1.6081  1.3903
 2103TIP3    H2 6316   2.840   2.178   4.420  0.9231  1.5487 -0.5381
 2104TIP3   OH2 6317   4.650   5.559   4.313  0.1939 -0.5591 -0.0988
 2104TIP3    H1 6318   4.669   5.473   4.276  0.4658  0.3964 -2.3279
 2104TIP3    H2 6319   4.736   5.592   4.342  0.3018 -0.4923 -0.4935
 2105TIP3   OH2 6320   1.476   5.219   1.495  0.6049  0.0413 -0.3971
 2105TIP3    H1 6321   1.441   5.294   1.542  0.2730  0.2085 -0.9052
 2105TIP3    H2 6322   1.435   5.223   1.409 -0.8084 -1.7234  0.1252
 2106TIP3   OH2 6323   4.438   2.494   2.051 -0.4962  0.3288 -0.5967
 2106TIP3    H1 6324   4.487   2.488   2.132  0.2634 -1.9831 -1.1471
 2106TIP3    H2 6325   4.346   2.484   2.077 -0.1773 -1.6490 -0.0711
 2107TIP3   OH2 6326   0.260   1.897   0.505  0.4101  0.0434  0.1190
 2107TIP3    H1 6327   0.269   1.992   0.499  0.0925  0.1170  0.6850
 2107TIP3    H2 6328   0.189   1.884   0.569  0.9742 -0.5818  0.6370
 2108TIP3   OH2 6329   0.847   1.695   4.476  0.4280 -0.2630 -0.2669
 2108TIP3    H1 6330   0.913   1.626   4.479  0.4034 -0.2880 -0.3052
 2108TIP3    H2 6331   0.893   1.772   4.441  1.3334  0.6883  2.6616
 2109TIP3   OH2 6332   1.487   0.266   5.143  0.3421  0.1671  0.0813
 2109TIP3    H1 6333   1.407   0.216   5.156 -0.5689  1.4475 -0.3612
 2109TIP3    H2 6334   1.552   0.223   5.199 -0.8775 -0.3912  1.1238
 2110TIP3   OH2 6335   4.775   5.993   4.890 -0.0337  0.5727  0.3987
 2110TIP3    H1 6336   4.789   5.947   4.808  0.8030 -1.5266  1.6157
 2110TIP3    H2 6337   4.712   5.939   4.938  0.5820  0.9408  1.6825
 2111TIP3   OH2 6338   3.416   4.212   3.115  0.4982 -0.2944  0.5015
 2111TIP3    H1 6339   3.438   4.209   3.022 -1.5810 -2.0378 -0.0206
 2111TIP3    H2 6340   3.455   4.293   3.146  1.6866  0.0936 -1.7675
 2112TIP3   OH2 6341   0.269   3.672   2.353  0.3650 -0.1974 -0.1786
 2112TIP3    H1 6342   0.289   3.642   2.441  1.0664 -1.7127 -0.8234
 2112TIP3    H2 6343   0.238   3.762   2.365  0.3950 -0.3887  1.5993
 2113TIP3   OH2 6344   0.051   0.311   1.561 -0.2926  0.5077 -0.3586
 2113TIP3    H1 6345   0.068   0.310   1.655 -0.4038 -0.1220 -0.3462
 2113TIP3    H2 6346   0.135   0.288   1.521 -0.0937  1.3272 -0.4439
 2114TIP3   OH2 6347   0.285   1.737   4.387 -0.5180  0.2272 -0.6406
 2114TIP3    H1 6348   0.255   1.698   4.469  1.0875  0.9034  0.3024
 2114TIP3    H2 6349   0.378   1.716   4.383 -0.3043  1.3002 -1.6692
 2115TIP3   OH2 6350   4.089   3.970   4.315 -0.4599  0.2776  0.5583
 2115TIP3    H1 6351   4.010   3.975   4.263 -0.7569  0.7633  1.0481
 2115TIP3    H2 6352   4.068   3.910   4.387 -0.3317  0.2762  0.5965
 2116TIP3   OH2 6353   3.191   2.207   3.900  0.0086  0.3077 -0.0541
 2116TIP3    H1 6354   3.236   2.188   3.982  0.8895  1.8258 -0.1443
 2116TIP3    H2 6355   3.115   2.149   3.900 -0.4760  0.8495  2.2144
 2117TIP3   OH2 6356   5.437   4.986   2.629 -0.5949  0.1161  0.2923
 2117TIP3    H1 6357   5.491   5.056   2.665 -0.2600  1.1314 -1.9895
 2117TIP3    H2 6358   5.498   4.930   2.583 -1.2559  0.4376 -1.0377
 2118TIP3   OH2 6359   3.075   4.942   1.281 -0.4085  0.5258  0.1555
 2118TIP3    H1 6360   3.043   4.853   1.269  1.1125 -0.0999  0.5482
 2118TIP3    H2 6361   3.030   4.973   1.360 -2.9737  1.1302 -1.4128
 2119TIP3   OH2 6362   1.541   3.748   0.601  0.1122  0.0066  0.7692
 2119TIP3    H1 6363   1.545   3.832   0.556 -1.7464  0.0023  0.5423
 2119TIP3    H2 6364   1.633   3.723   0.612  0.6516  0.9174 -1.2658
 2120TIP3   OH2 6365   1.270   4.512   4.974  0.0580 -0.2490  0.6231
 2120TIP3    H1 6366   1.188   4.498   5.020 -0.3188 -1.3067 -0.3249
 2120TIP3    H2 6367   1.252   4.583   4.914  0.0200 -0.0702  0.8448
 2121TIP3   OH2 6368   3.471   3.271   1.425 -0.1101 -0.5052 -0.0068
 2121TIP3    H1 6369   3.536   3.214   1.467 -0.7541 -0.9102  0.4489
 2121TIP3    H2 6370   3.486   3.357   1.465  0.1792 -0.5867  0.0636
 2122TIP3   OH2 6371   4.570   5.618   1.643 -0.3071  0.0577  0.3345
 2122TIP3    H1 6372   4.566   5.545   1.580  1.4465  1.1539 -1.1239
 2122TIP3    H2 6373   4.507   5.681   1.609 -0.4530  0.0246  0.5424
 2123TIP3   OH2 6374   4.665   2.250   1.165  0.2110 -0.1589  0.6698
 2123TIP3    H1 6375   4.638   2.165   1.130 -1.5772  0.0764  1.3864
 2123TIP3    H2 6376   4.759   2.241   1.180 -0.1171 -2.3809  1.7046
 2124TIP3   OH2 6377   4.270   1.415   1.295 -0.0841 -0.2408 -0.0966
 2124TIP3    H1 6378   4.233   1.474   1.230  1.1565  0.4946 -0.1704
 2124TIP3    H2 6379   4.322   1.352   1.244 -1.8687 -1.8074 -0.0689
 2125TIP3   OH2 6380   1.461   0.961   3.198 -0.1015  0.0612  0.6847
 2125TIP3    H1 6381   1.382   0.976   3.250 -0.6809  0.0227 -0.1632
 2125TIP3    H2 6382   1.436   0.986   3.109  1.1428  1.0053  0.5710
 2126TIP3   OH2 6383   5.708   4.009   4.144  0.2768  0.1288 -0.2091
 2126TIP3    H1 6384   5.727   3.917   4.163  0.0742 -0.0204 -0.7191
 2126TIP3    H2 6385   5.615   4.010   4.120 -0.2856  0.7784  1.8145
 2127TIP3   OH2 6386   4.830   0.418   0.895  0.2845 -0.3893 -0.0817
 2127TIP3    H1 6387   4.814   0.474   0.971 -1.4943 -0.3540 -0.4237
 2127TIP3    H2 6388   4.887   0.469   0.838  1.0764 -0.1424  0.9200
 2128TIP3   OH2 6389   2.812   0.033   0.464 -0.2752 -0.2319 -0.2465
 2128TIP3    H1 6390   2.831  -0.049   0.417  0.3831 -0.3059  0.1287
 2128TIP3    H2 6391   2.735   0.068   0.421 -0.6879 -1.1527 -0.2928
 2129TIP3   OH2 6392   5.638   3.920   0.298  0.5036 -0.7741 -0.2993
 2129TIP3    H1 6393   5.603   3.959   0.378 -0.0308  1.0262 -1.3384
 2129TIP3    H2 6394   5.575   3.853   0.274 -1.0588  0.8443 -0.8824
 2130TIP3   OH2 6395   5.587   5.873   0.367  0.0351 -0.1884  0.1712
 2130TIP3    H1 6396   5.643   5.942   0.333  0.6986 -0.7662  0.0685
 2130TIP3    H2 6397   5.553   5.907   0.450 -0.8344  0.8495 -0.5915
 2131TIP3   OH2 6398   0.248   3.670   0.047 -0.0462 -0.0651  0.1733
 2131TIP3    H1 6399   0.235   3.595   0.105 -2.4032  1.3262  1.6093
 2131TIP3    H2 6400   0.321   3.718   0.087 -0.2315 -0.2570  0.7595
 2132TIP3   OH2 6401   4.721   1.064   0.396 -0.1992  1.0247 -0.1452
 2132TIP3    H1 6402   4.671   1.022   0.466 -0.2419  1.1416 -0.1054
 2132TIP3    H2 6403   4.749   0.992   0.340 -2.0567  1.0952 -1.2652
 2133TIP3   OH2 6404   1.544   1.352   4.192 -0.2937 -0.1172  0.0051
 2133TIP3    H1 6405   1.495   1.433   4.178  0.6757  0.4179 -0.4622
 2133TIP3    H2 6406   1.564   1.321   4.103  0.5520 -0.0961  0.1797
 2134TIP3   OH2 6407   5.547   0.234   0.676 -0.6195  0.3838  0.4009
 2134TIP3    H1 6408   5.486   0.266   0.610 -0.0806  1.6327  0.4830
 2134TIP3    H2 6409   5.494   0.222   0.755 -1.0402  0.0033  0.0607
 2135TIP3   OH2 6410   0.690   0.750   1.551  0.1968  0.1399  0.3251
 2135TIP3    H1 6411   0.743   0.813   1.501  0.3512 -1.1750 -1.2192
 2135TIP3    H2 6412   0.741   0.736   1.631  0.4321  1.5419  0.4518
 2136TIP3   OH2 6413   0.094   0.666   1.317  0.4003  0.4329 -0.7800
 2136TIP3    H1 6414   0.042   0.641   1.241 -0.6622  0.2822 -0.0270
 2136TIP3    H2 6415   0.051   0.622   1.391  0.2301  2.1567  0.1829
 2137TIP3   OH2 6416   0.950   3.796   0.025 -0.3154 -0.0981 -0.3290
 2137TIP3    H1 6417   0.887   3.755  -0.034 -1.5802  0.0476  0.8903
 2137TIP3    H2 6418   0.990   3.723   0.072 -1.9096 -0.0492  1.1843
 2138TIP3   OH2 6419   5.067   0.271   2.316 -0.0223  0.1212  0.7919
 2138TIP3    H1 6420   5.080   0.255   2.223  1.0139 -0.0848  0.9618
 2138TIP3    H2 6421   4.982   0.231   2.336  0.4893 -1.2711  0.2725
 2139TIP3   OH2 6422   0.998   4.170   5.178  0.9295 -0.3779  0.5019
 2139TIP3    H1 6423   0.941   4.150   5.103  0.6173  0.8384  0.4010
 2139TIP3    H2 6424   1.072   4.109   5.168 -1.0994 -3.2414  1.5819
 2140TIP3   OH2 6425   1.838   5.297   3.500 -0.3694  0.8504 -0.1678
 2140TIP3    H1 6426   1.831   5.372   3.560 -0.1503  0.0818  0.8631
 2140TIP3    H2 6427   1.747   5.271   3.485 -0.4864  1.7261 -1.0876
 2141TIP3   OH2 6428   6.112   1.837   4.891  0.0229 -1.1616 -0.7018
 2141TIP3    H1 6429   6.188   1.859   4.945 -1.0623 -0.9288  0.7671
 2141TIP3    H2 6430   6.091   1.919   4.846 -0.1019 -0.8974 -0.1685
 2142TIP3   OH2 6431   3.782   5.030   3.014  0.0186  0.0695  0.0397
 2142TIP3    H1 6432   3.802   5.092   2.945  0.2453  0.3957  0.3934
 2142TIP3    H2 6433   3.687   5.021   3.012 -0.0007  0.3071 -0.1194
 2143TIP3   OH2 6434   5.323   2.859   0.543 -0.1226 -0.5803  0.2245
 2143TIP3    H1 6435   5.311   2.949   0.514  1.3120 -0.0787  1.1177
 2143TIP3    H2 6436   5.323   2.864   0.639  0.4356 -1.4513  0.2802
 2144TIP3   OH2 6437   4.626   0.082   4.356 -0.0706  0.7238  0.2153
 2144TIP3    H1 6438   4.610  -0.006   4.322  0.5438 -0.3902  2.6034
 2144TIP3    H2 6439   4.719   0.099   4.338  0.1814  0.2544  1.0271
 2145TIP3   OH2 6440   3.314   5.505   1.155 -0.2680  0.6739 -0.3787
 2145TIP3    H1 6441   3.262   5.466   1.084  1.8931 -1.7537 -0.7800
 2145TIP3    H2 6442   3.375   5.435   1.181  1.5370  2.7346  1.2990
 2146TIP3   OH2 6443   2.961   2.013   2.137 -0.5108 -0.1383 -0.6226
 2146TIP3    H1 6444   2.990   2.088   2.086 -0.3988 -0.1089 -0.5141
 2146TIP3    H2 6445   2.911   2.050   2.210  0.2324 -0.1284 -0.1140
 2147TIP3   OH2 6446   5.151   3.671   0.040 -0.2964  0.4360  0.2450
 2147TIP3    H1 6447   5.173   3.579   0.024 -0.8283  0.1494  1.1119
 2147TIP3    H2 6448   5.184   3.689   0.128 -0.4162  1.0093  0.1783
 2148TIP3   OH2 6449   2.345   4.877   3.618  0.2023  0.3827 -0.2260
 2148TIP3    H1 6450   2.283   4.833   3.676 -1.9442  0.4496 -2.3080
 2148TIP3    H2 6451   2.368   4.958   3.664 -0.1040 -0.3210  1.2170
 2149TIP3   OH2 6452   3.678   1.909   1.745  0.7748 -0.3624 -0.1866
 2149TIP3    H1 6453   3.761   1.871   1.773  0.6703 -1.0174 -0.7642
 2149TIP3    H2 6454   3.698   2.002   1.734  0.7983 -0.0050  2.1789
 2150TIP3   OH2 6455   0.563   2.147   3.399 -0.1499  0.4402 -0.7758
 2150TIP3    H1 6456   0.489   2.207   3.406 -0.3427  0.1109  0.1926
 2150TIP3    H2 6457   0.577   2.136   3.305  0.1541  2.3001 -0.9776
 2151TIP3   OH2 6458   0.152   2.674   2.116 -0.0410 -0.0783 -0.1328
 2151TIP3    H1 6459   0.237   2.717   2.115 -0.8208  1.6855  2.0332
 2151TIP3    H2 6460   0.133   2.661   2.209 -1.1344 -2.5920 -0.6192
 2152TIP3   OH2 6461   3.565   2.914   3.670 -0.0456  0.4343  0.5374
 2152TIP3    H1 6462   3.488   2.958   3.705  0.6628  0.6357  1.9060
 2152TIP3    H2 6463   3.625   2.985   3.645 -0.2928  0.2816 -0.5570
 2153TIP3   OH2 6464   0.126   5.614   3.282 -0.4546 -0.0146 -0.2673
 2153TIP3    H1 6465   0.169   5.538   3.244 -0.8793 -0.0740 -0.6365
 2153TIP3    H2 6466   0.111   5.673   3.208 -0.5266  0.2398 -0.0534
 2154TIP3   OH2 6467   0.166   0.208   1.839  0.2394  0.3842 -0.3081
 2154TIP3    H1 6468   0.090   0.155   1.862  0.7407 -0.6256 -0.8849
 2154TIP3    H2 6469   0.142   0.298   1.864  0.0770 -0.3302  2.4328
 2155TIP3   OH2 6470   4.146   1.180   3.727 -0.4399  0.3838  1.3688
 2155TIP3    H1 6471   4.140   1.217   3.815  2.4673  0.3978  1.6640
 2155TIP3    H2 6472   4.178   1.252   3.673 -1.3815  0.1395  0.4583
 2156TIP3   OH2 6473   0.952   2.583   4.354  0.1084  0.0378  0.3482
 2156TIP3    H1 6474   0.925   2.522   4.285 -0.3829 -0.3334  0.8562
 2156TIP3    H2 6475   0.890   2.567   4.425  2.0323 -1.3205  1.8451
 2157TIP3   OH2 6476   4.657   2.493   3.138 -0.9027  0.1473 -0.6439
 2157TIP3    H1 6477   4.645   2.577   3.184 -3.0282  0.3662 -1.4547
 2157TIP3    H2 6478   4.650   2.427   3.207  0.7520  0.6110 -0.0025
 2158TIP3   OH2 6479   3.137   2.114   2.420 -0.5961  0.1957 -0.1416
 2158TIP3    H1 6480   3.067   2.054   2.396  0.9152 -1.2403 -1.2591
 2158TIP3    H2 6481   3.194   2.062   2.478 -0.0568  1.0600  0.1166
 2159TIP3   OH2 6482   3.631   0.900   1.376 -0.1673 -0.0749 -0.5047
 2159TIP3    H1 6483   3.648   0.890   1.469 -1.7234  2.3963  0.1609
 2159TIP3    H2 6484   3.560   0.839   1.357  0.9953 -1.4949 -0.4109
 2160TIP3   OH2 6485   5.580   4.119   2.511 -0.3919 -0.5743  0.0860
 2160TIP3    H1 6486   5.525   4.083   2.442 -1.1655  1.2493 -0.2942
 2160TIP3    H2 6487   5.611   4.042   2.559 -0.8560 -1.8122 -1.4952
 2161TIP3   OH2 6488   2.082   0.086   1.671 -0.1530 -0.6999 -0.3864
 2161TIP3    H1 6489   2.029   0.013   1.639 -0.3982  0.0508 -1.7660
 2161TIP3    H2 6490   2.132   0.114   1.595  0.5246  0.0718  0.3286
 2162TIP3   OH2 6491   5.847   2.478   3.331  0.1601 -0.5465 -0.3522
 2162TIP3    H1 6492   5.808   2.532   3.400 -1.9645 -0.8942 -1.1950
 2162TIP3    H2 6493   5.902   2.415   3.377  0.2401  0.3822  0.8616
 2163TIP3   OH2 6494   1.410   2.060   1.734 -0.5712 -0.3324  0.4613
 2163TIP3    H1 6495   1.322   2.027   1.752 -0.3382 -0.7213  0.9260
 2163TIP3    H2 6496   1.418   2.056   1.639 -0.6497 -1.3851  0.4882
 2164TIP3   OH2 6497   5.325   0.446   4.576 -0.0262  0.0421  0.5974
 2164TIP3    H1 6498   5.261   0.374   4.573  0.5319 -0.5538 -3.7210
 2164TIP3    H2 6499   5.410   0.402   4.577  0.3234  0.7091  0.1845
 2165TIP3   OH2 6500   4.269   2.032   4.235 -0.4656 -0.0845  0.2299
 2165TIP3    H1 6501   4.223   2.036   4.320  0.8839 -1.6792  1.0986
 2165TIP3    H2 6502   4.211   2.078   4.175 -1.9621  0.2279  1.8103
 2166TIP3   OH2 6503   2.382   2.159   3.229  0.4909 -0.0518 -0.5413
 2166TIP3    H1 6504   2.371   2.098   3.302 -0.2601  0.5365 -0.1542
 2166TIP3    H2 6505   2.425   2.236   3.267 -1.2046  0.8540 -0.3854
 2167TIP3   OH2 6506   3.310   4.526   3.338  0.0133  0.0995  0.0542
 2167TIP3    H1 6507   3.306   4.559   3.428 -2.1180 -0.4502  0.2138
 2167TIP3    H2 6508   3.383   4.463   3.338  0.0354  0.1065  1.3879
 2168TIP3   OH2 6509   6.187   3.094   1.308  0.2734 -0.3780 -0.3584
 2168TIP3    H1 6510   6.134   3.054   1.239  2.0582 -1.7331 -1.0177
 2168TIP3    H2 6511   6.188   3.187   1.286 -0.8768 -0.4858 -0.9644
 2169TIP3   OH2 6512   3.130   3.244   2.467 -0.3564  0.5003  0.2985
 2169TIP3    H1 6513   3.150   3.208   2.553 -2.0972  1.3535  1.1253
 2169TIP3    H2 6514   3.120   3.168   2.410  1.9749 -0.0364  0.5266
 2170TIP3   OH2 6515   2.506   5.776   1.088  0.6655 -0.3064 -0.2275
 2170TIP3    H1 6516   2.582   5.720   1.075  0.7274 -0.6279  1.3184
 2170TIP3    H2 6517   2.433   5.730   1.047  1.1888 -0.2708 -1.2088
 2171TIP3   OH2 6518   3.023   2.046   1.134  0.4708 -0.3235 -0.2127
 2171TIP3    H1 6519   3.113   2.027   1.160  0.8266  1.0647 -0.3213
 2171TIP3    H2 6520   3.029   2.130   1.087 -0.8943 -0.1377 -0.0959
 2172TIP3   OH2 6521   3.551   5.612   1.420  0.2634 -0.3758  0.0218
 2172TIP3    H1 6522   3.609   5.587   1.348 -0.8476  0.3729 -1.1739
 2172TIP3    H2 6523   3.487   5.541   1.425 -0.4790  0.2253 -0.6733
 2173TIP3   OH2 6524   0.041   0.402   3.830 -0.1131  0.0554 -0.3127
 2173TIP3    H1 6525   0.083   0.423   3.747  1.4834  0.6987  0.6001
 2173TIP3    H2 6526   0.114   0.397   3.892 -1.3281  0.2959  1.1858
 2174TIP3   OH2 6527   2.879   3.919   4.079  0.2531 -0.0640  0.1909
 2174TIP3    H1 6528   2.858   3.861   4.006  0.0538  0.7566 -0.4255
 2174TIP3    H2 6529   2.806   3.982   4.081  0.4147  0.1075  0.8968
 2175TIP3   OH2 6530   3.805   0.749   0.485 -0.0010 -0.0741  0.2386
 2175TIP3    H1 6531   3.751   0.688   0.535 -1.0747  0.5626 -0.1055
 2175TIP3    H2 6532   3.780   0.735   0.394 -0.7813  1.3209  0.2012
 2176TIP3   OH2 6533   6.011   4.559   3.238  0.2867 -0.2247  0.1752
 2176TIP3    H1 6534   5.918   4.536   3.245 -0.3951  1.5025 -1.8558
 2176TIP3    H2 6535   6.020   4.637   3.294  0.2575  0.1964 -0.4008
 2177TIP3   OH2 6536   3.983   2.413   3.087 -0.4077  0.4406 -0.0123
 2177TIP3    H1 6537   3.966   2.463   3.167  1.2712 -0.8364  1.2148
 2177TIP3    H2 6538   4.036   2.338   3.116 -0.3754 -0.4659 -2.2139
 2178TIP3   OH2 6539   3.949   5.716   2.529 -0.6765 -0.1310 -0.0572
 2178TIP3    H1 6540   3.887   5.788   2.538 -0.7453 -0.2352  0.3432
 2178TIP3    H2 6541   3.970   5.691   2.619  0.5468  0.4178 -0.1772
 2179TIP3   OH2 6542   3.288   5.231   4.378  0.5819  0.0226 -0.3497
 2179TIP3    H1 6543   3.254   5.304   4.431 -0.3257 -0.0324 -0.8294
 2179TIP3    H2 6544   3.377   5.256   4.356  0.8248  0.2578  0.8141
 2180TIP3   OH2 6545   3.057   5.032   2.177 -0.1597 -0.1155 -0.3073
 2180TIP3    H1 6546   3.121   5.103   2.184 -1.8465  1.3933  0.8787
 2180TIP3    H2 6547   3.109   4.954   2.161  1.9947  0.9874  0.8347
 2181TIP3   OH2 6548   6.218   4.184   2.163 -0.5259 -0.2523  0.2094
 2181TIP3    H1 6549   6.198   4.277   2.151 -0.5546  0.0979  2.4481
 2181TIP3    H2 6550   6.172   4.160   2.244  1.1704 -1.6496  0.8203
 2182TIP3   OH2 6551   2.113   5.591   4.942 -0.6755  0.6040  0.4391
 2182TIP3    H1 6552   2.123   5.645   5.020 -0.2747  0.3685  0.5550
 2182TIP3    H2 6553   2.030   5.619   4.903  0.0785  2.1615 -0.1711
 2183TIP3   OH2 6554   1.904   1.480   0.803 -0.3554  0.0506 -0.0426
 2183TIP3    H1 6555   1.904   1.546   0.873  0.5494 -0.5968  0.6032
 2183TIP3    H2 6556   1.939   1.527   0.727  1.4164  0.0738  0.7114
 2184TIP3   OH2 6557   5.155   3.209   2.045  0.0729 -0.0197 -0.1008
 2184TIP3    H1 6558   5.146   3.130   1.992 -0.5526  1.4430 -2.2926
 2184TIP3    H2 6559   5.249   3.214   2.065  0.0825 -1.4152  0.2587
 2185TIP3   OH2 6560   4.783   0.549   3.298 -0.7385 -0.2041 -0.0371
 2185TIP3    H1 6561   4.691   0.575   3.293 -0.6233  0.5283  1.2860
 2185TIP3    H2 6562   4.827   0.608   3.237 -1.1370 -0.5187 -0.6358
 2186TIP3   OH2 6563   0.162   1.335   2.084  0.1535 -0.8411  0.4229
 2186TIP3    H1 6564   0.118   1.419   2.088  1.4602 -0.0371 -0.9028
 2186TIP3    H2 6565   0.112   1.284   2.020  1.2689  0.2025 -1.3714
 2187TIP3   OH2 6566   2.445   1.076   2.824  0.4258 -0.6983  0.0068
 2187TIP3    H1 6567   2.447   1.161   2.779  0.3142 -2.0045 -2.6300
 2187TIP3    H2 6568   2.354   1.049   2.819  0.2890 -0.6308  1.6286
 2188TIP3   OH2 6569   5.637   0.512   4.947  0.1811 -0.1994 -0.0804
 2188TIP3    H1 6570   5.644   0.604   4.921 -1.8929  0.5520  1.6592
 2188TIP3    H2 6571   5.569   0.477   4.890  1.0097 -0.6986 -0.7792
 2189TIP3   OH2 6572   5.879   4.953   1.230 -0.7138  0.5159 -0.1720
 2189TIP3    H1 6573   5.901   5.006   1.153 -0.5926  0.3160 -0.2769
 2189TIP3    H2 6574   5.937   4.985   1.299  0.1450 -0.2129 -0.5258
 2190TIP3   OH2 6575   5.302   0.889   3.525 -0.6073  0.5597 -0.4857
 2190TIP3    H1 6576   5.312   0.796   3.502 -0.0648  0.2379  0.9342
 2190TIP3    H2 6577   5.212   0.910   3.503 -1.1981 -0.7372  0.5429
 2191TIP3   OH2 6578   3.751   4.645   2.325  0.4912  0.2034 -0.0301
 2191TIP3    H1 6579   3.714   4.557   2.336  1.4033 -0.1188  0.5831
 2191TIP3    H2 6580   3.837   4.630   2.287  0.5364  0.8564 -0.1866
 2192TIP3   OH2 6581   1.877   5.064   2.773  0.4709  0.1380  0.0209
 2192TIP3    H1 6582   1.863   5.051   2.867  1.3252  0.6763  0.2351
 2192TIP3    H2 6583   1.944   5.132   2.768  1.7771 -1.1785 -0.9560
 2193TIP3   OH2 6584   0.407   4.933   4.211 -0.0638 -0.5414 -0.1989
 2193TIP3    H1 6585   0.501   4.939   4.192 -0.0555 -0.4039 -0.1102
 2193TIP3    H2 6586   0.377   5.023   4.218  0.3272 -0.5323  2.3930
 2194TIP3   OH2 6587   0.658   3.388   4.011  0.0170  0.4700  0.2311
 2194TIP3    H1 6588   0.606   3.347   4.080  0.2801 -0.6621 -0.2245
 2194TIP3    H2 6589   0.745   3.399   4.050  0.8912 -2.4720 -0.6510
 2195TIP3   OH2 6590   0.345   0.943   4.987  0.0518 -0.0944  0.6766
 2195TIP3    H1 6591   0.342   0.848   4.986  0.3493 -0.1048  0.7045
 2195TIP3    H2 6592   0.296   0.968   5.066  0.5401 -0.2484  1.0313
 2196TIP3   OH2 6593   3.404   3.715   3.864  0.8122  0.0716  0.2253
 2196TIP3    H1 6594   3.360   3.787   3.818  3.5179  1.2272 -0.7750
 2196TIP3    H2 6595   3.375   3.725   3.955 -0.3617  1.2112 -0.2202
 2197TIP3   OH2 6596   1.128   0.501   4.052 -0.1549  0.6006 -0.2108
 2197TIP3    H1 6597   1.125   0.481   3.959 -0.2626 -0.7973  0.0743
 2197TIP3    H2 6598   1.042   0.474   4.085  0.2819  0.0470  0.4827
 2198TIP3   OH2 6599   3.783   2.340   4.426 -0.2380  0.3317 -0.5901
 2198TIP3    H1 6600   3.792   2.374   4.336  1.3006  0.4035 -0.4400
 2198TIP3    H2 6601   3.758   2.249   4.414 -1.0590  0.6011 -1.0595
 2199TIP3   OH2 6602   1.402   3.582   2.250 -0.0915 -0.0912 -0.2487
 2199TIP3    H1 6603   1.460   3.656   2.269 -3.2290  2.9837 -1.5028
 2199TIP3    H2 6604   1.341   3.581   2.323  0.8376 -2.6982  0.6092
 2200TIP3   OH2 6605   1.345   3.543   3.823  0.3801 -0.6257 -0.8886
 2200TIP3    H1 6606   1.352   3.632   3.788 -3.4364  0.9793  1.6706
 2200TIP3    H2 6607   1.294   3.495   3.758 -2.3960  0.8747  0.0054
 2201TIP3   OH2 6608   4.934   2.040   4.505 -0.3140 -0.3247  0.9852
 2201TIP3    H1 6609   4.961   2.080   4.423  1.5975 -0.1227  1.6644
 2201TIP3    H2 6610   4.908   1.951   4.481 -0.3260 -0.0865  0.0963
 2202TIP3   OH2 6611   3.935   1.663   1.194  0.1217 -0.2924  0.5610
 2202TIP3    H1 6612   3.983   1.598   1.143 -1.0598 -1.6341  1.1111
 2202TIP3    H2 6613   3.863   1.689   1.137  0.5514  0.5055  0.3701
 2203TIP3   OH2 6614   2.923   4.208   2.456  0.2421 -0.1443 -0.6816
 2203TIP3    H1 6615   3.017   4.212   2.437  0.2998 -1.6103 -0.7593
 2203TIP3    H2 6616   2.917   4.232   2.549  0.3229  3.2256 -1.3955
 2204TIP3   OH2 6617   6.025   5.089   2.931  0.6523  0.1288  0.0621
 2204TIP3    H1 6618   5.943   5.124   2.894 -0.1253 -1.4645  0.1718
 2204TIP3    H2 6619   6.028   5.123   3.020 -0.4261 -0.5772  0.3896
 2205TIP3   OH2 6620   2.318   5.212  -0.019 -0.1899 -0.5577  0.0193
 2205TIP3    H1 6621   2.365   5.184   0.060  0.2330 -0.9562 -0.3655
 2205TIP3    H2 6622   2.259   5.140  -0.039  2.1380 -2.0597 -1.9739
 2206TIP3   OH2 6623   2.149   2.064   2.685 -0.4944 -0.0370 -0.2819
 2206TIP3    H1 6624   2.152   2.141   2.742 -1.5447 -1.0550  1.2461
 2206TIP3    H2 6625   2.148   1.990   2.746  1.4185 -1.3284 -1.7152
 2207TIP3   OH2 6626   0.877   4.742   0.688 -0.2102  0.3889 -0.0009
 2207TIP3    H1 6627   0.933   4.757   0.764  1.3941 -0.4659 -0.9586
 2207TIP3    H2 6628   0.930   4.771   0.613 -1.5183  0.6582 -0.8676
 2208TIP3   OH2 6629   0.812   5.756   1.046 -0.1778 -0.2422 -0.6118
 2208TIP3    H1 6630   0.766   5.675   1.025  0.0833 -0.9573  1.3241
 2208TIP3    H2 6631   0.866   5.774   0.970 -2.1351 -0.4655 -2.1341
 2209TIP3   OH2 6632   3.422   4.910   1.538  0.2631 -0.2326  0.4560
 2209TIP3    H1 6633   3.412   4.818   1.513 -0.3488  0.0505 -0.3602
 2209TIP3    H2 6634   3.447   4.906   1.631  1.3178 -1.2504  0.1562
 2210TIP3   OH2 6635   5.339   1.748   0.296 -0.2841  0.0838  1.2327
 2210TIP3    H1 6636   5.387   1.668   0.314 -0.1373 -0.2364 -0.4933
 2210TIP3    H2 6637   5.366   1.808   0.366  2.5799 -0.1145  0.4364
 2211TIP3   OH2 6638   3.135   1.331   2.959  0.1014 -0.6630  0.3469
 2211TIP3    H1 6639   3.126   1.248   2.911  0.1563  0.4701 -1.7130
 2211TIP3    H2 6640   3.228   1.336   2.979  0.4180 -0.2888 -1.1148
 2212TIP3   OH2 6641   1.613   3.459   1.421  0.2192  0.1672  0.4851
 2212TIP3    H1 6642   1.707   3.457   1.437  0.4435  0.5038 -0.7340
 2212TIP3    H2 6643   1.582   3.537   1.468  0.7481  0.7581 -0.1407
 2213TIP3   OH2 6644   0.133   4.722   3.246 -0.5803  0.7745 -0.0871
 2213TIP3    H1 6645   0.160   4.811   3.222  0.4399  0.2961 -0.8153
 2213TIP3    H2 6646   0.103   4.683   3.164  0.4879 -0.0523 -0.1169
 2214TIP3   OH2 6647   4.128   2.838   0.655  0.1025  0.2748  0.0877
 2214TIP3    H1 6648   4.189   2.774   0.618 -0.4077  0.5581 -1.2994
 2214TIP3    H2 6649   4.184   2.912   0.680  0.4712  0.0389 -0.0280
 2215TIP3   OH2 6650   0.767   2.959   3.386 -0.1326 -0.0954 -0.1064
 2215TIP3    H1 6651   0.705   3.016   3.431 -0.1066 -0.6156  0.6051
 2215TIP3    H2 6652   0.711   2.899   3.336 -0.3335 -1.8383  2.0606
 2216TIP3   OH2 6653   1.307   2.347   5.049  0.4552 -0.0269  0.1003
 2216TIP3    H1 6654   1.397   2.373   5.071  0.2029  0.2712  0.8116
 2216TIP3    H2 6655   1.258   2.358   5.131  0.0785 -1.6360  0.1217
 2217TIP3   OH2 6656   4.892   3.094   5.023 -0.1888 -0.2892  0.5068
 2217TIP3    H1 6657   4.919   3.003   5.008 -1.0529 -0.4065 -0.4147
 2217TIP3    H2 6658   4.818   3.088   5.083  0.5076 -0.1014  1.4013
 2218TIP3   OH2 6659   2.356   2.782   0.275  0.6348  0.0426 -0.4689
 2218TIP3    H1 6660   2.317   2.847   0.217 -0.0784  0.6124  0.6295
 2218TIP3    H2 6661   2.427   2.744   0.223 -1.4419 -1.1630 -2.5832
 2219TIP3   OH2 6662  -0.014   1.177   0.200 -0.0052 -0.2641  0.0692
 2219TIP3    H1 6663   0.038   1.196   0.122 -0.1920 -2.1353 -0.5590
 2219TIP3    H2 6664  -0.016   1.081   0.205 -0.0400 -0.1950  2.3591
 2220TIP3   OH2 6665   4.701   4.381   0.137 -0.5068  0.0839  0.4328
 2220TIP3    H1 6666   4.755   4.311   0.173  0.4948  0.2454 -0.7034
 2220TIP3    H2 6667   4.711   4.454   0.198  1.3895  0.4528 -0.2690
 2221TIP3   OH2 6668   5.465   4.653   0.497 -0.0347 -0.4809 -0.4526
 2221TIP3    H1 6669   5.471   4.661   0.593  0.0509 -2.7173 -0.2235
 2221TIP3    H2 6670   5.552   4.628   0.469 -0.0417  0.2435 -1.1449
 2222TIP3   OH2 6671   5.852   3.778   1.121 -1.0624  0.5632  0.2301
 2222TIP3    H1 6672   5.864   3.873   1.129  1.1549  0.2722  0.9824
 2222TIP3    H2 6673   5.852   3.746   1.211 -1.8877 -0.1726 -0.0147
 2223TIP3   OH2 6674   2.552   5.336   3.501  0.3228  0.0543 -0.2150
 2223TIP3    H1 6675   2.613   5.313   3.571  3.2880  1.9049 -1.9275
 2223TIP3    H2 6676   2.605   5.328   3.421 -2.1008  0.6274 -1.9683
 2224TIP3   OH2 6677   5.505   0.647   2.260  0.0785 -0.0528  0.3224
 2224TIP3    H1 6678   5.583   0.631   2.312  1.2829 -1.3106 -1.7104
 2224TIP3    H2 6679   5.441   0.584   2.293  0.4204 -0.0208  1.0489
 2225TIP3   OH2 6680   3.600   2.670   1.452 -0.3299 -0.1834 -0.1678
 2225TIP3    H1 6681   3.609   2.575   1.452 -2.0665 -0.3783 -0.2576
 2225TIP3    H2 6682   3.595   2.695   1.544 -0.6559 -0.2616 -0.1656
 2226TIP3   OH2 6683   4.425   4.537   0.088  0.0733 -0.3752  0.1061
 2226TIP3    H1 6684   4.353   4.564   0.145 -0.6502  2.9436 -2.0918
 2226TIP3    H2 6685   4.428   4.441   0.097 -1.2715 -0.2319  4.0047
 2227TIP3   OH2 6686   0.441   3.168   0.828  0.2048 -0.2502 -0.1464
 2227TIP3    H1 6687   0.425   3.210   0.912  0.3231 -1.4164  0.4719
 2227TIP3    H2 6688   0.445   3.241   0.766 -0.2757  0.5956  0.7826
 2228TIP3   OH2 6689   1.089   4.129   3.046 -0.4462 -0.6788 -0.1584
 2228TIP3    H1 6690   1.083   4.146   3.140 -1.9779  0.1493 -0.3620
 2228TIP3    H2 6691   1.181   4.144   3.024  0.7043 -4.0838  1.7246
 2229TIP3   OH2 6692   4.322   4.222   1.521 -0.1622  0.2441 -0.7855
 2229TIP3    H1 6693   4.259   4.280   1.563 -0.4563 -0.1707 -0.6420
 2229TIP3    H2 6694   4.268   4.163   1.467  0.0336 -0.5450 -0.1468
 2230TIP3   OH2 6695   2.358   4.469   1.899 -0.3694 -0.1354 -0.3728
 2230TIP3    H1 6696   2.360   4.383   1.940 -2.4708 -1.0622 -2.0480
 2230TIP3    H2 6697   2.450   4.487   1.877  0.1933 -1.6054  0.6147
 2231TIP3   OH2 6698   1.023   2.939   4.530  0.0487 -0.0600  0.6195
 2231TIP3    H1 6699   1.049   2.959   4.620 -1.1834  3.9127  0.2931
 2231TIP3    H2 6700   1.066   3.007   4.477 -0.7697 -1.1407 -1.5506
 2232TIP3   OH2 6701   2.267   3.987   0.592 -0.7679 -0.1869  0.2458
 2232TIP3    H1 6702   2.193   3.943   0.550 -1.3584 -0.1324  1.1948
 2232TIP3    H2 6703   2.251   3.976   0.686 -0.9104  1.9819  0.5341
 2233TIP3   OH2 6704   2.849   3.266   0.917  0.3598  0.9914  0.3170
 2233TIP3    H1 6705   2.829   3.258   1.010  0.3495  1.7534  0.3928
 2233TIP3    H2 6706   2.785   3.210   0.874  1.3292 -0.5580  0.8410
 2234TIP3   OH2 6707   5.471   3.506   0.039  0.0671  0.2751  0.1747
 2234TIP3    H1 6708   5.382   3.472   0.050  0.4232 -0.3692  1.2320
 2234TIP3    H2 6709   5.485   3.506  -0.056  0.0356 -2.5993  0.0755
 2235TIP3   OH2 6710   2.800   0.942   4.516 -0.3828 -0.4429 -0.4392
 2235TIP3    H1 6711   2.830   0.866   4.567 -0.6778 -1.2808 -1.4952
 2235TIP3    H2 6712   2.873   1.003   4.520  0.0480 -0.9742  0.0314
 2236TIP3   OH2 6713   4.346   4.407   0.933 -0.2445  0.5399 -0.0667
 2236TIP3    H1 6714   4.355   4.502   0.927  1.4983  0.4611  0.6134
 2236TIP3    H2 6715   4.311   4.392   1.021  1.8614  0.4957  0.8250
 2237TIP3   OH2 6716   2.114   4.247   2.948 -0.3955  0.6100 -0.3007
 2237TIP3    H1 6717   2.088   4.232   2.857 -1.1746  1.1114 -0.1722
 2237TIP3    H2 6718   2.178   4.178   2.966  0.6768  1.2100 -1.5887
 2238TIP3   OH2 6719   4.184   3.108   4.375 -0.0157  0.1399 -0.5183
 2238TIP3    H1 6720   4.271   3.132   4.343 -0.0770  0.9787 -0.0903
 2238TIP3    H2 6721   4.197   3.091   4.468 -0.0418 -1.2032 -0.7402
 2239TIP3   OH2 6722   1.518   0.999   1.833  0.4600 -0.1939  0.2615
 2239TIP3    H1 6723   1.431   1.037   1.821 -0.2149 -1.6087  0.5033
 2239TIP3    H2 6724   1.552   1.042   1.911  0.1676  0.6900 -0.0892
 2240TIP3   OH2 6725   0.137   2.593   1.795  0.0180  0.0288  0.5913
 2240TIP3    H1 6726   0.115   2.561   1.708  0.3571  0.4808  0.3329
 2240TIP3    H2 6727   0.232   2.599   1.796  0.1268 -1.3232  1.4866
 2241TIP3   OH2 6728   3.179   0.775   1.189  0.2909  0.2074 -0.2370
 2241TIP3    H1 6729   3.150   0.724   1.264  0.8638  1.5215  0.9009
 2241TIP3    H2 6730   3.107   0.834   1.169  1.2114  1.8953  1.1694
 2242TIP3   OH2 6731   0.480   4.587   0.178 -0.0897 -0.2798  0.1994
 2242TIP3    H1 6732   0.543   4.642   0.224 -0.4671 -1.0397  1.6806
 2242TIP3    H2 6733   0.527   4.507   0.158  0.0399  0.0004 -0.6908
 2243TIP3   OH2 6734   6.304   5.105   2.835 -0.0430  0.3784  0.3108
 2243TIP3    H1 6735   6.214   5.105   2.867  0.3140 -0.8568  1.4498
 2243TIP3    H2 6736   6.299   5.065   2.749 -0.8148  2.1967 -0.5440
 2244TIP3   OH2 6737   3.358   3.241   4.187  0.0262  0.4659  0.0694
 2244TIP3    H1 6738   3.313   3.259   4.269 -0.9035  2.1807 -0.7659
 2244TIP3    H2 6739   3.307   3.171   4.146  1.2650 -1.3722  1.4817
 2245TIP3   OH2 6740   4.611   3.705   4.786  0.1600  0.1041 -0.4476
 2245TIP3    H1 6741   4.694   3.658   4.793 -0.0953 -0.7833 -2.5665
 2245TIP3    H2 6742   4.548   3.638   4.757 -1.3593  0.7199  1.2579
 2246TIP3   OH2 6743   0.688   2.593   1.729  0.0841 -0.1187 -0.0101
 2246TIP3    H1 6744   0.719   2.538   1.802 -0.7457 -2.7663 -1.5054
 2246TIP3    H2 6745   0.762   2.651   1.711  0.1804  0.9666  3.1099
 2247TIP3   OH2 6746   2.138   0.866   0.884 -0.3540 -0.4187  0.1203
 2247TIP3    H1 6747   2.073   0.936   0.896  0.0785 -0.1634  1.1303
 2247TIP3    H2 6748   2.134   0.845   0.791 -0.4347  1.0205 -0.2287
 2248TIP3   OH2 6749   4.806   4.900   3.892 -0.4084 -0.1738 -0.6310
 2248TIP3    H1 6750   4.807   4.996   3.892  0.3947 -0.1736 -0.7332
 2248TIP3    H2 6751   4.724   4.877   3.849  0.2660  0.4833 -2.3624
 2249TIP3   OH2 6752   2.327   3.207   1.408 -0.6626  0.3753 -0.2304
 2249TIP3    H1 6753   2.385   3.133   1.388  0.2095  0.5793  1.3434
 2249TIP3    H2 6754   2.379   3.262   1.467 -1.1916  2.3950 -1.5370
 2250TIP3   OH2 6755   2.345   5.192   1.707  0.1375 -0.1568  0.1554
 2250TIP3    H1 6756   2.357   5.187   1.802 -0.0667 -0.0019  0.1912
 2250TIP3    H2 6757   2.262   5.238   1.696 -1.0325 -2.2181 -0.0495
 2251TIP3   OH2 6758   1.585   3.013   2.880 -0.0028 -0.0245  0.1895
 2251TIP3    H1 6759   1.660   3.033   2.936  0.5314  1.2929 -0.9422
 2251TIP3    H2 6760   1.510   3.050   2.926  0.4167  0.9643  0.1012
 2252TIP3   OH2 6761   3.786   4.695   5.156 -0.3578  0.3449 -0.1276
 2252TIP3    H1 6762   3.724   4.680   5.084  0.4959  0.8892 -1.0005
 2252TIP3    H2 6763   3.859   4.636   5.137 -0.5768 -0.2716  0.8804
 2253TIP3   OH2 6764   5.057   2.599   0.282 -0.0557 -0.5329  0.2842
 2253TIP3    H1 6765   5.020   2.560   0.203 -0.7606  1.6850 -0.5459
 2253TIP3    H2 6766   5.071   2.691   0.260 -1.7601  0.5735  3.1874
 2254TIP3   OH2 6767   1.336   2.680   3.736  0.3052  0.1039  0.4830
 2254TIP3    H1 6768   1.245   2.677   3.707  0.7860  0.7092 -1.1714
 2254TIP3    H2 6769   1.330   2.701   3.829 -1.2385  0.4735  0.3354
 2255TIP3   OH2 6770   6.105   0.393   2.645 -0.4025 -0.4394  0.4257
 2255TIP3    H1 6771   6.020   0.400   2.689  0.2423 -0.7333  1.7735
 2255TIP3    H2 6772   6.161   0.454   2.691 -0.1250  0.5623 -1.1592
 2256TIP3   OH2 6773   0.525   4.409   2.116  0.1405 -0.1060  0.4835
 2256TIP3    H1 6774   0.614   4.443   2.123  0.6023 -1.3417  0.7956
 2256TIP3    H2 6775   0.483   4.466   2.052  2.1333 -1.4856 -2.2134
 2257TIP3   OH2 6776   3.976   3.850   3.591 -0.5165  0.2410 -0.2323
 2257TIP3    H1 6777   3.930   3.795   3.527  1.5895 -0.7895 -0.9514
 2257TIP3    H2 6778   3.947   3.939   3.571 -2.8609 -0.4006 -0.0148
 2258TIP3   OH2 6779   0.811   2.197   3.707 -0.0092  0.1467 -0.0376
 2258TIP3    H1 6780   0.875   2.130   3.730 -0.7788 -0.0506  1.6692
 2258TIP3    H2 6781   0.829   2.217   3.615  0.7165 -1.8527 -0.3777
 2259TIP3   OH2 6782   3.388   1.413   0.460  0.6715  0.4967  0.1786
 2259TIP3    H1 6783   3.340   1.380   0.536 -0.4081  0.9883 -0.2671
 2259TIP3    H2 6784   3.460   1.464   0.498  0.1560  0.7188  0.8851
 2260TIP3   OH2 6785   4.191   1.238   4.029 -0.6300  0.5209  0.2798
 2260TIP3    H1 6786   4.269   1.294   4.033  0.0168 -0.3129 -0.0951
 2260TIP3    H2 6787   4.209   1.169   4.092 -0.8388  0.0490 -0.1675
 2261TIP3   OH2 6788   6.286   1.884   3.936  0.1707 -0.2053  0.1429
 2261TIP3    H1 6789   6.232   1.824   3.886  0.9467 -0.1852 -0.7541
 2261TIP3    H2 6790   6.371   1.882   3.892  0.6691  0.3525  1.0457
 2262TIP3   OH2 6791   0.927   0.621   2.787  0.1627  0.1178  0.2257
 2262TIP3    H1 6792   0.982   0.680   2.735  0.5345 -0.3652  0.0591
 2262TIP3    H2 6793   0.906   0.549   2.727 -0.0995 -0.0304  0.4926
 2263TIP3   OH2 6794   0.243   5.821   3.429  0.0657 -0.0265  0.2521
 2263TIP3    H1 6795   0.222   5.898   3.376 -1.3773 -0.3959  0.2305
 2263TIP3    H2 6796   0.230   5.746   3.370  0.6875 -0.3343  0.4912
 2264TIP3   OH2 6797   2.049   5.160   4.607  0.5942 -0.0559 -0.5085
 2264TIP3    H1 6798   1.967   5.144   4.653  0.2748 -0.2215 -1.1425
 2264TIP3    H2 6799   2.042   5.111   4.526  0.2834  1.9014 -1.7272
 2265TIP3   OH2 6800   2.916   0.086   2.436 -0.3854 -0.3220  0.4103
 2265TIP3    H1 6801   2.946   0.173   2.412  1.3188 -1.0020 -0.0902
 2265TIP3    H2 6802   2.820   0.091   2.434 -0.3269  1.6988  1.0952
 2266TIP3   OH2 6803   3.404   0.518   1.735  0.3577  0.1405  0.1569
 2266TIP3    H1 6804   3.495   0.548   1.727  0.5190 -0.0758  1.1013
 2266TIP3    H2 6805   3.403   0.435   1.687  0.7050  0.0618  0.2813
 2267TIP3   OH2 6806   0.296   1.368   4.702 -0.0085 -0.5586  0.2953
 2267TIP3    H1 6807   0.202   1.386   4.714 -0.3089 -1.5623 -0.4301
 2267TIP3    H2 6808   0.331   1.367   4.790 -0.3302  1.5387  0.5039
 2268TIP3   OH2 6809   3.094   2.710   2.495  0.4899 -0.0509 -0.1147
 2268TIP3    H1 6810   3.019   2.768   2.478  2.3944  2.3960 -0.8688
 2268TIP3    H2 6811   3.143   2.755   2.564  0.9383 -1.9515  0.8598
 2269TIP3   OH2 6812   4.789   3.068   4.487 -0.1120  0.0024 -0.0024
 2269TIP3    H1 6813   4.880   3.090   4.505 -0.0820  0.0073 -0.1580
 2269TIP3    H2 6814   4.756   3.031   4.569 -0.3281  1.1598  0.4516
 2270TIP3   OH2 6815   3.272   3.778   4.705  0.5778  0.2951  0.4433
 2270TIP3    H1 6816   3.268   3.869   4.735 -0.7544  1.2126 -2.1368
 2270TIP3    H2 6817   3.281   3.785   4.610 -1.6360 -2.2026 -0.0809
 2271TIP3   OH2 6818   2.294   4.019   5.005  0.1225 -0.2763 -0.6205
 2271TIP3    H1 6819   2.235   3.947   5.031 -0.0972 -0.6012 -1.9621
 2271TIP3    H2 6820   2.379   3.977   4.992  0.0380 -0.2605 -1.2235
 2272TIP3   OH2 6821   3.947   2.761   0.818 -0.2848  0.1564 -0.3559
 2272TIP3    H1 6822   4.017   2.793   0.762 -0.5765 -0.4725 -1.1046
 2272TIP3    H2 6823   3.988   2.696   0.874  0.2769  1.6921  1.0666
 2273TIP3   OH2 6824   1.347   2.061   0.783  0.2165  0.1037  0.0899
 2273TIP3    H1 6825   1.355   2.145   0.828  0.8276 -0.0274  0.2360
 2273TIP3    H2 6826   1.266   2.069   0.732 -0.0581  0.5477  0.5854
 2274TIP3   OH2 6827   1.088   5.807   0.759  0.0509 -0.3877  0.0306
 2274TIP3    H1 6828   1.038   5.868   0.814  0.1733 -0.6908  0.4878
 2274TIP3    H2 6829   1.035   5.727   0.758 -0.4662 -0.0463 -1.1623
 2275TIP3   OH2 6830   1.534   5.592   1.220  0.1416  0.6277 -0.4505
 2275TIP3    H1 6831   1.506   5.628   1.304 -0.2092 -0.4527 -0.0864
 2275TIP3    H2 6832   1.518   5.662   1.157 -2.6119  0.3985 -0.1361
 2276TIP3   OH2 6833   1.034   4.570   1.429 -0.6769  0.6055  0.0669
 2276TIP3    H1 6834   1.028   4.494   1.486 -1.3506  0.7189  0.1535
 2276TIP3    H2 6835   0.992   4.543   1.347  1.1555  0.1105 -0.7531
 2277TIP3   OH2 6836   5.380   4.128   0.275 -0.4481  0.1044 -0.4543
 2277TIP3    H1 6837   5.411   4.092   0.192  0.6551 -0.7744  0.3081
 2277TIP3    H2 6838   5.447   4.192   0.300 -0.9514  0.6196 -0.4033
 2278TIP3   OH2 6839   2.746   0.635   1.912 -0.4672  0.0808  0.1557
 2278TIP3    H1 6840   2.653   0.658   1.910 -0.7203 -0.8846 -0.0760
 2278TIP3    H2 6841   2.761   0.592   1.827  0.6442  1.8460 -0.5887
 2279TIP3   OH2 6842   3.966   0.935   4.802 -0.2165 -0.4988 -0.7224
 2279TIP3    H1 6843   3.986   0.886   4.722 -1.0472  0.8479 -1.8125
 2279TIP3    H2 6844   4.047   0.933   4.852  1.1520  0.6760 -2.7444
 2280TIP3   OH2 6845   2.893   4.456   3.475  0.0876  0.1098 -0.0278
 2280TIP3    H1 6846   2.860   4.374   3.513 -0.3953  0.2838 -0.0637
 2280TIP3    H2 6847   2.823   4.485   3.417  1.0028 -0.3880 -1.4166
 2281TIP3   OH2 6848   2.055   5.825   3.097 -0.0987 -0.0425  0.2621
 2281TIP3    H1 6849   1.962   5.805   3.111 -0.2313  0.5233  0.2145
 2281TIP3    H2 6850   2.102   5.757   3.146 -0.5389  0.0410  0.8150
 2282TIP3   OH2 6851   3.409   1.828   0.565 -0.5068  0.2911  0.3319
 2282TIP3    H1 6852   3.496   1.867   0.558 -0.5520  0.5227  1.0527
 2282TIP3    H2 6853   3.364   1.857   0.485  0.1435 -0.0300 -0.1666
 2283TIP3   OH2 6854   0.071   4.816   2.761 -0.6363  0.1947  0.0661
 2283TIP3    H1 6855   0.159   4.851   2.742 -0.8814  0.8863  0.1610
 2283TIP3    H2 6856   0.022   4.830   2.680 -0.6686 -0.1716  0.0210
 2284TIP3   OH2 6857   3.676   1.386   3.206  0.9254  0.5151  0.5141
 2284TIP3    H1 6858   3.676   1.427   3.120 -0.5680 -0.6695 -0.1110
 2284TIP3    H2 6859   3.768   1.386   3.233  1.4573  0.7010 -1.1851
 2285TIP3   OH2 6860   2.678   1.794   0.310 -0.2092  0.8588  0.1496
 2285TIP3    H1 6861   2.631   1.754   0.237  1.5328 -1.7995  0.3490
 2285TIP3    H2 6862   2.759   1.828   0.272  1.1629 -1.4026  0.8862
 2286TIP3   OH2 6863   0.658   1.689   0.862  0.0771 -0.1430  0.5314
 2286TIP3    H1 6864   0.696   1.773   0.836  1.2715 -0.3962  1.3874
 2286TIP3    H2 6865   0.631   1.702   0.953  0.8432 -0.8678  0.8696
 2287TIP3   OH2 6866   5.025   1.759   1.117  0.3743 -0.0703 -0.3301
 2287TIP3    H1 6867   4.974   1.732   1.193 -0.6556 -0.1155 -1.0178
 2287TIP3    H2 6868   5.033   1.854   1.125 -0.3743  0.0145 -0.5480
 2288TIP3   OH2 6869   4.581   0.711   2.470  0.7188 -0.9540 -0.5302
 2288TIP3    H1 6870   4.575   0.758   2.553 -1.1078  0.1654 -1.2254
 2288TIP3    H2 6871   4.542   0.625   2.487  1.2896 -1.1082  0.0110
 2289TIP3   OH2 6872   4.726   5.169   3.847  0.2698  0.8888  0.3789
 2289TIP3    H1 6873   4.811   5.211   3.850  0.6994  0.0803 -0.0174
 2289TIP3    H2 6874   4.683   5.206   3.769  1.8222 -1.4900 -1.7743
 2290TIP3   OH2 6875   2.732   2.175   1.704  0.7443  0.6635  0.0860
 2290TIP3    H1 6876   2.758   2.248   1.647  0.1002  1.7172  1.0873
 2290TIP3    H2 6877   2.665   2.213   1.762 -1.0663 -1.2215 -0.6355
 2291TIP3   OH2 6878   4.383   5.866   0.111 -0.1310  0.1496 -0.0287
 2291TIP3    H1 6879   4.305   5.890   0.062 -0.1306  2.4830  0.9512
 2291TIP3    H2 6880   4.386   5.930   0.183  1.7260 -0.9760  0.9631
 2292TIP3   OH2 6881   5.837   4.671   1.191 -0.8929  0.0308 -0.2422
 2292TIP3    H1 6882   5.841   4.715   1.106 -1.0652 -1.5321 -1.1013
 2292TIP3    H2 6883   5.891   4.725   1.248  0.5275  0.2974 -1.7560
 2293TIP3   OH2 6884   0.755   5.983   3.182  0.1316  0.3393 -0.4783
 2293TIP3    H1 6885   0.684   5.920   3.176 -0.3147  0.7404  0.4387
 2293TIP3    H2 6886   0.826   5.936   3.224  0.4272 -0.0675 -1.4102
 2294TIP3   OH2 6887   1.751   3.576   2.861  0.1695 -0.1576 -0.1364
 2294TIP3    H1 6888   1.671   3.532   2.890 -0.0014  0.4931  0.4189
 2294TIP3    H2 6889   1.791   3.608   2.942  0.2357  0.7773 -0.5262
 2295TIP3   OH2 6890   2.415   2.721   4.189  0.4512  0.2237 -0.1514
 2295TIP3    H1 6891   2.345   2.770   4.232  1.6165  2.7244 -0.9380
 2295TIP3    H2 6892   2.458   2.785   4.132  1.3403 -2.0365 -2.1898
 2296TIP3   OH2 6893   4.201   4.343   3.790  0.4821 -0.0796 -0.1697
 2296TIP3    H1 6894   4.175   4.422   3.742  0.1741 -0.4796 -0.6745
 2296TIP3    H2 6895   4.191   4.366   3.882 -1.6298 -0.1962 -0.3306
 2297TIP3   OH2 6896   5.994   4.349   5.112  0.7240 -0.1347  0.1925
 2297TIP3    H1 6897   5.956   4.420   5.060  2.4772 -0.6435 -1.9595
 2297TIP3    H2 6898   5.978   4.270   5.059  1.1296 -0.9480  1.2546
 2298TIP3   OH2 6899   4.082   1.859   0.480  0.3215  0.2192  0.3809
 2298TIP3    H1 6900   4.128   1.877   0.398 -0.5171  0.3013 -0.0807
 2298TIP3    H2 6901   4.152   1.848   0.545  0.9596  1.9929  0.0483
 2299TIP3   OH2 6902   4.831   2.780   0.873  0.2743  0.2017 -0.1408
 2299TIP3    H1 6903   4.745   2.741   0.889  0.2647  0.0295 -0.6159
 2299TIP3    H2 6904   4.830   2.804   0.781  0.6152  0.5039 -0.0668
 2300TIP3   OH2 6905   0.157   4.355   1.182  0.3643 -0.0869 -0.0641
 2300TIP3    H1 6906   0.079   4.392   1.224 -0.6529 -2.5261  0.3346
 2300TIP3    H2 6907   0.140   4.362   1.088  0.5292  1.0366 -0.0309
 2301TIP3   OH2 6908   0.882   0.734   3.965 -0.1848 -0.5592 -0.1425
 2301TIP3    H1 6909   0.918   0.708   3.880  0.6088  0.2854 -0.0724
 2301TIP3    H2 6910   0.860   0.826   3.954  0.6434 -0.2389  0.7961
 2302TIP3   OH2 6911   4.415   0.864   5.049 -0.1014 -0.4563 -0.1635
 2302TIP3    H1 6912   4.460   0.792   5.094  0.3080 -0.9035 -1.2461
 2302TIP3    H2 6913   4.486   0.916   5.011 -0.2988  1.4325  1.8637
 2303TIP3   OH2 6914   2.276   1.935   1.243  0.2566 -0.4141 -0.6001
 2303TIP3    H1 6915   2.185   1.930   1.215  0.1938 -0.7505 -0.3394
 2303TIP3    H2 6916   2.285   2.024   1.278  0.0699 -0.3287 -0.7676
 2304TIP3   OH2 6917   0.456   0.832   0.193  0.2805  0.2947  0.1472
 2304TIP3    H1 6918   0.503   0.872   0.267 -1.0788  0.5039  0.9366
 2304TIP3    H2 6919   0.481   0.885   0.117  0.1406  1.3616  0.8211
 2305TIP3   OH2 6920   4.331   4.222   0.108 -0.0323 -0.3684  0.4318
 2305TIP3    H1 6921   4.262   4.270   0.155  0.2562 -1.2053  1.7872
 2305TIP3    H2 6922   4.288   4.188   0.030 -0.0105  2.8375 -1.1136
 2306TIP3   OH2 6923   0.816   5.051   4.791  0.1320  0.1850  0.1655
 2306TIP3    H1 6924   0.733   5.076   4.831  0.1972  0.6179  0.0319
 2306TIP3    H2 6925   0.851   5.132   4.754 -0.1861 -0.2914 -1.2655
 2307TIP3   OH2 6926   5.880   3.193   4.417 -0.0857 -0.3913  0.1929
 2307TIP3    H1 6927   5.843   3.138   4.348 -1.1345  0.0999  0.3517
 2307TIP3    H2 6928   5.942   3.250   4.371 -0.9600  0.1048 -0.3957
 2308TIP3   OH2 6929   2.159   4.872   1.705  0.3886  0.5455  0.0203
 2308TIP3    H1 6930   2.173   4.955   1.659  1.2784  0.7976  0.7066
 2308TIP3    H2 6931   2.139   4.809   1.636 -0.8441  1.4320 -0.4670
 2309TIP3   OH2 6932   0.332   0.182   3.510  0.0235 -0.5153 -0.5217
 2309TIP3    H1 6933   0.418   0.186   3.468  0.6039 -2.6635  0.3213
 2309TIP3    H2 6934   0.286   0.111   3.465 -0.8478 -0.1890 -0.1648
 2310TIP3   OH2 6935   2.140   2.676   2.406 -0.0121  0.0844  0.1516
 2310TIP3    H1 6936   2.120   2.703   2.316 -1.2662  1.1540  0.7413
 2310TIP3    H2 6937   2.226   2.715   2.424  1.0820 -1.5507 -1.1309
 2311TIP3   OH2 6938   3.159   4.750   4.237  0.2639 -0.6264 -0.3846
 2311TIP3    H1 6939   3.146   4.779   4.327  0.8452 -2.2918  0.2778
 2311TIP3    H2 6940   3.251   4.768   4.218  0.1733 -0.3910 -0.6229
 2312TIP3   OH2 6941   5.108   0.339   3.189  0.0816 -0.1559  0.1412
 2312TIP3    H1 6942   5.203   0.338   3.194  0.1860 -1.4308 -1.5459
 2312TIP3    H2 6943   5.088   0.411   3.129 -0.1303  0.9788  1.5038
 2313TIP3   OH2 6944   3.512   3.157   4.885 -0.1165  0.6281  0.0015
 2313TIP3    H1 6945   3.551   3.216   4.821  0.8503  0.2608  0.2338
 2313TIP3    H2 6946   3.584   3.134   4.944 -0.3926 -0.9719 -0.2310
 2314TIP3   OH2 6947   1.594   1.988   1.183 -0.0725 -0.2385  0.3339
 2314TIP3    H1 6948   1.554   2.071   1.206 -0.0560 -0.1216 -0.0525
 2314TIP3    H2 6949   1.523   1.924   1.194 -0.2126 -0.1100  0.1832
 2315TIP3   OH2 6950   5.860   0.460   2.811 -0.3384  0.6252 -0.7560
 2315TIP3    H1 6951   5.860   0.547   2.852  0.4263  0.0450  0.5458
 2315TIP3    H2 6952   5.776   0.421   2.838 -1.3932  1.4929 -2.6183
 2316TIP3   OH2 6953   0.668   3.555   2.158  0.6568  0.1783 -0.1572
 2316TIP3    H1 6954   0.713   3.635   2.186  1.3287 -0.0419 -0.5973
 2316TIP3    H2 6955   0.738   3.493   2.140  0.1766 -0.1655 -0.8602
 2317TIP3   OH2 6956   3.856   1.718   0.481  0.1761 -0.3403  0.3027
 2317TIP3    H1 6957   3.906   1.650   0.525  2.2045  1.8090  1.4909
 2317TIP3    H2 6958   3.918   1.788   0.465 -1.8049  1.2677 -0.9044
 2318TIP3   OH2 6959   5.963   3.963   0.649 -0.1220  0.0583 -0.3385
 2318TIP3    H1 6960   5.945   3.912   0.728  0.0301  1.3563  0.5663
 2318TIP3    H2 6961   5.880   4.007   0.629  0.7193  2.6285  1.3054
 2319TIP3   OH2 6962   0.318   1.602   0.311  0.1004 -0.1072 -0.0386
 2319TIP3    H1 6963   0.314   1.590   0.216  0.4389 -1.7870  0.1382
 2319TIP3    H2 6964   0.314   1.514   0.347 -0.2198  0.5165  1.5296
 2320TIP3   OH2 6965   4.057   3.731   0.290  0.3464  0.3988  0.1437
 2320TIP3    H1 6966   3.965   3.704   0.287  0.1578  0.5688  2.4551
 2320TIP3    H2 6967   4.067   3.789   0.215 -0.8676 -1.2069 -1.3436
 2321TIP3   OH2 6968   0.352   2.479   3.148 -0.1259  0.1661  0.2221
 2321TIP3    H1 6969   0.310   2.395   3.126 -1.5435  1.1477 -1.0118
 2321TIP3    H2 6970   0.280   2.542   3.149  0.9416  1.4200  0.9600
 2322TIP3   OH2 6971   1.132   0.036   2.623 -0.2079  0.6036 -0.1176
 2322TIP3    H1 6972   1.224   0.054   2.609 -0.3628 -0.8219 -4.1803
 2322TIP3    H2 6973   1.094   0.121   2.645  1.8311  1.3897  0.6163
 2323TIP3   OH2 6974   5.817   0.871   4.243  0.0641 -0.0216  0.7624
 2323TIP3    H1 6975   5.845   0.948   4.292 -0.1943 -0.3494  1.4297
 2323TIP3    H2 6976   5.895   0.843   4.195  0.6875 -0.4629  2.0021
 2324TIP3   OH2 6977   1.754   1.089   4.586 -0.0820 -0.1288 -0.8749
 2324TIP3    H1 6978   1.700   1.065   4.662 -0.6943  0.1962 -1.1993
 2324TIP3    H2 6979   1.725   1.028   4.518  1.0536 -0.9764 -0.6210
 2325TIP3   OH2 6980   0.869  -0.008   0.336 -0.2860  0.1020  0.3496
 2325TIP3    H1 6981   0.922   0.065   0.304  0.9589 -0.4141  1.1385
 2325TIP3    H2 6982   0.819  -0.037   0.260 -0.2434  1.2971 -0.1502
 2326TIP3   OH2 6983   1.260   2.429   4.772 -0.0007  0.4431  0.2815
 2326TIP3    H1 6984   1.282   2.379   4.850  0.0477  1.0447  0.6555
 2326TIP3    H2 6985   1.340   2.427   4.719 -0.4099 -1.0187 -0.3470
 2327TIP3   OH2 6986   3.544   4.166   4.332 -0.4302  0.4735  0.4403
 2327TIP3    H1 6987   3.611   4.214   4.282  2.2172 -1.8920  1.4876
 2327TIP3    H2 6988   3.567   4.181   4.423 -2.1355  0.6041  0.8693
 2328TIP3   OH2 6989   3.109   5.615   5.023  0.2154 -0.4329  0.5138
 2328TIP3    H1 6990   3.136   5.525   5.004  3.0353  0.6543 -1.1272
 2328TIP3    H2 6991   3.130   5.627   5.116 -0.4624 -1.5068  0.8274
 2329TIP3   OH2 6992   1.550   3.107   1.130  0.0787  0.3072 -0.1775
 2329TIP3    H1 6993   1.608   3.036   1.104  0.1627 -0.0906  1.0279
 2329TIP3    H2 6994   1.486   3.113   1.059  0.2408 -0.7737 -0.4278
 2330TIP3   OH2 6995   3.146   3.845   1.957 -0.1784  0.3027  0.4844
 2330TIP3    H1 6996   3.146   3.755   1.925  0.5556 -0.2106  1.8619
 2330TIP3    H2 6997   3.173   3.897   1.882  1.1300 -0.8094  0.1481
 2331TIP3   OH2 6998   5.580   1.706   1.038 -0.1735 -0.1636 -0.1498
 2331TIP3    H1 6999   5.666   1.743   1.058 -0.7909  1.3694 -0.2065
 2331TIP3    H2 7000   5.598   1.636   0.976  1.1001 -0.3646  0.4060
 2332TIP3   OH2 7001   1.249   5.125   1.336  0.7377 -0.2252 -0.1853
 2332TIP3    H1 7002   1.219   5.201   1.387 -0.4248 -1.0640  0.4254
 2332TIP3    H2 7003   1.218   5.143   1.247  0.5519  0.0644 -0.0656
 2333TIP3   OH2 7004   3.049   5.785   3.158  0.1793  0.0753  0.6285
 2333TIP3    H1 7005   3.102   5.793   3.237  2.1626  0.5449 -0.6926
 2333TIP3    H2 7006   3.075   5.702   3.119  0.1292  0.4204 -0.1679
 2334TIP3   OH2 7007   5.412   4.397   4.611 -0.7887  0.4273  0.2040
 2334TIP3    H1 7008   5.380   4.309   4.632 -0.9359  0.4037 -0.1043
 2334TIP3    H2 7009   5.377   4.453   4.680  0.1783  0.0789  0.9974
 2335TIP3   OH2 7010   4.610   1.944   1.444 -0.3101 -0.0224  0.0071
 2335TIP3    H1 7011   4.560   1.886   1.387 -0.6480  0.1914  0.0846
 2335TIP3    H2 7012   4.581   1.924   1.532  0.0406 -0.1849  0.0884
 2336TIP3   OH2 7013   5.846   4.253   3.979 -0.4577  0.5720 -0.4639
 2336TIP3    H1 7014   5.804   4.337   3.964  1.4373  1.5806 -0.4829
 2336TIP3    H2 7015   5.841   4.239   4.074  0.7334  1.5817 -0.2350
 2337TIP3   OH2 7016   2.994   2.877   0.578  0.0002 -0.1404  0.2431
 2337TIP3    H1 7017   2.899   2.890   0.587  0.0829  1.2329 -0.5707
 2337TIP3    H2 7018   3.032   2.930   0.649  0.1285 -2.6990  2.2122
 2338TIP3   OH2 7019   5.923   0.181   3.729 -0.0286  0.4310 -0.3123
 2338TIP3    H1 7020   6.007   0.160   3.770  0.6118  1.9304 -0.7972
 2338TIP3    H2 7021   5.918   0.122   3.654  0.6022  0.3405 -0.2864
 2339TIP3   OH2 7022   2.093   5.475   0.363  0.0334  0.0018 -0.2103
 2339TIP3    H1 7023   2.050   5.391   0.348 -1.3810  0.6517  0.0287
 2339TIP3    H2 7024   2.173   5.453   0.410 -1.0675 -1.1029  1.2307
 2340TIP3   OH2 7025   3.958   1.021   1.729 -0.3463 -0.4430 -0.4756
 2340TIP3    H1 7026   4.018   1.093   1.744  1.0407 -1.5792 -0.4001
 2340TIP3    H2 7027   3.989   0.979   1.648 -1.7502 -0.3628 -1.0989
 2341TIP3   OH2 7028   4.856   5.307   0.242 -0.6034 -0.3338 -0.0596
 2341TIP3    H1 7029   4.775   5.307   0.191 -0.7766  2.8323  0.0096
 2341TIP3    H2 7030   4.918   5.257   0.189 -1.9165 -0.7201 -1.3111
 2342TIP3   OH2 7031   5.554   5.167   4.448  0.4961  0.8506  0.3083
 2342TIP3    H1 7032   5.631   5.116   4.473  1.1911  1.2139 -0.9984
 2342TIP3    H2 7033   5.540   5.144   4.356 -1.0527  0.6880  0.5558
 2343TIP3   OH2 7034   4.076   1.087   4.465  0.2087  0.2745 -0.4719
 2343TIP3    H1 7035   4.024   1.110   4.388 -1.8719 -1.7136  0.2410
 2343TIP3    H2 7036   4.077   0.992   4.467  0.6356  0.2588  1.6733
 2344TIP3   OH2 7037   4.801   3.527   4.770  0.0360 -0.2696 -0.6299
 2344TIP3    H1 7038   4.782   3.440   4.734  1.9697 -1.5208  1.1629
 2344TIP3    H2 7039   4.896   3.529   4.778  0.2808  3.0065 -2.8169
 2345TIP3   OH2 7040   2.736   1.469   0.672  0.3528 -0.0233 -0.2262
 2345TIP3    H1 7041   2.680   1.415   0.616  0.5589 -1.2867  0.7383
 2345TIP3    H2 7042   2.712   1.559   0.650  0.3227 -0.4760 -2.2131
 2346TIP3   OH2 7043   5.072   4.084   3.656 -0.1498  0.1052 -0.5829
 2346TIP3    H1 7044   5.033   4.133   3.583 -3.6876 -1.0334  0.3385
 2346TIP3    H2 7045   5.094   4.151   3.721 -1.8173  0.7879 -0.6708
 2347TIP3   OH2 7046   4.149   5.667   3.476 -0.5190 -0.4276  0.5123
 2347TIP3    H1 7047   4.126   5.751   3.436  1.7777 -0.0173 -0.1062
 2347TIP3    H2 7048   4.176   5.613   3.402 -0.5012 -1.1932  1.0741
 2348TIP3   OH2 7049   3.626   1.406   1.035  0.5084 -0.1337 -0.2288
 2348TIP3    H1 7050   3.613   1.412   1.130  2.8314  0.5812  0.0980
 2348TIP3    H2 7051   3.703   1.349   1.025 -0.7559 -1.6661 -1.8091
 2349TIP3   OH2 7052   1.311   3.905   2.283  0.6033  0.1516  0.0171
 2349TIP3    H1 7053   1.284   3.819   2.249  1.8803 -0.1373 -0.3286
 2349TIP3    H2 7054   1.374   3.937   2.218  0.6267  1.0654  0.4797
 2350TIP3   OH2 7055   6.264   2.403   5.129 -0.0403 -0.0920  0.4598
 2350TIP3    H1 7056   6.308   2.460   5.193 -0.0615  1.0761 -0.5199
 2350TIP3    H2 7057   6.283   2.314   5.158  2.6276  0.3599  0.3401
 2351TIP3   OH2 7058   1.635   3.787   1.142 -0.2092  0.1804  0.0481
 2351TIP3    H1 7059   1.558   3.836   1.112 -0.6113 -0.2292  0.4165
 2351TIP3    H2 7060   1.694   3.855   1.175 -0.7136  0.4352  0.4399
 2352TIP3   OH2 7061   3.855   1.748   5.156 -0.7157  0.0340 -0.0393
 2352TIP3    H1 7062   3.836   1.655   5.145  3.2598 -1.2795  2.0541
 2352TIP3    H2 7063   3.825   1.768   5.245 -1.0331  0.6279 -0.2736
 2353TIP3   OH2 7064   3.276   4.173   0.430 -0.1172 -0.1175  0.1418
 2353TIP3    H1 7065   3.329   4.251   0.413 -1.7558  0.8236 -0.9925
 2353TIP3    H2 7066   3.214   4.170   0.357 -0.0321 -2.5777  0.0826
 2354TIP3   OH2 7067   1.962   4.797   1.511  0.1884 -0.1208  0.4325
 2354TIP3    H1 7068   1.955   4.887   1.543 -3.0730 -0.8426  2.1931
 2354TIP3    H2 7069   1.881   4.782   1.462  1.4165 -1.6324 -1.2689
 2355TIP3   OH2 7070   0.126   5.911   5.035  0.0059  0.0950 -0.1631
 2355TIP3    H1 7071   0.085   5.903   4.949 -0.3215 -0.5125  0.0446
 2355TIP3    H2 7072   0.201   5.969   5.020 -0.4565  0.5697 -0.7080
 2356TIP3   OH2 7073   4.157   1.604   4.275 -0.2212  0.1334 -0.1784
 2356TIP3    H1 7074   4.198   1.665   4.336 -0.4820 -0.8138  0.9870
 2356TIP3    H2 7075   4.230   1.560   4.232 -0.0116 -0.2110  0.5163
 2357TIP3   OH2 7076   2.432   4.400   5.067 -0.0215 -0.0288 -0.0559
 2357TIP3    H1 7077   2.481   4.394   5.149  2.2996 -0.3886 -1.3810
 2357TIP3    H2 7078   2.492   4.442   5.005 -1.9015  0.7604 -1.4576
 2358TIP3   OH2 7079   1.228   2.912   3.052  0.1381 -0.1786  0.4196
 2358TIP3    H1 7080   1.277   2.991   3.076  0.0186 -0.0801  0.3404
 2358TIP3    H2 7081   1.198   2.876   3.135 -0.1648  0.0918  0.4288
 2359TIP3   OH2 7082   3.493   2.509   2.658  0.3910 -0.1094  0.0423
 2359TIP3    H1 7083   3.471   2.448   2.728 -3.0334  0.5674 -0.2475
 2359TIP3    H2 7084   3.491   2.596   2.699  2.5371  0.0637 -0.1068
 2360TIP3   OH2 7085   0.385   5.608   1.648  0.1270 -0.3272 -0.4263
 2360TIP3    H1 7086   0.408   5.574   1.734 -0.3637  0.5581  0.0683
 2360TIP3    H2 7087   0.323   5.544   1.612 -1.5029  0.4556  0.8689
 2361TIP3   OH2 7088   5.177   5.001   2.021  0.4745 -0.0627 -0.5433
 2361TIP3    H1 7089   5.134   4.994   2.106  0.8009  0.0178 -0.3732
 2361TIP3    H2 7090   5.263   5.038   2.040  0.5640 -0.0834 -0.9018
 2362TIP3   OH2 7091   3.025   2.108   1.696 -0.5846 -0.2952  0.5417
 2362TIP3    H1 7092   2.952   2.129   1.755 -0.4247 -0.0720  0.6600
 2362TIP3    H2 7093   3.068   2.192   1.680  0.6036 -0.6448  1.7272
 2363TIP3   OH2 7094   1.535   3.793   1.629  0.1781  0.4439 -0.0247
 2363TIP3    H1 7095   1.460   3.752   1.587  0.4053 -2.9880  2.4834
 2363TIP3    H2 7096   1.498   3.867   1.678 -0.8054  1.3481 -2.0202
 2364TIP3   OH2 7097   0.760   0.037   2.563 -0.4925  0.0932 -0.2598
 2364TIP3    H1 7098   0.774   0.041   2.657 -5.7350 -1.4773  0.9552
 2364TIP3    H2 7099   0.808  -0.040   2.534  0.1764 -0.1418  1.4108
 2365TIP3   OH2 7100   5.847   1.637   2.277  0.1229  0.3721 -0.6347
 2365TIP3    H1 7101   5.826   1.566   2.216  2.5534 -0.2375 -0.8401
 2365TIP3    H2 7102   5.902   1.597   2.343 -0.4826  1.5694  0.6646
 2366TIP3   OH2 7103   2.214   1.858   3.634  0.2380  0.3293  0.0623
 2366TIP3    H1 7104   2.223   1.931   3.695 -0.2035  0.7642 -0.3842
 2366TIP3    H2 7105   2.263   1.786   3.674 -0.9296  0.2737  1.4522
 2367TIP3   OH2 7106   1.858   4.759   2.339 -0.2049  0.9903 -0.1785
 2367TIP3    H1 7107   1.921   4.787   2.273 -0.3722 -1.2743 -1.3986
 2367TIP3    H2 7108   1.787   4.823   2.334  0.2682  1.4304 -1.4777
 2368TIP3   OH2 7109   2.288   4.158   1.840  0.4206  0.0303  0.0071
 2368TIP3    H1 7110   2.265   4.156   1.933  0.4144  0.7829  0.0281
 2368TIP3    H2 7111   2.349   4.085   1.829  0.6149  0.0857  0.6541
 2369TIP3   OH2 7112   1.848   0.815   4.025  0.1508  0.0303 -0.2564
 2369TIP3    H1 7113   1.905   0.819   4.102 -1.0001 -1.7582  0.7567
 2369TIP3    H2 7114   1.894   0.756   3.964  0.6639  0.7930 -0.6327
 2370TIP3   OH2 7115   5.712   0.506   0.262 -0.2229  0.1154 -0.2893
 2370TIP3    H1 7116   5.695   0.553   0.343 -1.5903  0.7338 -0.9209
 2370TIP3    H2 7117   5.640   0.529   0.204  1.3202  0.6282 -2.1199
 2371TIP3   OH2 7118   3.739   0.926   2.187 -0.1008 -0.2989  0.1154
 2371TIP3    H1 7119   3.676   0.887   2.126  1.4205 -1.1006 -1.0128
 2371TIP3    H2 7120   3.687   0.952   2.263 -1.4750 -2.8992  0.1595
 2372TIP3   OH2 7121   5.546   5.633   1.663  0.2026 -0.2243 -0.5073
 2372TIP3    H1 7122   5.601   5.591   1.729 -1.4662  1.4073  2.1008
 2372TIP3    H2 7123   5.583   5.720   1.651 -0.3888  0.0300 -0.5528
 2373TIP3   OH2 7124   5.679   2.076   3.731  0.5454  0.2070 -0.2064
 2373TIP3    H1 7125   5.636   2.099   3.649 -1.5355  1.0759  1.0278
 2373TIP3    H2 7126   5.725   1.994   3.712 -0.9865 -0.3403 -1.8858
 2374TIP3   OH2 7127   2.805   5.917   1.223  0.3932  0.2450 -0.0367
 2374TIP3    H1 7128   2.760   5.845   1.179 -0.9636  2.7020 -3.0332
 2374TIP3    H2 7129   2.897   5.891   1.223  0.0029 -1.3075 -1.4480
 2375TIP3   OH2 7130   0.887   0.705   1.272 -0.4482 -0.1637  0.1844
 2375TIP3    H1 7131   0.892   0.782   1.328  1.5407 -0.0801 -0.0516
 2375TIP3    H2 7132   0.868   0.740   1.185  1.2241  0.1696 -0.0720
 2376TIP3   OH2 7133   3.849   3.650   4.703  0.2067 -0.1883 -0.4962
 2376TIP3    H1 7134   3.760   3.654   4.666  0.0670 -0.7512 -0.2340
 2376TIP3    H2 7135   3.835   3.641   4.797  0.5554  0.5488 -0.3675
 2377TIP3   OH2 7136   2.911   1.544   1.803  0.3812  0.0559 -0.1740
 2377TIP3    H1 7137   2.936   1.636   1.789  0.3905 -0.3326 -3.3674
 2377TIP3    H2 7138   2.990   1.494   1.784 -0.0132 -0.6964  0.1131
 2378TIP3   OH2 7139   1.751   3.930   3.596  0.1422  0.4086  0.6849
 2378TIP3    H1 7140   1.701   3.848   3.586  1.7180 -0.4328 -0.9854
 2378TIP3    H2 7141   1.705   3.978   3.664  0.3156 -2.7882  3.3000
 2379TIP3   OH2 7142   5.513   2.493   2.805  0.0239 -0.2620  0.3334
 2379TIP3    H1 7143   5.546   2.470   2.892  1.0057 -0.6626 -0.1276
 2379TIP3    H2 7144   5.543   2.583   2.791 -2.2694  0.7538  1.3950
 2380TIP3   OH2 7145   5.304   1.428   0.952 -0.6169 -0.7909  0.1210
 2380TIP3    H1 7146   5.307   1.360   0.885  1.1402 -2.5241  1.8301
 2380TIP3    H2 7147   5.390   1.424   0.994 -0.4544  2.5473  0.2978
 2381TIP3   OH2 7148   4.230   1.301   0.960  0.0040  0.1431 -0.2820
 2381TIP3    H1 7149   4.243   1.219   0.912  2.0621  0.3354 -0.1583
 2381TIP3    H2 7150   4.307   1.353   0.939 -0.6023  1.5006  0.7369
 2382TIP3   OH2 7151   0.330   4.661   1.743  0.5659  0.0273 -0.3223
 2382TIP3    H1 7152   0.261   4.617   1.792  0.1800 -1.1545 -1.8235
 2382TIP3    H2 7153   0.406   4.659   1.801  0.0679 -1.0883  0.3348
 2383TIP3   OH2 7154   3.486   1.299   0.228  0.0425 -0.0279  0.5111
 2383TIP3    H1 7155   3.515   1.383   0.192 -1.0387 -0.2266 -0.8827
 2383TIP3    H2 7156   3.537   1.289   0.309  1.1530  1.3303  0.0184
 2384TIP3   OH2 7157   4.480   5.796   4.048 -0.0125 -0.2809  0.6336
 2384TIP3    H1 7158   4.566   5.762   4.071 -1.0641 -2.8430  1.0978
 2384TIP3    H2 7159   4.448   5.837   4.128  0.2423 -0.5172  0.8598
 2385TIP3   OH2 7160   0.623   2.081   0.031 -0.0488 -0.1199 -0.1230
 2385TIP3    H1 7161   0.716   2.064   0.050  0.1867 -0.0997 -1.1813
 2385TIP3    H2 7162   0.576   2.034   0.099  0.7409 -0.2196  0.3713
 2386TIP3   OH2 7163   2.446   1.854   1.426  0.3063 -0.6112  0.0132
 2386TIP3    H1 7164   2.472   1.762   1.423  0.9026 -0.4083 -1.5014
 2386TIP3    H2 7165   2.381   1.863   1.356  0.2489  0.1356  0.1536
 2387TIP3   OH2 7166   1.321   4.901   2.041  0.0861 -0.0268  0.3714
 2387TIP3    H1 7167   1.355   4.841   2.108  0.7931 -0.4815 -0.3757
 2387TIP3    H2 7168   1.322   4.987   2.084  1.7230 -0.1054  0.5582
 2388TIP3   OH2 7169   4.787   2.343   0.235  0.1876 -0.0989  0.4639
 2388TIP3    H1 7170   4.714   2.308   0.287 -0.2296 -0.0844 -0.1088
 2388TIP3    H2 7171   4.745   2.390   0.163  0.7421 -1.6874 -0.9641
 2389TIP3   OH2 7172   0.580   3.746   1.379 -0.3727 -0.7540 -0.1945
 2389TIP3    H1 7173   0.543   3.745   1.291  0.4768 -2.4698 -0.5677
 2389TIP3    H2 7174   0.673   3.768   1.366 -0.2594 -0.9351  0.2704
 2390TIP3   OH2 7175   3.370   5.234   2.896 -0.5884  0.1084  0.4204
 2390TIP3    H1 7176   3.362   5.313   2.949  0.2202  0.2055  0.4131
 2390TIP3    H2 7177   3.291   5.232   2.842 -0.1054  1.4996 -0.3728
 2391TIP3   OH2 7178   6.295   5.430   0.980  0.1216 -0.2389  0.0207
 2391TIP3    H1 7179   6.381   5.393   0.960  0.3264  0.1269  0.2125
 2391TIP3    H2 7180   6.233   5.368   0.941  0.4752 -0.3886 -0.3170
 2392TIP3   OH2 7181   0.758   3.531   2.538  0.1533  0.5616  0.2907
 2392TIP3    H1 7182   0.821   3.581   2.486  0.7929 -0.2236  0.2806
 2392TIP3    H2 7183   0.773   3.440   2.512 -1.6049  0.4332 -0.3598
 2393TIP3   OH2 7184   1.708   3.417   4.025 -0.2956  0.4826  0.0604
 2393TIP3    H1 7185   1.657   3.497   4.041  0.8099  1.3839 -0.7837
 2393TIP3    H2 7186   1.654   3.347   4.061 -2.1021  1.4076 -0.6981
 2394TIP3   OH2 7187   5.725   5.830   2.592  0.2136 -0.2798  0.0905
 2394TIP3    H1 7188   5.699   5.851   2.502 -0.3328  2.1146  0.7487
 2394TIP3    H2 7189   5.678   5.749   2.612 -0.9002 -0.0059 -1.2566
 2395TIP3   OH2 7190   3.585   5.961   2.753  0.0889 -0.0055 -0.2883
 2395TIP3    H1 7191   3.577   5.951   2.658 -0.9928 -0.1704 -0.1988
 2395TIP3    H2 7192   3.638   6.040   2.764 -0.4471  0.4777 -1.0342
 2396TIP3   OH2 7193   3.639   3.767   2.664 -0.5331 -1.0610 -0.3602
 2396TIP3    H1 7194   3.605   3.760   2.575 -1.8944  0.2265  0.0056
 2396TIP3    H2 7195   3.655   3.677   2.692 -0.3981 -1.4954 -1.7789
 2397TIP3   OH2 7196   3.101   0.281   3.988 -0.0317 -0.2789  0.1938
 2397TIP3    H1 7197   3.014   0.241   3.997 -0.0470 -0.3742 -0.3180
 2397TIP3    H2 7198   3.132   0.293   4.078  0.0296 -1.5544  0.3489
 2398TIP3   OH2 7199   0.019   5.065   4.555 -0.3683  0.5987  0.1373
 2398TIP3    H1 7200   0.012   5.068   4.460 -2.1447 -0.1912  0.2057
 2398TIP3    H2 7201   0.026   5.157   4.582  1.4421  0.7844 -0.7799
 2399TIP3   OH2 7202   0.837   4.362   4.036 -0.4006 -0.0665 -0.2528
 2399TIP3    H1 7203   0.794   4.352   3.951 -0.4919  1.1763 -0.3783
 2399TIP3    H2 7204   0.805   4.447   4.069 -0.4343 -0.5625  1.0661
 2400TIP3   OH2 7205   3.225   4.821   2.095  0.2066 -0.4596 -0.1661
 2400TIP3    H1 7206   3.272   4.740   2.115 -0.4145 -0.9811 -0.7557
 2400TIP3    H2 7207   3.249   4.841   2.004  1.2312  0.6434  0.3178
 2401TIP3   OH2 7208   4.176   4.262   0.677 -0.1672  0.2407  0.0333
 2401TIP3    H1 7209   4.100   4.307   0.641  1.5929  3.2449 -0.2118
 2401TIP3    H2 7210   4.139   4.199   0.739 -2.8539  1.0119 -0.6573
 2402TIP3   OH2 7211   5.242   3.489   3.009  0.0980  0.4859  0.0902
 2402TIP3    H1 7212   5.155   3.488   2.969  0.0120  0.4723  0.2749
 2402TIP3    H2 7213   5.226   3.514   3.100 -0.0191 -1.9857  0.8190
 2403TIP3   OH2 7214   3.918   4.226   0.281  0.3894 -0.1965 -0.0675
 2403TIP3    H1 7215   3.834   4.270   0.267  0.3663  1.1726  3.4305
 2403TIP3    H2 7216   3.896   4.147   0.330  1.0595 -0.5424 -0.3118
 2404TIP3   OH2 7217   0.444   1.336   0.114  0.0095 -0.0538 -0.2642
 2404TIP3    H1 7218   0.529   1.295   0.126  1.9744  3.1862 -1.6057
 2404TIP3    H2 7219   0.413   1.354   0.202  1.3116 -0.2370  0.2561
 2405TIP3   OH2 7220   2.821   1.523   2.058 -0.4434  0.4266 -0.1136
 2405TIP3    H1 7221   2.859   1.494   1.975  1.7374  0.7515  0.6982
 2405TIP3    H2 7222   2.818   1.618   2.051 -0.7934  0.4227 -0.0290
 2406TIP3   OH2 7223   1.769   2.956   2.244 -0.1741 -0.3521 -0.2302
 2406TIP3    H1 7224   1.688   3.000   2.271  0.3763  0.7873 -0.3488
 2406TIP3    H2 7225   1.740   2.879   2.196 -1.1888 -0.0997 -0.0520
 2407TIP3   OH2 7226   3.854   4.845   4.366  0.0727 -0.0470 -0.2850
 2407TIP3    H1 7227   3.853   4.919   4.426 -0.3721 -0.4747  0.2439
 2407TIP3    H2 7228   3.774   4.797   4.385  0.9513 -1.3716  0.2794
 2408TIP3   OH2 7229   2.353   3.622   2.997  0.1307 -0.2409  0.1180
 2408TIP3    H1 7230   2.258   3.612   2.997  0.3240 -2.2981  0.5187
 2408TIP3    H2 7231   2.366   3.716   2.981 -1.9164 -0.2568 -2.4230
 2409TIP3   OH2 7232   5.195   3.981   3.365 -0.2408  0.0291 -0.3087
 2409TIP3    H1 7233   5.141   3.904   3.347 -1.2345  0.4661  0.6903
 2409TIP3    H2 7234   5.280   3.945   3.390 -1.2284 -0.8595  1.9848
 2410TIP3   OH2 7235   3.541   4.463   0.461  0.4603 -0.2942 -0.0257
 2410TIP3    H1 7236   3.593   4.540   0.488  1.2764 -0.7231 -0.3608
 2410TIP3    H2 7237   3.454   4.499   0.442  1.4244  0.9510 -2.4405
 2411TIP3   OH2 7238   1.550   1.618   5.125 -0.1335 -0.4132 -0.5551
 2411TIP3    H1 7239   1.588   1.629   5.212  1.2381  0.1033 -1.2017
 2411TIP3    H2 7240   1.566   1.526   5.102  0.5942 -0.2472 -0.7450
 2412TIP3   OH2 7241   5.633   5.406   3.280  0.2890 -0.0533 -0.4938
 2412TIP3    H1 7242   5.676   5.323   3.261 -0.0122 -0.5327  0.7897
 2412TIP3    H2 7243   5.704   5.466   3.302  0.4444 -0.2383 -0.4952
 2413TIP3   OH2 7244   3.048   2.410   1.166 -0.4269 -0.4563  0.1498
 2413TIP3    H1 7245   3.124   2.413   1.223  2.2892 -0.4408 -3.1778
 2413TIP3    H2 7246   3.067   2.474   1.097 -3.2386 -0.8305 -1.1165
 2414TIP3   OH2 7247   0.047   1.011   0.866  0.0375  0.5606  0.3412
 2414TIP3    H1 7248   0.134   1.032   0.898  0.9407 -0.5807 -1.1910
 2414TIP3    H2 7249   0.016   0.942   0.924  1.2989 -0.8838 -0.6010
 2415TIP3   OH2 7250   3.505   0.782   2.566  0.0478  0.0790  0.3979
 2415TIP3    H1 7251   3.487   0.869   2.602  0.6056 -0.0367  0.9769
 2415TIP3    H2 7252   3.443   0.773   2.493 -0.9547  0.4171  1.1725
 2416TIP3   OH2 7253   0.502   4.404   4.368  0.2686 -0.0601  0.1024
 2416TIP3    H1 7254   0.434   4.339   4.354  0.2984 -0.6164  2.2526
 2416TIP3    H2 7255   0.473   4.480   4.317  0.2809 -1.7022 -2.5370
 2417TIP3   OH2 7256   3.392   3.281   2.346  0.2465 -0.1334 -0.4334
 2417TIP3    H1 7257   3.303   3.298   2.376  0.0577 -1.3386 -0.2655
 2417TIP3    H2 7258   3.388   3.292   2.251 -0.1090 -0.2925 -0.4383
 2418TIP3   OH2 7259   2.918   2.123   3.417 -0.3685  0.1110  0.3040
 2418TIP3    H1 7260   2.855   2.064   3.458 -1.2116  1.6650  1.3272
 2418TIP3    H2 7261   2.988   2.065   3.386 -1.9220 -1.5808 -0.2093
 2419TIP3   OH2 7262   3.476   3.337   3.952 -0.4884  0.2378 -0.2155
 2419TIP3    H1 7263   3.440   3.277   4.017  0.6422  0.5971  0.7801
 2419TIP3    H2 7264   3.552   3.376   3.995  1.8899 -1.3738 -2.5981
 2420TIP3   OH2 7265   0.203   1.914   4.723  0.1007  0.7106  0.4366
 2420TIP3    H1 7266   0.288   1.872   4.738 -0.4716 -0.4061  0.6329
 2420TIP3    H2 7267   0.218   1.972   4.648  0.5656 -0.9696 -0.8267
 2421TIP3   OH2 7268   2.470   3.862   1.766 -0.1585  0.6360  0.0343
 2421TIP3    H1 7269   2.557   3.830   1.789 -1.7713 -3.0882  1.6923
 2421TIP3    H2 7270   2.421   3.861   1.848 -1.9848  2.0965 -0.9535
 2422TIP3   OH2 7271   5.672   1.345   4.283 -0.4092 -0.5125 -0.0354
 2422TIP3    H1 7272   5.652   1.292   4.206 -2.4065  1.3410 -0.9133
 2422TIP3    H2 7273   5.722   1.419   4.249  0.1727 -0.5356  0.7438
 2423TIP3   OH2 7274   1.193   3.617   2.685  0.1310 -0.1348  0.5952
 2423TIP3    H1 7275   1.107   3.602   2.724 -0.5948 -0.1019 -0.8800
 2423TIP3    H2 7276   1.219   3.703   2.717 -0.5134 -0.0395  0.8759
 2424TIP3   OH2 7277   2.589   1.227   3.826 -0.3600 -0.1600  0.6305
 2424TIP3    H1 7278   2.506   1.215   3.872 -0.6815 -1.4399 -0.2235
 2424TIP3    H2 7279   2.621   1.138   3.811  0.4376  0.2690 -0.3482
 2425TIP3   OH2 7280   1.937   0.217   3.083  0.0112 -0.5021  0.3428
 2425TIP3    H1 7281   2.031   0.231   3.072  0.1107 -0.0683  1.6386
 2425TIP3    H2 7282   1.913   0.271   3.158 -1.6345  0.8369 -1.0563
 2426TIP3   OH2 7283   0.350   1.637   0.611  0.3349  0.2169  0.3073
 2426TIP3    H1 7284   0.440   1.610   0.594 -0.1380 -1.2256 -0.0042
 2426TIP3    H2 7285   0.324   1.683   0.531  1.3139  2.1692  1.0460
 2427TIP3   OH2 7286   0.791   3.220   3.823  0.2427  0.3726  0.3417
 2427TIP3    H1 7287   0.779   3.135   3.865  0.8617  0.2104  0.1969
 2427TIP3    H2 7288   0.749   3.283   3.883  0.3082  0.0368  0.7434
 2428TIP3   OH2 7289   2.805   0.636   4.360  0.4556  0.2185  0.4316
 2428TIP3    H1 7290   2.815   0.550   4.320  0.2357 -0.2340  1.3289
 2428TIP3    H2 7291   2.849   0.696   4.299  1.4717 -0.6504  0.2713
 2429TIP3   OH2 7292   1.829   4.548   4.027  0.6732 -0.1163 -1.0043
 2429TIP3    H1 7293   1.880   4.603   4.086  1.1034  0.2422 -1.6939
 2429TIP3    H2 7294   1.739   4.555   4.059  0.6517  1.2911 -1.2894
 2430TIP3   OH2 7295   0.989   3.163   3.640  0.2942  0.1731  0.2120
 2430TIP3    H1 7296   0.931   3.146   3.714 -0.2527  0.7810 -0.0735
 2430TIP3    H2 7297   1.007   3.257   3.645  0.5247  0.1538 -0.2401
 2431TIP3   OH2 7298   2.751   4.169   1.715 -0.1192 -0.2485 -0.0261
 2431TIP3    H1 7299   2.829   4.199   1.762  0.2116 -1.8765  0.5243
 2431TIP3    H2 7300   2.690   4.243   1.722  1.2935  1.0033 -0.3467
 2432TIP3   OH2 7301   2.301   1.606   0.624  0.1800 -0.1036 -0.2584
 2432TIP3    H1 7302   2.235   1.540   0.600  0.7415 -0.3332 -1.1959
 2432TIP3    H2 7303   2.368   1.556   0.671  0.5522 -0.1834 -0.8724
 2433TIP3   OH2 7304   0.503   3.048   5.115 -0.6795 -0.1128 -0.4508
 2433TIP3    H1 7305   0.522   3.080   5.027  0.8634  2.8226  0.8212
 2433TIP3    H2 7306   0.586   3.014   5.147 -1.4285 -1.9886 -0.3729
 2434TIP3   OH2 7307   2.773   3.360   1.466  0.5317  0.0441  0.0605
 2434TIP3    H1 7308   2.785   3.451   1.440  3.5517 -0.5421 -1.0993
 2434TIP3    H2 7309   2.784   3.310   1.385 -0.2584 -1.4121  0.8026
 2435TIP3   OH2 7310   6.105   1.874   3.389 -0.1019  0.0526 -0.1457
 2435TIP3    H1 7311   6.038   1.853   3.454  0.4212 -1.8972 -0.1612
 2435TIP3    H2 7312   6.188   1.851   3.433  0.3974  0.5058 -0.8372
 2436TIP3   OH2 7313   0.642   2.330   2.769 -0.0502 -0.0200  0.0872
 2436TIP3    H1 7314   0.608   2.391   2.704 -1.9129 -0.2990  0.7482
 2436TIP3    H2 7315   0.582   2.339   2.843  1.2333 -0.6963  1.2454
 2437TIP3   OH2 7316   1.286   2.758   2.821  0.0079  0.3551 -0.1317
 2437TIP3    H1 7317   1.257   2.793   2.905  1.0905  0.0630  0.3778
 2437TIP3    H2 7318   1.379   2.741   2.832 -0.5689 -3.8398  0.1259
 2438TIP3   OH2 7319   5.147   0.139   4.370 -0.2305 -0.0877 -0.1217
 2438TIP3    H1 7320   5.139   0.173   4.459  0.8709  0.1927 -0.1162
 2438TIP3    H2 7321   5.143   0.044   4.381  0.4083 -0.0756  0.2956
 2439TIP3   OH2 7322   0.979   0.136   3.133 -0.5582 -0.4246  0.0364
 2439TIP3    H1 7323   1.037   0.062   3.152 -0.4879 -0.5041 -0.4652
 2439TIP3    H2 7324   1.038   0.207   3.109 -0.6722 -0.7254 -1.2342
 2440TIP3   OH2 7325   2.939   1.796   1.615 -0.0937 -0.2689  0.6429
 2440TIP3    H1 7326   2.979   1.873   1.573 -0.9519 -0.5245 -0.7163
 2440TIP3    H2 7327   2.846   1.816   1.617 -0.1574 -0.6425  1.6880
 2441TIP3   OH2 7328   5.680   0.038   0.918 -0.1055 -0.4594  0.4179
 2441TIP3    H1 7329   5.674   0.122   0.964 -4.5465 -0.2764 -0.1416
 2441TIP3    H2 7330   5.664  -0.028   0.986  0.7693 -0.7261  0.3828
 2442TIP3   OH2 7331   5.837   3.299   5.012 -0.0109 -0.0654 -0.6314
 2442TIP3    H1 7332   5.883   3.219   4.985  2.6944  1.2769 -0.3138
 2442TIP3    H2 7333   5.806   3.337   4.929  0.1570 -0.5989 -0.9463
 2443TIP3   OH2 7334   1.871   1.315   0.150  0.3810 -0.2114 -0.4518
 2443TIP3    H1 7335   1.839   1.256   0.218  0.3301  0.0574 -0.2400
 2443TIP3    H2 7336   1.902   1.257   0.080 -3.0045 -0.5517 -1.8862
 2444TIP3   OH2 7337   0.678   1.157   1.493  0.2270  0.1560 -0.2218
 2444TIP3    H1 7338   0.721   1.241   1.511 -0.8599  1.3453 -2.6356
 2444TIP3    H2 7339   0.672   1.114   1.578 -1.6723  3.7281  1.6676
 2445TIP3   OH2 7340   0.378   0.296   3.762  0.0440 -0.0099  0.5787
 2445TIP3    H1 7341   0.348   0.236   3.831 -0.7542  0.3731  0.5824
 2445TIP3    H2 7342   0.380   0.242   3.683  0.9607 -0.4507  0.8891
 2446TIP3   OH2 7343   4.939   3.157   3.957 -0.1825  0.0785 -0.4210
 2446TIP3    H1 7344   4.994   3.110   4.020 -0.4361  0.5473  0.1691
 2446TIP3    H2 7345   5.000   3.202   3.899  0.0996  1.4496  0.8728
 2447TIP3   OH2 7346   5.780   1.489   1.418 -0.1431  0.1158  1.0157
 2447TIP3    H1 7347   5.849   1.556   1.414 -0.9047  0.8807  0.4542
 2447TIP3    H2 7348   5.743   1.499   1.506 -0.4163  0.5910  0.8464
 2448TIP3   OH2 7349   2.314   4.108   2.373  0.4626  0.4490 -0.8261
 2448TIP3    H1 7350   2.276   4.020   2.369  0.0027  0.4620  1.5678
 2448TIP3    H2 7351   2.265   4.158   2.308 -0.0040 -0.7969 -1.4737
 2449TIP3   OH2 7352   1.021   0.158   4.463 -0.1132  0.2666 -0.3255
 2449TIP3    H1 7353   0.945   0.215   4.469  0.1033  0.6881 -1.3822
 2449TIP3    H2 7354   1.009   0.110   4.381 -0.7395 -1.8976  0.9402
 2450TIP3   OH2 7355   4.876   5.625   1.602  0.2052  0.4207  0.4194
 2450TIP3    H1 7356   4.908   5.710   1.633  1.7877 -0.9645  2.9027
 2450TIP3    H2 7357   4.783   5.625   1.626  0.2252  1.3984  0.5447
 2451TIP3   OH2 7358   2.678   4.233   4.975  0.1915  0.5237 -0.3012
 2451TIP3    H1 7359   2.640   4.180   4.905 -2.2219  0.5469  0.8687
 2451TIP3    H2 7360   2.656   4.323   4.951 -0.3385  0.5571  0.2743
 2452TIP3   OH2 7361   3.455   0.832   4.876  0.0240 -0.2941  0.5544
 2452TIP3    H1 7362   3.426   0.811   4.965 -0.0193  0.2838  0.6764
 2452TIP3    H2 7363   3.430   0.923   4.863  1.4294  0.0943  0.5048
 2453TIP3   OH2 7364   2.017   1.279   3.305 -0.3446 -0.1727 -0.4968
 2453TIP3    H1 7365   2.082   1.209   3.304  0.0262  0.1573 -0.2646
 2453TIP3    H2 7366   1.985   1.283   3.215 -1.2216 -1.4065 -0.2592
 2454TIP3   OH2 7367   1.878   5.810   2.869  0.3279  0.1193 -0.0959
 2454TIP3    H1 7368   1.894   5.863   2.792  0.5215  0.3033  0.0711
 2454TIP3    H2 7369   1.964   5.799   2.910 -0.0449  1.7987  1.2465
 2455TIP3   OH2 7370   0.736   5.783   0.360  0.1259  0.2097 -0.2102
 2455TIP3    H1 7371   0.806   5.738   0.406 -0.2978 -0.8780 -0.6156
 2455TIP3    H2 7372   0.667   5.718   0.350 -0.8092  1.1571 -0.1407
 2456TIP3   OH2 7373   6.310   3.225   2.553  0.6013  0.1128 -0.0909
 2456TIP3    H1 7374   6.372   3.190   2.618  3.5456  0.0036 -2.6973
 2456TIP3    H2 7375   6.333   3.318   2.547  0.4737  0.0938 -1.0100
 2457TIP3   OH2 7376   4.177   5.985   0.831  0.0698  0.0849 -0.4766
 2457TIP3    H1 7377   4.252   5.928   0.846  1.2559  0.8620 -3.0267
 2457TIP3    H2 7378   4.110   5.927   0.796 -0.8335 -0.7082  2.2717
 2458TIP3   OH2 7379   1.439   4.420   2.764 -0.2174 -0.2482 -0.1663
 2458TIP3    H1 7380   1.508   4.481   2.790  1.8574 -2.5934  0.1929
 2458TIP3    H2 7381   1.366   4.441   2.822  1.0309  0.7206  1.1226
 2459TIP3   OH2 7382   1.914   0.141   4.362 -0.4281  0.2036 -0.3031
 2459TIP3    H1 7383   1.964   0.061   4.343  0.1947  0.1365  1.4839
 2459TIP3    H2 7384   1.834   0.110   4.404 -0.5226  0.5020 -0.2612
 2460TIP3   OH2 7385   2.691   2.755   3.222  0.2245 -0.1554 -0.6454
 2460TIP3    H1 7386   2.626   2.740   3.290 -1.6628 -1.1340 -2.5195
 2460TIP3    H2 7387   2.775   2.740   3.264 -0.8736 -0.9702  1.3795
 2461TIP3   OH2 7388   2.044   4.544   1.543 -0.1628  0.1228 -0.0228
 2461TIP3    H1 7389   2.138   4.563   1.535 -0.2459  0.3085 -0.5908
 2461TIP3    H2 7390   2.002   4.629   1.534 -0.2833  0.4680  2.8057
 2462TIP3   OH2 7391   1.994   5.413   1.967 -0.0059 -0.2285  0.0354
 2462TIP3    H1 7392   2.012   5.322   1.989  0.8031 -0.2159 -0.5368
 2462TIP3    H2 7393   2.077   5.458   1.982 -0.2636  0.3253 -0.1701
 2463TIP3   OH2 7394   0.305   2.158   3.221 -0.0616 -0.4885  0.7185
 2463TIP3    H1 7395   0.260   2.074   3.230 -1.2684  0.2353  2.0727
 2463TIP3    H2 7396   0.279   2.190   3.135 -1.9942 -0.2396  1.3354
 2464TIP3   OH2 7397   1.945   0.991   2.190  0.2499 -0.0743  0.2918
 2464TIP3    H1 7398   1.854   0.989   2.219  0.1839  0.7530  0.1763
 2464TIP3    H2 7399   1.951   1.070   2.136  0.8509 -0.5355 -0.3299
 2465TIP3   OH2 7400   5.395   5.413   3.901  0.4334  0.4336  0.7326
 2465TIP3    H1 7401   5.473   5.373   3.861 -0.8735 -2.0616  0.4594
 2465TIP3    H2 7402   5.374   5.355   3.974 -2.2056 -0.0922 -0.3413
 2466TIP3   OH2 7403   3.987   4.789   1.705  0.0324  0.0100  0.2561
 2466TIP3    H1 7404   3.934   4.794   1.785  2.3441 -0.1798  1.9053
 2466TIP3    H2 7405   4.051   4.860   1.714 -0.1963  0.5680 -1.9123
 2467TIP3   OH2 7406   5.282  -0.022   0.563 -0.4374 -0.8715 -0.2037
 2467TIP3    H1 7407   5.203   0.016   0.602  1.1411 -1.1759  3.7958
 2467TIP3    H2 7408   5.311   0.043   0.499 -1.6704  1.2797  1.2949
 2468TIP3   OH2 7409   3.995   4.578   1.038 -0.1645  0.2608  0.3126
 2468TIP3    H1 7410   4.003   4.516   1.110 -0.3480  2.2159  2.0810
 2468TIP3    H2 7411   4.056   4.648   1.059 -0.0078  0.7587 -1.5995
 2469TIP3   OH2 7412   2.170   0.624   0.766 -0.0837  0.1044 -0.2616
 2469TIP3    H1 7413   2.178   0.692   0.833  0.3781  0.6985 -0.9099
 2469TIP3    H2 7414   2.256   0.620   0.726 -0.4813  0.0786 -1.1253
 2470TIP3   OH2 7415   3.588   0.585   4.087  0.4706 -0.1769 -0.2074
 2470TIP3    H1 7416   3.597   0.662   4.031  0.7214  0.0990  0.2072
 2470TIP3    H2 7417   3.656   0.595   4.153 -1.8964  1.2443  2.1878
 2471TIP3   OH2 7418   6.105   1.879   0.672  0.5758 -0.4360 -0.1809
 2471TIP3    H1 7419   6.156   1.876   0.753  0.5331 -1.2129 -0.1764
 2471TIP3    H2 7420   6.108   1.971   0.645  0.2215 -0.0804  0.9415
 2472TIP3   OH2 7421   5.558   1.067   2.830  0.0490 -0.1375 -0.0288
 2472TIP3    H1 7422   5.638   1.051   2.879  0.8671 -1.1056 -1.6028
 2472TIP3    H2 7423   5.579   1.140   2.772 -0.1186 -0.5446 -0.6119
 2473TIP3   OH2 7424   5.254   2.494   2.779 -0.5643  0.1031 -0.7729
 2473TIP3    H1 7425   5.256   2.454   2.866 -0.1484 -0.5172 -1.0582
 2473TIP3    H2 7426   5.346   2.501   2.754 -0.6949 -0.0251 -1.3023
 2474TIP3   OH2 7427   3.614   1.098   1.193  0.3742  0.4574 -0.0749
 2474TIP3    H1 7428   3.625   1.177   1.247  1.2940  0.0772  0.3215
 2474TIP3    H2 7429   3.616   1.026   1.255  0.2233  0.0829 -0.4993
 2475TIP3   OH2 7430   2.366   3.862   0.295 -0.6853 -0.0041 -0.2752
 2475TIP3    H1 7431   2.395   3.783   0.248 -1.7052 -0.7765  0.3699
 2475TIP3    H2 7432   2.271   3.856   0.295 -0.9719  2.6040 -2.5463
 2476TIP3   OH2 7433   5.231   5.238   3.455  0.4807 -0.0701  0.5829
 2476TIP3    H1 7434   5.257   5.147   3.442 -0.7488 -0.4090  0.3437
 2476TIP3    H2 7435   5.272   5.263   3.538  1.5876 -0.5345  0.1988
 2477TIP3   OH2 7436   0.362   3.318   4.437 -0.2903  0.2988  0.3780
 2477TIP3    H1 7437   0.299   3.337   4.367  1.7508  0.9010 -1.4162
 2477TIP3    H2 7438   0.386   3.404   4.470  0.8781  0.1940 -0.1777
 2478TIP3   OH2 7439   3.290   1.943   0.880 -0.2076  0.3222 -0.4263
 2478TIP3    H1 7440   3.336   1.886   0.818 -0.0136  0.0966 -0.0818
 2478TIP3    H2 7441   3.198   1.932   0.859 -0.1081  0.7811 -1.1294
 2479TIP3   OH2 7442   3.012   2.311   2.207 -0.6557  0.0040  0.0670
 2479TIP3    H1 7443   2.999   2.311   2.112 -0.4062  0.9982  0.0193
 2479TIP3    H2 7444   2.933   2.352   2.242 -1.0844 -1.0433  0.3547
 2480TIP3   OH2 7445   3.865   2.586   4.012  0.0766 -0.5581 -0.4986
 2480TIP3    H1 7446   3.944   2.632   4.042  1.1049 -1.2478 -1.9781
 2480TIP3    H2 7447   3.816   2.651   3.963 -0.0797 -0.2294  0.0877
 2481TIP3   OH2 7448   0.618   0.820   3.672  0.5140 -0.5110 -0.3471
 2481TIP3    H1 7449   0.702   0.866   3.678  0.7734 -0.8252 -1.3138
 2481TIP3    H2 7450   0.625   0.767   3.592 -1.4137  1.0942 -1.6675
 2482TIP3   OH2 7451   4.183   0.548   4.113  0.2047 -0.1553 -0.1413
 2482TIP3    H1 7452   4.231   0.477   4.069 -2.9499 -2.6707  0.1456
 2482TIP3    H2 7453   4.138   0.594   4.042 -2.8751 -2.6496 -0.0206
 2483TIP3   OH2 7454   0.849   3.813   3.765  0.2822  0.0889  0.7391
 2483TIP3    H1 7455   0.804   3.814   3.850 -1.3091  0.4404 -0.0832
 2483TIP3    H2 7456   0.785   3.779   3.704  1.1806  0.4884 -0.4641
 2484TIP3   OH2 7457   3.019   3.615   5.183  0.1893 -0.4371 -0.6145
 2484TIP3    H1 7458   3.027   3.708   5.203 -2.2827 -0.1876 -0.3603
 2484TIP3    H2 7459   3.109   3.583   5.176  1.1489  1.4109  1.8577
 2485TIP3   OH2 7460   5.122   4.912   2.297  0.2206  0.3405 -0.0919
 2485TIP3    H1 7461   5.162   4.956   2.372  0.1968 -1.5243  1.0826
 2485TIP3    H2 7462   5.044   4.870   2.332  0.8648 -1.6028 -0.8249
 2486TIP3   OH2 7463   0.731   2.787   2.982  0.5035  0.4367 -0.4624
 2486TIP3    H1 7464   0.728   2.796   3.077  2.2166 -1.7720 -0.0984
 2486TIP3    H2 7465   0.814   2.827   2.956  0.6347 -0.0516 -0.8300
 2487TIP3   OH2 7466   5.415   4.424   0.125  0.3227 -0.6772  0.0286
 2487TIP3    H1 7467   5.338   4.447   0.177  0.6922 -0.3622  0.4452
 2487TIP3    H2 7468   5.463   4.360   0.178  0.4644 -0.7041 -0.1285
 2488TIP3   OH2 7469   3.433   0.448   3.087  0.7429 -0.0982  0.2072
 2488TIP3    H1 7470   3.493   0.440   3.013  0.4576  0.1393 -0.0518
 2488TIP3    H2 7471   3.362   0.387   3.068 -0.1801  1.1547 -0.5527
 2489TIP3   OH2 7472   1.234   4.318   3.522 -0.1128 -0.6015  0.3081
 2489TIP3    H1 7473   1.147   4.356   3.529  0.3620  0.4908  0.6059
 2489TIP3    H2 7474   1.248   4.274   3.606 -1.3501 -3.0436 -0.6787
 2490TIP3   OH2 7475   3.247   4.397   1.592  0.1692 -0.0051 -0.1905
 2490TIP3    H1 7476   3.206   4.409   1.506  0.3447  0.5767 -0.1950
 2490TIP3    H2 7477   3.283   4.308   1.588 -0.2486 -0.1646 -0.5381
 2491TIP3   OH2 7478   5.014   4.813   4.874 -0.2921  0.1549 -0.0511
 2491TIP3    H1 7479   5.074   4.840   4.804 -0.3669  1.3131  0.3155
 2491TIP3    H2 7480   4.928   4.811   4.833 -0.2957  0.5508 -0.0587
 2492TIP3   OH2 7481   5.074   3.467   4.149 -0.4345 -0.5951 -0.1724
 2492TIP3    H1 7482   4.981   3.491   4.141 -0.3302 -0.1303 -0.0214
 2492TIP3    H2 7483   5.113   3.494   4.066 -0.3295 -0.2958 -0.0269
 2493TIP3   OH2 7484   3.011   4.636   0.324 -0.6122 -0.4084  0.5101
 2493TIP3    H1 7485   3.004   4.691   0.246 -0.6041 -0.8001  0.2332
 2493TIP3    H2 7486   3.006   4.698   0.397  2.7100  0.3726  0.2248
 2494TIP3   OH2 7487   4.787   2.670   3.342 -0.2719 -0.3063 -0.2612
 2494TIP3    H1 7488   4.742   2.598   3.387  0.9644 -1.5109 -0.8648
 2494TIP3    H2 7489   4.870   2.679   3.389  0.0823 -0.0874 -0.9179
 2495TIP3   OH2 7490   4.676   3.347   4.561 -0.2159 -0.1707 -0.1700
 2495TIP3    H1 7491   4.611   3.281   4.586  1.7739 -2.1299  0.1741
 2495TIP3    H2 7492   4.760   3.308   4.585  1.1781  1.8519 -1.4512
 2496TIP3   OH2 7493   4.361   4.515   2.523 -0.1530  0.1107  0.3566
 2496TIP3    H1 7494   4.319   4.576   2.583 -0.8573 -1.9366  2.0949
 2496TIP3    H2 7495   4.454   4.532   2.533 -0.3574  1.2786  0.3701
 2497TIP3   OH2 7496   1.510   3.604   3.418 -0.0176 -0.4779 -0.2020
 2497TIP3    H1 7497   1.483   3.513   3.409 -0.1114 -0.2697 -3.0639
 2497TIP3    H2 7498   1.432   3.649   3.449 -0.1206 -1.2619  0.7340
 2498TIP3   OH2 7499   5.476   4.747   1.869 -0.0981 -0.5744 -0.2431
 2498TIP3    H1 7500   5.504   4.746   1.961  0.5904  1.0828 -0.3895
 2498TIP3    H2 7501   5.423   4.668   1.859  0.3216 -1.1154  1.4134
 2499TIP3   OH2 7502   2.238   5.242   4.862 -0.0048 -0.3068  0.5435
 2499TIP3    H1 7503   2.192   5.206   4.787 -0.3325  0.6915  0.2483
 2499TIP3    H2 7504   2.331   5.235   4.839 -0.0859 -0.4699  0.2647
 2500TIP3   OH2 7505   0.932   2.259   2.178  0.3518 -0.4661 -0.3069
 2500TIP3    H1 7506   0.886   2.177   2.159 -0.1868 -0.6083  1.4057
 2500TIP3    H2 7507   0.944   2.258   2.273  0.9220  1.1426 -0.3337
 2501TIP3   OH2 7508   0.657   0.092   3.625  0.0833 -0.0166 -0.1062
 2501TIP3    H1 7509   0.641   0.114   3.533  2.2850  1.3005 -0.2451
 2501TIP3    H2 7510   0.667   0.177   3.668 -2.8027 -0.5092  1.8186
 2502TIP3   OH2 7511   5.238   1.067   0.292  0.0549  0.4079  0.1586
 2502TIP3    H1 7512   5.171   1.119   0.246 -0.7100 -0.1214  0.6442
 2502TIP3    H2 7513   5.321   1.098   0.256 -0.3748  1.9383  0.3921
 2503TIP3   OH2 7514   1.968   0.039   2.843 -0.3348 -0.4819  0.3240
 2503TIP3    H1 7515   1.951  -0.054   2.828 -0.7150 -0.2743 -0.6199
 2503TIP3    H2 7516   2.010   0.042   2.929 -1.4958 -1.4025  0.9532
 2504TIP3   OH2 7517   5.991   2.451   1.558  0.0960 -0.2384 -0.6777
 2504TIP3    H1 7518   6.049   2.490   1.623 -0.9915  0.3183 -0.0213
 2504TIP3    H2 7519   5.958   2.371   1.599  1.7847 -1.5681 -1.7561
 2505TIP3   OH2 7520   2.576   5.265   3.063 -0.0492  0.2477  0.2200
 2505TIP3    H1 7521   2.572   5.179   3.105 -0.2086  1.2102  2.3004
 2505TIP3    H2 7522   2.587   5.246   2.970  1.5860 -2.0078  0.8002
 2506TIP3   OH2 7523   5.131   1.709   1.933  0.3141 -0.2911 -0.1261
 2506TIP3    H1 7524   5.087   1.785   1.894  1.5355  0.9498  0.8353
 2506TIP3    H2 7525   5.069   1.677   1.998  0.1097  0.3636  0.0106
 2507TIP3   OH2 7526   3.414  -0.016   4.461 -0.2038  0.3449  0.4669
 2507TIP3    H1 7527   3.461  -0.023   4.544 -0.1439 -0.0962  0.3970
 2507TIP3    H2 7528   3.452   0.061   4.419 -0.6867  0.9676  1.1293
 2508TIP3   OH2 7529   5.845   2.893   4.020  0.3586 -0.0341 -0.1237
 2508TIP3    H1 7530   5.924   2.840   4.030  0.2494  0.1749  2.6392
 2508TIP3    H2 7531   5.810   2.868   3.935  0.3191 -4.4501  0.9394
 2509TIP3   OH2 7532   5.094   1.693   0.490 -0.4246 -0.2914 -0.1850
 2509TIP3    H1 7533   5.170   1.681   0.434  0.4905 -0.8950  1.1507
 2509TIP3    H2 7534   5.106   1.631   0.562 -1.6360  0.3460  0.6083
 2510TIP3   OH2 7535   2.855   4.026   0.746 -0.3629  0.5622 -0.0044
 2510TIP3    H1 7536   2.764   4.048   0.725 -1.0037 -1.4847  0.4827
 2510TIP3    H2 7537   2.856   4.014   0.841  0.5065  0.8813  0.0414
 2511TIP3   OH2 7538   3.299   3.739   0.789  0.8624  0.4024 -0.4198
 2511TIP3    H1 7539   3.272   3.790   0.713  0.8434  0.8788 -0.1037
 2511TIP3    H2 7540   3.301   3.649   0.759  0.9046  0.5920 -0.9965
 2512TIP3   OH2 7541   4.831   4.446   5.005 -0.1453 -0.4844 -0.3039
 2512TIP3    H1 7542   4.919   4.418   5.031  0.9781  1.7032 -1.4755
 2512TIP3    H2 7543   4.827   4.539   5.028  0.1051  1.0808 -5.4244
 2513TIP3   OH2 7544   0.920   3.387   4.072 -1.1214  0.0859 -0.3373
 2513TIP3    H1 7545   0.982   3.327   4.030 -1.3321 -0.0990 -0.3859
 2513TIP3    H2 7546   0.933   3.374   4.166 -2.8130 -1.7931 -0.2942
 2514TIP3   OH2 7547   2.000   0.288   3.818  0.3114 -0.0997  0.0660
 2514TIP3    H1 7548   2.016   0.259   3.728 -1.9507  0.2737 -0.5069
 2514TIP3    H2 7549   1.976   0.208   3.865 -0.7243  0.0199 -0.2350
 2515TIP3   OH2 7550   6.320   5.130   3.630 -0.4349 -0.0313 -0.1419
 2515TIP3    H1 7551   6.349   5.060   3.688 -0.5944  1.1380  1.4063
 2515TIP3    H2 7552   6.400   5.162   3.588 -0.2408 -0.4889 -0.1194
 2516TIP3   OH2 7553   0.758   5.279   3.649 -0.4099 -0.5342  0.1309
 2516TIP3    H1 7554   0.790   5.255   3.562 -0.8804  1.1330 -0.5435
 2516TIP3    H2 7555   0.688   5.216   3.667  0.2875 -1.4519 -0.2917
 2517TIP3   OH2 7556   1.017   5.389   2.314  0.3368  0.3942  0.3767
 2517TIP3    H1 7557   1.102   5.345   2.323  0.6492  0.8319 -0.3879
 2517TIP3    H2 7558   1.039   5.482   2.318 -0.4969  0.5987  3.9541
 2518TIP3   OH2 7559   5.158   3.515   3.284  0.0207 -0.3813 -0.9337
 2518TIP3    H1 7560   5.122   3.565   3.358  1.6499  1.1567 -1.1196
 2518TIP3    H2 7561   5.108   3.433   3.284 -0.6175 -0.0603  1.3193
 2519TIP3   OH2 7562   4.116   0.742   4.318  0.1134  0.2489 -0.0850
 2519TIP3    H1 7563   4.163   0.758   4.237  1.4300  0.5079  0.7095
 2519TIP3    H2 7564   4.158   0.666   4.357 -1.3802 -0.7226 -0.2662
 2520TIP3   OH2 7565   0.859   5.438   3.087 -0.2120 -0.1494  0.3248
 2520TIP3    H1 7566   0.944   5.473   3.062 -0.8448 -0.1487 -2.0365
 2520TIP3    H2 7567   0.870   5.343   3.087  0.3107 -0.1426  2.2522
 2521TIP3   OH2 7568   4.697   0.245   4.588  0.4771  0.1133 -0.2322
 2521TIP3    H1 7569   4.702   0.310   4.519  1.2279  0.7013  0.3513
 2521TIP3    H2 7570   4.695   0.161   4.542  0.2520  0.5153 -0.9737
 2522TIP3   OH2 7571   2.599   2.609   1.573 -0.3217 -0.0021 -0.4886
 2522TIP3    H1 7572   2.556   2.591   1.489  0.2508 -0.4301 -0.6919
 2522TIP3    H2 7573   2.593   2.527   1.621  0.7732 -0.2456 -0.7447
 2523TIP3   OH2 7574   5.755   0.123   0.504  0.1857 -0.2271  0.5029
 2523TIP3    H1 7575   5.680   0.167   0.542 -0.2081  0.6771 -1.1958
 2523TIP3    H2 7576   5.724   0.034   0.485  0.5657 -0.8831  2.6912
 2524TIP3   OH2 7577   5.232   0.862   2.236  0.5809 -0.0413  0.0120
 2524TIP3    H1 7578   5.240   0.917   2.314 -1.2297  1.3951 -0.7249
 2524TIP3    H2 7579   5.298   0.794   2.248  0.7139  0.4093  2.5472
 2525TIP3   OH2 7580   6.094   2.814   0.852 -0.5687 -0.3956 -0.2170
 2525TIP3    H1 7581   6.057   2.759   0.921  1.5452 -2.5010 -0.6335
 2525TIP3    H2 7582   6.144   2.753   0.798  0.5331  1.7259 -1.6994
 2526TIP3   OH2 7583   6.271   1.324   4.658  0.2898 -0.2967  0.3789
 2526TIP3    H1 7584   6.227   1.395   4.705  0.7217 -0.6644  1.3671
 2526TIP3    H2 7585   6.328   1.284   4.724  0.0928 -1.5174 -0.1772
 2527TIP3   OH2 7586   0.348   5.287   4.656 -0.3214  0.5277  0.5358
 2527TIP3    H1 7587   0.335   5.192   4.646  1.2571  0.2011  1.3028
 2527TIP3    H2 7588   0.309   5.325   4.578  0.1562 -0.8719 -0.4217
 2528TIP3   OH2 7589   2.916   1.342   1.467 -0.4971 -0.4083 -0.5254
 2528TIP3    H1 7590   3.005   1.334   1.500  0.8487 -0.2207 -3.7973
 2528TIP3    H2 7591   2.923   1.332   1.372 -3.7074  1.4268 -1.1379
 2529TIP3   OH2 7592   4.197   0.891   3.163  0.3140  0.0234  1.2850
 2529TIP3    H1 7593   4.175   0.808   3.119  1.3228 -0.3791  1.5263
 2529TIP3    H2 7594   4.161   0.881   3.251 -0.6244  0.3342  0.9465
 2530TIP3   OH2 7595   1.157   0.643   1.137 -0.4929 -0.4041  0.4553
 2530TIP3    H1 7596   1.083   0.608   1.087  0.4590 -0.9872 -0.5766
 2530TIP3    H2 7597   1.142   0.737   1.140 -1.6749 -0.5861  0.9406
 2531TIP3   OH2 7598   5.278   4.684   0.868 -0.0624  0.0753 -0.0962
 2531TIP3    H1 7599   5.237   4.764   0.834  1.2801  0.2051 -1.5473
 2531TIP3    H2 7600   5.368   4.689   0.836  1.8863  0.9391  4.7520
 2532TIP3   OH2 7601   5.555   2.334   3.874 -0.3470  0.1837  0.3297
 2532TIP3    H1 7602   5.562   2.268   3.806  1.0591  1.1520 -0.5121
 2532TIP3    H2 7603   5.463   2.360   3.874 -0.8723 -1.5632  0.5188
 2533TIP3   OH2 7604   5.345   0.375   1.917 -0.3528  0.2417 -0.2499
 2533TIP3    H1 7605   5.316   0.353   1.828  2.3479 -0.8590 -0.9641
 2533TIP3    H2 7606   5.407   0.306   1.940 -0.8117  0.6072  2.4605
 2534TIP3   OH2 7607   0.923   4.197   4.360  0.1923  0.0789  0.3681
 2534TIP3    H1 7608   0.999   4.154   4.399  1.4555  0.1898 -1.8339
 2534TIP3    H2 7609   0.958   4.244   4.285 -2.1509 -0.3408 -1.0768
 2535TIP3   OH2 7610   1.152   0.388   4.975  0.1379 -0.1179 -0.5491
 2535TIP3    H1 7611   1.176   0.392   5.068 -0.9953  0.8374 -0.2767
 2535TIP3    H2 7612   1.069   0.436   4.970 -0.2484 -0.9055 -1.9200
 2536TIP3   OH2 7613   4.275   0.662   2.396 -0.2698  0.1107  0.6951
 2536TIP3    H1 7614   4.342   0.595   2.384 -0.0111  0.0488  2.2416
 2536TIP3    H2 7615   4.240   0.677   2.308  1.8809  0.2738 -0.1882
 2537TIP3   OH2 7616   1.587   3.542   1.727  0.4217  0.0921  0.2727
 2537TIP3    H1 7617   1.559   3.630   1.702 -1.5421  0.1006  2.1614
 2537TIP3    H2 7618   1.659   3.521   1.667 -1.3922  1.5404 -2.6347
 2538TIP3   OH2 7619   1.062   2.534   1.277 -0.4032  0.1325 -0.3266
 2538TIP3    H1 7620   1.106   2.605   1.325  0.1422  0.0237 -0.6559
 2538TIP3    H2 7621   1.052   2.464   1.341 -1.6137  0.7609  0.2083
 2539TIP3   OH2 7622   1.242   2.852   2.164 -0.1357  0.0102  0.4778
 2539TIP3    H1 7623   1.310   2.847   2.231 -0.7353 -0.0563  1.0922
 2539TIP3    H2 7624   1.179   2.916   2.197 -1.5585 -1.6065  1.0488
 2540TIP3   OH2 7625   1.525   0.251   3.452  0.4219  0.0441 -0.0409
 2540TIP3    H1 7626   1.450   0.192   3.450  0.3356 -0.0360  2.4264
 2540TIP3    H2 7627   1.553   0.259   3.361 -2.1902 -0.4039 -0.9410
 2541TIP3   OH2 7628   3.233   3.256   0.867  0.5055 -0.1733  0.4687
 2541TIP3    H1 7629   3.302   3.216   0.814 -1.0238 -1.5710 -0.5659
 2541TIP3    H2 7630   3.232   3.204   0.948  1.2128  0.4067  0.8639
 2542TIP3   OH2 7631   3.520   1.462   2.189 -0.0635 -0.0904 -0.1980
 2542TIP3    H1 7632   3.497   1.532   2.128  0.6159 -1.3025 -1.9379
 2542TIP3    H2 7633   3.443   1.406   2.191 -0.8385  0.9708  1.6720
 2543TIP3   OH2 7634   1.411   2.724   3.469  0.7098  0.1784  0.8193
 2543TIP3    H1 7635   1.502   2.729   3.497  0.4025 -1.7895  2.4032
 2543TIP3    H2 7636   1.360   2.737   3.549 -0.3092 -1.1896  0.4506
 2544TIP3   OH2 7637   3.977   2.760   4.920  0.3171  0.2518  0.1322
 2544TIP3    H1 7638   4.010   2.682   4.964  1.5916  1.1655  0.8877
 2544TIP3    H2 7639   3.977   2.737   4.827 -1.1054 -1.2463  0.4796
 2545TIP3   OH2 7640   0.005   2.990   0.357 -0.5016 -0.3026  0.3359
 2545TIP3    H1 7641  -0.041   2.928   0.413 -0.2351  0.0757  0.9823
 2545TIP3    H2 7642   0.062   3.038   0.417  0.2167 -0.2886 -0.3469
 2546TIP3   OH2 7643   3.150   3.079   2.688 -0.1774  0.5192 -0.2288
 2546TIP3    H1 7644   3.128   3.114   2.774  0.3477  0.3017  0.0007
 2546TIP3    H2 7645   3.208   3.005   2.707  1.0471  1.2967 -0.8088
 2547TIP3   OH2 7646   4.488   5.416   2.360 -0.2087 -0.1213  0.2756
 2547TIP3    H1 7647   4.476   5.445   2.270  1.7529  0.1116  0.0304
 2547TIP3    H2 7648   4.412   5.361   2.379 -1.2860  0.8429 -1.0815
 2548TIP3   OH2 7649   1.365   5.390   1.130 -0.0868  0.8053 -0.0223
 2548TIP3    H1 7650   1.450   5.398   1.086  0.6492  1.2096  1.4232
 2548TIP3    H2 7651   1.376   5.436   1.213 -0.9861 -1.1242  1.2310
 2549TIP3   OH2 7652   2.954   4.358   4.577  0.2874  0.0293  0.1428
 2549TIP3    H1 7653   2.906   4.391   4.501  1.5865  2.4531  0.2772
 2549TIP3    H2 7654   2.930   4.265   4.583 -2.5696  0.6046 -1.0962
 2550TIP3   OH2 7655   4.732   0.789   3.742  0.1452  0.8461 -0.2210
 2550TIP3    H1 7656   4.785   0.773   3.664 -0.1798  2.4281 -0.7947
 2550TIP3    H2 7657   4.769   0.869   3.780  0.9107 -0.3834  1.8099
 2551TIP3   OH2 7658   3.443   2.181   0.943  0.5194  0.3619 -0.2183
 2551TIP3    H1 7659   3.422   2.088   0.953  1.7790  0.2366  1.9694
 2551TIP3    H2 7660   3.416   2.203   0.854 -0.9496 -1.7816 -0.3660
 2552TIP3   OH2 7661   3.820   3.675   0.190  0.1102  0.2600  0.2426
 2552TIP3    H1 7662   3.834   3.709   0.101 -1.0281 -0.2553 -0.1555
 2552TIP3    H2 7663   3.725   3.664   0.196  0.3032 -1.1783  0.9717
 2553TIP3   OH2 7664   2.185   4.067   1.231  0.4292  0.1946  0.0313
 2553TIP3    H1 7665   2.241   3.995   1.202  1.3941  0.8556  0.1943
 2553TIP3    H2 7666   2.145   4.100   1.150  0.8509  0.1727 -0.1918
 2554TIP3   OH2 7667   1.516   0.972   1.152 -0.4408  0.7104 -0.2493
 2554TIP3    H1 7668   1.465   0.943   1.228 -0.5113  1.7944  0.1246
 2554TIP3    H2 7669   1.477   1.055   1.127  0.7493  1.2685 -0.3242
 2555TIP3   OH2 7670   4.957   2.833   1.565 -0.4563  0.5250  0.0328
 2555TIP3    H1 7671   5.040   2.826   1.519 -1.4127 -2.3606 -1.5070
 2555TIP3    H2 7672   4.978   2.812   1.656  0.8054  2.2537  0.1883
 2556TIP3   OH2 7673   3.172   1.550   1.029 -0.6085 -0.3272 -0.2084
 2556TIP3    H1 7674   3.102   1.550   0.964 -0.5966 -0.7050 -0.2203
 2556TIP3    H2 7675   3.250   1.524   0.979 -0.1894  1.3323 -0.4858
 2557TIP3   OH2 7676   2.217   0.627   1.113 -0.4434 -0.5346  0.3640
 2557TIP3    H1 7677   2.174   0.713   1.120 -1.0214 -0.7158 -0.7339
 2557TIP3    H2 7678   2.276   0.624   1.189 -2.2228 -0.2021  1.8508
 2558TIP3   OH2 7679   3.414   0.420   2.667 -0.0984  0.6080  0.1604
 2558TIP3    H1 7680   3.368   0.363   2.606  0.2311  0.9116 -0.3788
 2558TIP3    H2 7681   3.375   0.401   2.752  0.1701 -0.5926  0.0262
 2559TIP3   OH2 7682   3.872   0.508   3.081 -0.3830  0.1123  0.8656
 2559TIP3    H1 7683   3.786   0.471   3.061 -0.4254  0.6104  0.0328
 2559TIP3    H2 7684   3.900   0.465   3.161 -0.8782 -0.9405  0.4850
 2560TIP3   OH2 7685   4.795   5.199   2.224  0.4167  0.3182  0.3277
 2560TIP3    H1 7686   4.855   5.224   2.155  1.1926 -0.5559  0.6609
 2560TIP3    H2 7687   4.755   5.118   2.193 -0.4906  0.8075  0.1777
 2561TIP3   OH2 7688   0.276   5.880   1.563  0.8979  0.2406  0.0769
 2561TIP3    H1 7689   0.317   5.813   1.619  0.2652  0.3144  0.6423
 2561TIP3    H2 7690   0.199   5.837   1.527  1.4347  0.1162 -0.9558
 2562TIP3   OH2 7691   2.015   3.992   1.488 -0.2893 -0.2967 -0.4977
 2562TIP3    H1 7692   2.009   4.087   1.478 -0.5446 -0.5061 -2.6881
 2562TIP3    H2 7693   2.098   3.978   1.534 -1.3071  1.0510  1.9074
 2563TIP3   OH2 7694   5.103   5.048   4.001  0.1439  0.3803 -0.4797
 2563TIP3    H1 7695   5.056   5.058   3.919 -0.3938  1.1651 -0.0839
 2563TIP3    H2 7696   5.112   5.137   4.036  0.8082  0.1150  0.0697
 2564TIP3   OH2 7697   5.923   3.524   0.008 -0.3149  0.4048 -0.3500
 2564TIP3    H1 7698   5.922   3.435   0.043  0.4099 -0.6233 -2.7081
 2564TIP3    H2 7699   5.915   3.581   0.085  2.0572 -1.6171  1.5328
 2565TIP3   OH2 7700   3.423   3.276   2.056 -0.2003  0.0969  0.2090
 2565TIP3    H1 7701   3.380   3.240   1.978  0.3086  1.2915 -0.6616
 2565TIP3    H2 7702   3.490   3.212   2.079 -0.3103 -0.2334 -0.3838
 2566TIP3   OH2 7703   2.463   3.410   5.056 -0.4360  0.5125 -0.1682
 2566TIP3    H1 7704   2.500   3.353   5.124  0.3510  0.7537 -0.3886
 2566TIP3    H2 7705   2.467   3.498   5.093 -1.5464  0.4500  0.1255
 2567TIP3   OH2 7706   0.866   3.302   1.813 -0.6950 -0.4027 -0.3370
 2567TIP3    H1 7707   0.866   3.349   1.897 -1.1267 -0.0479 -0.5313
 2567TIP3    H2 7708   0.930   3.232   1.825 -0.5678 -0.2008  0.2042
 2568TIP3   OH2 7709   5.893   4.390   2.275  0.9155  0.0482 -0.4062
 2568TIP3    H1 7710   5.918   4.474   2.235  2.4340 -0.9042 -1.5988
 2568TIP3    H2 7711   5.971   4.362   2.323 -0.2228  0.1960  1.6238
 2569TIP3   OH2 7712   5.148   1.916   0.705  0.1889 -0.6019 -0.2422
 2569TIP3    H1 7713   5.168   1.915   0.611 -0.9234  0.8570 -0.5248
 2569TIP3    H2 7714   5.158   1.824   0.732  0.2197 -1.1085 -1.8404
 2570TIP3   OH2 7715   0.981   0.870   0.061  0.2683 -0.3173  0.0638
 2570TIP3    H1 7716   1.020   0.925  -0.007  2.1436 -0.4492  0.9554
 2570TIP3    H2 7717   0.930   0.930   0.114 -1.2365 -0.2129 -1.4201
 2571TIP3   OH2 7718   0.105   4.815   0.331  0.1360 -0.1266 -0.5779
 2571TIP3    H1 7719   0.065   4.838   0.415  0.0129 -0.4863 -0.5335
 2571TIP3    H2 7720   0.185   4.767   0.355  0.8476  0.9849 -0.6639
 2572TIP3   OH2 7721   3.358   4.144   1.613 -0.1033 -0.6432 -0.0565
 2572TIP3    H1 7722   3.386   4.140   1.705  0.0588 -1.0874 -0.1219
 2572TIP3    H2 7723   3.312   4.061   1.598  1.3118 -1.3342 -0.8272
 2573TIP3   OH2 7724   1.526   2.008   1.965  0.3707 -0.0926  0.1082
 2573TIP3    H1 7725   1.508   2.015   1.871 -0.8254 -2.3398  0.0918
 2573TIP3    H2 7726   1.563   2.093   1.989 -1.9818  1.6274 -1.8185
 2574TIP3   OH2 7727   1.976   0.423   4.095 -0.0845  0.0283 -0.3234
 2574TIP3    H1 7728   1.881   0.430   4.093 -0.0081  1.3192 -1.1095
 2574TIP3    H2 7729   1.994   0.333   4.068 -1.0804 -0.3366  0.1678
 2575TIP3   OH2 7730   3.164   2.350   3.421  0.2096  0.0033 -0.2967
 2575TIP3    H1 7731   3.174   2.399   3.339 -0.1102  1.0592  0.2812
 2575TIP3    H2 7732   3.070   2.348   3.436  0.1507 -1.4917 -0.7079
 2576TIP3   OH2 7733   0.293   5.494   1.273 -0.0630 -0.1305  0.5681
 2576TIP3    H1 7734   0.347   5.482   1.196  0.9281  1.6209  0.9274
 2576TIP3    H2 7735   0.336   5.442   1.341  0.1641 -0.1684  0.3967
 2577TIP3   OH2 7736   1.147   0.117   3.871  0.2009 -0.0894  0.7703
 2577TIP3    H1 7737   1.055   0.095   3.854  0.3519 -1.4967  1.6422
 2577TIP3    H2 7738   1.162   0.090   3.961  2.0022 -1.7907  0.0256
 2578TIP3   OH2 7739   0.402   5.861   1.905  0.4286 -0.2834  0.1713
 2578TIP3    H1 7740   0.492   5.879   1.879  0.6415 -1.0283  0.3494
 2578TIP3    H2 7741   0.407   5.842   1.999 -0.1256  1.0162  0.4834
 2579TIP3   OH2 7742   3.818   4.500   4.150  0.9351  0.0873  0.3480
 2579TIP3    H1 7743   3.900   4.487   4.196  0.9112 -1.5232 -0.0020
 2579TIP3    H2 7744   3.751   4.471   4.212  0.6198  1.4052  0.6384
 2580TIP3   OH2 7745   6.295   1.456   3.693 -0.6781  0.6787  0.6906
 2580TIP3    H1 7746   6.208   1.419   3.708 -0.8497  0.5231 -0.5782
 2580TIP3    H2 7747   6.318   1.428   3.604 -0.2095  2.4265  0.2293
 2581TIP3   OH2 7748   1.447   5.380   0.293  0.2114 -0.3966  0.8842
 2581TIP3    H1 7749   1.353   5.369   0.285  0.1931 -1.7860  2.4891
 2581TIP3    H2 7750   1.459   5.429   0.375  0.7760  3.7573 -1.3826
 2582TIP3   OH2 7751   2.115   2.148   4.372 -0.2741  0.0102 -0.1189
 2582TIP3    H1 7752   2.088   2.066   4.330 -1.0349 -0.3637  1.0461
 2582TIP3    H2 7753   2.037   2.178   4.418  0.7091 -0.0416  1.6921
 2583TIP3   OH2 7754   4.134   4.593   3.674  0.5160 -0.2777  0.0842
 2583TIP3    H1 7755   4.048   4.574   3.637  1.0023 -0.3435 -1.0525
 2583TIP3    H2 7756   4.144   4.688   3.663  1.0954 -0.4466 -0.9433
 2584TIP3   OH2 7757   1.511   0.821   0.540  0.3192  0.0700 -0.5968
 2584TIP3    H1 7758   1.478   0.911   0.539 -0.4799 -0.1891  0.2800
 2584TIP3    H2 7759   1.474   0.783   0.620 -0.6792 -1.5349 -1.7583
 2585TIP3   OH2 7760   3.665   1.804   1.141  0.1279  0.3601 -0.4698
 2585TIP3    H1 7761   3.591   1.861   1.125 -1.4601 -1.0288  1.5425
 2585TIP3    H2 7762   3.657   1.776   1.232  2.2558 -1.0597 -0.6168
 2586TIP3   OH2 7763   5.366   5.579   3.637 -0.0464  0.0533  0.2945
 2586TIP3    H1 7764   5.398   5.534   3.559 -2.2362 -2.9700  0.9614
 2586TIP3    H2 7765   5.359   5.510   3.704 -1.6760  1.7950  2.0584
 2587TIP3   OH2 7766   1.975   1.979   0.771  0.3967  0.4234  0.4928
 2587TIP3    H1 7767   1.879   1.980   0.778  0.2487 -1.0145 -0.8558
 2587TIP3    H2 7768   2.001   2.069   0.788 -1.2069  0.8600  0.7786
 2588TIP3   OH2 7769   3.157   2.838   0.836 -0.1826  0.1770  0.1407
 2588TIP3    H1 7770   3.214   2.887   0.777 -0.1513 -0.2056 -0.1544
 2588TIP3    H2 7771   3.199   2.845   0.922 -1.5480  2.9107  0.6886
 2589TIP3   OH2 7772   0.600   3.643   4.471 -0.6425 -0.0556 -0.4062
 2589TIP3    H1 7773   0.549   3.613   4.546  0.5199  0.3246  0.5614
 2589TIP3    H2 7774   0.535   3.682   4.413 -1.5504 -0.2414  0.4541
 2590TIP3   OH2 7775   1.055   1.624   2.493  0.0334  0.3652 -0.0135
 2590TIP3    H1 7776   0.997   1.641   2.567 -1.6723  1.7103 -1.5730
 2590TIP3    H2 7777   1.137   1.666   2.517 -0.8805  1.8796  0.5925
 2591TIP3   OH2 7778   2.342   5.423   5.054  0.3645 -0.1462 -0.1121
 2591TIP3    H1 7779   2.314   5.379   4.974  0.4393 -3.1112  1.3486
 2591TIP3    H2 7780   2.335   5.516   5.034  0.9533 -0.7252 -3.7320
 2592TIP3   OH2 7781   5.382   0.204   2.378 -0.3278  0.0176  0.2717
 2592TIP3    H1 7782   5.384   0.228   2.471  0.5154 -0.4749  0.3910
 2592TIP3    H2 7783   5.452   0.255   2.338  1.0746 -1.6924  0.4190
 2593TIP3   OH2 7784   5.600   0.367   4.619 -0.4510 -0.3436  0.1289
 2593TIP3    H1 7785   5.686   0.401   4.595 -0.7719 -0.8960 -2.0379
 2593TIP3    H2 7786   5.565   0.331   4.538 -1.4048 -3.0924  1.6295
 2594TIP3   OH2 7787   1.380   5.521   2.953  0.4563  0.8017  0.4141
 2594TIP3    H1 7788   1.410   5.605   2.986 -0.6265  0.5925  2.0255
 2594TIP3    H2 7789   1.457   5.464   2.959  0.5484  1.0414  1.6385
 2595TIP3   OH2 7790   4.655   0.873   3.006  0.4954  0.5817  0.4454
 2595TIP3    H1 7791   4.601   0.924   2.945 -0.1474 -1.8621 -1.1743
 2595TIP3    H2 7792   4.612   0.886   3.091 -0.6568  1.3448 -0.2092
 2596TIP3   OH2 7793   1.667   0.100   0.540  0.0159 -0.2054 -0.0506
 2596TIP3    H1 7794   1.617   0.106   0.459 -0.7660 -0.8266  0.3795
 2596TIP3    H2 7795   1.617   0.041   0.595  1.7792 -1.7596 -0.0278
 2597TIP3   OH2 7796   2.704   0.047   2.941  0.1078  0.3096  0.2777
 2597TIP3    H1 7797   2.800   0.048   2.933  0.1963 -0.9417  1.0517
 2597TIP3    H2 7798   2.682   0.137   2.966  0.6783  1.7974 -3.7608
 2598TIP3   OH2 7799   2.974   3.291   4.145  0.0703  0.2378  0.1739
 2598TIP3    H1 7800   3.028   3.355   4.098  0.1280 -0.3312 -0.5450
 2598TIP3    H2 7801   3.012   3.288   4.233  1.8964 -0.9118 -0.6036
 2599TIP3   OH2 7802   2.229   4.254   2.144 -0.3783  0.3241  0.2496
 2599TIP3    H1 7803   2.166   4.319   2.176  1.0113  1.4245  0.8573
 2599TIP3    H2 7804   2.313   4.300   2.142  0.4889 -1.1897 -0.2329
 2600TIP3   OH2 7805   0.836   2.545   4.607 -0.5858 -0.4160 -0.1068
 2600TIP3    H1 7806   0.900   2.475   4.593 -0.2824 -0.2589  0.4619
 2600TIP3    H2 7807   0.884   2.612   4.655 -0.7473  0.3967 -1.0588
 2601TIP3   OH2 7808   4.401   1.612   0.381 -0.2883 -0.0330 -0.0849
 2601TIP3    H1 7809   4.475   1.673   0.379  0.5464 -1.0131 -0.6841
 2601TIP3    H2 7810   4.324   1.667   0.390  0.5699  0.9885  1.5847
 2602TIP3   OH2 7811   4.731   3.973   0.528 -0.3534 -0.4332  0.4189
 2602TIP3    H1 7812   4.730   3.917   0.605 -0.6888 -2.2144 -0.8249
 2602TIP3    H2 7813   4.690   3.921   0.459 -0.0467  1.0854 -0.9896
 2603TIP3   OH2 7814   5.758   4.909   3.120  0.3487  0.4269  0.2028
 2603TIP3    H1 7815   5.698   4.836   3.131  0.9838 -0.1287  0.0097
 2603TIP3    H2 7816   5.841   4.869   3.092  0.9054  1.1423  0.7676
 2604TIP3   OH2 7817   5.966   5.066   0.989  0.7160 -0.2660  0.3259
 2604TIP3    H1 7818   6.042   5.107   0.947  0.3949 -0.0481 -0.0534
 2604TIP3    H2 7819   5.913   5.139   1.021 -0.8831 -0.2227 -2.1349
 2605TIP3   OH2 7820   0.432   4.071   2.035  0.3325 -0.3981  0.6693
 2605TIP3    H1 7821   0.492   4.010   1.994 -0.4836  0.6682 -2.3438
 2605TIP3    H2 7822   0.463   4.158   2.009 -1.2557  0.2624  0.8526
 2606TIP3   OH2 7823   6.127   5.092   1.829 -0.6376  0.3313  0.0986
 2606TIP3    H1 7824   6.100   5.151   1.758 -0.9903 -0.4207 -0.4059
 2606TIP3    H2 7825   6.221   5.082   1.818 -0.4735  1.2790  0.5618
 2607TIP3   OH2 7826   0.300   3.858   1.641  0.0590  0.1286 -0.2308
 2607TIP3    H1 7827   0.339   3.778   1.607  0.5413 -0.6493  1.9860
 2607TIP3    H2 7828   0.325   3.860   1.734 -2.7568  1.0622  0.6188
 2608TIP3   OH2 7829   4.957   2.162   2.504  0.1521 -0.4991 -0.4416
 2608TIP3    H1 7830   4.904   2.088   2.531  0.7524 -0.7470  0.0944
 2608TIP3    H2 7831   4.930   2.180   2.414 -0.8084 -0.6279 -0.1816
 2609TIP3   OH2 7832   3.819   0.185   2.180 -0.8306  0.8696  0.1320
 2609TIP3    H1 7833   3.752   0.228   2.232 -0.6255  1.9424 -0.4495
 2609TIP3    H2 7834   3.840   0.249   2.111  2.2949  1.5040  1.4984
 2610TIP3   OH2 7835   4.306   3.091   0.798  0.0297 -0.3276 -0.7449
 2610TIP3    H1 7836   4.334   3.177   0.765  1.1207 -0.7356 -0.9184
 2610TIP3    H2 7837   4.218   3.107   0.833  0.6738  1.1351  0.3306
 2611TIP3   OH2 7838   2.149   0.427   4.949  0.3074 -0.8426 -0.2087
 2611TIP3    H1 7839   2.086   0.459   4.885 -0.2917  0.0112  0.7669
 2611TIP3    H2 7840   2.096   0.382   5.015  0.8707 -1.3938 -0.1255
 2612TIP3   OH2 7841   4.467   0.584   0.318 -0.2333 -0.4070  0.1124
 2612TIP3    H1 7842   4.436   0.669   0.287  0.7366 -0.6493 -1.6239
 2612TIP3    H2 7843   4.502   0.601   0.405 -0.6997  0.8234  0.0763
 2613TIP3   OH2 7844   5.094   2.105   1.677 -0.2439  0.1535  0.2468
 2613TIP3    H1 7845   5.017   2.056   1.706 -0.8430  0.5642 -0.5810
 2613TIP3    H2 7846   5.117   2.066   1.592  0.1175  0.3924  0.2344
 2614TIP3   OH2 7847   3.576   1.306   0.723 -0.1511 -0.7037  0.2684
 2614TIP3    H1 7848   3.659   1.258   0.716  0.1708  0.1123 -3.0216
 2614TIP3    H2 7849   3.596   1.393   0.690 -1.7469  0.4242  2.0658
 2615TIP3   OH2 7850   3.520   3.863   3.529 -0.2077 -0.0048 -0.2230
 2615TIP3    H1 7851   3.481   3.892   3.446  1.5634 -0.5932 -1.3122
 2615TIP3    H2 7852   3.489   3.773   3.540  0.0160 -0.1218 -0.5463
 2616TIP3   OH2 7853   4.682   0.619   4.645 -0.2957 -0.6026  0.1833
 2616TIP3    H1 7854   4.598   0.665   4.655 -0.9504 -1.9442  1.1361
 2616TIP3    H2 7855   4.660   0.527   4.659  1.0919 -1.1530 -1.0780
 2617TIP3   OH2 7856   2.518   4.352   2.933  0.2084 -0.0032  0.0588
 2617TIP3    H1 7857   2.457   4.393   2.994 -0.1711 -0.7000  0.1494
 2617TIP3    H2 7858   2.534   4.419   2.866  1.0962  1.0008  1.2177
 2618TIP3   OH2 7859   4.240   1.633   1.170 -0.5432 -0.0291 -0.2970
 2618TIP3    H1 7860   4.177   1.704   1.159 -0.3383  0.1311 -0.4145
 2618TIP3    H2 7861   4.279   1.620   1.084  0.2236  0.4619 -0.0297
 2619TIP3   OH2 7862   1.976   4.292   4.878  0.0825  0.2725  0.0856
 2619TIP3    H1 7863   1.977   4.384   4.852  0.5722 -0.0767 -1.2074
 2619TIP3    H2 7864   2.053   4.254   4.836  0.6062 -0.4723  1.6452
 2620TIP3   OH2 7865   4.611   2.211   4.224 -0.2642  0.0506  0.1543
 2620TIP3    H1 7866   4.685   2.258   4.264 -1.7768  0.4890  2.6742
 2620TIP3    H2 7867   4.541   2.275   4.221 -0.6541 -0.4118 -2.0312
 2621TIP3   OH2 7868   5.626   4.422   0.954  0.0681 -0.5152  0.0493
 2621TIP3    H1 7869   5.579   4.487   1.007  0.9575  0.3576 -0.1947
 2621TIP3    H2 7870   5.563   4.352   0.940 -0.4900 -0.3343  1.4779
 2622TIP3   OH2 7871   3.760   4.319   0.561  0.6566  0.1811  0.2167
 2622TIP3    H1 7872   3.740   4.235   0.604  0.7275 -1.1173 -2.1142
 2622TIP3    H2 7873   3.677   4.366   0.562  0.4575 -0.1594  1.0127
 2623TIP3   OH2 7874   4.464   1.270   4.555  0.2146  0.6516 -0.5409
 2623TIP3    H1 7875   4.542   1.298   4.507 -1.2711  0.9579 -2.9357
 2623TIP3    H2 7876   4.416   1.351   4.573 -0.9452  0.2528 -1.7132
 2624TIP3   OH2 7877   2.545   3.437   2.318  0.3664  0.3035  0.5435
 2624TIP3    H1 7878   2.530   3.425   2.224  0.6336  0.2304  0.5095
 2624TIP3    H2 7879   2.576   3.351   2.348 -1.2646 -0.1638  1.0109
 2625TIP3   OH2 7880   5.312   0.576   1.410 -0.3900  0.0471 -0.2216
 2625TIP3    H1 7881   5.228   0.544   1.378  0.7473 -0.5763 -2.8560
 2625TIP3    H2 7882   5.317   0.666   1.379  0.2124 -0.1550 -0.7296
 2626TIP3   OH2 7883   2.528   1.132   4.747  0.1637 -0.5242  0.4916
 2626TIP3    H1 7884   2.522   1.043   4.782  1.1892 -0.2677  1.3770
 2626TIP3    H2 7885   2.457   1.179   4.789  0.1451 -0.7246  0.6878
 2627TIP3   OH2 7886   2.038   3.991   3.714 -0.0280 -0.2992 -0.0920
 2627TIP3    H1 7887   1.999   4.020   3.796 -0.2739 -1.5863  0.2733
 2627TIP3    H2 7888   1.978   3.924   3.681  0.6207 -0.5702 -0.7695
 2628TIP3   OH2 7889   2.581   1.286   3.440 -0.1290 -0.5809  0.0833
 2628TIP3    H1 7890   2.562   1.338   3.519  1.5231  0.5646 -0.2237
 2628TIP3    H2 7891   2.564   1.195   3.467  1.6869 -0.3788  2.2212
 2629TIP3   OH2 7892   6.129   1.065   1.663  0.3376 -0.1751  0.0967
 2629TIP3    H1 7893   6.112   0.975   1.635 -1.6042  0.0267  0.4911
 2629TIP3    H2 7894   6.042   1.105   1.670  1.1535  2.8976 -3.7132
 2630TIP3   OH2 7895   2.305   5.776   4.758 -0.1707 -0.6763 -0.3980
 2630TIP3    H1 7896   2.309   5.757   4.851 -0.1599 -0.7364 -0.4107
 2630TIP3    H2 7897   2.323   5.870   4.752  0.0427 -0.7122 -0.3553
 2631TIP3   OH2 7898   2.152   5.385   1.719 -0.3690  0.6005 -0.1757
 2631TIP3    H1 7899   2.092   5.390   1.793  0.5275  2.7089  0.4914
 2631TIP3    H2 7900   2.155   5.475   1.685  0.2998 -0.0420 -1.9210
 2632TIP3   OH2 7901   5.034   4.114   2.820 -0.0869 -0.0231 -0.1569
 2632TIP3    H1 7902   5.071   4.178   2.880  1.6617  0.1821 -1.3858
 2632TIP3    H2 7903   4.944   4.101   2.852  0.1210  1.5874  1.2508
 2633TIP3   OH2 7904   5.524   4.277   1.537 -0.0096  0.3379 -0.2926
 2633TIP3    H1 7905   5.455   4.341   1.522  0.8419  0.7532 -2.9342
 2633TIP3    H2 7906   5.547   4.246   1.450  0.5322 -2.6325  0.8067
 2634TIP3   OH2 7907   3.683   4.843   3.991  0.0161 -0.5762 -0.1366
 2634TIP3    H1 7908   3.715   4.875   3.907  1.1899 -3.2209 -0.7945
 2634TIP3    H2 7909   3.741   4.884   4.056  0.4220 -0.1303 -0.7720
 2635TIP3   OH2 7910   2.686   4.818   0.773 -0.1841 -1.1981 -0.0938
 2635TIP3    H1 7911   2.649   4.766   0.844 -1.2652 -0.6172 -0.2141
 2635TIP3    H2 7912   2.689   4.757   0.698  1.2774 -1.9108  0.4990
 2636TIP3   OH2 7913   4.824   0.210   3.978  0.5531  0.1048  0.3246
 2636TIP3    H1 7914   4.781   0.188   3.895 -0.7442  1.1819  0.6813
 2636TIP3    H2 7915   4.892   0.143   3.988  0.6591 -0.1353 -1.5381
 2637TIP3   OH2 7916   5.823   0.003   1.765 -0.5996 -0.3157 -0.0055
 2637TIP3    H1 7917   5.836   0.045   1.680 -1.2436  0.3275  0.2033
 2637TIP3    H2 7918   5.747   0.048   1.802 -0.5272 -0.8197  0.7662
 2638TIP3   OH2 7919   4.874   4.423   3.269  0.3798 -0.4120  0.0746
 2638TIP3    H1 7920   4.828   4.409   3.186  0.6663  0.2323 -0.1944
 2638TIP3    H2 7921   4.875   4.518   3.281  0.8357 -0.4686  0.5364
 2639TIP3   OH2 7922   3.729   1.330   1.962 -0.6385 -0.7778  0.1066
 2639TIP3    H1 7923   3.713   1.271   1.888  0.2321 -1.2446  0.2824
 2639TIP3    H2 7924   3.649   1.325   2.014 -1.3719 -0.2273 -0.9501
 2640TIP3   OH2 7925   5.894   5.718   2.390 -0.0453  0.7683  0.9115
 2640TIP3    H1 7926   5.871   5.725   2.483 -1.1622  0.4767  0.6725
 2640TIP3    H2 7927   5.825   5.765   2.344  0.3662  0.7034  0.2079
 2641TIP3   OH2 7928   4.515   4.609   4.174  0.0347 -0.3562  0.2079
 2641TIP3    H1 7929   4.582   4.655   4.122  1.3057 -3.5682 -1.3033
 2641TIP3    H2 7930   4.565   4.548   4.228 -1.5769 -1.2107  0.7947
 2642TIP3   OH2 7931   5.217   1.426   4.231 -0.3999  0.0617  0.7296
 2642TIP3    H1 7932   5.301   1.381   4.220  0.9183  2.0677  2.0583
 2642TIP3    H2 7933   5.154   1.355   4.246  1.3919 -1.4351  1.6102
 2643TIP3   OH2 7934   1.054   1.602   3.823  0.6378  0.0225 -0.1636
 2643TIP3    H1 7935   1.131   1.647   3.787 -0.7278  0.8844 -2.1540
 2643TIP3    H2 7936   1.026   1.544   3.753 -0.8513  0.1280  0.3244
 2644TIP3   OH2 7937   5.214   5.770   0.487 -0.0777  0.0336  0.4092
 2644TIP3    H1 7938   5.235   5.723   0.406  0.4664 -1.0106  1.1410
 2644TIP3    H2 7939   5.198   5.860   0.458  2.8681  0.3709 -0.5997
 2645TIP3   OH2 7940   1.005   4.059   1.670  0.0281  0.0002 -0.0551
 2645TIP3    H1 7941   0.942   3.990   1.688  0.7789 -0.6674  0.0913
 2645TIP3    H2 7942   1.033   4.090   1.756  0.1424  0.0586 -0.1121
 2646TIP3   OH2 7943   3.750   0.768   4.786  0.1578  0.5079 -0.0644
 2646TIP3    H1 7944   3.682   0.836   4.787  0.4986  0.8864  1.7739
 2646TIP3    H2 7945   3.831   0.816   4.801  0.9585  0.1148 -2.6948
 2647TIP3   OH2 7946   4.947   5.217   3.460 -0.1958 -0.6022  0.2046
 2647TIP3    H1 7947   4.920   5.279   3.527  0.0034  0.7139 -0.9033
 2647TIP3    H2 7948   5.036   5.244   3.436  0.4559 -2.1757  0.6703
 2648TIP3   OH2 7949   2.647   1.633   1.397 -0.4588  0.1842 -0.5691
 2648TIP3    H1 7950   2.634   1.564   1.331 -1.4283 -0.5487  0.3448
 2648TIP3    H2 7951   2.659   1.585   1.479 -0.4192  1.1023 -0.0268
 2649TIP3   OH2 7952   4.263   4.299   2.713 -0.0242  0.2031 -0.3257
 2649TIP3    H1 7953   4.292   4.383   2.676 -2.3477  1.2072 -0.0301
 2649TIP3    H2 7954   4.213   4.258   2.643  1.5443 -1.2836 -0.6667
 2650TIP3   OH2 7955   4.890   3.886   0.146 -0.0414  0.4474  0.4061
 2650TIP3    H1 7956   4.966   3.940   0.168  0.6752 -0.1490 -0.4945
 2650TIP3    H2 7957   4.878   3.899   0.052 -0.8667  0.2938  0.4853
 2651TIP3   OH2 7958   4.741   0.099   3.752 -0.2180 -0.4294 -0.0325
 2651TIP3    H1 7959   4.812   0.126   3.694 -0.4328  0.3318  0.0527
 2651TIP3    H2 7960   4.686   0.042   3.698 -0.2190 -0.0121 -0.4769
 2652TIP3   OH2 7961   0.070   5.083   4.233  0.2494  0.1332  0.0737
 2652TIP3    H1 7962   0.011   5.016   4.199 -0.4844 -0.4867  2.3797
 2652TIP3    H2 7963   0.020   5.164   4.224 -0.5150 -0.2244  0.9463
 2653TIP3   OH2 7964   1.815   2.315   2.220 -0.5877  0.4284 -0.5258
 2653TIP3    H1 7965   1.884   2.259   2.256 -0.0462  0.2754 -1.7422
 2653TIP3    H2 7966   1.813   2.392   2.277 -0.2808 -0.1266  0.2503
 2654TIP3   OH2 7967   0.323   4.919   2.697  0.0383 -0.2845 -0.2535
 2654TIP3    H1 7968   0.329   5.015   2.701  0.4920 -0.3403  0.7673
 2654TIP3    H2 7969   0.409   4.889   2.726 -0.6722 -1.0107  1.2129
 2655TIP3   OH2 7970   4.907   3.922   3.449 -0.5138 -0.1114  0.4117
 2655TIP3    H1 7971   4.892   3.954   3.360  1.0573 -0.1982  0.0849
 2655TIP3    H2 7972   4.973   3.981   3.485  3.0065 -3.1627 -0.4371
 2656TIP3   OH2 7973   2.134   1.593   3.145 -0.1275  0.1720 -0.2271
 2656TIP3    H1 7974   2.215   1.643   3.158 -0.1698 -0.1274  1.4951
 2656TIP3    H2 7975   2.161   1.516   3.094  0.4008  0.7318 -0.8100
 2657TIP3   OH2 7976   1.103   2.902   3.645 -0.0976 -0.2826  0.1761
 2657TIP3    H1 7977   1.055   2.984   3.643 -0.8566 -0.6993  0.6100
 2657TIP3    H2 7978   1.083   2.860   3.562  0.2685 -0.0396 -0.0342
 2658TIP3   OH2 7979   4.822   5.919   1.216 -0.4838  0.1267  0.3899
 2658TIP3    H1 7980   4.768   5.893   1.290  0.3491  1.3610  1.4943
 2658TIP3    H2 7981   4.847   6.010   1.236 -1.6414  1.1245 -2.2441
 2659TIP3   OH2 7982   4.770   1.131   1.342 -0.5905 -0.1456  0.0493
 2659TIP3    H1 7983   4.688   1.105   1.385  0.0212  1.3058  2.2115
 2659TIP3    H2 7984   4.791   1.216   1.380  2.2820 -0.7785  0.0368
 2660TIP3   OH2 7985   5.474   0.518   3.227  0.3101 -0.5993 -0.7288
 2660TIP3    H1 7986   5.434   0.595   3.184  1.5044 -0.5411 -1.7824
 2660TIP3    H2 7987   5.473   0.540   3.320  1.5302  1.1666 -1.0847
 2661TIP3   OH2 7988   1.198   4.737   0.776  0.4709 -0.2465 -0.0885
 2661TIP3    H1 7989   1.248   4.689   0.711  0.2110 -0.4269 -0.1587
 2661TIP3    H2 7990   1.162   4.670   0.834  0.2187 -0.1313 -0.1069
 2662TIP3   OH2 7991   4.434   5.706   2.498  0.1337 -0.5565  0.6185
 2662TIP3    H1 7992   4.457   5.793   2.467  0.3205  0.1968  2.7363
 2662TIP3    H2 7993   4.376   5.671   2.430 -0.8554  1.6381  0.2489
 2663TIP3   OH2 7994   1.781   0.237   0.738  0.0566 -0.0007  0.0926
 2663TIP3    H1 7995   1.724   0.224   0.813 -0.2757 -0.1856 -0.1933
 2663TIP3    H2 7996   1.751   0.175   0.673  0.4002  0.0975 -0.1657
 2664TIP3   OH2 7997   6.359   3.780   4.542  0.3303 -0.0089 -0.2358
 2664TIP3    H1 7998   6.269   3.747   4.547  0.4612 -0.1380  2.3065
 2664TIP3    H2 7999   6.349   3.871   4.513 -0.4669 -0.4904 -1.5466
 2665TIP3   OH2 8000   0.605   2.269   1.246 -0.5565 -0.1801 -0.2558
 2665TIP3    H1 8001   0.568   2.268   1.334  0.2991 -0.4340  0.1085
 2665TIP3    H2 8002   0.601   2.178   1.217 -0.3412 -0.1818 -0.2757
 2666TIP3   OH2 8003   5.354   1.594   4.944 -0.2231  0.0948  0.2405
 2666TIP3    H1 8004   5.329   1.625   4.857 -0.0425  0.8796  0.4654
 2666TIP3    H2 8005   5.425   1.532   4.928 -0.1313  0.3029 -0.1652
 2667TIP3   OH2 8006   0.512   5.193   1.055 -0.1197 -0.5009  0.6009
 2667TIP3    H1 8007   0.585   5.198   0.993 -1.0086 -0.0412 -0.4554
 2667TIP3    H2 8008   0.502   5.282   1.088 -1.9517  0.1522 -1.4315
 2668TIP3   OH2 8009   2.052   2.451   1.152 -0.5218  0.7255 -0.5034
 2668TIP3    H1 8010   1.958   2.452   1.135 -0.6771  0.1186  0.3126
 2668TIP3    H2 8011   2.075   2.359   1.159  0.4328  0.7908 -2.2440
 2669TIP3   OH2 8012   1.307   5.423   2.203 -0.1682  0.0908  0.4231
 2669TIP3    H1 8013   1.221   5.449   2.171 -0.3640  0.4696  1.2393
 2669TIP3    H2 8014   1.341   5.501   2.247  0.9863  0.2461 -0.6696
 2670TIP3   OH2 8015   6.149   2.446   3.601  0.0667 -0.1074 -0.4026
 2670TIP3    H1 8016   6.125   2.388   3.528  2.0809 -1.5701  0.0214
 2670TIP3    H2 8017   6.203   2.392   3.658  0.1338  1.5706  1.2145
 2671TIP3   OH2 8018   3.098   4.132   3.480 -0.2017  0.0437 -0.2619
 2671TIP3    H1 8019   3.027   4.157   3.420 -1.2648 -2.9235 -0.4112
 2671TIP3    H2 8020   3.171   4.109   3.423  0.2517  1.1966 -0.1808
 2672TIP3   OH2 8021   5.012   3.211   0.103  0.3387 -0.2718  0.6486
 2672TIP3    H1 8022   4.943   3.197   0.039  1.0639 -0.9790  0.0030
 2672TIP3    H2 8023   5.007   3.135   0.161 -0.3820  0.4144  1.5266
 2673TIP3   OH2 8024   4.441   1.658   4.138  0.4832  0.7610  0.2642
 2673TIP3    H1 8025   4.446   1.691   4.227  1.8517 -0.8939  0.8564
 2673TIP3    H2 8026   4.517   1.696   4.093  0.1009  1.1614 -0.0527
 2674TIP3   OH2 8027   5.436   1.770   2.578  0.5757  0.4466 -0.6252
 2674TIP3    H1 8028   5.513   1.764   2.520  3.2968  1.7385  2.5152
 2674TIP3    H2 8029   5.401   1.857   2.562  0.9327  0.5761 -0.7092
 2675TIP3   OH2 8030   1.829   0.629   0.161 -0.0962  0.0292  0.2857
 2675TIP3    H1 8031   1.790   0.609   0.247  0.3815 -1.0443  0.2677
 2675TIP3    H2 8032   1.768   0.589   0.098 -1.1251  1.9039  0.0309
 2676TIP3   OH2 8033   3.995   1.530   0.614 -0.2585  1.0535 -0.2373
 2676TIP3    H1 8034   3.961   1.562   0.697  1.3986  0.6096  0.6553
 2676TIP3    H2 8035   3.964   1.439   0.609 -2.6493  1.8589 -1.4618
 2677TIP3   OH2 8036   4.998   1.976   3.791  0.0951 -0.5238  0.1829
 2677TIP3    H1 8037   4.968   2.061   3.757  0.4963 -0.2862  0.4063
 2677TIP3    H2 8038   5.083   1.996   3.831  1.0506 -1.3733 -1.3468
 2678TIP3   OH2 8039   3.859   4.638   0.808 -0.3670 -0.3418 -0.1017
 2678TIP3    H1 8040   3.896   4.604   0.889  2.6184  0.4177 -1.0046
 2678TIP3    H2 8041   3.875   4.569   0.744 -1.4118 -0.3567 -0.3617
 2679TIP3   OH2 8042   2.292   2.271   2.512 -0.1991 -0.2661 -0.1895
 2679TIP3    H1 8043   2.216   2.216   2.533 -2.0734  1.8240 -1.1770
 2679TIP3    H2 8044   2.273   2.305   2.425  2.5705 -0.7213 -1.0530
 2680TIP3   OH2 8045   1.278   0.676   0.781  0.1216  0.8201  0.1761
 2680TIP3    H1 8046   1.354   0.732   0.795 -0.9179  2.0608  1.1039
 2680TIP3    H2 8047   1.210   0.734   0.749 -0.5232 -0.2274 -0.4189
 2681TIP3   OH2 8048   1.575   5.331   0.048  0.3717 -0.3441 -0.3456
 2681TIP3    H1 8049   1.542   5.361   0.132  0.0776  0.6238 -0.8000
 2681TIP3    H2 8050   1.507   5.272   0.014  0.4526 -0.6641  0.0452
 2682TIP3   OH2 8051   0.598   5.116   2.545  0.1740 -0.6134  0.4621
 2682TIP3    H1 8052   0.598   5.037   2.598  0.2507 -0.2978  0.9342
 2682TIP3    H2 8053   0.690   5.134   2.528  0.2270  0.0603  1.3940
 2683TIP3   OH2 8054   5.694   4.833   3.713  0.2129  0.7998  0.3424
 2683TIP3    H1 8055   5.729   4.764   3.657 -1.9658 -1.6016  1.7625
 2683TIP3    H2 8056   5.734   4.818   3.799  0.1740  1.7284  0.5418
 2684TIP3   OH2 8057   5.994   2.172   0.885 -0.1566  0.1776 -0.0840
 2684TIP3    H1 8058   6.011   2.150   0.793  0.6377 -0.7820  0.2788
 2684TIP3    H2 8059   6.080   2.184   0.923 -0.4953  2.9620  0.0233
 2685TIP3   OH2 8060   0.325   0.366   1.144  0.1916  0.0929 -0.2671
 2685TIP3    H1 8061   0.267   0.291   1.150 -0.6720  0.6881 -0.9263
 2685TIP3    H2 8062   0.299   0.423   1.217  0.4997 -0.0139 -0.0731
 2686TIP3   OH2 8063   4.658   1.596   1.006 -0.1325  0.3982  0.3415
 2686TIP3    H1 8064   4.629   1.679   0.966 -0.0752  0.3969  0.2962
 2686TIP3    H2 8065   4.740   1.576   0.960  0.2471  0.7060  0.8761
 2687TIP3   OH2 8066   1.961   3.372   0.291 -0.5105 -0.1197 -0.6153
 2687TIP3    H1 8067   2.031   3.388   0.228 -1.3086  0.2736 -1.4304
 2687TIP3    H2 8068   1.891   3.332   0.239 -1.0626 -0.1030  0.0958
 2688TIP3   OH2 8069   3.272   4.082   2.530 -0.0664 -0.0721  0.0824
 2688TIP3    H1 8070   3.238   4.013   2.473 -0.0173  0.4071 -0.5455
 2688TIP3    H2 8071   3.362   4.094   2.502  1.0132 -1.9934  2.3629
 2689TIP3   OH2 8072   4.985   0.065   5.167  0.0386 -0.1222 -0.1607
 2689TIP3    H1 8073   4.947  -0.008   5.216  0.0896 -0.7130 -0.9734
 2689TIP3    H2 8074   5.028   0.023   5.092 -2.4171  0.9088 -2.2957
 2690TIP3   OH2 8075   5.485   2.720   1.227 -0.8188 -0.2188 -0.3994
 2690TIP3    H1 8076   5.522   2.632   1.231 -3.0367 -1.2225 -0.6353
 2690TIP3    H2 8077   5.517   2.756   1.144 -0.2953 -0.9817 -0.5398
 2691TIP3   OH2 8078   0.582   3.108   3.156 -0.6404  0.0252 -0.0970
 2691TIP3    H1 8079   0.593   3.188   3.104  1.4245 -0.7858 -1.0116
 2691TIP3    H2 8080   0.605   3.038   3.096 -1.1167 -1.1781  1.0841
 2692TIP3   OH2 8081   0.265   5.986   1.282  0.1130  0.4251  0.4738
 2692TIP3    H1 8082   0.295   5.990   1.372 -0.5664  1.2615  0.6772
 2692TIP3    H2 8083   0.246   5.893   1.267 -1.1675  0.4608  1.6785
 2693TIP3   OH2 8084   1.073   0.697   1.712 -0.3259  1.0300 -0.0201
 2693TIP3    H1 8085   1.147   0.748   1.745  0.0663  0.3683  0.1607
 2693TIP3    H2 8086   1.086   0.694   1.617  0.0970  0.6107  0.0427
 2694TIP3   OH2 8087   0.168   1.448   3.192  0.6501  1.1828  0.0826
 2694TIP3    H1 8088   0.137   1.358   3.177 -0.9159  1.7921 -0.4808
 2694TIP3    H2 8089   0.206   1.445   3.280 -0.7599  0.2975  0.7023
 2695TIP3   OH2 8090   2.770   4.434   4.396 -0.3057 -0.7043 -0.7391
 2695TIP3    H1 8091   2.817   4.497   4.341 -0.6335  0.2706  0.0683
 2695TIP3    H2 8092   2.690   4.480   4.422  0.5109 -0.5141  1.7766
 2696TIP3   OH2 8093   4.395   3.699   3.022  0.1556  0.0250  1.1129
 2696TIP3    H1 8094   4.353   3.725   2.939  0.6932 -2.3373  0.0250
 2696TIP3    H2 8095   4.474   3.753   3.026  0.2181  0.0532 -0.0241
 2697TIP3   OH2 8096   5.873   4.836   0.485  0.1150  0.1047  0.3325
 2697TIP3    H1 8097   5.834   4.750   0.474  1.4837 -0.6865  1.4335
 2697TIP3    H2 8098   5.967   4.820   0.486  0.5099  1.8645 -1.4921
 2698TIP3   OH2 8099   1.408   2.112   0.089  0.4099  0.0337  0.3635
 2698TIP3    H1 8100   1.484   2.169   0.101  0.9191 -0.4921 -0.2446
 2698TIP3    H2 8101   1.436   2.048   0.023 -1.4086  1.3433 -1.8308
 2699TIP3   OH2 8102   1.215   3.542   4.395  0.4727  0.1083  0.4139
 2699TIP3    H1 8103   1.189   3.628   4.361 -3.2178 -1.1987 -0.5322
 2699TIP3    H2 8104   1.310   3.549   4.406  0.4215  4.1164 -0.0293
 2700TIP3   OH2 8105   2.139   2.081   5.149  0.0164 -0.2440  0.1126
 2700TIP3    H1 8106   2.130   2.175   5.133  2.4516  0.0667  0.2000
 2700TIP3    H2 8107   2.137   2.042   5.061  1.0031  0.1458 -0.1061
 2701TIP3   OH2 8108   4.920   0.488   3.831 -0.5333 -0.2009  0.5581
 2701TIP3    H1 8109   4.964   0.427   3.772 -2.9124 -0.3276 -1.2512
 2701TIP3    H2 8110   4.929   0.449   3.917 -0.0315 -1.9211 -0.2356
 2702TIP3   OH2 8111   4.514   3.446   3.973  0.3413 -0.0088 -0.1004
 2702TIP3    H1 8112   4.434   3.421   4.020  0.0762  0.5340 -0.2514
 2702TIP3    H2 8113   4.578   3.378   3.996 -0.4732 -1.0599 -0.8341
 2703TIP3   OH2 8114   4.741   1.520   2.482 -0.3273 -0.2184  0.1173
 2703TIP3    H1 8115   4.834   1.501   2.489  0.2197  2.0592 -0.1706
 2703TIP3    H2 8116   4.713   1.539   2.571 -0.6554 -1.3480  0.2712
 2704TIP3   OH2 8117   4.772   4.878   2.812 -0.1099  0.1167 -0.1877
 2704TIP3    H1 8118   4.820   4.955   2.782  0.2926  0.0116  0.1827
 2704TIP3    H2 8119   4.738   4.839   2.731  0.5267  0.1271 -0.4700
 2705TIP3   OH2 8120   5.775   1.283   2.437 -0.0644 -0.1448 -0.2715
 2705TIP3    H1 8121   5.851   1.271   2.380  1.0066  1.4879  0.7134
 2705TIP3    H2 8122   5.727   1.357   2.397 -0.8137 -0.7641 -0.5420
 2706TIP3   OH2 8123   6.143   5.210   0.837 -0.0106 -0.2528  0.1971
 2706TIP3    H1 8124   6.113   5.186   0.749 -0.7976 -1.9574  0.8846
 2706TIP3    H2 8125   6.198   5.137   0.864 -2.4779 -1.4869  2.3744
 2707TIP3   OH2 8126   4.209   1.067   1.983 -0.0595 -0.3576 -0.3415
 2707TIP3    H1 8127   4.226   0.989   1.930 -0.4789 -0.2633 -0.6143
 2707TIP3    H2 8128   4.225   1.038   2.073 -0.5393 -0.8523 -0.4079
 2708TIP3   OH2 8129   5.996   5.929   3.690  0.3527 -0.6395 -0.0615
 2708TIP3    H1 8130   5.959   6.014   3.713  1.0263 -0.7238  1.4751
 2708TIP3    H2 8131   5.923   5.879   3.655 -0.0936  0.4989 -0.8171
 2709TIP3   OH2 8132   3.464   5.965   3.110  0.7056 -0.1509 -0.4271
 2709TIP3    H1 8133   3.379   5.944   3.072  1.2841  0.4532 -2.1580
 2709TIP3    H2 8134   3.492   5.884   3.153  0.2613 -1.0708 -1.8085
 2710TIP3   OH2 8135   3.812   0.330   3.681  0.1129 -0.2509  0.8678
 2710TIP3    H1 8136   3.824   0.352   3.774  1.4654 -0.5639  0.7923
 2710TIP3    H2 8137   3.883   0.376   3.637  0.0571 -0.8950  0.1046
 2711TIP3   OH2 8138   5.615   4.218   3.120  0.5427  1.2199  0.1073
 2711TIP3    H1 8139   5.676   4.144   3.112  1.1708  1.5637  1.3886
 2711TIP3    H2 8140   5.529   4.181   3.100  0.9853  0.3971 -0.3349
 2712TIP3   OH2 8141   4.824   2.398   2.649 -0.1960 -0.2686 -0.4797
 2712TIP3    H1 8142   4.840   2.334   2.579  2.1064 -1.1686  0.7605
 2712TIP3    H2 8143   4.833   2.347   2.730  2.1594  1.6437  0.5678
 2713TIP3   OH2 8144   4.878   4.618   3.511 -0.5294  0.1766 -0.0115
 2713TIP3    H1 8145   4.818   4.664   3.570 -1.3712 -1.9488  0.8620
 2713TIP3    H2 8146   4.834   4.536   3.490  1.2726 -0.6349 -0.8605
 2714TIP3   OH2 8147   6.306   1.436   4.074  0.2373  0.4206  0.6098
 2714TIP3    H1 8148   6.349   1.492   4.010  0.2876 -2.5108 -2.1245
 2714TIP3    H2 8149   6.215   1.466   4.075  0.4195  1.0281 -0.1469
 2715TIP3   OH2 8150   5.689   1.589   4.139 -0.4660 -0.6134  0.5568
 2715TIP3    H1 8151   5.641   1.627   4.212  1.0809  0.2363  1.2020
 2715TIP3    H2 8152   5.744   1.661   4.107 -0.8334 -1.0684 -1.2165
 2716TIP3   OH2 8153   5.171   5.846   2.509 -0.0638  0.1332  0.2846
 2716TIP3    H1 8154   5.253   5.865   2.464  0.7132  2.0542  2.3050
 2716TIP3    H2 8155   5.188   5.762   2.553  0.2961 -0.1621 -0.3971
 2717TIP3   OH2 8156   3.727   4.549   4.738  0.1569 -0.5298 -0.1893
 2717TIP3    H1 8157   3.675   4.470   4.753  0.2464 -0.7938 -1.2040
 2717TIP3    H2 8158   3.818   4.519   4.745  0.1970 -0.6124 -0.9885
 2718TIP3   OH2 8159   4.404   5.792   1.468  0.3382  0.1704 -0.3804
 2718TIP3    H1 8160   4.319   5.836   1.474  0.4909  0.6404 -1.3370
 2718TIP3    H2 8161   4.417   5.777   1.374  1.0269 -0.4722 -0.1983
 2719TIP3   OH2 8162   4.698   2.051   0.130  0.6745  0.9489 -0.9423
 2719TIP3    H1 8163   4.703   2.126   0.072 -0.5296  1.6435 -0.2130
 2719TIP3    H2 8164   4.789   2.027   0.147  1.0521  0.9858 -2.7437
 2720TIP3   OH2 8165   3.614   5.950   4.497 -0.3941  0.2187 -0.1211
 2720TIP3    H1 8166   3.533   5.972   4.543 -0.9728 -0.6461 -0.6806
 2720TIP3    H2 8167   3.647   6.033   4.464 -0.6385  0.6815  0.7715
 2721TIP3   OH2 8168   5.106   5.305   4.903 -0.2300 -0.4159 -0.0377
 2721TIP3    H1 8169   5.100   5.349   4.988  0.1326  1.2228 -0.8241
 2721TIP3    H2 8170   5.096   5.375   4.839 -1.9085 -1.7958 -1.3827
 2722TIP3   OH2 8171   5.599   5.191   1.034  0.1753 -0.3075 -0.5733
 2722TIP3    H1 8172   5.537   5.245   0.985 -1.2032 -0.7228  0.6473
 2722TIP3    H2 8173   5.569   5.102   1.021 -0.3415 -0.4133  1.1429
 2723TIP3   OH2 8174   3.798   0.045   3.595 -0.1671  0.2276  0.5693
 2723TIP3    H1 8175   3.806   0.138   3.615 -1.1560  0.6002 -0.6213
 2723TIP3    H2 8176   3.805   0.040   3.499  1.6996 -1.1485  0.7222
 2724TIP3   OH2 8177   1.196   5.139   1.042 -0.3913 -0.0445 -0.6346
 2724TIP3    H1 8178   1.120   5.171   0.994 -0.7568  1.0151  0.5946
 2724TIP3    H2 8179   1.261   5.209   1.034 -0.1684 -0.2013 -0.2652
 2725TIP3   OH2 8180   2.705   5.448   2.669  0.3136 -0.2376  0.4261
 2725TIP3    H1 8181   2.680   5.531   2.629 -0.9073  0.0475  1.6937
 2725TIP3    H2 8182   2.737   5.472   2.756 -0.1222 -1.0939  0.8311
 2726TIP3   OH2 8183   5.347   5.941   4.089  0.1701 -0.0133  0.1354
 2726TIP3    H1 8184   5.261   5.958   4.128 -0.8361 -2.1215 -1.0128
 2726TIP3    H2 8185   5.356   5.846   4.091  1.5870  0.0311 -1.6253
 2727TIP3   OH2 8186   1.585   5.725   4.374  0.0139 -0.4208  0.8310
 2727TIP3    H1 8187   1.531   5.651   4.347  0.8389 -0.7260 -0.0138
 2727TIP3    H2 8188   1.578   5.788   4.302  1.3932 -0.7985  0.3451
 2728TIP3   OH2 8189   1.664   5.904   1.244  0.2020  0.0227  0.0896
 2728TIP3    H1 8190   1.699   5.851   1.172 -0.3478  0.9841 -0.9300
 2728TIP3    H2 8191   1.738   5.959   1.271  0.7465 -1.1697  1.0908
 2729TIP3   OH2 8192   2.078   4.299   3.786  0.1563 -0.4311  0.6454
 2729TIP3    H1 8193   2.057   4.233   3.720 -0.2852  0.3780 -0.0421
 2729TIP3    H2 8194   2.154   4.344   3.751  0.0592 -0.1465  0.8011
 2730TIP3   OH2 8195   0.836   4.584   4.836 -0.0294  0.6190 -0.3621
 2730TIP3    H1 8196   0.754   4.540   4.811 -0.4625  0.1136  1.6995
 2730TIP3    H2 8197   0.904   4.521   4.814 -0.4959 -0.3444  0.7679
 2731TIP3   OH2 8198   0.880   4.330   1.966 -0.1212  0.3514 -0.0292
 2731TIP3    H1 8199   0.845   4.388   1.898 -2.2406 -0.8465 -0.0451
 2731TIP3    H2 8200   0.905   4.389   2.036 -0.5316  1.4228 -0.7501
 2732TIP3   OH2 8201   2.543   0.480   4.840 -0.0412 -0.3958 -0.2384
 2732TIP3    H1 8202   2.469   0.532   4.872 -0.7713 -1.1391 -0.7009
 2732TIP3    H2 8203   2.607   0.546   4.812  0.0738  0.2714  1.4560
 2733TIP3   OH2 8204   4.649   5.918   0.423  0.1452  0.1104  0.5893
 2733TIP3    H1 8205   4.612   5.958   0.502 -1.0208 -0.0927  0.1701
 2733TIP3    H2 8206   4.624   5.978   0.352 -0.2087 -0.5127  0.1740
 2734TIP3   OH2 8207   0.415   5.097   3.068 -0.6588 -0.2080 -0.9741
 2734TIP3    H1 8208   0.468   5.029   3.026  1.1817  0.3218  0.3572
 2734TIP3    H2 8209   0.389   5.060   3.152  0.7175  0.8369 -0.0527
 2735TIP3   OH2 8210   3.820   2.137   2.642 -0.4987 -0.3132  0.1726
 2735TIP3    H1 8211   3.872   2.063   2.609 -1.3754 -0.6722 -0.4429
 2735TIP3    H2 8212   3.729   2.113   2.623 -0.8063  0.9058 -0.0092
 2736TIP3   OH2 8213   0.137   2.490   0.628 -0.2295  0.3269  0.2909
 2736TIP3    H1 8214   0.079   2.565   0.641  1.3728  1.8010 -0.6721
 2736TIP3    H2 8215   0.197   2.494   0.703 -0.6500 -0.5418  0.6946
 2737TIP3   OH2 8216   4.990   0.029   0.288  0.0913 -0.1719 -0.2137
 2737TIP3    H1 8217   4.966   0.119   0.310  2.2712  0.5291 -0.4184
 2737TIP3    H2 8218   4.937  -0.025   0.346 -1.8596  1.1813 -0.6445
 2738TIP3   OH2 8219   0.040   3.486   0.516 -0.8944 -0.2861  0.5642
 2738TIP3    H1 8220   0.021   3.429   0.591 -0.0967 -0.8371  0.3619
 2738TIP3    H2 8221   0.116   3.537   0.544  0.0332 -1.1949 -0.2129
 2739TIP3   OH2 8222   4.624   3.378   2.548  0.2892 -0.3964  0.5542
 2739TIP3    H1 8223   4.672   3.304   2.511 -1.2226 -1.0806 -0.1616
 2739TIP3    H2 8224   4.603   3.433   2.473 -0.6391 -0.4902  0.7237
 2740TIP3   OH2 8225   5.541   1.433   2.889  0.0685  0.9170 -0.6241
 2740TIP3    H1 8226   5.559   1.526   2.875  0.4914  0.7085 -1.5759
 2740TIP3    H2 8227   5.564   1.392   2.805  0.3949 -0.1154 -0.0366
 2741TIP3   OH2 8228   1.833   5.516   3.705  0.2727 -0.3882 -0.4204
 2741TIP3    H1 8229   1.839   5.608   3.679  0.5455 -0.4182 -0.4602
 2741TIP3    H2 8230   1.848   5.517   3.800  3.5336 -0.7242 -0.8348
 2742TIP3   OH2 8231   2.917   0.858   4.171  0.3011  0.0848  0.9752
 2742TIP3    H1 8232   2.830   0.821   4.156  0.7209 -1.0576  1.2931
 2742TIP3    H2 8233   2.926   0.925   4.102 -0.1776 -0.9265 -0.1072
 2743TIP3   OH2 8234   3.300   0.226   4.218 -0.2953  0.1064  0.0410
 2743TIP3    H1 8235   3.212   0.225   4.258  0.6382  1.7762  2.3887
 2743TIP3    H2 8236   3.335   0.312   4.240  1.6994 -0.2619 -1.4571
 2744TIP3   OH2 8237   2.387   0.629   3.521 -0.3150 -0.0202 -0.1410
 2744TIP3    H1 8238   2.321   0.682   3.476  0.5513  0.3952 -0.9350
 2744TIP3    H2 8239   2.468   0.680   3.514  0.1906 -0.7217  0.4580
 2745TIP3   OH2 8240   1.049   3.539   1.478  0.5752 -0.1208  0.0086
 2745TIP3    H1 8241   1.092   3.481   1.416 -0.5682  0.4822 -1.4239
 2745TIP3    H2 8242   0.976   3.487   1.513 -0.9134  0.5888 -1.8406
 2746TIP3   OH2 8243   6.125   2.153   0.630 -0.0216  0.3672  0.4772
 2746TIP3    H1 8244   6.164   2.142   0.543  0.7388  0.0058  0.8482
 2746TIP3    H2 8245   6.118   2.247   0.642 -1.6960  0.4099 -0.6410
 2747TIP3   OH2 8246   5.172   0.473   2.684 -0.1042 -0.4379  0.1666
 2747TIP3    H1 8247   5.156   0.401   2.744 -0.9031 -1.3360 -1.0585
 2747TIP3    H2 8248   5.086   0.490   2.644 -0.4318  2.5459  1.8149
 2748TIP3   OH2 8249   1.149   2.011   0.068  0.1103  0.4955 -0.1906
 2748TIP3    H1 8250   1.229   2.062   0.054  1.6031 -1.0149  2.1381
 2748TIP3    H2 8251   1.085   2.075   0.097  1.3580  1.3646  0.7649
 2749TIP3   OH2 8252   4.535   0.744   1.428 -0.4694  0.4067  0.7727
 2749TIP3    H1 8253   4.564   0.669   1.375 -2.8183  0.5902 -0.9172
 2749TIP3    H2 8254   4.574   0.728   1.514  2.1488 -0.7746 -0.5056
 2750TIP3   OH2 8255   2.396   2.027   4.510  0.1304  0.1146 -0.4969
 2750TIP3    H1 8256   2.309   1.998   4.486  0.5615 -1.0765 -0.6587
 2750TIP3    H2 8257   2.451   2.006   4.434  0.4799  1.3279 -0.6120
 2751TIP3   OH2 8258   0.540   0.711   3.432  0.1456 -0.1630 -0.2288
 2751TIP3    H1 8259   0.457   0.752   3.453  1.1516  1.2710  1.1626
 2751TIP3    H2 8260   0.600   0.783   3.416  1.7536 -1.0464  1.3908
 2752TIP3   OH2 8261   4.895   5.088   4.194  0.0996 -0.1271 -0.2901
 2752TIP3    H1 8262   4.956   5.059   4.126  1.3684 -0.3806  0.9032
 2752TIP3    H2 8263   4.914   5.030   4.269 -0.1945  1.1020  0.7647
 2753TIP3   OH2 8264   4.298   3.088   4.614 -0.1338  0.0111 -0.0959
 2753TIP3    H1 8265   4.296   3.160   4.677  1.4585 -0.4562  0.5426
 2753TIP3    H2 8266   4.232   3.027   4.645  0.3466 -0.0162  0.9227
 2754TIP3   OH2 8267   1.605   2.592   2.154 -0.4597 -0.4355  0.0748
 2754TIP3    H1 8268   1.593   2.683   2.128 -0.4889 -0.1465  1.0646
 2754TIP3    H2 8269   1.619   2.545   2.071  1.3578  0.7158 -0.3273
 2755TIP3   OH2 8270   5.593   5.071   4.148 -0.5126 -0.1907 -0.0843
 2755TIP3    H1 8271   5.623   4.981   4.158 -0.3857 -0.3513 -1.7295
 2755TIP3    H2 8272   5.512   5.064   4.098 -0.1414  0.6402 -0.8300
 2756TIP3   OH2 8273   3.259   2.238   0.149 -0.2058 -0.1391  0.2530
 2756TIP3    H1 8274   3.330   2.182   0.183  0.2679 -0.8545 -1.7880
 2756TIP3    H2 8275   3.208   2.261   0.227 -0.9448 -4.1470  1.1781
 2757TIP3   OH2 8276   4.800   4.438   2.864 -0.1960  0.1084  0.4371
 2757TIP3    H1 8277   4.742   4.498   2.911  0.2127 -0.4222  1.6595
 2757TIP3    H2 8278   4.768   4.351   2.885 -0.3560 -0.1415 -0.7606
 2758TIP3   OH2 8279   2.107   3.176   1.589 -0.1173 -0.3182  0.3303
 2758TIP3    H1 8280   2.160   3.123   1.529 -1.5165 -0.2979 -0.9963
 2758TIP3    H2 8281   2.126   3.267   1.565 -0.3687 -0.3012  0.1901
 2759TIP3   OH2 8282   0.016   5.359   4.199 -0.3031  0.6248 -0.2444
 2759TIP3    H1 8283  -0.033   5.439   4.178  0.3657  1.7772  2.1304
 2759TIP3    H2 8284   0.087   5.389   4.256  2.2014 -1.2259 -2.1842
 2760TIP3   OH2 8285   4.347   0.087   3.146 -0.0236 -0.0513  0.1349
 2760TIP3    H1 8286   4.352  -0.007   3.129  1.0026  0.3134 -1.7870
 2760TIP3    H2 8287   4.266   0.115   3.102 -0.3195 -0.0109  0.6913
 2761TIP3   OH2 8288   4.944   5.516   4.100 -0.2714 -0.2737  0.9335
 2761TIP3    H1 8289   4.896   5.458   4.159  0.1602 -1.1462  0.4488
 2761TIP3    H2 8290   5.004   5.565   4.157 -3.4478  2.8087  1.9726
 2762TIP3   OH2 8291   0.216   2.163   1.157 -0.0379 -0.6480  0.3549
 2762TIP3    H1 8292   0.215   2.067   1.163  1.3861 -0.7179 -0.0389
 2762TIP3    H2 8293   0.241   2.193   1.244  1.3945 -0.7408 -0.0063
 2763TIP3   OH2 8294   5.089   4.357   5.058 -0.2360 -0.2062 -0.2626
 2763TIP3    H1 8295   5.095   4.418   5.131 -2.6203 -0.1023 -0.0814
 2763TIP3    H2 8296   5.172   4.367   5.011  0.0413  2.0379  0.6130
 2764TIP3   OH2 8297   5.926   0.339   1.315  0.7086  0.5279 -0.4563
 2764TIP3    H1 8298   5.876   0.307   1.390  1.5939  1.3291  0.5276
 2764TIP3    H2 8299   5.988   0.269   1.295 -0.1833 -0.0963 -1.1011
 2765TIP3   OH2 8300   2.595   1.514   3.640  0.3126  0.0027 -0.6410
 2765TIP3    H1 8301   2.648   1.525   3.719 -0.4757  2.3988 -0.3774
 2765TIP3    H2 8302   2.659   1.510   3.569  1.0806 -3.0079  0.0887
 2766TIP3   OH2 8303   6.076   0.114   2.629 -0.2387 -0.0074  0.4847
 2766TIP3    H1 8304   6.160   0.068   2.627 -1.0225 -1.4841  0.2826
 2766TIP3    H2 8305   6.100   0.206   2.638  1.3805 -0.4836  1.6747
 2767TIP3   OH2 8306   5.180   1.573   0.717  0.7836 -0.5254 -0.6977
 2767TIP3    H1 8307   5.178   1.480   0.738  0.4817 -0.3161  0.2369
 2767TIP3    H2 8308   5.273   1.594   0.712  0.9395 -0.3256  1.7700
 2768TIP3   OH2 8309   4.650   3.128   4.270 -0.1028 -0.1597 -0.2249
 2768TIP3    H1 8310   4.705   3.127   4.348  1.5393  1.0187 -1.3005
 2768TIP3    H2 8311   4.632   3.035   4.253  0.0329 -0.4661  1.1837
 2769TIP3   OH2 8312   5.924   5.700   4.840  0.5280  0.0515  0.2474
 2769TIP3    H1 8313   6.015   5.703   4.870  0.7405  1.0947 -0.4189
 2769TIP3    H2 8314   5.889   5.787   4.860  0.0191  0.0337 -0.4884
 2770TIP3   OH2 8315   3.328   1.937   2.529  0.3509  0.3813 -0.1958
 2770TIP3    H1 8316   3.262   1.869   2.529  1.0870 -0.3743  1.1723
 2770TIP3    H2 8317   3.394   1.907   2.466  0.1002  0.4187 -0.4766
 2771TIP3   OH2 8318   3.656   0.732   3.547  0.2342  0.0307  0.5514
 2771TIP3    H1 8319   3.737   0.732   3.599  1.6706 -0.2505 -1.5381
 2771TIP3    H2 8320   3.685   0.758   3.459 -2.0231  0.1759 -0.2061
 2772TIP3   OH2 8321   0.640   4.651   3.123 -0.3135  0.0161 -0.1274
 2772TIP3    H1 8322   0.679   4.580   3.175 -0.2605 -0.4514 -0.7924
 2772TIP3    H2 8323   0.661   4.731   3.172  0.9579 -0.2771 -0.1516
 2773TIP3   OH2 8324   5.341   5.355   1.899 -0.2252 -0.2769 -0.1004
 2773TIP3    H1 8325   5.423   5.344   1.948  0.4490 -0.9868 -1.3296
 2773TIP3    H2 8326   5.366   5.342   1.808 -1.6429 -0.0582 -0.5431
 2774TIP3   OH2 8327   5.596   4.215   4.863 -0.3788  0.4117 -0.2878
 2774TIP3    H1 8328   5.613   4.254   4.777 -1.5675  2.1218  0.2231
 2774TIP3    H2 8329   5.506   4.182   4.857  0.4626 -2.0692 -0.5876
 2775TIP3   OH2 8330   4.426   2.969   2.659  0.0864  0.2585  0.0232
 2775TIP3    H1 8331   4.360   2.991   2.724  0.4737  0.1328  0.4681
 2775TIP3    H2 8332   4.413   3.032   2.589 -0.1803  0.5541  0.3355
 2776TIP3   OH2 8333   0.197   5.361   0.455  0.1124 -0.7201 -0.4350
 2776TIP3    H1 8334   0.139   5.402   0.519  0.7500  0.6515 -0.6895
 2776TIP3    H2 8335   0.168   5.396   0.370  0.5753 -0.9195 -0.6807
 2777TIP3   OH2 8336   4.800   0.166   1.293  0.4370 -0.1877 -0.2176
 2777TIP3    H1 8337   4.814   0.087   1.240  0.2358 -1.9503  2.2179
 2777TIP3    H2 8338   4.705   0.178   1.293  0.5289  1.0037 -1.7549
 2778TIP3   OH2 8339   5.849   4.879   3.924  0.1545  0.3649  0.1578
 2778TIP3    H1 8340   5.888   4.881   4.011  0.3380  1.6883  0.0693
 2778TIP3    H2 8341   5.924   4.881   3.864  0.2565 -4.1317 -0.1619
 2779TIP3   OH2 8342   5.741   4.061   3.478 -0.0030  0.8221 -0.4873
 2779TIP3    H1 8343   5.805   4.041   3.410 -0.0468 -2.4723  0.2523
 2779TIP3    H2 8344   5.770   4.145   3.514  3.1231  0.1459 -1.1009
 2780TIP3   OH2 8345   1.636   4.298   4.426 -0.1021 -0.2369 -0.8584
 2780TIP3    H1 8346   1.681   4.232   4.479  0.9830  0.5648 -0.7280
 2780TIP3    H2 8347   1.548   4.304   4.463  0.3073 -0.4501  0.1693
 2781TIP3   OH2 8348   2.436   0.638   3.812 -0.1357  0.1623  0.7405
 2781TIP3    H1 8349   2.420   0.625   3.719 -1.2227 -0.8510  1.0421
 2781TIP3    H2 8350   2.360   0.687   3.843 -1.4538 -2.3058  1.6693
 2782TIP3   OH2 8351   3.054   1.936   0.593 -0.3314  0.3955  0.0872
 2782TIP3    H1 8352   3.055   1.949   0.688  0.8197  0.9688  0.0132
 2782TIP3    H2 8353   3.065   1.842   0.581  1.9274  0.5679  0.5111
 2783TIP3   OH2 8354   5.479   4.192   3.493 -0.3452 -0.1352 -0.7984
 2783TIP3    H1 8355   5.432   4.138   3.556 -0.1906 -0.7011 -1.1624
 2783TIP3    H2 8356   5.557   4.141   3.472 -1.3036 -0.8495 -2.8749
 2784TIP3   OH2 8357   3.949   1.033   1.187  0.1922 -0.0218 -0.0035
 2784TIP3    H1 8358   3.853   1.030   1.194  0.1790 -1.7826 -0.4928
 2784TIP3    H2 8359   3.976   1.093   1.256 -1.2067 -0.4242  0.9419
 2785TIP3   OH2 8360   4.223   2.817   0.256  0.1157  0.0167  0.6858
 2785TIP3    H1 8361   4.242   2.759   0.182 -0.6103 -0.4062  0.8119
 2785TIP3    H2 8362   4.217   2.759   0.332  0.0018  0.3338  0.9244
 2786TIP3   OH2 8363   4.586   3.335   3.685  0.0811 -0.1285  0.9893
 2786TIP3    H1 8364   4.545   3.421   3.698 -0.9507 -0.7585  1.9663
 2786TIP3    H2 8365   4.625   3.314   3.770  1.0456 -0.2768  0.5254
 2787TIP3   OH2 8366   1.413   4.998   0.948  0.3283 -0.6517 -0.4479
 2787TIP3    H1 8367   1.330   5.039   0.974 -0.1966 -2.2000  0.4310
 2787TIP3    H2 8368   1.387   4.921   0.898  1.1235 -2.4642  1.7827
 2788TIP3   OH2 8369   3.384   4.626   1.631 -0.6283 -0.5655 -0.0493
 2788TIP3    H1 8370   3.341   4.541   1.637 -0.7188 -0.4390  1.5004
 2788TIP3    H2 8371   3.446   4.617   1.559 -2.3059 -1.1682 -1.4927
 2789TIP3   OH2 8372   1.504   1.646   4.086 -0.6711  0.6070  0.2497
 2789TIP3    H1 8373   1.457   1.720   4.048  1.6171  1.5168 -1.0211
 2789TIP3    H2 8374   1.547   1.604   4.011  0.5596 -0.1278  1.3275
 2790TIP3   OH2 8375   0.615   1.315   4.273 -0.2721 -0.4199  0.1046
 2790TIP3    H1 8376   0.680   1.377   4.238  0.5334 -2.1433 -1.6402
 2790TIP3    H2 8377   0.548   1.311   4.205 -0.7912 -0.7714  0.6327
 2791TIP3   OH2 8378   2.201   5.829   0.131  0.8491  0.2492  0.4382
 2791TIP3    H1 8379   2.183   5.920   0.155 -0.6771  0.1073 -0.0325
 2791TIP3    H2 8380   2.277   5.834   0.073 -0.5300  1.5021 -1.3692
 2792TIP3   OH2 8381   5.620   1.758   3.917 -0.4856  0.0133 -0.2277
 2792TIP3    H1 8382   5.561   1.698   3.963 -1.1857  1.2555  0.5455
 2792TIP3    H2 8383   5.564   1.798   3.849 -0.3770  0.7332  0.0988
 2793TIP3   OH2 8384   3.922   3.972   4.066  0.3964 -0.4277  0.1601
 2793TIP3    H1 8385   3.957   3.911   4.002 -1.3564 -2.3589  0.9395
 2793TIP3    H2 8386   3.883   4.042   4.014 -2.1034 -2.5578 -1.0396
 2794TIP3   OH2 8387   2.169   3.451   3.277  0.4458  0.8560  0.5941
 2794TIP3    H1 8388   2.118   3.490   3.348 -1.2272  0.9375 -0.6052
 2794TIP3    H2 8389   2.108   3.445   3.204  1.2045 -2.1382  0.0877
 2795TIP3   OH2 8390   1.561   4.951   3.307 -0.3876 -0.8200  0.0864
 2795TIP3    H1 8391   1.533   4.924   3.395 -0.3134 -1.0048  0.0544
 2795TIP3    H2 8392   1.621   4.882   3.279  1.3377  0.3539  0.7801
 2796TIP3   OH2 8393   1.113   0.889   0.694 -0.0694  0.2415  0.1141
 2796TIP3    H1 8394   1.085   0.912   0.783 -2.4147  0.4656 -0.5952
 2796TIP3    H2 8395   1.035   0.851   0.654  0.9304  0.1323 -1.8515
 2797TIP3   OH2 8396   1.741   0.223   1.501  0.5957  0.1144  0.4146
 2797TIP3    H1 8397   1.786   0.199   1.420 -0.5981 -0.4666 -0.0995
 2797TIP3    H2 8398   1.710   0.140   1.537  0.4483  0.4453  1.0661
 2798TIP3   OH2 8399   2.723   5.355   3.285  0.2975  0.3912  0.2721
 2798TIP3    H1 8400   2.682   5.352   3.199 -2.5150  0.1495  1.4910
 2798TIP3    H2 8401   2.794   5.291   3.280 -0.6650 -0.6215 -1.4868
 2799TIP3   OH2 8402   2.096   4.715   3.093  0.0073  0.5924 -0.3792
 2799TIP3    H1 8403   2.021   4.656   3.086  0.1814  0.1025  1.3298
 2799TIP3    H2 8404   2.071   4.777   3.161  0.8366  0.8954 -0.3376
 2800TIP3   OH2 8405   2.565   1.728   4.800 -0.0230 -0.6216 -0.3745
 2800TIP3    H1 8406   2.548   1.732   4.894  2.1925 -1.3823  0.0999
 2800TIP3    H2 8407   2.487   1.684   4.764  0.1197 -2.4896  1.4299
 2801TIP3   OH2 8408   5.734   5.985   4.945  0.0776 -0.0883 -0.5827
 2801TIP3    H1 8409   5.667   6.052   4.959 -0.6022 -1.2987  2.7384
 2801TIP3    H2 8410   5.700   5.931   4.873 -1.2842  0.7605 -0.6102
 2802TIP3   OH2 8411   0.395   2.465   1.186  0.0322  0.0213 -0.2997
 2802TIP3    H1 8412   0.429   2.384   1.224  0.5185  0.1298 -0.4859
 2802TIP3    H2 8413   0.472   2.505   1.144 -0.5744 -0.3231 -1.8172
 2803TIP3   OH2 8414   4.597   3.610   2.045 -0.3155  0.5100  0.5471
 2803TIP3    H1 8415   4.598   3.629   1.951 -1.7703 -2.1799 -0.1190
 2803TIP3    H2 8416   4.678   3.649   2.078 -0.5736  2.9966 -1.4683
 2804TIP3   OH2 8417   3.930   4.182   3.360 -0.3597 -0.1120  0.0271
 2804TIP3    H1 8418   3.962   4.101   3.321 -0.8958 -0.3474  0.0640
 2804TIP3    H2 8419   3.848   4.201   3.313 -0.2233  0.4231 -0.0006
 2805TIP3   OH2 8420   5.469   2.623   4.578  0.2386 -0.2159 -0.0934
 2805TIP3    H1 8421   5.511   2.654   4.498 -1.4626 -0.9280 -1.3332
 2805TIP3    H2 8422   5.494   2.530   4.584  2.1274  0.3236  1.4546
 2806TIP3   OH2 8423   1.988   4.319   4.034  0.6785  0.1090  0.3257
 2806TIP3    H1 8424   2.014   4.303   3.943 -1.0425 -2.0273  0.1334
 2806TIP3    H2 8425   1.937   4.400   4.031 -0.5807 -0.7017 -0.8929
 2807TIP3   OH2 8426   5.596   4.588   2.556 -0.1150 -0.2505 -0.2007
 2807TIP3    H1 8427   5.515   4.628   2.525 -1.4863 -2.1783  0.7010
 2807TIP3    H2 8428   5.614   4.517   2.495  2.9901  2.2444 -2.5317
 2808TIP3   OH2 8429   2.442   0.072   4.961 -0.1217 -0.1399 -0.0214
 2808TIP3    H1 8430   2.440   0.132   4.886 -1.3438 -0.3403 -0.1572
 2808TIP3    H2 8431   2.435   0.130   5.037 -0.2337 -0.0348 -0.1108
 2809TIP3   OH2 8432   2.035   3.004   0.193  0.2058 -1.0829 -0.3971
 2809TIP3    H1 8433   2.055   3.039   0.280  1.0472 -2.6889  0.1014
 2809TIP3    H2 8434   1.951   2.959   0.205 -1.0787  0.9783 -1.1319
 2810TIP3   OH2 8435   5.385   5.786   0.043  0.2710  0.4446  0.3247
 2810TIP3    H1 8436   5.434   5.731  -0.018  3.3093  1.7565  1.4072
 2810TIP3    H2 8437   5.335   5.845  -0.013 -0.9367 -1.5358 -0.8195
 2811TIP3   OH2 8438   5.209   2.579   3.316  0.6868  0.0295  0.1412
 2811TIP3    H1 8439   5.152   2.609   3.245 -0.4062  0.0755  1.0073
 2811TIP3    H2 8440   5.240   2.659   3.358 -1.8166  0.0928  2.1266
 2812TIP3   OH2 8441   3.879   3.489   3.241 -0.3245 -0.2934  0.2048
 2812TIP3    H1 8442   3.808   3.429   3.217 -0.5223  0.0639 -0.1240
 2812TIP3    H2 8443   3.903   3.464   3.330 -1.3468  0.0224  0.5863
 2813TIP3   OH2 8444   5.676   1.991   0.906  0.5258  0.0001  0.2716
 2813TIP3    H1 8445   5.771   1.987   0.895  0.5618 -0.9588  0.9156
 2813TIP3    H2 8446   5.663   2.037   0.989  0.4928 -1.6197  1.1980
 2814TIP3   OH2 8447   6.319   3.155   4.265  0.4007 -0.6113 -0.0537
 2814TIP3    H1 8448   6.290   3.096   4.194 -0.4039 -2.2943  1.5847
 2814TIP3    H2 8449   6.400   3.116   4.297 -0.1134 -0.8428  1.0213
 2815TIP3   OH2 8450   2.897   5.593   4.412 -0.1186  0.4557 -0.0044
 2815TIP3    H1 8451   2.899   5.562   4.502 -0.2041 -0.5791 -0.3492
 2815TIP3    H2 8452   2.905   5.514   4.359  0.5723  1.1073 -0.9058
 2816TIP3   OH2 8453   3.817   0.794   3.025 -0.3578 -0.3146  0.5489
 2816TIP3    H1 8454   3.820   0.837   2.940 -0.8742 -0.2922  0.5336
 2816TIP3    H2 8455   3.890   0.732   3.024  0.5327  0.7057  0.6539
 2817TIP3   OH2 8456   2.515   2.404   0.297 -0.0568 -0.0369 -0.1163
 2817TIP3    H1 8457   2.461   2.327   0.314  0.3939 -0.4022 -0.3255
 2817TIP3    H2 8458   2.597   2.386   0.344 -0.0134  0.3893 -0.0264
 2818TIP3   OH2 8459   5.010   3.300   3.521 -0.6549  0.4062  0.2649
 2818TIP3    H1 8460   4.972   3.216   3.546 -0.6702  0.2598 -0.2313
 2818TIP3    H2 8461   5.006   3.301   3.425  1.3072  0.0269  0.1300
 2819TIP3   OH2 8462   5.549   1.235   2.182  0.3508 -0.2488  0.4668
 2819TIP3    H1 8463   5.617   1.203   2.242  1.7424 -0.9963 -1.4378
 2819TIP3    H2 8464   5.469   1.232   2.235  1.3524 -1.7299  2.0319
 2820TIP3   OH2 8465   1.946   5.808   2.070 -0.1140 -0.0809  0.3951
 2820TIP3    H1 8466   1.981   5.867   2.137 -0.6348 -0.8368  1.3542
 2820TIP3    H2 8467   1.872   5.856   2.033 -0.3295  0.0076  0.9334
 2821TIP3   OH2 8468   0.528   5.111   0.441  0.3967  0.7045  0.4167
 2821TIP3    H1 8469   0.622   5.107   0.459  0.1152  1.3686  2.2707
 2821TIP3    H2 8470   0.498   5.021   0.453  1.0637  0.0475 -2.2177
 2822TIP3   OH2 8471   3.464   1.838   4.832 -0.5440  0.0719 -0.2878
 2822TIP3    H1 8472   3.471   1.764   4.892 -2.3762  0.8733  1.0246
 2822TIP3    H2 8473   3.550   1.843   4.790 -0.1713 -2.3750  0.0402
 2823TIP3   OH2 8474   0.118   2.357   3.486  0.0298  0.4660 -0.0778
 2823TIP3    H1 8475   0.074   2.275   3.465  0.0064  0.3285  0.4877
 2823TIP3    H2 8476   0.203   2.331   3.521 -0.0654  0.6691  0.3128
 2824TIP3   OH2 8477   1.724   1.732   0.556  0.5868 -0.1918 -0.3035
 2824TIP3    H1 8478   1.713   1.743   0.461 -1.2668 -2.2549 -0.4228
 2824TIP3    H2 8479   1.654   1.784   0.594 -0.2988 -1.3820 -0.2462
 2825TIP3   OH2 8480   1.230   1.068   3.287  0.0134  0.4075  0.6876
 2825TIP3    H1 8481   1.218   1.140   3.224  1.1992  1.1489  1.2623
 2825TIP3    H2 8482   1.152   1.071   3.342 -0.4743  0.5302 -0.0007
 2826TIP3   OH2 8483   2.863   5.489   1.275 -0.5956  0.3802  0.1346
 2826TIP3    H1 8484   2.921   5.415   1.294 -1.8590 -0.7022 -0.0395
 2826TIP3    H2 8485   2.845   5.528   1.360  0.4679  0.8113  0.1760
 2827TIP3   OH2 8486   4.338   3.947   1.150 -0.0655 -0.7297 -0.1677
 2827TIP3    H1 8487   4.348   3.995   1.068 -0.1039  0.8438  0.7031
 2827TIP3    H2 8488   4.275   3.998   1.201  0.1069 -1.5559  0.9266
 2828TIP3   OH2 8489   4.454   3.676   1.565 -0.0713  0.4096 -0.9678
 2828TIP3    H1 8490   4.372   3.626   1.559 -1.3735  2.3017  0.1415
 2828TIP3    H2 8491   4.428   3.767   1.552  1.7934  1.1042 -0.1589
 2829TIP3   OH2 8492   5.622   3.736   4.184 -0.3954 -0.0594  0.5286
 2829TIP3    H1 8493   5.534   3.704   4.204 -0.9823  0.3658 -1.2091
 2829TIP3    H2 8494   5.659   3.668   4.128 -0.7610  1.1281 -1.2055
 2830TIP3   OH2 8495   4.017   0.531   4.716 -0.1156 -0.5647  0.2795
 2830TIP3    H1 8496   4.082   0.481   4.765  1.0850 -1.4471 -2.0596
 2830TIP3    H2 8497   4.068   0.582   4.654 -1.5700  0.3115 -0.2332
 2831TIP3   OH2 8498   5.906   1.034   5.095 -0.3963 -0.4246  0.0978
 2831TIP3    H1 8499   5.811   1.039   5.107 -0.2324 -1.8999  2.6670
 2831TIP3    H2 8500   5.940   1.109   5.143 -0.1916 -0.6265  0.2669
 2832TIP3   OH2 8501   5.284   1.609   1.191  0.0515 -0.6407  0.0818
 2832TIP3    H1 8502   5.325   1.532   1.232  0.0539  0.4795  2.3073
 2832TIP3    H2 8503   5.356   1.671   1.180 -0.2592 -0.3185 -0.1470
 2833TIP3   OH2 8504   5.018   2.017   2.255 -0.4892  0.0264  0.0193
 2833TIP3    H1 8505   5.030   2.112   2.254  0.9297 -0.1293 -1.1212
 2833TIP3    H2 8506   5.101   1.982   2.223 -1.2386 -1.5783 -0.2800
 2834TIP3   OH2 8507   4.536   1.029   1.445  0.3234  0.0410  0.1055
 2834TIP3    H1 8508   4.525   0.934   1.449 -0.3112 -0.0448 -2.1980
 2834TIP3    H2 8509   4.449   1.064   1.463 -0.2641 -0.0140 -2.2283
 2835TIP3   OH2 8510   4.305   1.050   4.662  0.1187  0.3144 -0.9035
 2835TIP3    H1 8511   4.346   1.136   4.663 -1.5784  1.1685  0.5090
 2835TIP3    H2 8512   4.266   1.043   4.575 -0.4527  1.3568 -0.7480
 2836TIP3   OH2 8513   6.116   0.516   1.713 -0.2045  0.0321  0.0219
 2836TIP3    H1 8514   6.071   0.526   1.629  3.3691 -0.8472 -2.2189
 2836TIP3    H2 8515   6.088   0.430   1.744  0.2885 -0.7595 -1.5971
 2837TIP3   OH2 8516   0.800   5.359   0.291  0.1071 -0.5347 -0.0654
 2837TIP3    H1 8517   0.715   5.369   0.248  0.6447  2.4921 -0.6440
 2837TIP3    H2 8518   0.860   5.332   0.222  0.5508  2.3242 -0.9324
 2838TIP3   OH2 8519   0.221   2.549   4.391  0.2659  0.2927  0.1134
 2838TIP3    H1 8520   0.152   2.615   4.396 -2.4073 -2.2538 -0.2549
 2838TIP3    H2 8521   0.238   2.539   4.297  0.4670  0.2714  0.1519
 2839TIP3   OH2 8522   1.714   4.225   0.869 -0.1171 -0.0338 -0.1697
 2839TIP3    H1 8523   1.786   4.167   0.843  0.9130  1.0194  0.2320
 2839TIP3    H2 8524   1.688   4.194   0.955  1.3405  0.8678  0.6426
 2840TIP3   OH2 8525   4.286   3.321   2.225 -0.0693  0.2611  0.0633
 2840TIP3    H1 8526   4.374   3.285   2.239  0.5362  1.0358 -1.5213
 2840TIP3    H2 8527   4.278   3.389   2.292  0.6654  0.4155  0.0045
 2841TIP3   OH2 8528   1.356   0.908   0.243 -0.0425 -0.0709 -0.6113
 2841TIP3    H1 8529   1.277   0.944   0.203 -1.1234 -0.2605  1.2065
 2841TIP3    H2 8530   1.405   0.985   0.273 -0.2472  0.0118 -0.4855
 2842TIP3   OH2 8531   4.012   3.276   3.719 -0.0135  0.2580  0.4529
 2842TIP3    H1 8532   3.937   3.243   3.670  0.4393  0.4941 -0.4189
 2842TIP3    H2 8533   4.081   3.211   3.703 -0.0550 -0.0311  1.3591
 2843TIP3   OH2 8534   1.384   3.412   0.915 -0.0596 -0.5053  0.0540
 2843TIP3    H1 8535   1.289   3.408   0.912 -0.1144  0.9297 -1.2701
 2843TIP3    H2 8536   1.403   3.455   0.999 -0.5809 -0.3913  0.1173
 2844TIP3   OH2 8537   0.248   4.975   4.649 -0.3272  0.0576  0.0481
 2844TIP3    H1 8538   0.242   4.917   4.725 -1.0886  1.5654  1.1788
 2844TIP3    H2 8539   0.157   4.987   4.621 -0.0738 -0.2739 -0.9727
 2845TIP3   OH2 8540   4.905   5.761   4.773  0.0388  0.1113  0.1461
 2845TIP3    H1 8541   4.995   5.791   4.760  0.0275  0.2881  0.4569
 2845TIP3    H2 8542   4.889   5.774   4.867  1.0498 -3.5658  1.0052
 2846TIP3   OH2 8543   0.417   1.332   4.100 -0.8430 -0.3294 -0.1553
 2846TIP3    H1 8544   0.391   1.360   4.012 -0.9349  0.3894  0.0941
 2846TIP3    H2 8545   0.352   1.372   4.158  0.3981  0.9329  0.4175
 2847TIP3   OH2 8546   2.984   0.105   2.882 -0.0533 -0.0862  0.2915
 2847TIP3    H1 8547   3.061   0.066   2.923 -0.1979  0.4879  1.1424
 2847TIP3    H2 8548   2.974   0.058   2.799  1.8964  0.6053 -0.3879
 2848TIP3   OH2 8549   1.501   1.106   5.123  0.3945 -0.4223 -0.1151
 2848TIP3    H1 8550   1.407   1.084   5.119  0.7787 -2.1440 -3.0203
 2848TIP3    H2 8551   1.544   1.023   5.143  1.3634  0.2009  0.4488
 2849TIP3   OH2 8552   2.484   0.714   1.882 -0.3299  0.1284  0.5114
 2849TIP3    H1 8553   2.475   0.692   1.790  0.7061 -0.3367  0.5112
 2849TIP3    H2 8554   2.400   0.689   1.921 -0.6813  0.0970 -0.2482
 2850TIP3   OH2 8555   4.542   1.882   2.016  0.1834  0.1736 -0.0246
 2850TIP3    H1 8556   4.624   1.929   2.030 -2.1511  4.1949  2.0791
 2850TIP3    H2 8557   4.509   1.866   2.105 -0.7712 -2.6248 -0.7808
 2851TIP3   OH2 8558   6.115   4.684   4.254 -0.9269 -0.6203  0.0263
 2851TIP3    H1 8559   6.116   4.642   4.168  1.4521 -2.0056  0.6420
 2851TIP3    H2 8560   6.139   4.615   4.315 -0.7625  0.7502  1.5956
 2852TIP3   OH2 8561   4.015   4.606   2.868 -0.0508 -0.2543 -0.0787
 2852TIP3    H1 8562   3.922   4.616   2.886 -0.2237  1.1179 -1.4695
 2852TIP3    H2 8563   4.026   4.638   2.779  1.8515  0.2606  0.2813
 2853TIP3   OH2 8564   3.027   3.214   2.900  0.3425  0.4749 -0.2352
 2853TIP3    H1 8565   2.960   3.239   2.964  1.7403 -0.8814  1.9014
 2853TIP3    H2 8566   3.055   3.297   2.862 -1.8542  1.1521 -0.5140
 2854TIP3   OH2 8567   5.488   3.399   2.282  0.3385  0.0997  0.0099
 2854TIP3    H1 8568   5.478   3.421   2.189  0.2655  0.6923  0.1551
 2854TIP3    H2 8569   5.405   3.423   2.321  0.8060  1.0364  0.4530
 2855TIP3   OH2 8570   3.839   4.343   2.756 -0.2930  0.2536 -0.4694
 2855TIP3    H1 8571   3.843   4.361   2.663 -0.7731 -0.3312 -0.6123
 2855TIP3    H2 8572   3.893   4.265   2.768 -1.6483 -0.7426 -0.5656
 2856TIP3   OH2 8573   6.223   3.240   4.767 -0.2525  0.2485  0.7686
 2856TIP3    H1 8574   6.264   3.191   4.838 -0.8688  0.2182  1.1094
 2856TIP3    H2 8575   6.156   3.181   4.732 -1.2974  0.9781  1.4681
 2857TIP3   OH2 8576   4.334   3.685   1.113 -0.1153 -0.0973 -0.1220
 2857TIP3    H1 8577   4.422   3.652   1.130 -0.6379 -1.0751  0.7505
 2857TIP3    H2 8578   4.335   3.775   1.144 -0.3652 -1.1103  3.1678
 2858TIP3   OH2 8579   3.527   2.278   4.028  0.0831 -0.3509  0.1871
 2858TIP3    H1 8580   3.506   2.362   3.986  0.0604 -1.1632 -1.5117
 2858TIP3    H2 8581   3.442   2.240   4.049  0.1036  0.6566  2.3218
 2859TIP3   OH2 8582   4.956   5.828   0.145 -0.3762  0.3700  0.8220
 2859TIP3    H1 8583   4.961   5.736   0.173 -1.0925  0.3341  0.8712
 2859TIP3    H2 8584   4.964   5.824   0.050 -0.5017  0.2442  0.8156
 2860TIP3   OH2 8585   2.222   1.942   4.928  0.0669  0.2648 -0.0172
 2860TIP3    H1 8586   2.237   2.017   4.872  2.0656 -0.3857 -0.4211
 2860TIP3    H2 8587   2.206   1.869   4.868  0.4515 -0.0869  0.3022
 2861TIP3   OH2 8588   1.754   1.566   1.914 -0.5612 -0.4207  0.0701
 2861TIP3    H1 8589   1.700   1.645   1.913 -2.0573 -1.3640  1.4208
 2861TIP3    H2 8590   1.763   1.544   2.007  1.2736 -0.9119 -0.1889
 2862TIP3   OH2 8591   0.990   5.390   0.493 -0.1848 -0.2022 -0.4170
 2862TIP3    H1 8592   0.910   5.393   0.441  0.8059 -0.0625 -2.0164
 2862TIP3    H2 8593   1.059   5.371   0.430  1.2004  0.7622  0.7291
 2863TIP3   OH2 8594   3.126   3.439   2.771  0.2082  0.0554 -0.0537
 2863TIP3    H1 8595   3.048   3.486   2.744 -0.9058 -1.5102  0.2956
 2863TIP3    H2 8596   3.186   3.449   2.697 -0.9597 -0.1246 -1.0674
 2864TIP3   OH2 8597   1.719   2.187   2.787 -0.4624  0.2984 -0.3044
 2864TIP3    H1 8598   1.783   2.214   2.853 -0.2849 -2.2104  0.6438
 2864TIP3    H2 8599   1.639   2.233   2.811 -0.4895 -0.7819  1.9011
 2865TIP3   OH2 8600   1.607   2.219   3.503  0.5044  0.1872 -0.8879
 2865TIP3    H1 8601   1.693   2.238   3.466  1.6468 -0.3210  1.3203
 2865TIP3    H2 8602   1.568   2.306   3.518  0.3245  0.4054 -2.5013
 2866TIP3   OH2 8603   3.300   4.031   4.258 -0.5791 -0.3577  0.7176
 2866TIP3    H1 8604   3.287   4.061   4.168 -1.3919 -0.5224  0.7722
 2866TIP3    H2 8605   3.351   4.100   4.300 -1.1544  0.2383  0.4334
 2867TIP3   OH2 8606   1.804   1.011   4.951  0.5416 -0.3075  0.3651
 2867TIP3    H1 8607   1.742   0.965   4.894  0.5278 -0.8658  0.8163
 2867TIP3    H2 8608   1.782   1.104   4.941 -0.5361 -0.5085  0.6959
 2868TIP3   OH2 8609   1.338   3.576   1.954  0.1276 -0.6898 -0.0152
 2868TIP3    H1 8610   1.393   3.644   1.915 -1.3630  2.0504  2.3408
 2868TIP3    H2 8611   1.334   3.598   2.047 -0.8016 -3.8148  0.7934
 2869TIP3   OH2 8612   5.177   4.554   4.391  0.0625 -0.1810  0.0023
 2869TIP3    H1 8613   5.197   4.484   4.328  1.3770  0.4732 -0.3493
 2869TIP3    H2 8614   5.227   4.629   4.359  0.0850  0.4064  1.3747
 2870TIP3   OH2 8615   1.087   2.354   2.967 -0.1169 -0.2952 -0.0172
 2870TIP3    H1 8616   1.031   2.398   2.903  0.3564  0.9290  0.3782
 2870TIP3    H2 8617   1.172   2.347   2.924 -0.7859 -3.3441 -1.1389
 2871TIP3   OH2 8618   1.794   3.476   4.514 -0.2314  0.1563  0.0225
 2871TIP3    H1 8619   1.822   3.436   4.597 -0.8751  0.6892  0.5138
 2871TIP3    H2 8620   1.786   3.403   4.453 -0.9013 -0.4101  0.7687
 2872TIP3   OH2 8621   0.721   3.783   0.565  0.4926 -0.2170  0.3604
 2872TIP3    H1 8622   0.777   3.758   0.491  1.2395 -0.0557  0.8535
 2872TIP3    H2 8623   0.756   3.733   0.639  1.0587  1.1236  1.0388
 2873TIP3   OH2 8624   5.596   1.190   4.502  0.2644  0.3158 -0.1432
 2873TIP3    H1 8625   5.640   1.220   4.582 -2.0599  0.8945  1.0310
 2873TIP3    H2 8626   5.625   1.251   4.435  0.5279  1.2490  0.7848
 2874TIP3   OH2 8627   1.940   3.401   0.738  1.0645  0.0436  0.1418
 2874TIP3    H1 8628   1.901   3.322   0.702  0.5021  0.3431  0.0868
 2874TIP3    H2 8629   2.034   3.389   0.726  0.8823  0.2850 -1.7613
 2875TIP3   OH2 8630   0.786   3.449   1.596 -0.7780  0.1281  0.0155
 2875TIP3    H1 8631   0.729   3.503   1.650 -1.4957 -1.1009  0.5099
 2875TIP3    H2 8632   0.823   3.385   1.656 -1.6854 -1.3333 -0.9329
 2876TIP3   OH2 8633   0.758   3.706   5.204  0.0532 -0.3768  0.4994
 2876TIP3    H1 8634   0.720   3.625   5.172 -0.4979 -0.5597  1.5845
 2876TIP3    H2 8635   0.744   3.769   5.133  1.2994 -1.4300 -0.7383
 2877TIP3   OH2 8636   3.653   1.357   3.874 -0.0824  0.0070 -0.1901
 2877TIP3    H1 8637   3.562   1.362   3.901 -0.7968 -0.0611 -2.3379
 2877TIP3    H2 8638   3.681   1.268   3.898 -0.9878 -0.4049 -0.6066
 2878TIP3   OH2 8639   3.040   2.285   0.678 -0.6569 -0.5562  0.2451
 2878TIP3    H1 8640   3.094   2.364   0.676 -0.7314 -0.5151 -0.0940
 2878TIP3    H2 8641   3.068   2.240   0.758 -0.4797 -0.2838  0.3397
 2879TIP3   OH2 8642   1.700   2.379   3.899  0.2303 -0.8071  1.1024
 2879TIP3    H1 8643   1.689   2.450   3.835  1.9407  0.0534  1.6924
 2879TIP3    H2 8644   1.639   2.400   3.969  0.7949  0.1808  1.3236
 2880TIP3   OH2 8645   3.375   0.785   5.139  0.0377 -0.2212 -0.2732
 2880TIP3    H1 8646   3.288   0.761   5.106  0.4554 -0.3502 -1.3231
 2880TIP3    H2 8647   3.379   0.746   5.226 -1.3774  0.7403  0.2663
 2881TIP3   OH2 8648   4.655   1.572   1.289 -0.3826 -0.2471  0.0747
 2881TIP3    H1 8649   4.572   1.601   1.328 -0.2354 -0.1128  0.2895
 2881TIP3    H2 8650   4.649   1.599   1.198  0.3292  1.7201  0.5578
 2882TIP3   OH2 8651   1.133   4.482   2.888 -0.5930 -0.4514  0.6026
 2882TIP3    H1 8652   1.127   4.561   2.941 -0.5981  0.3939 -0.6168
 2882TIP3    H2 8653   1.068   4.494   2.818 -0.5465 -1.4944  0.3500
 2883TIP3   OH2 8654   4.006   0.552   3.582 -0.6447 -0.0182 -0.6593
 2883TIP3    H1 8655   4.098   0.570   3.603 -0.9326  0.6876  0.0534
 2883TIP3    H2 8656   3.958   0.623   3.625 -1.6483 -1.2234  0.2605
 2884TIP3   OH2 8657   0.737   4.633   3.574  0.2821  0.2789 -0.0368
 2884TIP3    H1 8658   0.643   4.630   3.593  0.0274  1.2494 -1.0364
 2884TIP3    H2 8659   0.770   4.707   3.626  0.1971  0.8553 -0.7723
 2885TIP3   OH2 8660   1.803   2.862   0.224  0.3669  0.2832 -0.0735
 2885TIP3    H1 8661   1.798   2.767   0.216  0.8269  0.2068  0.4793
 2885TIP3    H2 8662   1.724   2.894   0.181 -1.6630 -0.5244  2.7468
 2886TIP3   OH2 8663   0.382   4.583   2.514  0.1535  0.5677 -0.3540
 2886TIP3    H1 8664   0.470   4.615   2.493  0.2268 -0.0449 -1.0393
 2886TIP3    H2 8665   0.393   4.540   2.599  0.1729  1.8214  0.2978
 2887TIP3   OH2 8666   0.163   5.738   1.229 -0.0560 -0.2267 -0.3886
 2887TIP3    H1 8667   0.111   5.718   1.151  0.2799 -0.6374 -0.5090
 2887TIP3    H2 8668   0.245   5.690   1.217  0.2847  0.2682 -0.1120
 2888TIP3   OH2 8669   6.227   4.854   0.099  0.2425  0.2407  0.3456
 2888TIP3    H1 8670   6.271   4.769   0.108  1.6673  1.0774  1.6244
 2888TIP3    H2 8671   6.136   4.831   0.078  0.7094 -1.5889  0.1643
 2889TIP3   OH2 8672   6.106   5.542   3.374 -0.0075  0.4539 -0.3747
 2889TIP3    H1 8673   6.128   5.474   3.311 -0.9397  1.5592 -1.9731
 2889TIP3    H2 8674   6.156   5.619   3.345  0.1287  0.7948  0.6976
 2890TIP3   OH2 8675   1.908   4.880   0.410  0.0870  0.1461  0.1957
 2890TIP3    H1 8676   1.978   4.842   0.463  0.7923  1.7633  0.4766
 2890TIP3    H2 8677   1.898   4.819   0.337  2.2283  0.1713 -0.1919
 2891TIP3   OH2 8678   1.293   1.136   2.406 -0.1964  0.2864 -0.0891
 2891TIP3    H1 8679   1.230   1.205   2.426 -0.6738 -0.6121  1.7557
 2891TIP3    H2 8680   1.378   1.176   2.421 -0.2794  1.3810 -2.1681
 2892TIP3   OH2 8681   3.709   3.360   4.116  0.0338  0.1767  0.4906
 2892TIP3    H1 8682   3.781   3.394   4.063  0.8467 -0.9801  0.8207
 2892TIP3    H2 8683   3.739   3.274   4.145 -1.4946 -0.3383  0.6271
 2893TIP3   OH2 8684   5.609   1.666   3.625  0.0098 -0.0279 -0.0691
 2893TIP3    H1 8685   5.592   1.673   3.531  0.5216 -0.7540 -0.2205
 2893TIP3    H2 8686   5.575   1.580   3.649 -0.4008  0.2795  0.4802
 2894TIP3   OH2 8687   1.886   0.535   5.036  0.0515  0.2826 -0.0089
 2894TIP3    H1 8688   1.803   0.579   5.020  0.1944  0.7982  0.6363
 2894TIP3    H2 8689   1.915   0.506   4.950 -0.8656 -0.0277 -0.2259
 2895TIP3   OH2 8690   6.298   4.423   1.328 -0.2259 -0.2348  0.2183
 2895TIP3    H1 8691   6.315   4.485   1.399 -1.1350  1.3449 -0.8587
 2895TIP3    H2 8692   6.294   4.338   1.370  0.5368  0.5002  1.8513
 2896TIP3   OH2 8693   3.407   2.772   4.502 -0.2236 -0.2127 -0.0519
 2896TIP3    H1 8694   3.458   2.738   4.576 -0.8244 -1.8147 -0.3376
 2896TIP3    H2 8695   3.423   2.709   4.431 -0.5043  0.7186 -0.9600
 2897TIP3   OH2 8696   1.720   2.252   0.774 -0.0038 -0.1348 -0.0725
 2897TIP3    H1 8697   1.746   2.171   0.819 -0.6262 -0.2647  0.0656
 2897TIP3    H2 8698   1.630   2.268   0.805 -0.2991 -0.0186 -0.9821
 2898TIP3   OH2 8699   6.216   4.480   4.703  0.4543  0.4003  0.0773
 2898TIP3    H1 8700   6.305   4.456   4.727  0.6034  1.1123  0.2547
 2898TIP3    H2 8701   6.162   4.411   4.741  0.8318  0.5913  0.9905
 2899TIP3   OH2 8702   0.324   4.998   3.294  0.1137  0.4338  0.0864
 2899TIP3    H1 8703   0.241   5.043   3.282 -0.1551 -0.2688 -0.7585
 2899TIP3    H2 8704   0.311   4.942   3.371 -0.5943 -0.5283 -0.7017
 2900TIP3   OH2 8705   3.272   2.448   3.763  0.1185 -0.4202 -0.2605
 2900TIP3    H1 8706   3.253   2.364   3.806 -0.2137 -0.4017 -0.3679
 2900TIP3    H2 8707   3.363   2.466   3.785 -0.1484 -0.2276  0.7540
 2901TIP3   OH2 8708   0.798   0.724   3.188 -0.2035  0.0051 -0.5727
 2901TIP3    H1 8709   0.847   0.718   3.106 -2.6487 -1.2917 -2.0614
 2901TIP3    H2 8710   0.754   0.808   3.183 -1.7501 -0.8133 -1.5177
 2902TIP3   OH2 8711   0.764   4.073   0.576 -0.2517  0.2843 -0.5741
 2902TIP3    H1 8712   0.776   4.113   0.662  3.0092  0.9982 -1.2349
 2902TIP3    H2 8713   0.772   3.979   0.592 -0.8429  0.3310  0.0364
 2903TIP3   OH2 8714   2.959   1.990   2.731  0.4728  0.6179 -0.4655
 2903TIP3    H1 8715   2.948   1.896   2.744  1.1498  0.6612  0.4878
 2903TIP3    H2 8716   2.922   2.007   2.644 -2.0953 -0.0614  0.4194
 2904TIP3   OH2 8717   2.967   3.942   2.710  0.0070  0.4829  0.2732
 2904TIP3    H1 8718   3.059   3.966   2.710  0.0118  0.6935 -2.0572
 2904TIP3    H2 8719   2.955   3.894   2.628 -0.9536 -3.8140  2.6287
 2905TIP3   OH2 8720   0.710   2.088   1.506  0.3388  0.3920 -0.0330
 2905TIP3    H1 8721   0.617   2.066   1.496 -0.0023  1.0823  1.3015
 2905TIP3    H2 8722   0.756   2.027   1.449 -0.7973 -1.3194  0.8119
 2906TIP3   OH2 8723   5.620   1.467   0.877 -0.4625  0.5631  0.2528
 2906TIP3    H1 8724   5.676   1.406   0.828 -1.8590  0.4450 -1.2790
 2906TIP3    H2 8725   5.637   1.446   0.969 -1.0105 -2.2940 -0.2078
 2907TIP3   OH2 8726   0.034   3.434   3.496 -0.5310 -0.1858 -0.3518
 2907TIP3    H1 8727  -0.017   3.466   3.570  0.3519 -0.9960  0.6422
 2907TIP3    H2 8728   0.121   3.417   3.533  0.1204  0.0227 -1.7270
 2908TIP3   OH2 8729   1.509   2.283   1.186 -0.1148  0.2834 -0.3447
 2908TIP3    H1 8730   1.434   2.264   1.129 -0.2524 -0.4164  0.0627
 2908TIP3    H2 8731   1.470   2.322   1.264 -0.2700 -1.7586  0.6650
 2909TIP3   OH2 8732   4.929   2.863   0.630  0.3815 -0.4823 -0.5101
 2909TIP3    H1 8733   4.905   2.929   0.564  1.8539  0.2612 -0.3482
 2909TIP3    H2 8734   4.966   2.791   0.579  0.5039 -0.3856 -0.5565
 2910TIP3   OH2 8735   1.093   0.132   0.532 -0.2254  0.0681 -0.1720
 2910TIP3    H1 8736   1.088   0.193   0.457  1.0595  0.1681 -0.2053
 2910TIP3    H2 8737   1.005   0.132   0.569 -0.5194  1.1416 -0.8182
 2911TIP3   OH2 8738   4.455   3.805   0.095 -0.3799 -0.0399 -0.0257
 2911TIP3    H1 8739   4.475   3.898   0.090 -1.1563  0.1138 -0.3505
 2911TIP3    H2 8740   4.369   3.796   0.055 -1.1230 -0.6452  1.6392
 2912TIP3   OH2 8741   3.762   3.848   2.291  0.1231  0.0312 -0.1152
 2912TIP3    H1 8742   3.780   3.755   2.277  0.5598 -0.0589  0.9056
 2912TIP3    H2 8743   3.843   3.883   2.329 -0.6223  0.4223  1.2008
 2913TIP3   OH2 8744   1.634   4.331   4.852  0.4886 -0.4209  0.4890
 2913TIP3    H1 8745   1.589   4.402   4.804 -0.5373 -0.1874  1.7453
 2913TIP3    H2 8746   1.689   4.289   4.785 -1.0941 -0.2885 -0.9854
 2914TIP3   OH2 8747   6.052   2.980   1.978  0.3655  0.0849  0.0109
 2914TIP3    H1 8748   5.977   3.020   2.022  1.1024  0.2568  1.1363
 2914TIP3    H2 8749   6.014   2.934   1.903 -0.9196 -0.2415  0.8422
 2915TIP3   OH2 8750   1.193   0.225   1.109  0.4887 -0.5509 -0.0246
 2915TIP3    H1 8751   1.216   0.317   1.097  0.3045 -0.8128 -3.1391
 2915TIP3    H2 8752   1.248   0.178   1.047 -1.2003 -2.2709 -0.2979
 2916TIP3   OH2 8753   1.407   1.196   0.550 -0.0328  0.1624  0.6080
 2916TIP3    H1 8754   1.396   1.242   0.466 -0.6329 -1.7468 -0.4082
 2916TIP3    H2 8755   1.323   1.209   0.595 -0.2482 -0.0604  0.2718
 2917TIP3   OH2 8756   3.507   2.459   0.473 -0.1421  0.1353 -0.2538
 2917TIP3    H1 8757   3.536   2.501   0.392 -0.3538  0.0269 -0.3900
 2917TIP3    H2 8758   3.477   2.372   0.444  0.9351 -0.3819  0.1142
 2918TIP3   OH2 8759   4.491   2.449   4.260  0.3727  0.2036  0.6169
 2918TIP3    H1 8760   4.493   2.501   4.340 -0.2449  0.4036  0.5123
 2918TIP3    H2 8761   4.505   2.514   4.190  1.6110 -0.0674  0.5908
 2919TIP3   OH2 8762   2.182   0.490   3.752  0.2652  0.6145  0.4790
 2919TIP3    H1 8763   2.140   0.414   3.794  0.7562 -0.5750 -1.0868
 2919TIP3    H2 8764   2.116   0.559   3.758 -1.0172 -0.5257  0.1411
 2920TIP3   OH2 8765   1.050   0.730   3.015  0.1617  0.2623  0.5336
 2920TIP3    H1 8766   1.016   0.687   2.936  2.0598 -3.5468  1.5680
 2920TIP3    H2 8767   1.117   0.790   2.982 -0.2094 -0.0225 -0.8103
 2921TIP3   OH2 8768   0.204   4.107   1.007 -0.0532 -0.7431 -0.7547
 2921TIP3    H1 8769   0.250   4.079   0.928 -0.3636 -2.9268 -0.2305
 2921TIP3    H2 8770   0.128   4.156   0.975 -0.6560 -2.3391 -1.8813
 2922TIP3   OH2 8771   4.049   5.892   3.244  0.0076  0.3229  0.3194
 2922TIP3    H1 8772   4.058   5.883   3.149  1.7993 -0.8522  0.5521
 2922TIP3    H2 8773   4.114   5.957   3.269  0.6100 -0.4801  0.8986
 2923TIP3   OH2 8774   1.248   0.884   2.852 -0.5380 -0.1759 -1.0246
 2923TIP3    H1 8775   1.323   0.825   2.846  1.0719  1.8497 -2.3383
 2923TIP3    H2 8776   1.202   0.873   2.768 -0.8428 -0.3434 -0.8355
 2924TIP3   OH2 8777   4.000   0.224   4.001  0.3719 -0.3087 -0.4340
 2924TIP3    H1 8778   4.070   0.271   4.047  1.7779 -0.6480 -2.1601
 2924TIP3    H2 8779   3.933   0.291   3.985  0.7581  0.2682  0.2868
 2925TIP3   OH2 8780   3.265   0.357   0.083 -0.3950  0.4850  0.0400
 2925TIP3    H1 8781   3.220   0.291   0.135 -0.0980 -0.5544 -1.0050
 2925TIP3    H2 8782   3.324   0.308   0.026 -0.3912  1.6222 -0.9834
 2926TIP3   OH2 8783   2.461   5.349   2.536  0.1608  0.0505 -0.3279
 2926TIP3    H1 8784   2.421   5.424   2.492  0.3195  0.0319 -0.5061
 2926TIP3    H2 8785   2.555   5.368   2.534  0.1832 -0.0420 -0.1663
 2927TIP3   OH2 8786   1.177   4.686   3.584  0.1248  0.2085 -0.3305
 2927TIP3    H1 8787   1.208   4.683   3.493  2.2096  0.0400  0.3270
 2927TIP3    H2 8788   1.185   4.778   3.610  0.3701  0.1184 -0.0715
 2928TIP3   OH2 8789   1.911   2.894   0.572 -0.2401  0.3420 -0.0216
 2928TIP3    H1 8790   1.987   2.870   0.520 -0.6495 -0.0137 -0.4694
 2928TIP3    H2 8791   1.843   2.831   0.547 -0.6193  0.5195  0.5238
 2929TIP3   OH2 8792   5.576   0.116   3.620  0.4021  0.3990  0.7820
 2929TIP3    H1 8793   5.610   0.164   3.544 -1.4699 -1.6938 -1.5551
 2929TIP3    H2 8794   5.610   0.027   3.609  1.0847  0.3017  3.1649
 2930TIP3   OH2 8795   2.728   2.840   1.471  0.3221 -0.3816  0.0344
 2930TIP3    H1 8796   2.777   2.796   1.402  0.4075 -2.8785  1.5727
 2930TIP3    H2 8797   2.686   2.769   1.519 -0.6980  1.3553  1.8411
 2931TIP3   OH2 8798   3.007   4.760   1.916 -0.5038 -0.2500  0.3915
 2931TIP3    H1 8799   3.038   4.780   2.005 -0.1561  1.6999 -0.1153
 2931TIP3    H2 8800   3.087   4.757   1.863 -0.7981 -0.3124 -0.0478
 2932TIP3   OH2 8801   5.063   3.560   4.832 -0.3839 -0.7324  0.0408
 2932TIP3    H1 8802   5.071   3.594   4.921  0.7204  0.1312 -0.3735
 2932TIP3    H2 8803   5.082   3.634   4.775  0.5020 -1.6422 -0.9010
 2933TIP3   OH2 8804   3.389   2.902   0.682 -0.0393  0.6861 -0.0001
 2933TIP3    H1 8805   3.455   2.835   0.704 -1.6352 -1.0007 -0.0905
 2933TIP3    H2 8806   3.438   2.984   0.680  2.0458 -0.4908 -0.0394
 2934TIP3   OH2 8807   0.791   1.040   0.167  0.3794 -0.0082 -0.5528
 2934TIP3    H1 8808   0.747   1.112   0.212 -0.1226  0.0301 -1.0961
 2934TIP3    H2 8809   0.730   1.013   0.099  1.2418  0.1163 -1.3957
 2935TIP3   OH2 8810   5.883   2.919   0.753 -0.6952  0.3856 -0.1608
 2935TIP3    H1 8811   5.965   2.894   0.795 -0.3706 -2.1408 -2.0121
 2935TIP3    H2 8812   5.901   3.003   0.713 -0.0210  1.3110  1.9456
 2936TIP3   OH2 8813   4.258   5.435   4.732  0.2509  0.0352  0.4627
 2936TIP3    H1 8814   4.332   5.439   4.671  0.9608 -0.0275  1.2925
 2936TIP3    H2 8815   4.299   5.415   4.817 -0.8931 -1.7120  0.6343
 2937TIP3   OH2 8816   4.321   5.627   3.223  0.1081 -0.7896 -0.2071
 2937TIP3    H1 8817   4.343   5.672   3.141  1.3525 -0.0238  0.5229
 2937TIP3    H2 8818   4.271   5.550   3.195  0.3425 -0.4333 -1.6737
 2938TIP3   OH2 8819   1.679   5.753   2.292 -0.2904  0.1057  0.0913
 2938TIP3    H1 8820   1.745   5.697   2.249 -0.4100 -0.7299  0.9713
 2938TIP3    H2 8821   1.633   5.794   2.219 -1.4410 -2.3659 -0.7006
 2939TIP3   OH2 8822   1.911   4.457   0.707  0.2180 -0.5683 -0.1863
 2939TIP3    H1 8823   1.892   4.548   0.684 -0.3769 -0.7679 -0.5109
 2939TIP3    H2 8824   1.896   4.453   0.801 -3.0042 -1.0536 -0.5987
 2940TIP3   OH2 8825   2.867   0.043   0.890  0.2035  0.2181  0.1498
 2940TIP3    H1 8826   2.810   0.053   0.966  2.5329  3.0268  1.7594
 2940TIP3    H2 8827   2.949   0.008   0.925  0.7913 -0.0008 -1.3540
 2941TIP3   OH2 8828   3.398   2.627   1.149 -0.3846  0.5338 -0.1648
 2941TIP3    H1 8829   3.351   2.642   1.231 -1.4392 -0.0840 -0.6371
 2941TIP3    H2 8830   3.438   2.540   1.160 -0.6044  0.4101 -0.3419
 2942TIP3   OH2 8831   3.346   4.536   3.048 -0.4720  0.1670 -0.1813
 2942TIP3    H1 8832   3.313   4.456   3.006 -1.5159  1.4967 -2.0318
 2942TIP3    H2 8833   3.334   4.520   3.142 -0.7920 -1.7791 -0.5039
 2943TIP3   OH2 8834   5.865   1.446   3.108 -0.0877 -0.5071  0.7229
 2943TIP3    H1 8835   5.922   1.489   3.044 -0.7665  2.8244  2.1368
 2943TIP3    H2 8836   5.920   1.380   3.149  1.4817 -0.1637 -0.7204
 2944TIP3   OH2 8837   0.137   5.804   1.871 -0.4148 -0.2645  0.3021
 2944TIP3    H1 8838   0.113   5.796   1.779 -0.5899  1.2088  0.1902
 2944TIP3    H2 8839   0.230   5.826   1.870  0.3720 -3.2223  0.6306
 2945TIP3   OH2 8840   4.174   1.611   4.981 -0.1734  0.3188  0.3951
 2945TIP3    H1 8841   4.145   1.585   5.069  0.4628  0.3240  0.6076
 2945TIP3    H2 8842   4.201   1.702   4.991  2.0993 -0.3497  0.7378
 2946TIP3   OH2 8843   1.003   1.016   5.015  0.0268 -0.2180 -0.3074
 2946TIP3    H1 8844   0.959   1.097   5.041  1.3192 -0.1469  1.8955
 2946TIP3    H2 8845   1.090   1.044   4.986 -0.0202 -0.6976 -0.9344
 2947TIP3   OH2 8846   1.436   3.059   0.172 -0.4130  0.0377 -0.3286
 2947TIP3    H1 8847   1.487   3.091   0.246 -1.1597  1.9116 -0.5705
 2947TIP3    H2 8848   1.487   2.985   0.137  1.6104  1.2009  0.0313
 2948TIP3   OH2 8849   0.649   0.757   2.906 -0.7366 -0.0623  0.2271
 2948TIP3    H1 8850   0.636   0.822   2.836 -2.9366 -2.2372 -1.5794
 2948TIP3    H2 8851   0.699   0.687   2.865 -2.5944 -1.6706  0.5552
 2949TIP3   OH2 8852   0.783   1.670   1.758  1.0558 -0.1110 -0.1082
 2949TIP3    H1 8853   0.773   1.638   1.847  1.3912 -0.1324 -0.0759
 2949TIP3    H2 8854   0.709   1.728   1.745  1.1849  0.1496  0.2987
 2950TIP3   OH2 8855   4.686   5.121   3.133  0.5295  0.2530  0.4383
 2950TIP3    H1 8856   4.759   5.062   3.150  1.3728  0.9679 -0.5612
 2950TIP3    H2 8857   4.611   5.064   3.115  0.3216 -0.5269  3.2532
 2951TIP3   OH2 8858   0.213   4.690   2.140  0.7557 -0.5653  0.2286
 2951TIP3    H1 8859   0.302   4.722   2.149  0.2072  1.0187  0.4654
 2951TIP3    H2 8860   0.207   4.616   2.199  1.7728 -0.3815  0.5777
 2952TIP3   OH2 8861   5.857   3.418   3.333  0.0570  0.5524 -0.4752
 2952TIP3    H1 8862   5.763   3.420   3.317 -0.0513  1.0028  0.1956
 2952TIP3    H2 8863   5.891   3.356   3.268 -0.7865 -0.1622 -0.2483
 2953TIP3   OH2 8864   4.643   4.244   5.080 -0.1830  0.5794  0.0694
 2953TIP3    H1 8865   4.611   4.188   5.010 -0.7423  1.3926 -0.3377
 2953TIP3    H2 8866   4.690   4.314   5.035  1.6542 -0.2212  0.6157
 2954TIP3   OH2 8867   4.565   4.631   2.805 -0.4474 -0.2518 -0.0988
 2954TIP3    H1 8868   4.578   4.654   2.897 -1.8391 -0.6488  0.2132
 2954TIP3    H2 8869   4.470   4.619   2.796 -0.2261 -1.2924 -1.3325
 2955TIP3   OH2 8870   3.097   2.896   4.643 -0.1659  0.2489 -0.0089
 2955TIP3    H1 8871   3.120   2.906   4.551  0.8432 -0.3992  0.1551
 2955TIP3    H2 8872   3.167   2.842   4.679  0.0589  1.3997  1.3884
 2956TIP3   OH2 8873   4.288   4.308   1.898 -0.0030  0.1155  0.3329
 2956TIP3    H1 8874   4.246   4.288   1.815 -0.2070  3.0669 -0.3711
 2956TIP3    H2 8875   4.215   4.313   1.961  0.1649 -2.2692  0.8290
 2957TIP3   OH2 8876   3.389   1.038   3.904  1.0441 -0.0782 -0.0423
 2957TIP3    H1 8877   3.410   0.959   3.853 -0.7274 -1.2998  1.0171
 2957TIP3    H2 8878   3.409   1.013   3.995  0.3209  0.6266  0.3196
 2958TIP3   OH2 8879   4.197   3.655   3.564 -0.6620  0.1004  0.1040
 2958TIP3    H1 8880   4.181   3.748   3.550  0.1048 -0.0383 -2.1316
 2958TIP3    H2 8881   4.135   3.611   3.506 -1.0456 -0.8062  1.1753
 2959TIP3   OH2 8882   5.061   0.067   0.673  0.3141  0.2636 -0.1508
 2959TIP3    H1 8883   4.997  -0.001   0.649  0.7421 -0.2279  0.0783
 2959TIP3    H2 8884   5.031   0.099   0.758 -0.0852  0.6062 -0.4204
 2960TIP3   OH2 8885   3.377   2.640   5.048 -0.8540 -0.2275  0.2459
 2960TIP3    H1 8886   3.455   2.634   4.993 -0.7673 -0.6586  0.4102
 2960TIP3    H2 8887   3.345   2.550   5.054 -1.5898  0.0044 -0.1422
 2961TIP3   OH2 8888   0.286   3.617   0.626 -0.0712  0.3069  0.4709
 2961TIP3    H1 8889   0.290   3.673   0.703  0.8480  0.2895  0.4569
 2961TIP3    H2 8890   0.313   3.674   0.554  0.6922 -0.0969  0.4294
 2962TIP3   OH2 8891   6.153   0.438   5.101  0.5144  0.0736  0.5434
 2962TIP3    H1 8892   6.105   0.412   5.022 -1.0098  0.7710  1.1967
 2962TIP3    H2 8893   6.181   0.356   5.141  2.5092 -0.2758 -1.3786
 2963TIP3   OH2 8894   2.755   0.971   0.055  0.3910 -0.3457  0.0700
 2963TIP3    H1 8895   2.831   1.025   0.037 -0.1854  0.1183 -1.0540
 2963TIP3    H2 8896   2.785   0.908   0.120  1.3321  0.7303  0.7159
 2964TIP3   OH2 8897   0.673   2.763   4.151  0.1039 -0.2997  0.2077
 2964TIP3    H1 8898   0.698   2.757   4.243  0.8754 -0.9808 -0.0417
 2964TIP3    H2 8899   0.646   2.675   4.127  1.0371 -0.4057 -0.5257
 2965TIP3   OH2 8900   4.925   3.663   2.670  0.2829  0.2724  0.2545
 2965TIP3    H1 8901   4.832   3.673   2.655 -0.1553 -0.2817  2.2204
 2965TIP3    H2 8902   4.963   3.749   2.652 -0.7055  0.6610  0.0187
 2966TIP3   OH2 8903   0.837   1.626   3.558 -0.1445 -0.5523 -0.2843
 2966TIP3    H1 8904   0.798   1.707   3.526  1.2924  0.5669  0.6950
 2966TIP3    H2 8905   0.907   1.606   3.496 -0.0156 -0.6448 -0.1113
 2967TIP3   OH2 8906   5.855   2.293   1.082  0.0550  0.2399 -0.0737
 2967TIP3    H1 8907   5.880   2.249   1.000 -1.1138  0.3692 -0.5348
 2967TIP3    H2 8908   5.802   2.228   1.128  0.6487  0.1943  0.5620
 2968TIP3   OH2 8909   5.148   0.142   2.595  0.0194 -0.1250 -0.0377
 2968TIP3    H1 8910   5.058   0.168   2.616  0.3514  0.5129  0.6321
 2968TIP3    H2 8911   5.177   0.207   2.530  0.0712 -0.1874 -0.0766
 2969TIP3   OH2 8912   2.144   4.857   1.311  0.1794 -0.2138  0.0663
 2969TIP3    H1 8913   2.204   4.902   1.370 -1.3104  1.0073  0.6891
 2969TIP3    H2 8914   2.082   4.813   1.368 -1.1427  0.7835 -0.5475
 2970TIP3   OH2 8915   1.720   2.417   2.593  0.0532 -0.0662 -0.2839
 2970TIP3    H1 8916   1.784   2.464   2.540  0.5738 -0.1157  0.2896
 2970TIP3    H2 8917   1.655   2.386   2.531  0.1346  0.7158 -0.7697
 2971TIP3   OH2 8918   4.660   5.591   1.932  0.4870 -0.1395 -0.4260
 2971TIP3    H1 8919   4.636   5.573   1.841  0.0124  0.0379 -0.3398
 2971TIP3    H2 8920   4.696   5.509   1.964 -3.3406 -1.6383  0.5362
 2972TIP3   OH2 8921   4.400   2.850   3.536 -0.3791 -0.6125  0.5186
 2972TIP3    H1 8922   4.367   2.816   3.453  0.2271 -1.8023  0.7459
 2972TIP3    H2 8923   4.486   2.808   3.546  1.6436  2.8581 -0.4010
 2973TIP3   OH2 8924   6.190   0.367   3.227  0.4293 -0.0951 -0.0655
 2973TIP3    H1 8925   6.145   0.342   3.147 -1.2905  0.8782  0.5546
 2973TIP3    H2 8926   6.123   0.363   3.295  0.6826  3.3793  0.5656
 2974TIP3   OH2 8927   3.543   5.345   2.513  0.3203 -0.7777  0.3952
 2974TIP3    H1 8928   3.474   5.412   2.518  0.3960 -0.2400 -3.1572
 2974TIP3    H2 8929   3.552   5.313   2.603 -3.1159  0.5681  1.3977
 2975TIP3   OH2 8930   0.171   3.706   5.077  0.3593 -0.5795  0.3346
 2975TIP3    H1 8931   0.255   3.659   5.081  0.4687 -0.9449 -3.0009
 2975TIP3    H2 8932   0.106   3.638   5.062  0.2599  0.0344 -2.5596
 2976TIP3   OH2 8933   0.724   2.497   0.707 -0.7405 -0.2132  0.2989
 2976TIP3    H1 8934   0.689   2.415   0.671 -0.4303 -0.9255  1.5768
 2976TIP3    H2 8935   0.792   2.469   0.768  0.0279  1.0495  0.0457
 2977TIP3   OH2 8936   4.856   1.917   2.591  0.3481 -0.1393  0.2583
 2977TIP3    H1 8937   4.915   1.863   2.538 -0.3968  0.5902 -1.3843
 2977TIP3    H2 8938   4.787   1.857   2.618 -0.3620 -0.1005 -1.3718
 2978TIP3   OH2 8939   2.245   4.026   4.268 -0.2883  0.0964 -0.1685
 2978TIP3    H1 8940   2.217   3.936   4.288  1.3396 -0.8738 -1.8724
 2978TIP3    H2 8941   2.277   4.061   4.351 -0.8273 -0.9509  0.5012
 2979TIP3   OH2 8942   5.832   3.198   0.857 -0.2100  0.5562  0.4778
 2979TIP3    H1 8943   5.896   3.153   0.912 -0.7502 -1.0129 -0.1183
 2979TIP3    H2 8944   5.867   3.190   0.768 -1.5266 -0.9941  0.0429
 2980TIP3   OH2 8945   1.159   2.624   2.638  0.2188  0.7208  0.4050
 2980TIP3    H1 8946   1.215   2.660   2.706  1.4265  0.7050 -0.5543
 2980TIP3    H2 8947   1.199   2.540   2.615 -0.0843  0.7904 -0.4209
 2981TIP3   OH2 8948   0.043   2.056   4.901  0.9730 -0.2914 -0.1182
 2981TIP3    H1 8949   0.053   2.119   4.830  2.0092 -2.0567 -1.6028
 2981TIP3    H2 8950   0.101   1.984   4.878  0.3109 -1.5260  1.8494
 2982TIP3   OH2 8951   4.650   0.772   1.678 -0.3771 -0.1582  0.6133
 2982TIP3    H1 8952   4.638   0.867   1.674 -1.0339 -0.2393  0.4574
 2982TIP3    H2 8953   4.711   0.758   1.750  1.2484  0.5031 -0.5640
 2983TIP3   OH2 8954   0.587   3.688   1.643  0.2406 -0.3951  0.4389
 2983TIP3    H1 8955   0.608   3.714   1.554  1.8805 -0.9829  0.6182
 2983TIP3    H2 8956   0.611   3.763   1.696  2.4210 -1.1942  0.6815
 2984TIP3   OH2 8957   0.214   0.611   2.927  0.4626  0.2525  0.4077
 2984TIP3    H1 8958   0.168   0.532   2.899  0.6505  0.7523 -1.4595
 2984TIP3    H2 8959   0.299   0.579   2.958  0.2546 -0.3337  0.3922
 2985TIP3   OH2 8960   3.260   1.343   1.341  0.3114 -0.3539  0.1316
 2985TIP3    H1 8961   3.265   1.285   1.265 -0.4432  1.9290 -1.7788
 2985TIP3    H2 8962   3.297   1.426   1.311 -2.0339  1.3199  1.4964
 2986TIP3   OH2 8963   4.919   1.618   2.082 -0.0218  0.3005  0.4225
 2986TIP3    H1 8964   4.837   1.623   2.132 -0.2600  1.7784 -0.0610
 2986TIP3    H2 8965   4.950   1.529   2.096 -2.9421 -1.1353 -1.3101
 2987TIP3   OH2 8966   1.932   4.687   4.228 -0.0053  0.4782 -0.4958
 2987TIP3    H1 8967   1.868   4.753   4.204  1.0311  1.8621  0.3959
 2987TIP3    H2 8968   1.880   4.613   4.260 -1.2236  0.3236 -2.6549
 2988TIP3   OH2 8969   1.232   5.753   4.285  0.3160  0.8364  0.4728
 2988TIP3    H1 8970   1.279   5.763   4.202 -0.7155 -0.9991 -0.4160
 2988TIP3    H2 8971   1.246   5.836   4.331  0.5901  2.0967 -1.7155
 2989TIP3   OH2 8972   1.221   4.798   4.074  0.3476 -0.7413 -0.9407
 2989TIP3    H1 8973   1.314   4.818   4.084  0.4519 -1.4370 -0.4849
 2989TIP3    H2 8974   1.177   4.861   4.130  0.5855 -0.8344 -0.6483
 2990TIP3   OH2 8975   0.165   4.240   0.582 -0.1206 -0.2086  0.0756
 2990TIP3    H1 8976   0.215   4.193   0.515  3.1001  0.4723  1.8020
 2990TIP3    H2 8977   0.144   4.324   0.542  0.2432 -0.4684 -0.6786
 2991TIP3   OH2 8978   5.254   5.645   5.053 -0.4225  0.4607  0.4241
 2991TIP3    H1 8979   5.158   5.637   5.059 -0.3888  0.1648  0.5871
 2991TIP3    H2 8980   5.280   5.673   5.140 -0.3843  0.7878  0.3077
 2992TIP3   OH2 8981   5.175   5.541   2.253 -0.2209 -0.6019 -0.1694
 2992TIP3    H1 8982   5.117   5.591   2.311 -0.7275 -2.2930  0.8333
 2992TIP3    H2 8983   5.141   5.558   2.165 -0.9889  0.0112  0.2348
 2993TIP3   OH2 8984   1.661   5.319   1.690 -0.0903 -0.5836 -0.4129
 2993TIP3    H1 8985   1.613   5.402   1.685 -0.5694 -0.9118 -3.2150
 2993TIP3    H2 8986   1.600   5.254   1.656  1.1985 -1.5795 -0.9290
 2994TIP3   OH2 8987   1.616   3.513   4.759  0.0293  0.0309 -0.0253
 2994TIP3    H1 8988   1.618   3.527   4.664  1.5422  1.8909  0.2077
 2994TIP3    H2 8989   1.684   3.448   4.775  2.7536  2.6815  0.0653
 2995TIP3   OH2 8990   4.991   2.519   1.937 -0.0075 -0.0796 -0.5045
 2995TIP3    H1 8991   5.079   2.500   1.968  0.4449  2.4635  0.0247
 2995TIP3    H2 8992   4.941   2.439   1.952  2.4176 -1.9424 -1.7665
 2996TIP3   OH2 8993   3.029   3.109   0.754 -0.3420  0.3192 -0.6516
 2996TIP3    H1 8994   3.082   3.184   0.779 -1.4270  0.4601  1.4561
 2996TIP3    H2 8995   2.951   3.115   0.810 -1.1063 -1.6008 -1.4214
 2997TIP3   OH2 8996   4.760   1.719   0.590  0.4399 -0.0772  0.0652
 2997TIP3    H1 8997   4.763   1.633   0.548  0.3001 -0.3623  0.6236
 2997TIP3    H2 8998   4.784   1.702   0.681 -0.2940  0.3671  0.3495
 2998TIP3   OH2 8999   3.006   1.900   3.025  0.2170  0.1763 -0.0052
 2998TIP3    H1 9000   2.954   1.827   2.992 -0.0419  0.5742 -0.5010
 2998TIP3    H2 9001   3.010   1.961   2.951  2.1041 -0.2108 -0.2647
 2999TIP3   OH2 9002   6.259   4.740   3.412 -0.0585 -0.1091 -0.2295
 2999TIP3    H1 9003   6.258   4.833   3.389 -0.3243 -0.1030 -0.2017
 2999TIP3    H2 9004   6.334   4.704   3.364 -0.4504 -0.0483 -0.9132
 3000TIP3   OH2 9005   1.231   2.918   0.057 -0.1387  0.0361  0.3234
 3000TIP3    H1 9006   1.297   2.982   0.083 -0.4086  0.2571  0.4665
 3000TIP3    H2 9007   1.259   2.836   0.098  0.0520  0.1259  0.3726
 3001TIP3   OH2 9008   5.142   3.452   4.579  0.1089  0.4316 -1.0540
 3001TIP3    H1 9009   5.115   3.467   4.669  0.4860 -0.7009 -0.7368
 3001TIP3    H2 9010   5.161   3.539   4.544 -0.1108  0.8800 -0.0726
 3002TIP3   OH2 9011   2.974   1.582   0.077 -0.6914 -0.4879  0.2215
 3002TIP3    H1 9012   2.958   1.548   0.165 -0.1719  0.2990  0.6385
 3002TIP3    H2 9013   2.898   1.638   0.059 -0.3146  0.1605  0.6002
 3003TIP3   OH2 9014   1.902   3.442   5.019 -0.2656 -0.3248  0.5852
 3003TIP3    H1 9015   1.910   3.532   5.048 -1.0689  0.2619 -0.9083
 3003TIP3    H2 9016   1.953   3.391   5.082 -0.9927  0.9888  2.2930
 3004TIP3   OH2 9017   3.953   4.747   3.467 -0.2774 -0.2294  0.1796
 3004TIP3    H1 9018   3.952   4.794   3.384  0.1291 -1.1800 -0.3788
 3004TIP3    H2 9019   3.877   4.780   3.514  0.5263  1.6705  0.2126
 3005TIP3   OH2 9020   0.638   1.506   5.162 -0.0475  0.6972 -0.0356
 3005TIP3    H1 9021   0.720   1.532   5.119  0.0636  0.2383 -0.1059
 3005TIP3    H2 9022   0.651   1.415   5.186 -0.2189  0.8682  0.7306
 3006TIP3   OH2 9023   4.394   1.431   5.090  0.5402  0.5010  0.4629
 3006TIP3    H1 9024   4.334   1.465   5.024 -0.9601 -1.6787  0.5525
 3006TIP3    H2 9025   4.445   1.364   5.044 -2.1642 -2.7899  1.7666
 3007TIP3   OH2 9026   1.590   1.767   2.391 -0.1266  0.0900 -0.4073
 3007TIP3    H1 9027   1.506   1.812   2.383 -0.5839 -0.5489  0.6508
 3007TIP3    H2 9028   1.646   1.829   2.438 -0.7248 -0.3782  0.9562
 3008TIP3   OH2 9029   5.446   5.081   2.049  0.4562 -0.8112  0.1428
 3008TIP3    H1 9030   5.505   5.103   2.121  0.0222  2.0130 -0.2595
 3008TIP3    H2 9031   5.503   5.075   1.972  0.5199 -0.4503  0.1597
 3009TIP3   OH2 9032   0.944   3.236   2.140  0.2451  0.4028  0.4333
 3009TIP3    H1 9033   1.008   3.165   2.156  0.8200  0.3399 -1.8452
 3009TIP3    H2 9034   0.995   3.304   2.096 -1.3195  0.1306 -1.9434
 3010TIP3   OH2 9035   4.851   2.590   2.935 -0.6247 -0.4651  0.1248
 3010TIP3    H1 9036   4.767   2.572   2.977 -0.3614 -1.3449  0.2877
 3010TIP3    H2 9037   4.889   2.504   2.920 -0.3674 -0.1319 -1.2362
 3011TIP3   OH2 9038   3.177   0.562   2.120 -0.2043  0.1484  0.2014
 3011TIP3    H1 9039   3.253   0.504   2.123  0.3178  0.8458  1.9241
 3011TIP3    H2 9040   3.107   0.509   2.083 -0.2318 -2.2018  3.2599
 3012TIP3   OH2 9041   0.960   5.150   3.818 -0.2320 -0.0145 -0.1364
 3012TIP3    H1 9042   0.924   5.169   3.732 -1.7484  0.9327  0.6653
 3012TIP3    H2 9043   0.989   5.059   3.813  0.6295  0.3147 -1.9206
 3013TIP3   OH2 9044   0.879   1.644   0.578 -0.5350 -0.3808 -0.3556
 3013TIP3    H1 9045   0.785   1.659   0.568 -0.3011  0.9016 -0.8418
 3013TIP3    H2 9046   0.918   1.683   0.500  0.2716 -2.8624 -1.2987
 3014TIP3   OH2 9047   3.131   5.232   3.106 -0.4412 -0.6556 -0.1481
 3014TIP3    H1 9048   3.176   5.192   3.031 -0.8976  0.4786 -1.0534
 3014TIP3    H2 9049   3.201   5.258   3.165 -0.0685 -1.4600 -0.2260
 3015TIP3   OH2 9050   3.877   2.869   2.618  0.0948  0.3057  0.3155
 3015TIP3    H1 9051   3.895   2.868   2.525  1.5514  0.9135  0.5759
 3015TIP3    H2 9052   3.944   2.813   2.657 -0.3305  0.2756  1.0332
 3016TIP3   OH2 9053   3.848   1.525   1.806 -0.2790 -0.5193  0.1525
 3016TIP3    H1 9054   3.811   1.460   1.865  0.2018 -0.3148  0.6900
 3016TIP3    H2 9055   3.772   1.563   1.762 -0.7274 -0.0883  1.2617
 3017TIP3   OH2 9056   3.900   1.372   3.597  0.2990 -0.1970  0.0128
 3017TIP3    H1 9057   3.867   1.284   3.617 -0.9581 -0.0521 -1.2980
 3017TIP3    H2 9058   3.850   1.430   3.655 -0.0722 -0.1938 -0.3103
 3018TIP3   OH2 9059   1.953   0.729   1.499 -0.4649 -0.2367  0.1757
 3018TIP3    H1 9060   1.999   0.662   1.550 -0.6712 -0.4735  0.0469
 3018TIP3    H2 9061   1.945   0.803   1.559  1.9364  0.6070 -0.4013
 3019TIP3   OH2 9062   3.223   1.509   2.651  1.0422  0.3519  0.1125
 3019TIP3    H1 9063   3.255   1.446   2.586  0.7764 -0.5552  0.8483
 3019TIP3    H2 9064   3.135   1.532   2.620  0.1688 -1.4805  1.0789
 3020TIP3   OH2 9065   4.769   4.125   1.623  0.6830 -0.1699  0.0237
 3020TIP3    H1 9066   4.815   4.064   1.565  1.3661  1.2391 -0.9681
 3020TIP3    H2 9067   4.840   4.174   1.667  0.1487  0.0117  0.7096
 3021TIP3   OH2 9068   5.119   2.922   2.678  0.0528 -0.1276 -0.1663
 3021TIP3    H1 9069   5.090   2.836   2.706 -0.3235  0.3817  1.0826
 3021TIP3    H2 9070   5.191   2.944   2.737  0.7519  0.0369 -1.0645
 3022TIP3   OH2 9071   4.383   5.413   0.463  0.5830 -0.6998  0.1245
 3022TIP3    H1 9072   4.373   5.490   0.406 -0.8932 -2.3318 -2.0133
 3022TIP3    H2 9073   4.472   5.419   0.496  1.1117  1.0001 -1.4037
 3023TIP3   OH2 9074   3.774   4.833   1.434  0.2482 -0.6177  0.4663
 3023TIP3    H1 9075   3.761   4.915   1.483  0.0281 -0.2297 -0.2243
 3023TIP3    H2 9076   3.698   4.828   1.375  0.2255 -1.3571  0.5494
 3024TIP3   OH2 9077   0.890   2.409   2.737  0.3989 -0.8075  0.3036
 3024TIP3    H1 9078   0.897   2.369   2.650  1.1358  0.0832 -0.0609
 3024TIP3    H2 9079   0.804   2.382   2.768  0.7647 -2.4618 -0.0270
 3025TIP3   OH2 9080   1.584   5.346   2.116 -0.7597 -0.1294 -0.5187
 3025TIP3    H1 9081   1.502   5.368   2.159 -0.2283 -0.1778  0.5548
 3025TIP3    H2 9082   1.563   5.269   2.063 -1.3012 -0.4113  0.0948
 3026TIP3   OH2 9083   3.310   4.658   3.611 -0.2581 -0.2774  0.1600
 3026TIP3    H1 9084   3.394   4.637   3.571 -0.4072 -0.0589 -0.2680
 3026TIP3    H2 9085   3.272   4.725   3.554 -0.2381  0.4276  0.9542
 3027TIP3   OH2 9086   6.285   2.905   2.078  0.0531  0.0111 -0.0365
 3027TIP3    H1 9087   6.211   2.943   2.032 -0.3734 -1.2818 -0.4529
 3027TIP3    H2 9088   6.254   2.895   2.168  0.4731  1.4079  0.3001
 3028TIP3   OH2 9089   4.242   5.504   0.815 -0.3205 -0.3881  0.3727
 3028TIP3    H1 9090   4.274   5.510   0.905  0.6449 -0.4013  0.0485
 3028TIP3    H2 9091   4.291   5.430   0.777 -0.6302 -0.3097 -0.1912
 3029TIP3   OH2 9092   1.289   2.635   0.803  0.4939 -0.0761 -0.1962
 3029TIP3    H1 9093   1.223   2.603   0.865  0.0994 -1.6452 -1.3731
 3029TIP3    H2 9094   1.330   2.709   0.848 -1.6283  0.5567  0.8352
 3030TIP3   OH2 9095   1.223   1.374   3.640 -0.1735 -0.3096  0.4543
 3030TIP3    H1 9096   1.304   1.323   3.644  0.4852  0.4861 -1.5613
 3030TIP3    H2 9097   1.245   1.456   3.684 -0.1592 -0.4225  0.6597
 3031TIP3   OH2 9098   5.872   5.807   4.273  0.5837 -0.1478 -0.0395
 3031TIP3    H1 9099   5.863   5.712   4.283  1.4384 -0.1904  0.3895
 3031TIP3    H2 9100   5.922   5.818   4.192 -3.1087  0.0969 -2.5512
 3032TIP3   OH2 9101   3.174   3.573   4.830  0.3005 -0.1163 -0.7724
 3032TIP3    H1 9102   3.188   3.650   4.774  0.5211  0.8243  0.5450
 3032TIP3    H2 9103   3.262   3.547   4.858  0.2599 -1.0761 -1.4551
 3033TIP3   OH2 9104   3.766   3.084   4.153  0.0935  0.3196 -0.0208
 3033TIP3    H1 9105   3.815   3.004   4.135  0.8745  0.7909 -0.0756
 3033TIP3    H2 9106   3.757   3.127   4.068 -1.3281 -0.2457 -0.1813
 3034TIP3   OH2 9107   4.072   5.052   3.475 -0.6161  0.6190  0.0324
 3034TIP3    H1 9108   4.021   5.130   3.498 -1.1130  0.9052 -1.8711
 3034TIP3    H2 9109   4.087   5.060   3.381 -1.2262 -1.9010 -0.3458
 3035TIP3   OH2 9110   4.563   0.027   2.172 -0.4041 -0.1421  0.7079
 3035TIP3    H1 9111   4.597   0.089   2.107 -0.9900 -1.4623 -0.9200
 3035TIP3    H2 9112   4.478   0.065   2.198 -0.7551 -0.2348 -0.2659
 3036TIP3   OH2 9113   4.456   5.413   4.942  0.0932 -0.0928 -0.0749
 3036TIP3    H1 9114   4.546   5.427   4.971  0.3137 -1.5869  0.0612
 3036TIP3    H2 9115   4.407   5.488   4.976  1.3324  0.8664 -0.3837
 3037TIP3   OH2 9116   5.432   1.400   1.783 -0.1128 -0.7086 -0.9145
 3037TIP3    H1 9117   5.476   1.432   1.862 -0.8639  0.7397 -1.0404
 3037TIP3    H2 9118   5.341   1.391   1.809 -0.2544 -0.8304 -1.4530
 3038TIP3   OH2 9119   1.278   5.833   3.957  0.6111  0.2183  0.4144
 3038TIP3    H1 9120   1.314   5.919   3.937 -0.6676  1.1202  1.6999
 3038TIP3    H2 9121   1.194   5.831   3.910 -0.1336  0.3940  1.6755
 3039TIP3   OH2 9122   2.474   3.278   0.712  0.7081  0.6485  0.0285
 3039TIP3    H1 9123   2.529   3.209   0.750 -0.4773 -0.8614 -0.8384
 3039TIP3    H2 9124   2.521   3.304   0.633  0.3712 -0.4192 -0.5486
 3040TIP3   OH2 9125   4.569   1.331   0.974 -0.0178  0.4942 -0.2504
 3040TIP3    H1 9126   4.592   1.423   0.988  1.0460  0.3403 -0.8890
 3040TIP3    H2 9127   4.530   1.303   1.057  1.4401  0.9844  0.6373
 3041TIP3   OH2 9128   0.124   1.712   1.743  0.2801  0.2450  0.1623
 3041TIP3    H1 9129   0.159   1.749   1.661 -0.0460 -1.4865 -0.8095
 3041TIP3    H2 9130   0.029   1.712   1.731  0.2975 -1.8942 -0.3785
 3042TIP3   OH2 9131   4.737   3.647   0.479 -0.4239  0.3769  0.0238
 3042TIP3    H1 9132   4.658   3.683   0.439 -1.2823 -2.0534 -0.6625
 3042TIP3    H2 9133   4.801   3.644   0.407 -0.9415 -1.0449 -0.4127
 3043TIP3   OH2 9134   1.365   0.613   0.436 -0.2564 -0.4418 -0.3585
 3043TIP3    H1 9135   1.358   0.610   0.532  1.6732 -1.7312 -0.1975
 3043TIP3    H2 9136   1.403   0.699   0.418 -2.0153  0.4326 -0.1364
 3044TIP3   OH2 9137   5.274   3.868   1.333  0.2843  0.5789 -0.0905
 3044TIP3    H1 9138   5.316   3.818   1.263 -1.6768 -1.8002  0.2968
 3044TIP3    H2 9139   5.335   3.864   1.406  0.8763  0.1915 -0.5974
 3045TIP3   OH2 9140   1.320   4.615   2.626 -0.4325  0.4338 -0.1826
 3045TIP3    H1 9141   1.393   4.668   2.657 -0.4604  0.7722 -0.6948
 3045TIP3    H2 9142   1.343   4.526   2.651  0.7154  0.3771 -1.3960
 3046TIP3   OH2 9143   2.901   0.045   4.999 -0.0749  0.2361 -0.4022
 3046TIP3    H1 9144   2.961   0.060   4.926  1.2261 -0.8242  0.3861
 3046TIP3    H2 9145   2.882  -0.049   4.996 -0.6265  0.3209  0.1633
 3047TIP3   OH2 9146   3.356   4.622   4.671  0.3318 -0.2760  0.5918
 3047TIP3    H1 9147   3.421   4.688   4.696  1.3097 -0.9611 -0.0704
 3047TIP3    H2 9148   3.282   4.673   4.639  1.1917  0.5173 -0.2144
 3048TIP3   OH2 9149   3.859   4.320   4.596  0.3315  0.7091 -0.0026
 3048TIP3    H1 9150   3.908   4.288   4.521  0.1822  1.3696 -0.3861
 3048TIP3    H2 9151   3.926   4.358   4.654  0.3881  0.6648 -0.0389
 3049TIP3   OH2 9152   0.660   4.381   5.067 -0.0915  0.4127 -0.4760
 3049TIP3    H1 9153   0.744   4.356   5.028  0.5358  0.5221  0.7570
 3049TIP3    H2 9154   0.594   4.341   5.010  0.8219 -2.2062  0.1416
 3050TIP3   OH2 9155   5.383   5.329   2.220 -0.1123 -0.4480  0.2049
 3050TIP3    H1 9156   5.321   5.402   2.220 -0.2875 -0.5762 -1.0039
 3050TIP3    H2 9157   5.338   5.259   2.172  0.3040 -1.1329  0.7949
 3051TIP3   OH2 9158   1.491   4.349   0.800 -0.3737 -0.4191 -0.0974
 3051TIP3    H1 9159   1.568   4.293   0.813 -0.9384 -1.1728  0.0778
 3051TIP3    H2 9160   1.452   4.357   0.887 -1.4608 -1.4968 -0.4553
 3052TIP3   OH2 9161   0.734   3.161   2.567  0.0673 -0.0451 -0.3161
 3052TIP3    H1 9162   0.786   3.208   2.502  1.7720  0.0325  1.0270
 3052TIP3    H2 9163   0.789   3.088   2.593  0.4146  1.1000  2.5330
 3053TIP3   OH2 9164   3.862   1.721   4.381 -0.1245  0.3847  0.0068
 3053TIP3    H1 9165   3.886   1.635   4.345 -0.1152 -0.1226  1.1653
 3053TIP3    H2 9166   3.921   1.733   4.455  0.4912  1.8249 -0.6713
 3054TIP3   OH2 9167   0.687   0.933   3.406  0.0619  0.1965  0.5969
 3054TIP3    H1 9168   0.720   0.964   3.322  1.1652  1.0100  1.2899
 3054TIP3    H2 9169   0.606   0.982   3.419 -1.7473 -2.0900 -1.2959
 3055TIP3   OH2 9170   4.902   2.522   0.771 -0.4321  0.3412 -0.1726
 3055TIP3    H1 9171   4.907   2.561   0.684  1.2383 -0.6786 -0.5751
 3055TIP3    H2 9172   4.938   2.589   0.829  0.3791  0.2414 -0.5531
 3056TIP3   OH2 9173   6.306   2.809   0.534 -0.0077  0.5803  0.4102
 3056TIP3    H1 9174   6.305   2.732   0.477 -0.4083  0.7819  0.1434
 3056TIP3    H2 9175   6.285   2.775   0.621  1.1626  0.1830  0.5588
 3057TIP3   OH2 9176   0.105   5.262   3.923  0.0835 -0.0213  0.0251
 3057TIP3    H1 9177   0.093   5.316   3.846 -0.5499 -0.6450 -0.3189
 3057TIP3    H2 9178   0.043   5.297   3.987  0.4807  0.3787  0.2013
 3058TIP3   OH2 9179   2.554   4.429   4.079 -0.2436 -0.2090  0.4528
 3058TIP3    H1 9180   2.480   4.456   4.024 -0.0157  1.2225  0.8059
 3058TIP3    H2 9181   2.513   4.396   4.159 -0.5266 -0.5057  0.1877
 3059TIP3   OH2 9182   4.889   0.243   2.617  0.2327  0.0872 -0.3638
 3059TIP3    H1 9183   4.876   0.334   2.591 -1.0733 -0.6013 -2.3894
 3059TIP3    H2 9184   4.832   0.231   2.693  0.3968  0.9371 -0.0967
 3060TIP3   OH2 9185   3.683   1.900   3.245  0.3580  0.5253  0.0710
 3060TIP3    H1 9186   3.692   1.995   3.238 -2.0484  0.6913 -2.7188
 3060TIP3    H2 9187   3.596   1.887   3.283  0.0177 -0.4969 -1.0071
 3061TIP3   OH2 9188   5.611   5.579   2.662 -0.2565 -0.0396 -0.2061
 3061TIP3    H1 9189   5.627   5.505   2.603  1.9715  1.2755 -1.4249
 3061TIP3    H2 9190   5.622   5.543   2.750 -2.3432 -1.7717 -0.5772
 3062TIP3   OH2 9191   1.825   0.911   3.544  0.2726  0.0421  0.3330
 3062TIP3    H1 9192   1.763   0.840   3.562  1.5900 -0.9151  1.2790
 3062TIP3    H2 9193   1.782   0.964   3.476 -1.7781 -0.2745  1.3207
 3063TIP3   OH2 9194   1.696   2.022   2.550 -0.5040  0.9067 -0.1058
 3063TIP3    H1 9195   1.704   2.083   2.624 -3.0707 -0.0064  1.0465
 3063TIP3    H2 9196   1.742   1.943   2.580  0.6506  1.3740 -0.5775
 3064TIP3   OH2 9197   5.118   3.245   2.769 -0.2746 -0.0681  0.0835
 3064TIP3    H1 9198   5.079   3.161   2.744 -1.7016  0.2143  1.2359
 3064TIP3    H2 9199   5.052   3.287   2.824  1.7510  0.2995  2.4090
 3065TIP3   OH2 9200   1.275   1.410   1.492 -0.3730  0.3256 -0.1565
 3065TIP3    H1 9201   1.352   1.385   1.543 -0.3770  1.1315  0.2564
 3065TIP3    H2 9202   1.268   1.504   1.504 -1.3635  0.2729 -0.2863
 3066TIP3   OH2 9203   5.336   0.727   3.069  0.0262 -0.4030  0.1844
 3066TIP3    H1 9204   5.326   0.767   2.983  2.9231  2.5415  1.0174
 3066TIP3    H2 9205   5.279   0.778   3.126 -0.5448 -1.2050  0.3456
 3067TIP3   OH2 9206   2.652   2.796   2.143 -0.0850 -0.5634  0.2279
 3067TIP3    H1 9207   2.682   2.856   2.212 -0.7927  1.4642 -1.1490
 3067TIP3    H2 9208   2.687   2.833   2.062 -3.5605  0.1476 -1.1073
 3068TIP3   OH2 9209   1.321   0.262   4.658 -0.2574  0.1535 -0.6504
 3068TIP3    H1 9210   1.285   0.307   4.582  0.1702 -1.2027 -1.7030
 3068TIP3    H2 9211   1.416   0.270   4.648 -0.1987  0.7465  0.2515
 3069TIP3   OH2 9212   1.499   0.824   0.812  0.3080 -0.3697 -0.1578
 3069TIP3    H1 9213   1.483   0.916   0.831  0.5495 -0.5230  0.8929
 3069TIP3    H2 9214   1.574   0.801   0.867  0.4412 -1.1119 -0.6390
 3070TIP3   OH2 9215   1.722   0.018   3.009 -0.1828 -0.0450 -0.0169
 3070TIP3    H1 9216   1.790   0.078   3.040  0.0867 -0.4863  0.2555
 3070TIP3    H2 9217   1.743   0.004   2.917 -0.2450  0.2725 -0.0817
 3071TIP3   OH2 9218   4.627   4.190   2.333 -0.0853  0.1301  0.3556
 3071TIP3    H1 9219   4.695   4.251   2.304  0.0781 -0.9533 -1.6964
 3071TIP3    H2 9220   4.668   4.139   2.402  0.9253  0.0197 -0.3128
 3072TIP3   OH2 9221   0.638   4.908   2.726 -0.3203 -0.5619 -0.1064
 3072TIP3    H1 9222   0.586   4.830   2.747 -0.3111 -0.8140 -0.9741
 3072TIP3    H2 9223   0.667   4.941   2.811  0.6209 -2.1563  0.2452
 3073TIP3   OH2 9224   3.283   0.101   0.661  0.2347  0.1065  0.4349
 3073TIP3    H1 9225   3.257   0.158   0.733 -1.2210 -0.4150  0.3570
 3073TIP3    H2 9226   3.203   0.056   0.636  1.4293 -2.4536  0.9066
 3074TIP3   OH2 9227   4.939   2.657   2.439 -0.2315 -0.0982 -0.0713
 3074TIP3    H1 9228   4.974   2.687   2.523 -0.3340 -1.5053  0.4888
 3074TIP3    H2 9229   4.855   2.617   2.460 -0.0343 -0.9074 -0.7734
 3075TIP3   OH2 9230   6.014   4.331   2.575  0.1175 -0.2080 -0.0102
 3075TIP3    H1 9231   6.061   4.410   2.602  0.6910 -0.4185 -0.3722
 3075TIP3    H2 9232   5.930   4.336   2.621  0.5322  0.1225  0.7319
 3076TIP3   OH2 9233   0.300   3.214   0.041 -0.4376 -0.0942  0.4586
 3076TIP3    H1 9234   0.346   3.245  -0.037  1.5790 -0.2810  1.5012
 3076TIP3    H2 9235   0.227   3.275   0.051  0.2387  0.9422 -0.6207
 3077TIP3   OH2 9236   3.421   4.178   0.934  0.1846  0.2764  0.3945
 3077TIP3    H1 9237   3.337   4.173   0.888  0.8089  0.2494 -0.7770
 3077TIP3    H2 9238   3.457   4.264   0.910  0.2262  0.5562  1.3946
 3078TIP3   OH2 9239   2.642   5.166   1.175  0.2313 -0.3225 -0.1963
 3078TIP3    H1 9240   2.548   5.160   1.162  0.1717 -2.1540  0.7595
 3078TIP3    H2 9241   2.676   5.082   1.142  1.5744  0.4041 -0.7705
 3079TIP3   OH2 9242   0.451   4.826   5.152 -0.2922 -0.8255 -0.0933
 3079TIP3    H1 9243   0.425   4.900   5.207  1.0533 -1.0076  0.8380
 3079TIP3    H2 9244   0.410   4.750   5.193 -3.0724 -0.5006 -1.9919
 3080TIP3   OH2 9245   3.573   5.373   2.053 -0.2024 -0.0847  0.2211
 3080TIP3    H1 9246   3.484   5.408   2.044 -0.1582 -0.0091  0.0655
 3080TIP3    H2 9247   3.620   5.409   1.977 -0.1190 -0.3734  0.1351
 3081TIP3   OH2 9248   3.864   1.917   4.918 -0.1581  0.0990 -0.3285
 3081TIP3    H1 9249   3.872   1.852   4.988  0.8468  1.5432  0.9952
 3081TIP3    H2 9250   3.840   1.998   4.964  1.2691  1.2774 -1.5358
 3082TIP3   OH2 9251   1.438   2.336   1.741  0.3245  0.0459 -0.0363
 3082TIP3    H1 9252   1.524   2.368   1.769  0.6388 -0.2281 -0.6531
 3082TIP3    H2 9253   1.443   2.241   1.755  1.3411 -0.4516 -3.0452
 3083TIP3   OH2 9254   3.732   4.438   1.793 -0.0030 -0.0448  0.2461
 3083TIP3    H1 9255   3.681   4.364   1.760  0.8736 -0.5677  0.0359
 3083TIP3    H2 9256   3.706   4.512   1.737  0.5203 -0.6268 -0.7973
 3084TIP3   OH2 9257   4.367   1.631   2.533 -0.5114  0.2520  0.0376
 3084TIP3    H1 9258   4.348   1.539   2.555  1.0074  0.0592  0.6531
 3084TIP3    H2 9259   4.416   1.626   2.451  0.6315  0.3893  0.6827
 3085TIP3   OH2 9260   1.283   4.221   4.569  0.3013  0.3191  0.3008
 3085TIP3    H1 9261   1.239   4.286   4.514  0.2986 -0.4625 -0.6413
 3085TIP3    H2 9262   1.224   4.146   4.567  1.1483 -0.3428 -0.0659
 3086TIP3   OH2 9263   5.498   2.958   4.121 -0.1462 -0.5336  0.1357
 3086TIP3    H1 9264   5.470   3.036   4.169 -1.4613 -2.3364  2.5627
 3086TIP3    H2 9265   5.593   2.957   4.129 -0.0467  1.0814 -0.4747
 3087TIP3   OH2 9266   3.255   0.322   2.924 -0.3092 -0.5469 -0.6805
 3087TIP3    H1 9267   3.194   0.250   2.935 -1.1341  0.2448  0.0533
 3087TIP3    H2 9268   3.202   0.401   2.935  0.7313  0.1648 -0.5923
 3088TIP3   OH2 9269   4.657   3.692   2.682 -0.5446  0.0468 -0.0092
 3088TIP3    H1 9270   4.626   3.771   2.725 -0.8594  1.1730 -2.1512
 3088TIP3    H2 9271   4.583   3.662   2.630  0.0636 -0.7554 -0.4371
 3089TIP3   OH2 9272   3.813   2.108   1.341 -0.0729  0.1602  0.0682
 3089TIP3    H1 9273   3.838   2.057   1.418  1.8944 -0.3282 -0.8198
 3089TIP3    H2 9274   3.889   2.102   1.282 -1.9283 -0.4431 -2.4319
 3090TIP3   OH2 9275   3.856   2.822   1.706  0.4148  0.1656  0.3147
 3090TIP3    H1 9276   3.916   2.777   1.647  1.3244  0.2128  1.1918
 3090TIP3    H2 9277   3.780   2.764   1.711  0.2402  0.2377 -1.0205
 3091TIP3   OH2 9278   4.811   1.860   4.214 -0.7630  0.0451  0.4324
 3091TIP3    H1 9279   4.906   1.847   4.221 -1.0714 -1.8862  1.7140
 3091TIP3    H2 9280   4.797   1.949   4.244  0.7066  0.6744 -0.6002
 3092TIP3   OH2 9281   3.648   3.172   2.404  0.5633  0.0761 -0.9180
 3092TIP3    H1 9282   3.569   3.227   2.400  1.8021  1.8688 -2.0492
 3092TIP3    H2 9283   3.651   3.130   2.317  0.7228 -0.2128 -0.7733
 3093TIP3   OH2 9284   4.821   2.165   3.097  0.6119 -0.2131 -0.0729
 3093TIP3    H1 9285   4.888   2.195   3.036  2.0589  0.9059  1.9526
 3093TIP3    H2 9286   4.840   2.211   3.179 -1.1309 -1.7511  1.2948
 3094TIP3   OH2 9287   1.093   2.453   3.412  0.0128 -0.6712 -0.3940
 3094TIP3    H1 9288   1.103   2.501   3.330  2.5628  1.3967  0.9598
 3094TIP3    H2 9289   0.998   2.437   3.420 -0.8340  2.7547 -1.7842
 3095TIP3   OH2 9290   2.876   5.899   2.703  0.5851  0.0905  0.1600
 3095TIP3    H1 9291   2.944   5.966   2.699  2.0328 -1.2563  1.1959
 3095TIP3    H2 9292   2.882   5.864   2.791 -0.2615 -1.3048 -0.3071
 3096TIP3   OH2 9293   4.229   0.208   1.270 -0.2223 -0.2788 -0.0375
 3096TIP3    H1 9294   4.213   0.122   1.231  0.7737 -1.8810  2.8201
 3096TIP3    H2 9295   4.319   0.204   1.303 -0.3524  1.6470  0.7020
 3097TIP3   OH2 9296   2.225   5.967   1.110 -0.0877  0.0678  0.1174
 3097TIP3    H1 9297   2.253   5.877   1.127 -0.4988 -0.6175 -2.3050
 3097TIP3    H2 9298   2.306   6.018   1.109  0.2007 -0.3461  1.0381
 3098TIP3   OH2 9299   1.104   1.178   0.474  0.3561  0.3112 -0.5594
 3098TIP3    H1 9300   1.056   1.254   0.507  1.0259  0.2645  0.5895
 3098TIP3    H2 9301   1.143   1.139   0.552 -0.4126 -1.5402 -1.0510
 3099TIP3   OH2 9302   1.647   2.886   1.046 -0.1867  0.2364  0.2474
 3099TIP3    H1 9303   1.679   2.905   0.957  0.3838  0.5510  0.5140
 3099TIP3    H2 9304   1.702   2.813   1.076  0.6519  1.1054  0.8970
 3100TIP3   OH2 9305   4.743   5.933   3.842  0.3894  0.3312 -0.0740
 3100TIP3    H1 9306   4.701   5.878   3.775 -3.3411  3.4627 -0.6901
 3100TIP3    H2 9307   4.820   5.969   3.799  0.3739 -0.9296 -1.2045
 3101TIP3   OH2 9308   0.982   2.855   4.251 -0.4655  0.1955  0.3276
 3101TIP3    H1 9309   0.993   2.762   4.270 -0.1108  0.0334 -0.5775
 3101TIP3    H2 9310   0.996   2.861   4.156 -2.5140  0.8718  0.0240
 3102TIP3   OH2 9311   5.986   0.599   0.490 -0.1032 -0.4219  0.6316
 3102TIP3    H1 9312   5.970   0.507   0.468 -2.5425 -0.3032  1.5185
 3102TIP3    H2 9313   5.899   0.634   0.508  0.9824  1.3780  2.9531
 3103TIP3   OH2 9314   4.332   3.649   5.091  0.3011  0.2502  0.1992
 3103TIP3    H1 9315   4.329   3.618   5.181  1.0046  0.5564  0.3397
 3103TIP3    H2 9316   4.241   3.657   5.064  0.0958 -0.9165  0.5110
 3104TIP3   OH2 9317   1.807   0.324   0.472 -0.5130 -0.4553  0.0322
 3104TIP3    H1 9318   1.744   0.254   0.488  1.0289 -1.6306  1.3616
 3104TIP3    H2 9319   1.857   0.295   0.396  0.6112 -1.2196  1.0241
 3105TIP3   OH2 9320   1.352   0.676   3.322 -0.4272 -0.4480  0.2545
 3105TIP3    H1 9321   1.373   0.767   3.299 -0.1898 -0.5964 -0.1220
 3105TIP3    H2 9322   1.257   0.674   3.328 -0.3630  0.2432  1.9928
 3106TIP3   OH2 9323   5.133   3.803   4.701 -0.4610  0.4290  0.8345
 3106TIP3    H1 9324   5.128   3.789   4.606  1.9578  0.4101  0.6523
 3106TIP3    H2 9325   5.073   3.877   4.717  0.3235  1.5348 -0.9774
 3107TIP3   OH2 9326   1.292   4.237   1.566  0.1778 -0.1922 -0.0135
 3107TIP3    H1 9327   1.359   4.273   1.624  0.8766 -1.6381  0.1143
 3107TIP3    H2 9328   1.309   4.279   1.481  2.7233 -2.1287 -0.5780
 3108TIP3   OH2 9329   1.288   0.138   4.237  0.1677 -0.1432 -0.4509
 3108TIP3    H1 9330   1.217   0.112   4.178 -1.1427  0.8488  0.6428
 3108TIP3    H2 9331   1.276   0.082   4.314  0.9636 -0.3939 -0.5001
 3109TIP3   OH2 9332   1.223   3.953   1.508  0.3408 -0.0051  1.1222
 3109TIP3    H1 9333   1.298   4.013   1.518  1.0843 -0.9114  1.1352
 3109TIP3    H2 9334   1.158   3.985   1.571  0.7214  0.7903  1.1202
 3110TIP3   OH2 9335   0.883   4.693   2.329 -0.1428  0.0924  0.3089
 3110TIP3    H1 9336   0.966   4.684   2.376 -0.0746 -0.0117  0.1718
 3110TIP3    H2 9337   0.900   4.760   2.263  0.0365 -0.3921 -0.1513
 3111TIP3   OH2 9338   2.364   3.651   2.257 -0.3821  0.1514  0.3278
 3111TIP3    H1 9339   2.292   3.593   2.233  0.3034 -0.8742  0.6705
 3111TIP3    H2 9340   2.432   3.592   2.290 -0.8794  1.2953  3.8726
 3112TIP3   OH2 9341   2.955   1.011   2.614 -0.1333 -0.0891 -0.6481
 3112TIP3    H1 9342   3.016   0.955   2.565 -0.7119 -1.4406  0.1188
 3112TIP3    H2 9343   3.010   1.082   2.647  0.7746 -0.5650 -1.0817
 3113TIP3   OH2 9344   1.184   2.992   0.658 -0.3895  0.0343 -0.3851
 3113TIP3    H1 9345   1.212   3.075   0.619 -0.9822  0.6919  0.5423
 3113TIP3    H2 9346   1.197   3.004   0.752 -1.2640 -0.6136 -0.1621
 3114TIP3   OH2 9347   0.868   2.356   5.081  0.2578  0.4889  0.3865
 3114TIP3    H1 9348   0.844   2.294   5.149 -2.5075  0.9730 -0.0306
 3114TIP3    H2 9349   0.893   2.435   5.129  0.3787  0.1711  0.8551
 3115TIP3   OH2 9350   3.243   2.523   2.261  0.3700 -0.0486  0.2888
 3115TIP3    H1 9351   3.196   2.606   2.251 -0.3713 -0.5953 -1.2020
 3115TIP3    H2 9352   3.332   2.547   2.284  0.0216  1.1244  0.4609
 3116TIP3   OH2 9353   5.322   4.090   0.551 -0.0997 -0.4839 -0.2909
 3116TIP3    H1 9354   5.255   4.149   0.585 -0.6037 -0.0335 -1.9481
 3116TIP3    H2 9355   5.308   4.090   0.456  1.3938 -1.4399 -0.5530
 3117TIP3   OH2 9356   3.428   1.122   2.239  0.0667 -0.0215  0.4251
 3117TIP3    H1 9357   3.359   1.076   2.286 -1.3815  0.8940 -0.7057
 3117TIP3    H2 9358   3.384   1.195   2.196  2.0868  1.8134  1.2439
 3118TIP3   OH2 9359   2.203   1.345   0.899  0.6559  0.2738 -0.0967
 3118TIP3    H1 9360   2.144   1.277   0.866  0.8582 -1.2654  2.4889
 3118TIP3    H2 9361   2.145   1.418   0.919  0.0853 -0.0338 -0.5649
 3119TIP3   OH2 9362   3.811   3.981   0.372 -0.4732  0.1454 -0.8044
 3119TIP3    H1 9363   3.845   3.892   0.373  1.5992  0.8843 -1.5984
 3119TIP3    H2 9364   3.739   3.978   0.310  0.3759 -0.7150 -1.7812
 3120TIP3   OH2 9365   5.525   1.327   0.013 -0.7972  0.0573 -0.2202
 3120TIP3    H1 9366   5.451   1.327  -0.047 -0.4751 -1.2730 -0.6527
 3120TIP3    H2 9367   5.486   1.338   0.100 -1.4983 -0.5546 -0.4478
 3121TIP3   OH2 9368   3.950   0.337   0.370 -0.4766  0.1240  0.0231
 3121TIP3    H1 9369   3.952   0.343   0.275  0.5623 -0.5730 -0.0115
 3121TIP3    H2 9370   4.028   0.385   0.399 -0.2947 -0.4240  0.4665
 3122TIP3   OH2 9371  -0.001   5.478   1.308 -0.5158 -0.2187  0.1503
 3122TIP3    H1 9372   0.086   5.462   1.273 -0.6114 -0.6136  0.0954
 3122TIP3    H2 9373  -0.032   5.556   1.262  0.2389  0.5808  0.9462
 3123TIP3   OH2 9374   5.411   0.726   4.510 -0.0591 -0.5218  0.0440
 3123TIP3    H1 9375   5.372   0.772   4.584 -2.1368 -0.0889 -1.2606
 3123TIP3    H2 9376   5.403   0.633   4.532  1.1320 -0.3767  1.1989
 3124TIP3   OH2 9377   4.363   5.637   3.655  0.2784  0.3458  0.2731
 3124TIP3    H1 9378   4.328   5.695   3.723  0.2937  0.7535 -0.0574
 3124TIP3    H2 9379   4.294   5.636   3.588 -0.4209 -1.2758  0.9528
 3125TIP3   OH2 9380   2.081   3.551   3.604  0.3076 -0.3175  1.0111
 3125TIP3    H1 9381   2.028   3.502   3.667 -1.6666  0.3524 -0.0238
 3125TIP3    H2 9382   2.169   3.515   3.614 -0.1454 -0.9636  3.3693
 3126TIP3   OH2 9383   0.527   5.736   1.467 -0.4858  0.0141  0.1905
 3126TIP3    H1 9384   0.479   5.688   1.534 -0.3146  0.6218  0.7566
 3126TIP3    H2 9385   0.474   5.815   1.452 -0.6647 -0.2452 -0.5910
 3127TIP3   OH2 9386   1.244   2.749   0.464 -0.2840  0.2615  0.2459
 3127TIP3    H1 9387   1.235   2.710   0.551 -0.0262 -1.7116 -0.5642
 3127TIP3    H2 9388   1.169   2.808   0.456 -0.4099  0.3385  1.7152
 3128TIP3   OH2 9389   0.381   5.732   5.005  0.7941 -0.9266 -0.2457
 3128TIP3    H1 9390   0.313   5.788   5.042  1.5375  0.9631 -1.5509
 3128TIP3    H2 9391   0.336   5.680   4.938  0.1928 -1.5336  0.6100
 3129TIP3   OH2 9392   0.486   1.673   1.567 -0.3270  0.2385  0.3532
 3129TIP3    H1 9393   0.507   1.728   1.643  0.9974  0.0871  0.1216
 3129TIP3    H2 9394   0.504   1.584   1.596 -1.2959  0.0171  0.3311
 3130TIP3   OH2 9395   0.118   0.964   0.613  0.3489  0.0773 -0.2060
 3130TIP3    H1 9396   0.114   1.054   0.579  0.0231  0.7567  1.5471
 3130TIP3    H2 9397   0.082   0.970   0.701 -0.0474 -1.8713 -0.2037
 3131TIP3   OH2 9398   3.110   1.027   0.851 -0.0021  0.0365 -0.2850
 3131TIP3    H1 9399   3.193   1.074   0.854 -0.1991  0.3448  1.2510
 3131TIP3    H2 9400   3.104   0.993   0.761  2.5351 -1.3871 -0.0002
 3132TIP3   OH2 9401   0.668   3.944   2.015  0.1405  0.2642 -0.3303
 3132TIP3    H1 9402   0.685   3.855   1.985 -0.6223 -0.5257  1.4308
 3132TIP3    H2 9403   0.748   3.969   2.062  0.2171  0.3899 -0.5234
 3133TIP3   OH2 9404   5.791   3.392   1.431 -0.1625  0.4388  0.4206
 3133TIP3    H1 9405   5.778   3.386   1.525  0.1950  0.5474  0.4790
 3133TIP3    H2 9406   5.884   3.411   1.421  0.1826 -1.3354 -0.0124
 3134TIP3   OH2 9407   5.781   5.760   0.151 -0.5272 -0.2621  0.1647
 3134TIP3    H1 9408   5.849   5.713   0.199 -0.6374 -1.5543 -0.8644
 3134TIP3    H2 9409   5.705   5.761   0.209 -0.1627 -0.3673  0.6409
 3135TIP3   OH2 9410   3.112   4.396   1.338 -0.3325 -0.2990  0.5905
 3135TIP3    H1 9411   3.118   4.401   1.242  2.2216 -1.4653  0.6070
 3135TIP3    H2 9412   3.033   4.446   1.359  0.2214  1.9069 -1.9364
 3136TIP3   OH2 9413   6.010   0.684   4.489  0.3418  0.2905 -0.0335
 3136TIP3    H1 9414   6.047   0.708   4.404  1.0160 -0.2948  0.0788
 3136TIP3    H2 9415   6.008   0.766   4.538  0.6938  0.4920 -0.3428
 3137TIP3   OH2 9416   1.518   4.802   0.755  0.1695 -0.9530  0.2115
 3137TIP3    H1 9417   1.479   4.715   0.746 -1.4920 -0.5246  2.3757
 3137TIP3    H2 9418   1.577   4.794   0.830 -0.1714 -0.1757  0.5773
 3138TIP3   OH2 9419   3.065   2.571   1.591 -0.1320 -0.3620 -0.4055
 3138TIP3    H1 9420   3.027   2.566   1.503 -0.2257  1.0076 -0.4701
 3138TIP3    H2 9421   2.990   2.577   1.649 -0.1517  3.0517 -0.5812
 3139TIP3   OH2 9422   1.208   2.315   4.409  0.6094 -0.3322 -0.6020
 3139TIP3    H1 9423   1.202   2.304   4.314 -0.0480  1.2660 -0.7747
 3139TIP3    H2 9424   1.296   2.348   4.424  0.8280 -0.9017 -0.6121
 3140TIP3   OH2 9425   4.050   1.503   0.929 -0.3266  0.4634  0.0561
 3140TIP3    H1 9426   4.126   1.445   0.921 -0.9084 -0.3163  0.0796
 3140TIP3    H2 9427   4.087   1.591   0.925  0.3372  0.1415 -2.4850
 3141TIP3   OH2 9428   2.115   4.407   1.784 -0.2304  0.4372 -0.4861
 3141TIP3    H1 9429   2.207   4.414   1.808  0.7698 -1.9412 -3.0152
 3141TIP3    H2 9430   2.100   4.480   1.723  0.1888  0.4246 -0.6069
 3142TIP3   OH2 9431   0.076   1.890   0.710  0.3358 -0.1221  0.3851
 3142TIP3    H1 9432   0.108   1.861   0.795  0.6478  0.1695  0.3727
 3142TIP3    H2 9433  -0.019   1.896   0.719  0.4490  0.9306  1.0364
 3143TIP3   OH2 9434   1.458   2.324   0.851 -0.0533 -0.6978 -0.0371
 3143TIP3    H1 9435   1.409   2.356   0.776  0.4910 -1.2788 -0.6566
 3143TIP3    H2 9436   1.439   2.387   0.921 -0.2825  0.0552 -0.7608
 3144TIP3   OH2 9437   3.582   5.393   3.090  0.2836  0.4516  0.0766
 3144TIP3    H1 9438   3.515   5.445   3.045  0.1512 -1.1659 -1.7164
 3144TIP3    H2 9439   3.630   5.349   3.020  0.4086 -1.7999  1.4716
 3145TIP3   OH2 9440   1.469   1.298   3.717  0.3266 -0.1236  0.4094
 3145TIP3    H1 9441   1.561   1.325   3.716 -0.3760  2.7720  1.7484
 3145TIP3    H2 9442   1.457   1.260   3.804  0.3549 -0.9686  0.0492
 3146TIP3   OH2 9443   1.207   4.854   1.150  0.0573 -0.1569 -0.0397
 3146TIP3    H1 9444   1.217   4.949   1.146  0.7726 -0.2214  0.0339
 3146TIP3    H2 9445   1.141   4.839   1.218 -0.1841  0.2874 -0.1704
 3147TIP3   OH2 9446   0.561   5.740   3.163  0.2346  1.0683 -0.0265
 3147TIP3    H1 9447   0.488   5.797   3.140 -1.5347 -0.7284  0.8099
 3147TIP3    H2 9448   0.593   5.707   3.079  0.1989  1.9607 -0.4079
 3148TIP3   OH2 9449   0.501   3.640   3.965  0.4142 -0.1989 -0.9835
 3148TIP3    H1 9450   0.441   3.631   4.039  0.2336  0.6569 -1.0219
 3148TIP3    H2 9451   0.551   3.558   3.965  0.8085  0.0089  0.4204
 3149TIP3   OH2 9452   5.077   1.705   3.782 -0.2194  0.3538 -0.3055
 3149TIP3    H1 9453   5.058   1.662   3.865  0.6850  1.2567  0.4104
 3149TIP3    H2 9454   5.019   1.781   3.780 -0.7952 -0.0925 -0.8833
 3150TIP3   OH2 9455   0.524   2.937   2.891 -0.5613 -0.2373  0.0150
 3150TIP3    H1 9456   0.602   2.897   2.929 -0.5817 -0.6928 -0.4094
 3150TIP3    H2 9457   0.451   2.894   2.935 -0.5797  0.3533  0.5789
 3151TIP3   OH2 9458   2.760   0.783   1.531 -0.1973 -0.2505 -0.3355
 3151TIP3    H1 9459   2.677   0.832   1.532 -1.0710 -1.6791 -0.5639
 3151TIP3    H2 9460   2.827   0.851   1.532 -1.3455  0.9357  0.9653
 3152TIP3   OH2 9461   1.428   0.653   4.305 -0.4487  0.2402 -0.0384
 3152TIP3    H1 9462   1.440   0.584   4.240  0.0067  1.2814 -1.0963
 3152TIP3    H2 9463   1.459   0.615   4.387 -1.8273 -1.3998 -0.2155
 3153TIP3   OH2 9464   5.873   3.591   0.550  0.0670 -0.2545  0.3785
 3153TIP3    H1 9465   5.841   3.624   0.466 -0.2143  0.9174  0.9157
 3153TIP3    H2 9466   5.793   3.571   0.599  0.2244 -0.4823  0.5449
 3154TIP3   OH2 9467   3.509   1.019   3.007  0.5558 -0.0325  0.4086
 3154TIP3    H1 9468   3.531   1.006   2.915 -1.9927  0.1855 -0.2874
 3154TIP3    H2 9469   3.565   1.092   3.034  2.9065 -1.4585 -0.2746
 3155TIP3   OH2 9470   2.780   3.421   3.761  0.3633  0.7157 -0.2514
 3155TIP3    H1 9471   2.820   3.340   3.793  0.8574  0.5611 -1.2271
 3155TIP3    H2 9472   2.760   3.470   3.841  0.5709 -0.1185  0.3334
 3156TIP3   OH2 9473   2.236   0.043   4.334 -0.5926 -0.0933 -0.2435
 3156TIP3    H1 9474   2.237   0.060   4.428  3.9670 -0.0976 -0.0628
 3156TIP3    H2 9475   2.188  -0.039   4.325 -1.1955 -0.0613  2.0604
 3157TIP3   OH2 9476   5.493   3.078   3.132  0.0068 -0.3249  0.6152
 3157TIP3    H1 9477   5.447   3.012   3.183  0.1017 -0.2885  0.7500
 3157TIP3    H2 9478   5.451   3.077   3.046  1.0284 -1.6894  0.0896
 3158TIP3   OH2 9479   0.731   3.884   4.483  0.1485 -0.0011  0.1130
 3158TIP3    H1 9480   0.687   3.799   4.479  0.2321 -0.0393 -0.0035
 3158TIP3    H2 9481   0.723   3.911   4.574  2.1010 -1.1754  0.6781
 3159TIP3   OH2 9482   5.493   2.800   3.586  0.3094  0.1668 -0.1626
 3159TIP3    H1 9483   5.469   2.829   3.497  1.7941  0.4428 -0.5039
 3159TIP3    H2 9484   5.513   2.707   3.576  2.0323  0.5426 -0.4829
 3160TIP3   OH2 9485   6.017   3.088   1.039  0.1183 -1.0717 -0.0917
 3160TIP3    H1 9486   6.062   3.167   1.069 -1.1016 -0.2239 -0.3687
 3160TIP3    H2 9487   6.087   3.027   1.016  1.1064  0.1123 -0.3398
 3161TIP3   OH2 9488   6.108   2.834   3.315  0.3965  0.1105  0.4002
 3161TIP3    H1 9489   6.089   2.826   3.222  1.7985 -0.5363  0.1395
 3161TIP3    H2 9490   6.024   2.855   3.356 -1.1297 -3.5521 -0.4866
 3162TIP3   OH2 9491   1.470   1.724   3.407  0.4759 -0.0720  0.2821
 3162TIP3    H1 9492   1.384   1.691   3.435  0.4638 -0.1805  0.1145
 3162TIP3    H2 9493   1.458   1.749   3.316  0.2461  1.2220  0.6444
 3163TIP3   OH2 9494   0.354   5.923   3.140  0.5599 -0.1862  0.0286
 3163TIP3    H1 9495   0.293   5.915   3.066 -1.1075  1.2253  1.1580
 3163TIP3    H2 9496   0.382   6.015   3.138 -0.1468  0.0965  1.5787
 3164TIP3   OH2 9497   2.519   2.290   4.706  0.3591  0.0047 -0.2174
 3164TIP3    H1 9498   2.425   2.277   4.721  0.1021 -0.3908 -1.9892
 3164TIP3    H2 9499   2.555   2.201   4.702  0.6378  0.1280 -0.4983
 3165TIP3   OH2 9500   0.637   4.698   2.452 -0.1856 -0.3163 -0.6219
 3165TIP3    H1 9501   0.727   4.667   2.446  0.3399  0.5685  1.5802
 3165TIP3    H2 9502   0.640   4.787   2.416  0.5852  0.8819  2.1033
 3166TIP3   OH2 9503   5.481   4.429   3.353 -0.3426 -0.1487 -0.6652
 3166TIP3    H1 9504   5.413   4.398   3.293 -1.0232  2.3254 -1.3246
 3166TIP3    H2 9505   5.506   4.352   3.404 -1.0132 -1.9585 -2.8884
 3167TIP3   OH2 9506   6.286   3.500   1.576  0.1529  0.0884  0.0350
 3167TIP3    H1 9507   6.307   3.584   1.535  1.5997 -0.0383  0.4853
 3167TIP3    H2 9508   6.331   3.502   1.661 -0.0289 -1.0211  0.1763
 3168TIP3   OH2 9509   2.256   4.230   5.167 -0.6313  0.4267 -0.2416
 3168TIP3    H1 9510   2.321   4.293   5.137 -1.0733  1.3815  0.7443
 3168TIP3    H2 9511   2.282   4.147   5.126  0.7472  0.9567 -0.4822
 3169TIP3   OH2 9512   4.320   4.939   4.140  0.9630  0.0707 -0.2953
 3169TIP3    H1 9513   4.280   4.856   4.112  2.3924 -0.3247 -1.2937
 3169TIP3    H2 9514   4.411   4.932   4.111  1.4845  1.3916  0.9273
 3170TIP3   OH2 9515   4.641   5.850   0.044  0.3565  0.2878  0.3930
 3170TIP3    H1 9516   4.682   5.802   0.116  0.5240 -2.5404 -1.4448
 3170TIP3    H2 9517   4.549   5.857   0.069  0.8579  1.8215  2.0563
 3171TIP3   OH2 9518   6.209   5.953   1.089 -0.2973  0.3996  0.0366
 3171TIP3    H1 9519   6.258   6.023   1.046  1.2306 -0.2539  0.6458
 3171TIP3    H2 9520   6.273   5.911   1.146 -1.6076 -0.4503  0.9183
 3172TIP3   OH2 9521   2.051   4.735   4.982 -0.0904 -0.5722 -0.6721
 3172TIP3    H1 9522   2.064   4.830   4.989  1.0122 -0.7054 -0.7207
 3172TIP3    H2 9523   2.011   4.711   5.065 -2.0554  0.1743 -1.3413
 3173TIP3   OH2 9524   6.205   2.521   3.241 -0.1253 -0.2407  0.2785
 3173TIP3    H1 9525   6.253   2.491   3.318  1.2934  0.8554 -0.1373
 3173TIP3    H2 9526   6.195   2.615   3.255 -1.1656 -0.2731 -0.1918
 3174TIP3   OH2 9527   0.947   4.875   2.132 -0.1916 -0.0707  0.1082
 3174TIP3    H1 9528   0.958   4.965   2.101  0.1965  0.5953  2.0202
 3174TIP3    H2 9529   0.960   4.821   2.054  0.0323  1.4957 -0.9928
 3175TIP3   OH2 9530   5.743   0.080   1.218 -0.2518 -0.5282  0.0069
 3175TIP3    H1 9531   5.834   0.105   1.232 -0.0820 -1.6785  1.1332
 3175TIP3    H2 9532   5.746  -0.015   1.204 -1.4105 -0.8746  1.8056
 3176TIP3   OH2 9533   3.625   3.291   3.297 -0.4550 -0.0376 -0.8417
 3176TIP3    H1 9534   3.535   3.289   3.330 -0.4888 -0.7646 -0.9617
 3176TIP3    H2 9535   3.673   3.232   3.356 -0.3261 -0.6377 -1.5246
 3177TIP3   OH2 9536   1.239   2.593   2.019  0.0889  0.2014 -0.2429
 3177TIP3    H1 9537   1.202   2.665   2.069  1.4350  0.8407 -0.1389
 3177TIP3    H2 9538   1.324   2.625   1.989  0.4712 -1.1405 -0.6695
 3178TIP3   OH2 9539   2.656   3.086   0.788 -0.5915 -0.4168 -0.6784
 3178TIP3    H1 9540   2.733   3.035   0.763 -1.7426 -1.3985 -2.4907
 3178TIP3    H2 9541   2.615   3.035   0.858  1.1788  0.9366  1.4867
 3179TIP3   OH2 9542   0.406   4.653   3.328  0.5782  0.2642 -0.4265
 3179TIP3    H1 9543   0.448   4.643   3.242  1.1347  1.1019 -0.2660
 3179TIP3    H2 9544   0.335   4.715   3.313 -0.1115 -0.5360 -0.5282
 3180TIP3   OH2 9545   2.019   0.695   4.346 -0.1256  0.0555  0.4732
 3180TIP3    H1 9546   2.087   0.639   4.383 -1.5018 -1.7985  0.3121
 3180TIP3    H2 9547   2.059   0.732   4.267  0.5029 -1.5120  0.0290
 3181TIP3   OH2 9548   1.627   4.727   2.125 -0.0370 -0.0708 -0.1356
 3181TIP3    H1 9549   1.638   4.819   2.152 -0.9782 -0.6225  2.3029
 3181TIP3    H2 9550   1.707   4.708   2.075 -0.7419  2.6425 -2.5526
 3182TIP3   OH2 9551   2.967   2.910   3.279  0.0157 -0.0118 -0.3678
 3182TIP3    H1 9552   3.016   2.912   3.196  0.0967 -0.8620 -0.3526
 3182TIP3    H2 9553   2.958   2.817   3.299  0.5420  0.1869  0.8999
 3183TIP3   OH2 9554   1.845   1.822   4.915  0.3208 -0.0317 -0.0000
 3183TIP3    H1 9555   1.883   1.792   4.998  3.1777 -0.9109 -1.4726
 3183TIP3    H2 9556   1.812   1.742   4.874 -1.1325  0.4069  0.2806
 3184TIP3   OH2 9557   4.044   2.541   5.049 -0.1897  0.1224  0.5370
 3184TIP3    H1 9558   3.949   2.529   5.051 -0.3109  0.3693 -1.8694
 3184TIP3    H2 9559   4.078   2.459   5.012  0.2201  1.2160 -1.6663
 3185TIP3   OH2 9560   4.734   5.002   2.033 -0.1912 -0.1863 -0.0961
 3185TIP3    H1 9561   4.697   4.917   2.060  2.4055 -1.0777  0.9712
 3185TIP3    H2 9562   4.799   4.979   1.967 -0.5779  1.1728 -0.9690
 3186TIP3   OH2 9563   5.053   1.474   4.499 -0.9727 -0.8955 -0.4696
 3186TIP3    H1 9564   4.979   1.507   4.549 -0.1812  0.5768 -0.2147
 3186TIP3    H2 9565   5.053   1.526   4.418 -1.2792 -2.1393 -1.2929
 3187TIP3   OH2 9566   4.312   5.490   1.080 -0.0819 -0.0856  0.1793
 3187TIP3    H1 9567   4.399   5.489   1.120  0.3266 -0.4020 -0.6931
 3187TIP3    H2 9568   4.254   5.522   1.149  0.2918 -2.3856  1.6692
 3188TIP3   OH2 9569   2.938   5.038   2.474  0.2650 -0.2526 -0.4425
 3188TIP3    H1 9570   2.908   5.109   2.418  0.9916  0.5748  0.1943
 3188TIP3    H2 9571   3.033   5.051   2.481  0.2844 -0.7593  0.4028
 3189TIP3   OH2 9572   2.724   4.743   2.055 -0.2829 -0.3530 -0.4451
 3189TIP3    H1 9573   2.721   4.727   1.961 -0.3186 -1.4664 -0.2725
 3189TIP3    H2 9574   2.809   4.707   2.082 -1.4014 -2.6256  0.3510
 3190TIP3   OH2 9575   3.744   3.575   2.877 -0.4234 -0.4215  0.5299
 3190TIP3    H1 9576   3.838   3.554   2.871 -0.4090 -0.1359 -0.3227
 3190TIP3    H2 9577   3.734   3.613   2.964  0.1639 -0.9040  0.8139
 3191TIP3   OH2 9578   2.753   1.407   4.932 -0.1245  0.5558  0.2987
 3191TIP3    H1 9579   2.666   1.386   4.966 -0.8855 -0.2322 -1.9464
 3191TIP3    H2 9580   2.793   1.321   4.915  0.3812  0.9155 -0.3705
 3192TIP3   OH2 9581   2.775   3.580   3.487 -0.7387  0.5628  0.1311
 3192TIP3    H1 9582   2.732   3.529   3.418  0.0645  0.5838 -0.4037
 3192TIP3    H2 9583   2.748   3.538   3.569 -0.7496 -0.2058 -0.2587
 3193TIP3   OH2 9584   6.287   3.233   1.827  0.2110  0.0406  0.4142
 3193TIP3    H1 9585   6.227   3.291   1.873  0.3388 -0.2195  0.9212
 3193TIP3    H2 9586   6.233   3.185   1.765 -0.1286 -0.2689  0.9426
 3194TIP3   OH2 9587   3.994   3.788   3.863 -0.3560 -0.0474 -0.2632
 3194TIP3    H1 9588   4.019   3.825   3.778  0.4342 -0.5968 -0.2723
 3194TIP3    H2 9589   4.027   3.699   3.862  0.7891  0.3218  1.1119
 3195TIP3   OH2 9590   1.623   5.724   0.798  0.1059  0.0032 -0.1483
 3195TIP3    H1 9591   1.628   5.629   0.790 -0.2905  0.0146 -0.5905
 3195TIP3    H2 9592   1.542   5.740   0.846  0.8300  0.0722  1.0833
 3196TIP3   OH2 9593   3.303   2.992   3.025  0.4419  0.4272  0.3183
 3196TIP3    H1 9594   3.214   2.959   3.012  0.7054 -0.5827  0.9239
 3196TIP3    H2 9595   3.292   3.070   3.080 -0.1488  0.9729 -0.5591
 3197TIP3   OH2 9596   5.961   3.541   4.639 -0.3114 -0.1711  0.4553
 3197TIP3    H1 9597   5.984   3.565   4.549 -1.9483  0.0427  0.0540
 3197TIP3    H2 9598   5.953   3.625   4.684 -0.7713 -0.2020  0.4414
 3198TIP3   OH2 9599   0.667   4.040   1.377 -0.2619 -0.1456 -0.0625
 3198TIP3    H1 9600   0.610   4.065   1.450  1.9744  0.7333  1.4741
 3198TIP3    H2 9601   0.702   3.955   1.402  0.6337  0.2260 -0.0252
 3199TIP3   OH2 9602   1.260   0.744   5.076  0.1205  0.1080 -0.0149
 3199TIP3    H1 9603   1.219   0.781   5.155 -0.7226  0.2998 -0.5232
 3199TIP3    H2 9604   1.280   0.654   5.100 -0.2771  0.1174  0.3719
 3200TIP3   OH2 9605   3.697   0.146   3.093  0.6138  0.7170 -0.2000
 3200TIP3    H1 9606   3.697   0.204   3.169 -0.8016  2.5230 -1.4913
 3200TIP3    H2 9607   3.634   0.185   3.033 -1.3827 -2.8259 -0.7081
 3201TIP3   OH2 9608   4.006   1.610   4.012 -0.1546  0.2940  0.2559
 3201TIP3    H1 9609   4.019   1.672   4.083  0.8334  3.1059 -2.1492
 3201TIP3    H2 9610   4.083   1.622   3.955 -0.1127 -2.9068 -0.6051
 3202TIP3   OH2 9611   4.455   2.633   1.758  0.0411  0.1839  0.0448
 3202TIP3    H1 9612   4.402   2.698   1.805 -0.8898  0.4737 -1.3400
 3202TIP3    H2 9613   4.538   2.677   1.741  0.5129 -0.0214  1.6098
 3203TIP3   OH2 9614   4.076   0.615   1.548  0.2618 -0.0162  0.2999
 3203TIP3    H1 9615   4.132   0.544   1.516 -0.3377  0.1174 -1.0995
 3203TIP3    H2 9616   3.991   0.573   1.562 -0.0322  0.3718 -0.3085
 3204TIP3   OH2 9617   2.708   1.360   4.634 -0.2537 -0.2052  0.8286
 3204TIP3    H1 9618   2.737   1.442   4.673  0.2606  0.0053  0.0237
 3204TIP3    H2 9619   2.672   1.310   4.708 -0.2117  0.5751  1.3924
 3205TIP3   OH2 9620   3.646   4.295   0.252  0.3870 -0.5286  0.0666
 3205TIP3    H1 9621   3.592   4.313   0.175  0.2454 -0.2071  0.2377
 3205TIP3    H2 9622   3.599   4.336   0.324  1.1045  0.2054  0.1361
 3206TIP3   OH2 9623   5.665   1.360   0.561 -0.1086 -0.3010  0.4082
 3206TIP3    H1 9624   5.716   1.414   0.500  0.1862 -0.2286  0.7193
 3206TIP3    H2 9625   5.575   1.368   0.529  0.2810 -1.9004 -1.2343
 3207TIP3   OH2 9626   4.931   4.984   0.149  0.1568 -1.0085  0.4460
 3207TIP3    H1 9627   4.990   4.945   0.213 -0.5593 -1.0396  1.1044
 3207TIP3    H2 9628   4.971   5.068   0.127 -0.8667  0.2507  2.9449
 3208TIP3   OH2 9629   3.909   1.555   2.697  0.1288  0.0175  0.0614
 3208TIP3    H1 9630   3.889   1.469   2.733  0.1143 -0.0111 -0.0160
 3208TIP3    H2 9631   3.996   1.577   2.731  0.1996 -0.0953 -0.0478
 3209TIP3   OH2 9632   2.261   2.973   2.597  0.2566 -0.6831  0.1862
 3209TIP3    H1 9633   2.293   2.915   2.528  0.4391 -0.4153  0.0419
 3209TIP3    H2 9634   2.183   3.014   2.560  1.4085  0.8985 -0.6124
 3210TIP3   OH2 9635   6.217   4.450   3.760 -0.9398  0.2867  0.0348
 3210TIP3    H1 9636   6.270   4.415   3.831 -1.2051  0.0672  0.1259
 3210TIP3    H2 9637   6.152   4.381   3.742  0.0818 -0.3228 -1.4585
 3211TIP3   OH2 9638   6.160   4.846   2.883  0.2324 -0.3137 -0.1149
 3211TIP3    H1 9639   6.250   4.835   2.851  1.1295  1.1887  1.6963
 3211TIP3    H2 9640   6.138   4.937   2.863 -0.2390 -0.1820  0.9140
 3212TIP3   OH2 9641   0.213   0.471   4.321  0.1457 -0.0520  0.6050
 3212TIP3    H1 9642   0.272   0.542   4.296  0.0391 -0.7297 -1.7322
 3212TIP3    H2 9643   0.239   0.450   4.411  1.9805  1.1342  0.4130
 3213TIP3   OH2 9644   5.546   0.569   1.996  0.0944 -0.4105 -0.3681
 3213TIP3    H1 9645   5.539   0.572   2.092  2.5460 -1.1789 -0.0964
 3213TIP3    H2 9646   5.465   0.527   1.968 -0.9338  0.3512  1.3121
 3214TIP3   OH2 9647   1.824   1.602   4.720  0.0866  0.1684  0.1487
 3214TIP3    H1 9648   1.908   1.573   4.686 -0.2536 -0.5185 -0.1218
 3214TIP3    H2 9649   1.762   1.535   4.693 -0.4547  0.3681  0.8390
 3215TIP3   OH2 9650   0.435   1.088   4.659 -0.3090  0.5015 -0.3541
 3215TIP3    H1 9651   0.513   1.132   4.692 -0.2299 -1.3905  2.3726
 3215TIP3    H2 9652   0.364   1.150   4.674  0.1558  0.7739  0.8684
 3216TIP3   OH2 9653   2.648   4.454   3.317 -0.0021  0.2776  0.1994
 3216TIP3    H1 9654   2.582   4.493   3.373  0.3456  0.6065  0.3897
 3216TIP3    H2 9655   2.610   4.372   3.287  0.4653 -0.7817  2.3175
 3217TIP3   OH2 9656   6.066   3.282   4.251  0.4561 -0.0531 -0.3837
 3217TIP3    H1 9657   6.041   3.274   4.159  2.0207 -0.9777 -0.7763
 3217TIP3    H2 9658   6.151   3.237   4.256  0.7601  0.6542  1.3559
 3218TIP3   OH2 9659   4.107   2.717   2.691  0.1569  0.1339 -0.6415
 3218TIP3    H1 9660   4.077   2.632   2.722 -1.0354  0.2963 -1.3112
 3218TIP3    H2 9661   4.194   2.700   2.655  0.4298 -0.5625  0.3185
 3219TIP3   OH2 9662   5.698   3.304   4.057 -0.6091  0.4133 -0.0926
 3219TIP3    H1 9663   5.746   3.386   4.053 -0.8398  0.5979  0.7639
 3219TIP3    H2 9664   5.664   3.291   3.968  2.3955 -0.5798 -1.2008
 3220TIP3   OH2 9665   5.306   1.075   0.814  0.0060  0.3210 -0.3856
 3220TIP3    H1 9666   5.334   1.041   0.729 -0.4557 -1.3950  0.1206
 3220TIP3    H2 9667   5.335   1.010   0.877 -2.2778  0.0576  0.4852
 3221TIP3   OH2 9668   5.751   0.349   1.528  0.3832 -0.1340 -0.4623
 3221TIP3    H1 9669   5.681   0.315   1.473 -0.5498  2.1906 -0.8108
 3221TIP3    H2 9670   5.711   0.357   1.615  0.8181 -0.6021 -0.2150
 3222TIP3   OH2 9671   4.447   5.096   2.101  0.2769  0.4344  0.5198
 3222TIP3    H1 9672   4.533   5.065   2.073  0.0224 -0.0371  0.2522
 3222TIP3    H2 9673   4.385   5.051   2.044 -0.1265  1.0818  0.4399
 3223TIP3   OH2 9674   2.928   1.886   0.200 -0.0828 -0.0120 -0.2738
 3223TIP3    H1 9675   3.023   1.880   0.189  0.0252  0.1754  0.4709
 3223TIP3    H2 9676   2.897   1.931   0.121  0.4180 -0.2860 -0.6293
 3224TIP3   OH2 9677   0.214   3.673   4.414 -0.3641 -0.0643  0.3016
 3224TIP3    H1 9678   0.134   3.721   4.433  0.1854  0.9895  0.0660
 3224TIP3    H2 9679   0.188   3.581   4.412 -1.4956  0.2407  0.5308
 3225TIP3   OH2 9680   1.088   4.992   2.969  0.2527  0.0527 -0.5672
 3225TIP3    H1 9681   1.080   4.931   2.896 -0.9795 -0.3823 -0.0957
 3225TIP3    H2 9682   1.070   4.939   3.046 -1.0764  1.0355 -0.1664
 3226TIP3   OH2 9683   2.591   3.519   2.905  0.3881  0.2249 -0.3403
 3226TIP3    H1 9684   2.586   3.561   2.819  0.5941 -2.1916 -1.6140
 3226TIP3    H2 9685   2.500   3.509   2.932  0.3094  0.5605 -0.4739
 3227TIP3   OH2 9686   1.153   4.021   4.798 -0.0389  0.0384  0.9662
 3227TIP3    H1 9687   1.192   3.962   4.734  2.8689 -0.3575  2.9347
 3227TIP3    H2 9688   1.062   4.031   4.769  0.9008 -0.6670 -2.7342
 3228TIP3   OH2 9689   4.108   3.666   3.269 -0.0896 -0.2200  0.0381
 3228TIP3    H1 9690   4.127   3.675   3.176  1.8750  0.9818  0.4831
 3228TIP3    H2 9691   4.025   3.619   3.273 -1.4727  1.8386 -2.3431
 3229TIP3   OH2 9692   3.674   2.274   4.917 -0.0466  0.1537 -0.1190
 3229TIP3    H1 9693   3.633   2.191   4.943  1.1210  0.0539  1.5335
 3229TIP3    H2 9694   3.726   2.251   4.839  0.4944 -0.7675  0.4868
 3230TIP3   OH2 9695   1.227   3.802   4.323 -0.5129  0.2512  0.3386
 3230TIP3    H1 9696   1.225   3.770   4.232 -0.6250 -0.7484  0.6717
 3230TIP3    H2 9697   1.246   3.895   4.316  1.4401 -0.1700 -0.6412
 3231TIP3   OH2 9698   1.786   2.807   1.518  0.1378  0.3473 -1.2966
 3231TIP3    H1 9699   1.855   2.854   1.471  0.4834 -0.2879 -1.4476
 3231TIP3    H2 9700   1.731   2.875   1.555  1.1028  0.8842 -0.8027
 3232TIP3   OH2 9701   0.849   0.496   0.241  0.1741  0.5078  0.1880
 3232TIP3    H1 9702   0.827   0.561   0.307  0.6096 -0.1434  0.9814
 3232TIP3    H2 9703   0.858   0.547   0.160 -0.8153  1.2411  0.5274
 3233TIP3   OH2 9704   5.326   2.827   2.486  0.1616 -0.1994  0.2423
 3233TIP3    H1 9705   5.301   2.862   2.401  1.1900 -0.8446 -0.3410
 3233TIP3    H2 9706   5.257   2.857   2.545 -0.6586  0.1107 -0.8408
 3234TIP3   OH2 9707   2.258   4.220   4.504  0.0685  0.4686  0.7005
 3234TIP3    H1 9708   2.272   4.152   4.570  0.8398  0.7387  0.8276
 3234TIP3    H2 9709   2.164   4.217   4.486 -0.3547  1.0872  2.5885
 3235TIP3   OH2 9710   3.352   3.139   1.810  0.3492 -0.3259 -0.0319
 3235TIP3    H1 9711   3.431   3.168   1.766  0.5119 -0.3976  0.2159
 3235TIP3    H2 9712   3.281   3.165   1.751  0.6774 -2.2698 -1.3775
 3236TIP3   OH2 9713   2.630   3.912   2.844 -0.1984  0.6154  0.7183
 3236TIP3    H1 9714   2.634   3.991   2.898  0.6769 -0.2090  1.9253
 3236TIP3    H2 9715   2.718   3.875   2.850 -0.1659  0.3197 -1.0549
 3237TIP3   OH2 9716   3.875   5.667   3.130 -0.1818  0.5995 -0.3909
 3237TIP3    H1 9717   3.802   5.720   3.097 -0.7362  0.5884  0.7368
 3237TIP3    H2 9718   3.942   5.730   3.156 -0.4988  0.7222  0.1585
 3238TIP3   OH2 9719   1.085   4.331   4.166 -0.5529  0.1743  0.0435
 3238TIP3    H1 9720   0.998   4.354   4.133 -0.9856 -0.3398  0.7938
 3238TIP3    H2 9721   1.142   4.401   4.134 -1.0148 -0.0950 -1.4455
 3239TIP3   OH2 9722   2.437   0.637   1.625  0.0563  0.3122 -0.1338
 3239TIP3    H1 9723   2.469   0.708   1.570 -1.5974  0.9230 -0.3734
 3239TIP3    H2 9724   2.382   0.585   1.566 -1.2734  0.6411  0.7766
 3240TIP3   OH2 9725   2.160   2.003   3.418 -0.3617  0.2852  0.0741
 3240TIP3    H1 9726   2.203   1.938   3.472  0.8103  0.4982 -0.5687
 3240TIP3    H2 9727   2.074   2.015   3.458  0.0076 -0.4786  1.1290
 3241TIP3   OH2 9728   0.819   3.013   0.401 -0.1293  0.4316 -0.3973
 3241TIP3    H1 9729   0.876   2.950   0.445  1.1485  1.0254 -1.1487
 3241TIP3    H2 9730   0.859   3.025   0.315 -1.8252  0.3075 -1.2460
 3242TIP3   OH2 9731   4.647   4.431   4.530 -0.3364 -0.3240  0.4454
 3242TIP3    H1 9732   4.741   4.413   4.537 -0.5238 -1.1461  0.8977
 3242TIP3    H2 9733   4.619   4.383   4.452 -0.4898 -0.5359  0.6307
 3243TIP3   OH2 9734   0.583   2.137   3.967 -0.5548 -0.0324  0.3074
 3243TIP3    H1 9735   0.530   2.072   3.922 -0.9053 -1.0165  2.0315
 3243TIP3    H2 9736   0.569   2.218   3.918 -1.6596 -0.8218 -0.7362
 3244TIP3   OH2 9737   4.037   5.679   0.428 -0.4597 -0.4032  0.5618
 3244TIP3    H1 9738   4.066   5.619   0.360  0.1401 -0.4355  0.8418
 3244TIP3    H2 9739   3.966   5.729   0.388 -0.5056 -0.8261  0.1100
 3245TIP3   OH2 9740   3.948   5.360   1.907 -0.0852 -0.3643  0.4361
 3245TIP3    H1 9741   3.974   5.311   1.829 -0.2587  0.0820  0.0926
 3245TIP3    H2 9742   3.904   5.438   1.872 -1.4217 -0.8434  0.9940
 3246TIP3   OH2 9743   0.128   1.644   4.689  0.1466 -0.0504 -0.6908
 3246TIP3    H1 9744   0.058   1.698   4.653  0.2884 -0.3226 -1.3862
 3246TIP3    H2 9745   0.150   1.686   4.772 -0.8149  0.0564 -0.4765
 3247TIP3   OH2 9746   5.924   0.713   3.485 -0.4819  0.8418  0.4432
 3247TIP3    H1 9747   5.992   0.720   3.552 -0.5741  0.2106  0.6106
 3247TIP3    H2 9748   5.947   0.780   3.420  0.7261  0.1532  0.1328
 3248TIP3   OH2 9749   5.173   2.869   3.086 -0.1793  0.3604  0.1271
 3248TIP3    H1 9750   5.110   2.804   3.117  0.2240 -0.0565  0.0840
 3248TIP3    H2 9751   5.255   2.846   3.129  0.5105 -0.5089 -1.5619
 3249TIP3   OH2 9752   1.983   1.939   4.601 -0.0346 -0.1824  0.5436
 3249TIP3    H1 9753   1.983   1.897   4.687 -0.4169  0.0041  0.6395
 3249TIP3    H2 9754   2.013   1.871   4.541 -0.6118 -0.5896  0.7049
 3250TIP3   OH2 9755   4.555   0.369   4.799 -0.0350 -0.5220 -0.1292
 3250TIP3    H1 9756   4.584   0.294   4.748  0.6742  1.1248 -2.3238
 3250TIP3    H2 9757   4.461   0.373   4.785 -0.0585 -0.9394 -0.0976
 3251TIP3   OH2 9758   0.419   4.320   3.730 -0.1704  0.0722  0.0949
 3251TIP3    H1 9759   0.349   4.283   3.677  0.5742  0.4454 -1.1875
 3251TIP3    H2 9760   0.428   4.410   3.698  2.0735 -0.4917 -1.0569
 3252TIP3   OH2 9761   6.122   3.558   0.659 -0.3137 -1.0402  0.4540
 3252TIP3    H1 9762   6.146   3.470   0.629  1.3206 -0.6456  0.5298
 3252TIP3    H2 9763   6.037   3.575   0.618  0.4518 -1.7021 -1.5053
 3253TIP3   OH2 9764   5.694   2.125   1.211 -0.2859  0.3273 -0.7173
 3253TIP3    H1 9765   5.705   2.035   1.243  2.0974  1.5390  2.4360
 3253TIP3    H2 9766   5.614   2.156   1.253 -0.4610  0.0611 -0.8508
 3254TIP3   OH2 9767   4.195   0.122   1.555 -0.2923 -0.6250  0.1629
 3254TIP3    H1 9768   4.240   0.116   1.639 -0.3942 -0.8997  0.1974
 3254TIP3    H2 9769   4.187   0.032   1.525  1.8484 -0.4012 -1.2726
 3255TIP3   OH2 9770   5.434   1.333   3.938 -0.2600 -0.2485 -0.0532
 3255TIP3    H1 9771   5.369   1.401   3.921  0.5734  0.6155  0.1453
 3255TIP3    H2 9772   5.385   1.263   3.981 -1.0054  0.4921  0.3257
 3256TIP3   OH2 9773   0.953   5.524   3.503 -0.2686 -0.9054 -0.3451
 3256TIP3    H1 9774   0.954   5.618   3.484  0.4608 -0.5818  1.1370
 3256TIP3    H2 9775   0.871   5.510   3.550  1.1860 -0.2364  2.6677
 3257TIP3   OH2 9776   3.625   2.465   3.313  0.1137 -0.2285 -0.0663
 3257TIP3    H1 9777   3.574   2.462   3.393  1.5387 -0.7023  0.8677
 3257TIP3    H2 9778   3.568   2.507   3.249 -0.7108  1.0454  1.4448
 3258TIP3   OH2 9779   4.618   2.006   0.514  0.1549  0.4089 -0.0435
 3258TIP3    H1 9780   4.709   2.035   0.527 -0.2396  2.1569 -0.8847
 3258TIP3    H2 9781   4.578   2.076   0.463 -2.6866  1.5770  3.3646
 3259TIP3   OH2 9782   4.093   4.568   1.572  0.2754 -0.7700  0.3082
 3259TIP3    H1 9783   4.042   4.582   1.493 -0.1359 -0.1849  0.6703
 3259TIP3    H2 9784   4.074   4.644   1.627  2.4887  0.0894 -0.0262
 3260TIP3   OH2 9785   4.958   0.969   1.452  0.2254  0.6359 -0.5716
 3260TIP3    H1 9786   4.876   1.012   1.426  0.1441  1.0001  0.2522
 3260TIP3    H2 9787   5.024   1.010   1.396  0.0241  1.2364 -0.3872
 3261TIP3   OH2 9788   1.741   4.195   2.218 -0.2958  0.6053 -0.5576
 3261TIP3    H1 9789   1.804   4.135   2.177 -0.4606 -0.0091  0.0887
 3261TIP3    H2 9790   1.752   4.277   2.169 -0.4295 -0.0870 -1.7880
 3262TIP3   OH2 9791   5.136   5.730   4.511 -0.3931  0.0155  0.1185
 3262TIP3    H1 9792   5.229   5.734   4.492 -0.6184  0.7890 -0.9333
 3262TIP3    H2 9793   5.119   5.810   4.562 -0.5518  0.0753 -0.0289
 3263TIP3   OH2 9794   1.664   1.532   3.347  0.0568  0.2813 -0.4186
 3263TIP3    H1 9795   1.596   1.599   3.345  0.5038  0.7618 -3.0366
 3263TIP3    H2 9796   1.721   1.558   3.420 -2.1846  0.1486  1.4930
 3264TIP3   OH2 9797   1.830   3.662   5.149 -0.5925 -0.2450 -0.1402
 3264TIP3    H1 9798   1.767   3.593   5.171 -0.5334  0.4343  2.4887
 3264TIP3    H2 9799   1.779   3.743   5.150 -0.1440  0.0458 -0.4930
 3265TIP3   OH2 9800   1.027   1.131   3.001  0.0929 -0.1748  0.3869
 3265TIP3    H1 9801   0.984   1.056   2.959  0.0882  0.0114  0.0541
 3265TIP3    H2 9802   1.091   1.162   2.936  0.4052 -0.1615  0.6952
 3266TIP3   OH2 9803   5.378   0.489   2.891 -0.1088  0.1905 -0.2068
 3266TIP3    H1 9804   5.345   0.494   2.980  0.9586  2.4631  0.1349
 3266TIP3    H2 9805   5.300   0.501   2.836 -0.4560  1.1520  0.4742
 3267TIP3   OH2 9806   5.997   4.435   1.241 -0.5971  0.2875  0.0122
 3267TIP3    H1 9807   5.944   4.458   1.318 -0.5171 -0.9238  0.4406
 3267TIP3    H2 9808   6.081   4.406   1.278 -0.7807 -0.9166 -0.4879
 3268TIP3   OH2 9809   0.989   5.785   0.469 -0.2731 -0.5512  0.0277
 3268TIP3    H1 9810   0.994   5.697   0.508  0.3550  0.4093  2.2693
 3268TIP3    H2 9811   1.023   5.843   0.536 -1.4921  1.5492 -1.0545
 3269TIP3   OH2 9812   4.132   5.949   1.107  0.1916 -0.2860 -0.2778
 3269TIP3    H1 9813   4.158   5.985   1.022  0.9911 -2.0355 -0.8354
 3269TIP3    H2 9814   4.062   5.887   1.085 -1.1081  0.8023  0.6345
 3270TIP3   OH2 9815   5.336   1.806   0.951  0.2803  0.0631 -0.7321
 3270TIP3    H1 9816   5.425   1.797   0.986 -0.3560 -1.3554  0.6117
 3270TIP3    H2 9817   5.320   1.901   0.951  1.5643  0.2986 -0.4291
 3271TIP3   OH2 9818   0.134   4.418   4.716 -0.2906 -0.7985 -0.2900
 3271TIP3    H1 9819   0.159   4.419   4.808 -0.7446 -1.0873 -0.1605
 3271TIP3    H2 9820   0.182   4.491   4.677 -3.1867  2.0271  0.9966
 3272TIP3   OH2 9821   2.902   3.626   2.694  0.0257 -0.3049  0.0859
 3272TIP3    H1 9822   2.835   3.559   2.678 -1.2217  0.8186  0.4421
 3272TIP3    H2 9823   2.913   3.670   2.609  0.1555 -0.3398  0.0835
 3273TIP3   OH2 9824   5.589   4.566   4.909  0.4111 -0.5889 -0.4204
 3273TIP3    H1 9825   5.647   4.599   4.841  0.7259 -1.5080 -0.6094
 3273TIP3    H2 9826   5.641   4.502   4.957 -0.9439 -2.8158 -1.7343
 3274TIP3   OH2 9827   1.367   0.451   1.150  0.4377 -0.3498  0.2557
 3274TIP3    H1 9828   1.311   0.528   1.141 -0.4337 -0.6520  2.6170
 3274TIP3    H2 9829   1.450   0.486   1.183  0.4309 -0.2981  0.2182
 3275TIP3   OH2 9830   4.600   5.304   3.341  0.0263 -0.1279 -0.1042
 3275TIP3    H1 9831   4.629   5.258   3.262  0.9268  0.8848 -0.3771
 3275TIP3    H2 9832   4.504   5.301   3.335  0.0247  1.6363 -2.2945
 3276TIP3   OH2 9833   2.669   4.094   4.002 -0.0102 -0.0763 -0.0070
 3276TIP3    H1 9834   2.679   4.188   3.994  0.3796 -0.1973 -0.9934
 3276TIP3    H2 9835   2.658   4.062   3.913  2.0312 -1.2034  0.0925
 3277TIP3   OH2 9836   5.687   1.484   1.652 -0.1106  0.5513 -0.2575
 3277TIP3    H1 9837   5.692   1.524   1.739 -0.6814 -0.0618  0.0668
 3277TIP3    H2 9838   5.620   1.416   1.660  2.0849 -1.8145 -0.2102
 3278TIP3   OH2 9839   5.402   4.390   3.723  0.2607  0.2923 -0.1660
 3278TIP3    H1 9840   5.368   4.479   3.713  0.9727  0.6046  0.1255
 3278TIP3    H2 9841   5.480   4.388   3.667 -0.7951 -0.7520 -1.6932
 3279TIP3   OH2 9842   2.251   0.872   2.096 -0.0240 -0.4382 -0.0504
 3279TIP3    H1 9843   2.345   0.888   2.089  0.3132 -1.1864  1.8648
 3279TIP3    H2 9844   2.211   0.935   2.037  1.6203  1.0607  0.3293
 3280TIP3   OH2 9845   5.638   2.419   1.685 -0.0991 -0.8415 -0.3848
 3280TIP3    H1 9846   5.673   2.475   1.616 -2.1290 -0.5589 -1.2568
 3280TIP3    H2 9847   5.675   2.454   1.766  1.5942 -0.5967 -1.2194
 3281TIP3   OH2 9848   0.700   3.471   0.352  0.1452  0.1238 -0.1900
 3281TIP3    H1 9849   0.620   3.507   0.314  0.1713 -1.3703 -1.7383
 3281TIP3    H2 9850   0.702   3.380   0.323  1.2949 -0.4931  1.6508
 3282TIP3   OH2 9851   4.531   0.276   0.706 -0.1588  0.0509 -0.2363
 3282TIP3    H1 9852   4.541   0.327   0.786  1.1556 -0.0081 -0.3364
 3282TIP3    H2 9853   4.518   0.341   0.637 -0.0036  0.1662 -0.1571
 3283TIP3   OH2 9854   3.997   4.529   3.137  0.1347 -0.0791  0.0745
 3283TIP3    H1 9855   4.023   4.575   3.057 -1.2361  0.2043 -0.2245
 3283TIP3    H2 9856   3.981   4.599   3.201 -0.9994 -0.1647 -0.0943
 3284TIP3   OH2 9857   1.886   3.295   3.401  0.4141  0.2897 -0.0057
 3284TIP3    H1 9858   1.927   3.219   3.360  0.1131 -0.9380  1.8550
 3284TIP3    H2 9859   1.954   3.362   3.399  0.5557  0.1557 -2.0349
 3285TIP3   OH2 9860   1.688   3.662   3.592 -0.0498 -0.4597  0.0868
 3285TIP3    H1 9861   1.636   3.642   3.515 -0.7684  0.2479  0.3763
 3285TIP3    H2 9862   1.657   3.602   3.659  0.6707 -1.1705 -0.1940
 3286TIP3   OH2 9863   1.318   0.260   3.643  0.0853 -0.1377 -0.4378
 3286TIP3    H1 9864   1.375   0.297   3.576  0.5929 -2.7725 -1.6198
 3286TIP3    H2 9865   1.317   0.166   3.624 -0.7176 -0.8587  2.5626
 3287TIP3   OH2 9866   0.440   3.110   4.605 -0.3007 -0.5859 -0.3577
 3287TIP3    H1 9867   0.474   3.051   4.539  0.7728 -1.0284  0.5487
 3287TIP3    H2 9868   0.420   3.191   4.558 -0.9866 -1.3820 -1.4597
 3288TIP3   OH2 9869   2.899   2.559   4.681  0.0430 -0.2851 -0.4132
 3288TIP3    H1 9870   2.914   2.606   4.599 -1.2333 -0.5012 -0.7872
 3288TIP3    H2 9871   2.976   2.579   4.734  0.2195  1.0286 -1.1215
 3289TIP3   OH2 9872   5.653   5.314   3.791  0.2804 -0.4712  0.4758
 3289TIP3    H1 9873   5.693   5.247   3.847  0.3641 -2.2522 -1.5865
 3289TIP3    H2 9874   5.728   5.360   3.752  0.2243  0.3579  1.3111
 3290TIP3   OH2 9875   5.911   2.912   2.620 -0.7893 -0.2676 -0.6305
 3290TIP3    H1 9876   5.908   2.932   2.526  1.6851 -0.9544 -0.9370
 3290TIP3    H2 9877   5.838   2.852   2.634 -2.3768  1.3334 -1.6874
 3291TIP3   OH2 9878   1.374   1.190   1.108  0.4759 -0.1639  0.0761
 3291TIP3    H1 9879   1.366   1.196   1.204 -0.6553 -0.1264 -0.0074
 3291TIP3    H2 9880   1.285   1.207   1.076  1.3943  3.0904 -1.1606
 3292TIP3   OH2 9881   4.512   0.383   1.621 -0.5059  0.3029  0.3414
 3292TIP3    H1 9882   4.522   0.409   1.713  0.4938 -1.7994  0.8852
 3292TIP3    H2 9883   4.581   0.431   1.575  0.9561 -0.8803  1.2199
 3293TIP3   OH2 9884   4.723   1.510   0.417  0.3903  0.1178  0.3542
 3293TIP3    H1 9885   4.680   1.453   0.353 -3.3638  0.0159  2.6869
 3293TIP3    H2 9886   4.788   1.453   0.459  0.8421 -0.6370 -1.2787
 3294TIP3   OH2 9887   3.038   4.978   4.855 -0.0582 -0.5255 -0.0205
 3294TIP3    H1 9888   3.080   4.926   4.924 -0.2865  0.7125  1.0891
 3294TIP3    H2 9889   3.105   5.039   4.826 -0.5831  0.3746  0.6179
 3295TIP3   OH2 9890   0.031   4.760   5.180 -0.4805  0.0195  0.4038
 3295TIP3    H1 9891   0.035   4.745   5.086 -2.3142 -4.4387  0.7930
 3295TIP3    H2 9892   0.106   4.712   5.215 -1.9512 -1.6936  1.3675
 3296TIP3   OH2 9893   2.911   0.658   4.610  0.2775  0.7393 -0.1707
 3296TIP3    H1 9894   2.997   0.616   4.607 -0.5667 -1.2619  1.1830
 3296TIP3    H2 9895   2.879   0.655   4.520 -0.4380 -3.3226  0.0027
 3297TIP3   OH2 9896   1.282   4.455   1.320  0.0290 -0.7037  0.2804
 3297TIP3    H1 9897   1.307   4.525   1.259 -1.3745 -1.5596 -1.3670
 3297TIP3    H2 9898   1.237   4.500   1.391  1.2123  0.2581  0.4646
 3298TIP3   OH2 9899   2.621   3.417   3.317 -0.3151  0.4001  0.3172
 3298TIP3    H1 9900   2.658   3.346   3.265 -1.5844  0.0862 -0.2192
 3298TIP3    H2 9901   2.554   3.375   3.371  1.0386  0.7133  2.3081
 3299TIP3   OH2 9902   1.326   2.388   0.626 -0.1244  0.1985 -0.1013
 3299TIP3    H1 9903   1.358   2.362   0.539 -0.9088 -0.1943 -0.2738
 3299TIP3    H2 9904   1.296   2.478   0.614 -0.4377  0.0700 -0.2940
 3300TIP3   OH2 9905   1.280   1.668   5.108 -0.6858  0.1375  0.1670
 3300TIP3    H1 9906   1.271   1.760   5.131 -1.1251  0.8051 -2.2979
 3300TIP3    H2 9907   1.374   1.651   5.111 -0.7279  0.1314  2.3351
 3301TIP3   OH2 9908   0.511   0.181   4.294  0.0704 -0.0832 -0.0076
 3301TIP3    H1 9909   0.558   0.192   4.211 -1.2148 -2.0341 -1.0773
 3301TIP3    H2 9910   0.498   0.271   4.326  0.4433  0.7501 -2.0132
 3302TIP3   OH2 9911   0.327   4.633   4.526 -0.0430 -0.1583 -0.2280
 3302TIP3    H1 9912   0.333   4.724   4.497  0.0456 -0.0280  0.1888
 3302TIP3    H2 9913   0.275   4.589   4.459  1.5105 -0.2352 -1.4412
 3303TIP3   OH2 9914   5.042   4.348   0.406 -0.4867 -0.1024 -0.1215
 3303TIP3    H1 9915   5.020   4.256   0.423  0.7260 -0.5029 -0.5289
 3303TIP3    H2 9916   4.963   4.397   0.427 -2.1923 -1.5153 -2.7305
 3304TIP3   OH2 9917   4.700   1.248   3.940 -0.4510 -0.1162  0.5357
 3304TIP3    H1 9918   4.764   1.199   3.991  0.1538  2.3024  2.2970
 3304TIP3    H2 9919   4.746   1.272   3.859 -0.0458 -0.6254  0.6151
 3305TIP3   OH2 9920   3.364   4.034   0.070 -0.5106 -0.0923 -0.3172
 3305TIP3    H1 9921   3.321   4.119   0.079  0.2635  0.2231  0.5967
 3305TIP3    H2 9922   3.292   3.971   0.069 -1.0149  0.4129  1.2630
 3306TIP3   OH2 9923   4.914   4.961   3.079 -0.5657 -0.3494  0.1935
 3306TIP3    H1 9924   4.867   4.973   2.997 -0.5465  0.4249  0.2809
 3306TIP3    H2 9925   4.901   4.869   3.102 -1.8451 -0.2039  0.1031
 3307TIP3   OH2 9926   3.568   4.697   2.651  0.4498 -0.0510  0.2601
 3307TIP3    H1 9927   3.498   4.741   2.699  0.4894 -0.0883  0.3525
 3307TIP3    H2 9928   3.616   4.767   2.607 -0.9413 -0.1716 -1.5576
 3308TIP3   OH2 9929   3.753   5.117   1.600  0.1886  0.1921  0.4313
 3308TIP3    H1 9930   3.707   5.067   1.668  2.5408 -0.5698  1.5960
 3308TIP3    H2 9931   3.731   5.208   1.618 -3.0934 -0.1916 -0.8857
 3309TIP3   OH2 9932   5.807   1.301   0.782 -0.0353 -0.1735  0.2295
 3309TIP3    H1 9933   5.885   1.246   0.770  0.9694  0.9046  1.5352
 3309TIP3    H2 9934   5.774   1.317   0.694  0.9631 -1.0119 -0.3070
 3310TIP3   OH2 9935   2.048   2.794   3.567  0.0767  0.2095  0.1008
 3310TIP3    H1 9936   2.098   2.782   3.486  0.6560 -0.7920  0.5809
 3310TIP3    H2 9937   2.076   2.879   3.600 -1.6232  1.5702 -1.7157
 3311TIP3   OH2 9938   2.481   0.352   3.687  0.4991 -0.1273  0.2723
 3311TIP3    H1 9939   2.555   0.397   3.646  1.0300 -1.0088  0.2430
 3311TIP3    H2 9940   2.520   0.276   3.730 -0.0936  0.4883  2.0282
 3312TIP3   OH2 9941   1.446   5.682   5.073 -0.4031  0.3326 -0.2132
 3312TIP3    H1 9942   1.391   5.699   4.996 -1.1506 -0.3122  0.1688
 3312TIP3    H2 9943   1.385   5.658   5.142  0.3356 -0.0882  0.3142
 3313TIP3   OH2 9944   1.581   2.680   2.568  0.2396 -0.7646 -0.1347
 3313TIP3    H1 9945   1.572   2.627   2.648  1.5777 -0.4786  0.2193
 3313TIP3    H2 9946   1.655   2.738   2.585  0.6900 -0.8405 -1.6598
 3314TIP3   OH2 9947   0.371   2.843   2.144  0.1072  0.3510 -0.3281
 3314TIP3    H1 9948   0.347   2.919   2.197 -1.8900  0.5468 -1.4158
 3314TIP3    H2 9949   0.453   2.869   2.102 -0.2966  1.7369 -0.3182
 3315TIP3   OH2 9950   2.183   3.599   3.987 -0.5085  0.1442  0.3841
 3315TIP3    H1 9951   2.088   3.595   3.991 -0.5088  0.8183  2.8820
 3315TIP3    H2 9952   2.213   3.539   4.056  0.9041 -0.1233 -0.4082
 3316TIP3   OH2 9953   3.765   2.505   5.031  0.5937  0.0663 -0.1535
 3316TIP3    H1 9954   3.730   2.425   4.992  0.6685 -1.3615  2.4613
 3316TIP3    H2 9955   3.698   2.571   5.015  0.2773 -0.6387 -1.9079
 3317TIP3   OH2 9956   5.458   2.453   3.384  0.2365  0.4470  0.4333
 3317TIP3    H1 9957   5.389   2.519   3.380  0.6948  0.8865 -0.4534
 3317TIP3    H2 9958   5.509   2.475   3.462 -1.6405 -0.9416  2.1624
 3318TIP3   OH2 9959   4.973   0.543   0.703  0.6769 -0.2778 -0.4254
 3318TIP3    H1 9960   4.915   0.606   0.660 -0.3984 -1.3811 -0.6455
 3318TIP3    H2 9961   4.976   0.468   0.643  1.5980 -0.6161  0.0180
 3319TIP3   OH2 9962   3.718   3.558   2.081 -0.6841 -0.9431 -0.4209
 3319TIP3    H1 9963   3.811   3.576   2.068 -0.9623  0.0228 -1.1779
 3319TIP3    H2 9964   3.675   3.596   2.005 -1.5607 -2.9257 -0.9821
 3320TIP3   OH2 9965   3.803   0.263   1.004 -0.3565  0.3666 -0.7316
 3320TIP3    H1 9966   3.840   0.327   0.943 -0.6405 -0.7595 -2.1429
 3320TIP3    H2 9967   3.869   0.195   1.011 -0.2167  0.6041  0.4578
 3321TIP3   OH2 9968   5.968   0.344   0.447  0.4132 -0.6324  0.1003
 3321TIP3    H1 9969   5.954   0.309   0.358 -1.0392  0.6496 -0.2141
 3321TIP3    H2 9970   5.921   0.283   0.504  0.4379 -0.8711 -0.1311
 3322TIP3   OH2 9971   2.096   3.786   4.239  0.3477  0.4487 -0.5301
 3322TIP3    H1 9972   2.060   3.697   4.242  0.0868  0.4817  3.5484
 3322TIP3    H2 9973   2.034   3.835   4.186 -0.7342 -1.3338 -1.0305
 3323TIP3   OH2 9974   5.989   2.348   5.006  0.2856  0.3979 -0.0183
 3323TIP3    H1 9975   6.079   2.365   5.034  1.0936 -3.0471 -0.1437
 3323TIP3    H2 9976   5.944   2.322   5.087 -0.5309  1.6046 -0.0506
 3324TIP3   OH2 9977   3.447   0.935   1.893 -0.1929 -0.6864  0.1589
 3324TIP3    H1 9978   3.529   0.985   1.893  0.4061 -1.6340  1.2439
 3324TIP3    H2 9979   3.379   1.001   1.908  0.3754  0.0939 -0.6237
 3325TIP3   OH2 9980   4.655   5.396   0.535 -0.2533  0.5118  0.1787
 3325TIP3    H1 9981   4.732   5.339   0.532 -0.6183  0.0375 -0.4551
 3325TIP3    H2 9982   4.689   5.484   0.519  0.5454  0.7489  2.7648
 3326TIP3   OH2 9983   5.528   1.599   3.363 -0.2959  0.7502  0.2799
 3326TIP3    H1 9984   5.462   1.649   3.315  0.5345 -0.1418 -1.9249
 3326TIP3    H2 9985   5.557   1.532   3.301 -0.5601 -1.8071  2.7030
 3327TIP3   OH2 9986   3.152   4.333   2.573  0.1996 -0.3191 -0.2987
 3327TIP3    H1 9987   3.182   4.243   2.561 -1.9914 -0.9589 -1.6685
 3327TIP3    H2 9988   3.228   4.380   2.607  1.2934 -2.7455  0.8285
 3328TIP3   OH2 9989   3.391   0.543   3.896  0.1339 -0.0860  0.2111
 3328TIP3    H1 9990   3.453   0.545   3.824 -0.4436  2.4126 -0.3130
 3328TIP3    H2 9991   3.444   0.521   3.973  0.9119 -1.8563 -0.7580
 3329TIP3   OH2 9992   4.428   5.056   3.681 -0.2459  0.2134 -0.1959
 3329TIP3    H1 9993   4.510   5.104   3.666 -0.0272 -0.6232 -1.8600
 3329TIP3    H2 9994   4.364   5.125   3.699  1.0708  0.8275  2.8400
 3330TIP3   OH2 9995   1.042   5.521   1.778  0.1838  0.0565 -0.4209
 3330TIP3    H1 9996   1.137   5.511   1.791  0.2661 -1.1763 -1.6960
 3330TIP3    H2 9997   1.034   5.563   1.692 -0.4284  1.8330  0.4587
 3331TIP3   OH2 9998   5.338   0.443   0.668 -0.1194 -0.0654  0.1952
 3331TIP3    H1 9999   5.360   0.530   0.634 -1.3776  0.2152  0.0519
 3331TIP3    H210000   5.367   0.445   0.759 -0.6056  0.7019  0.3439
 3332TIP3   OH210001   0.734   4.944   2.344 -0.5561 -0.2633 -0.3399
 3332TIP3    H110002   0.800   4.995   2.391 -2.0718  1.1076  0.4128
 3332TIP3    H210003   0.775   4.922   2.261  0.7920  0.6830  0.0480
 3333TIP3   OH210004   1.641   3.731   2.269  0.3017  0.0937  0.1895
 3333TIP3    H110005   1.730   3.746   2.238 -0.2720  0.1095 -1.5851
 3333TIP3    H210006   1.629   3.795   2.340  0.2530  3.3176 -2.4880
 3334TIP3   OH210007   1.645   0.834   4.502 -0.0495 -0.2025  0.5231
 3334TIP3    H110008   1.562   0.788   4.511  0.2656 -0.8515  0.1827
 3334TIP3    H210009   1.643   0.870   4.414  0.0889 -0.3367  0.4650
 3335TIP3   OH210010   4.369   0.475   0.923 -0.2088  0.0727  0.0972
 3335TIP3    H110011   4.413   0.398   0.958  0.8740 -0.2953 -1.9594
 3335TIP3    H210012   4.276   0.453   0.924 -0.0135 -0.7509  0.6800
 3336TIP3   OH210013   5.387   4.079   3.035 -0.2241 -0.0340  0.4831
 3336TIP3    H110014   5.367   3.986   3.035  0.2693 -0.1455  0.0081
 3336TIP3    H210015   5.302   4.122   3.042 -0.4113 -0.5228  1.2696
 3337TIP3   OH210016   2.588   0.915   2.130  0.6963  0.4416 -0.0435
 3337TIP3    H110017   2.582   1.005   2.164 -0.5182  0.9593 -1.4753
 3337TIP3    H210018   2.559   0.923   2.039 -4.2242 -2.0532  0.9619
 3338TIP3   OH210019   2.364   3.018   3.188 -0.5705  0.3328  0.0096
 3338TIP3    H110020   2.441   2.976   3.148  0.7961  1.4848  1.2776
 3338TIP3    H210021   2.346   3.094   3.133 -1.5871 -0.5913 -0.9694
 3339TIP3   OH210022   5.642   0.679   4.366  0.0249  0.3247 -0.1628
 3339TIP3    H110023   5.690   0.760   4.346  0.5749 -0.2589 -1.3209
 3339TIP3    H210024   5.571   0.707   4.424 -1.7389  2.2245 -2.9360
 3340TIP3   OH210025   1.729   1.449   2.788 -0.1735  0.2268  0.0255
 3340TIP3    H110026   1.798   1.441   2.722 -0.3177  1.2589 -0.2720
 3340TIP3    H210027   1.772   1.489   2.863 -0.1075 -0.5574  0.4180
 3341TIP3   OH210028   0.037   2.918   4.663 -0.5894 -0.0905 -0.0938
 3341TIP3    H110029   0.023   2.843   4.720 -0.4570 -0.4254 -0.4932
 3341TIP3    H210030  -0.036   2.915   4.601 -1.0686  0.6201  0.4232
 3342TIP3   OH210031   3.110   3.080   3.775  0.1455 -0.0091  0.1119
 3342TIP3    H110032   3.115   3.047   3.686  2.3478 -0.6738  0.4329
 3342TIP3    H210033   3.128   3.003   3.830 -0.1764  0.5961  1.0944
 3343TIP3   OH210034   0.984   4.983   1.642  0.4853 -0.0321 -0.2349
 3343TIP3    H110035   1.076   4.995   1.663  0.5936  0.0077 -0.7138
 3343TIP3    H210036   0.940   5.057   1.685  0.9792  1.3643 -1.9594
 3344TIP3   OH210037   2.732   1.026   3.682 -0.0481  0.9935 -0.8738
 3344TIP3    H110038   2.680   1.040   3.603 -1.4447  1.5338  0.1032
 3344TIP3    H210039   2.765   0.936   3.674 -0.5527  0.8853 -1.8451
 3345TIP3   OH210040   0.611   1.209   1.948  0.1930 -0.4760  0.0170
 3345TIP3    H110041   0.537   1.226   2.007 -0.4816 -0.5310 -0.7937
 3345TIP3    H210042   0.581   1.241   1.863  0.9461 -0.9023 -0.4143
 3346TIP3   OH210043   0.953   5.273   0.082 -0.0250  0.1000  0.0877
 3346TIP3    H110044   1.032   5.304   0.036  0.0786  0.4694  0.5095
 3346TIP3    H210045   0.898   5.237   0.013 -0.4479  1.8397 -0.5349
 3347TIP3   OH210046   3.228   1.353   0.669  0.2503 -0.6612 -0.4781
 3347TIP3    H110047   3.186   1.415   0.730 -0.6019 -1.2630 -0.4290
 3347TIP3    H210048   3.155   1.307   0.628  0.6894  0.9459 -3.3402
 3348TIP3   OH210049   4.728   2.626   4.696 -0.3798 -0.0800  0.1579
 3348TIP3    H110050   4.699   2.683   4.768  1.1739  0.5803  0.2811
 3348TIP3    H210051   4.812   2.662   4.669  0.4643 -2.0775 -0.0270
 3349TIP3   OH210052   0.780   3.651   3.486  0.2526 -0.5860  0.1440
 3349TIP3    H110053   0.867   3.612   3.481 -0.1967 -1.7871  1.1692
 3349TIP3    H210054   0.737   3.606   3.558 -1.2673 -0.0990 -0.4029
 3350TIP3   OH210055   5.277   4.513   2.274  0.2129  0.1758  0.0629
 3350TIP3    H110056   5.292   4.587   2.334 -0.2888 -0.8794  1.5468
 3350TIP3    H210057   5.184   4.494   2.284  0.2228 -0.3039 -0.7330
 3351TIP3   OH210058   1.299   1.638   3.693 -0.6599  0.8742 -0.1572
 3351TIP3    H110059   1.288   1.729   3.667  0.4767  0.5819 -1.8068
 3351TIP3    H210060   1.391   1.618   3.674 -0.7339 -0.4514  0.7292
 3352TIP3   OH210061   3.878   2.039   0.576  0.0274 -0.0639 -0.2656
 3352TIP3    H110062   3.966   2.005   0.560  0.7621  1.6925 -0.2085
 3352TIP3    H210063   3.882   2.130   0.547 -1.0925  0.7214  1.8504
 3353TIP3   OH210064   4.581   4.605   1.574  0.7711  0.1646 -0.4710
 3353TIP3    H110065   4.540   4.524   1.545  2.1256 -0.6339 -0.2144
 3353TIP3    H210066   4.599   4.592   1.667 -0.7058  1.5211  0.0717
 3354TIP3   OH210067   5.876   3.529   4.101 -0.1176 -0.1624  0.0331
 3354TIP3    H110068   5.963   3.561   4.123  0.4499 -1.4369 -0.2791
 3354TIP3    H210069   5.878   3.515   4.007 -0.6859 -0.1637  0.0152
 3355TIP3   OH210070   4.234   2.537   3.091  0.1732 -0.3587 -0.1623
 3355TIP3    H110071   4.214   2.624   3.126  0.7134  0.0701 -0.8729
 3355TIP3    H210072   4.256   2.484   3.167  0.2458  0.2494  0.2440
 3356TIP3   OH210073   3.548   0.297   0.886  0.4177 -0.4481  0.8651
 3356TIP3    H110074   3.623   0.275   0.941 -0.0631 -1.0590  1.2900
 3356TIP3    H210075   3.585   0.313   0.799  0.8436 -2.6362  0.5987
 3357TIP3   OH210076   3.880   2.197   0.849 -0.6444  0.0605  0.0904
 3357TIP3    H110077   3.971   2.197   0.819 -0.2659 -2.8677  0.9344
 3357TIP3    H210078   3.832   2.243   0.781  1.1736 -0.2190 -1.4572
 3358TIP3   OH210079   2.875   5.970   0.017 -0.3090 -0.4680 -0.7172
 3358TIP3    H110080   2.877   5.987   0.112 -2.1047 -0.1675 -0.6879
 3358TIP3    H210081   2.956   6.009  -0.016 -0.1831  0.4104  0.5447
 3359TIP3   OH210082   1.380   2.959   4.343 -0.3144  0.0487  0.5672
 3359TIP3    H110083   1.410   3.047   4.319  2.7819 -0.2818  2.7291
 3359TIP3    H210084   1.324   2.972   4.419  1.1182  0.1562  1.6503
 3360TIP3   OH210085   2.104   1.751   4.441 -0.2218  0.1889 -0.3997
 3360TIP3    H110086   2.190   1.717   4.416 -0.2081 -0.2256  0.1914
 3360TIP3    H210087   2.067   1.683   4.497 -0.8494  0.4611 -0.4748
 3361TIP3   OH210088   5.495   2.265   1.988 -0.3941 -0.3150 -0.0896
 3361TIP3    H110089   5.548   2.199   2.031 -0.6862 -0.4322  0.0926
 3361TIP3    H210090   5.558   2.331   1.958  0.0110 -1.1787 -1.1931
 3362TIP3   OH210091   4.668   1.395   1.682  0.4050 -0.1776  0.6909
 3362TIP3    H110092   4.661   1.411   1.588  2.7492 -0.1808  0.4555
 3362TIP3    H210093   4.726   1.464   1.714 -0.7262  0.1073  2.2571
 3363TIP3   OH210094   6.186   3.065   5.107 -0.2046 -0.0995 -0.1973
 3363TIP3    H110095   6.240   3.010   5.050 -1.3585 -1.1617 -0.3184
 3363TIP3    H210096   6.187   3.021   5.192 -1.1358 -0.3219 -0.2926
 3364TIP3   OH210097   4.798   2.690   0.045 -0.3453  0.1128 -0.1670
 3364TIP3    H110098   4.875   2.678  -0.011  1.4093  1.5874  1.7587
 3364TIP3    H210099   4.760   2.602   0.053  1.3104 -0.7266 -0.9666
 3365TIP3   OH210100   0.880   1.233   4.190  0.1790  0.4269 -0.7739
 3365TIP3    H110101   0.879   1.320   4.149  1.6054  0.3446 -1.0386
 3365TIP3    H210102   0.798   1.230   4.240 -0.0741  1.7809 -1.0461
 3366TIP3   OH210103   1.183   0.703   0.016  0.0380  0.3363 -1.1074
 3366TIP3    H110104   1.188   0.654   0.098  0.6779  0.2250 -1.2087
 3366TIP3    H210105   1.111   0.765   0.030  0.2992  0.4914 -0.3615
 3367TIP3   OH210106   5.077   2.986   0.836  0.1748 -0.3062 -0.4080
 3367TIP3    H110107   5.012   2.928   0.797  0.3942  0.5527 -2.1661
 3367TIP3    H210108   5.122   3.025   0.761  1.1354  0.8876  0.7397
 3368TIP3   OH210109   3.131   0.629   4.887  0.2626 -0.4127  0.2895
 3368TIP3    H110110   3.077   0.551   4.899 -0.5018 -0.2044 -1.4937
 3368TIP3    H210111   3.218   0.603   4.917 -0.6716 -0.8902  2.8361
 3369TIP3   OH210112   3.278   0.047   2.254  0.6565 -0.1796 -0.4852
 3369TIP3    H110113   3.191   0.064   2.217  1.9628  1.6960 -3.0451
 3369TIP3    H210114   3.296  -0.044   2.233 -0.9786 -0.8876  0.9108
 3370TIP3   OH210115   0.619   0.506   3.291  0.0772  0.4800  0.1087
 3370TIP3    H110116   0.673   0.560   3.233  0.4142  0.9740  0.8567
 3370TIP3    H210117   0.568   0.569   3.342  0.0413  0.0747  0.5834
 3371TIP3   OH210118   0.566   1.986   4.234  0.1267 -0.2426  0.0825
 3371TIP3    H110119   0.572   1.969   4.328  0.6102 -0.4991  0.0063
 3371TIP3    H210120   0.472   1.982   4.216 -0.0822  0.9669  0.7579
 3372TIP3   OH210121   5.649   4.363   0.587  0.2792 -0.5809  0.0107
 3372TIP3    H110122   5.636   4.426   0.516 -1.1421  0.2396  0.9405
 3372TIP3    H210123   5.711   4.405   0.646  0.5801 -0.7614 -0.1772
 3373TIP3   OH210124   0.277   4.111   0.336 -0.3804  0.3396  0.2898
 3373TIP3    H110125   0.224   4.032   0.327 -1.0817  0.8727 -0.5691
 3373TIP3    H210126   0.269   4.154   0.251  0.3811  1.0905  0.5861
 3374TIP3   OH210127   3.500   2.080   5.069  0.1619  0.7698  0.0663
 3374TIP3    H110128   3.506   1.986   5.085  0.4127  0.3884 -1.9295
 3374TIP3    H210129   3.528   2.121   5.151 -1.3683 -0.8503  1.4616
 3375TIP3   OH210130   6.011   1.417   2.759  0.7397 -0.6689  0.6688
 3375TIP3    H110131   6.064   1.351   2.803  1.5582  0.2845  1.1591
 3375TIP3    H210132   6.006   1.489   2.821 -0.8364 -0.5760  0.4840
 3376TIP3   OH210133   3.984   1.906   2.482 -0.2918  0.3236 -0.4988
 3376TIP3    H110134   3.963   1.816   2.457  0.6228  0.5192 -2.1418
 3376TIP3    H210135   3.995   1.903   2.577  0.2116 -1.4180 -0.5731
 3377TIP3   OH210136   3.167   2.539   0.662 -0.4312 -0.1644  0.1637
 3377TIP3    H110137   3.142   2.631   0.655  0.7118  0.2174  0.8432
 3377TIP3    H210138   3.226   2.536   0.737 -2.1167 -1.8277  1.5219
 3378TIP3   OH210139   5.038   2.129   4.757 -0.5877  0.2284  0.7746
 3378TIP3    H110140   4.986   2.118   4.678 -0.9441 -0.2030  1.0632
 3378TIP3    H210141   5.118   2.078   4.740 -0.0017  1.3217  0.1209
 3379TIP3   OH210142   0.709   0.476   1.792  0.6373 -0.0257  0.3321
 3379TIP3    H110143   0.779   0.462   1.728  0.3885  2.3255 -0.5739
 3379TIP3    H210144   0.730   0.561   1.831 -2.1079  1.1766 -0.5565
 3380TIP3   OH210145   1.745   4.454   1.694 -0.7380 -0.8391 -0.0608
 3380TIP3    H110146   1.759   4.496   1.779  1.0856  1.1146 -1.2064
 3380TIP3    H210147   1.833   4.429   1.665 -1.3264 -1.5457 -1.3461
 3381TIP3   OH210148   4.391   5.377   2.084 -0.3020  0.7929 -0.1589
 3381TIP3    H110149   4.303   5.348   2.109  0.1472 -0.5036  0.0322
 3381TIP3    H210150   4.447   5.303   2.109  0.6448  1.0006 -1.5964
 3382TIP3   OH210151   4.117   5.878   2.982 -0.0615 -0.2005 -0.6438
 3382TIP3    H110152   4.203   5.839   2.998  0.0317 -0.6392 -2.0616
 3382TIP3    H210153   4.094   5.850   2.894 -1.9286 -0.5640 -0.0881
 3383TIP3   OH210154   4.556   4.402   2.052 -0.0721 -0.7431 -0.3303
 3383TIP3    H110155   4.504   4.373   1.976 -0.8959 -0.0670 -0.0372
 3383TIP3    H210156   4.491   4.432   2.115  0.7172  2.3225 -0.8473
 3384TIP3   OH210157   4.777   1.472   0.118  0.6267  0.2258  0.0292
 3384TIP3    H110158   4.803   1.438   0.032  0.1981 -0.1585  0.0482
 3384TIP3    H210159   4.842   1.539   0.137  1.4410 -0.5135 -0.0500
 3385TIP3   OH210160   2.333   3.459   3.734  0.4988 -0.4050 -0.2568
 3385TIP3    H110161   2.265   3.493   3.792  0.1356  0.4769 -1.1756
 3385TIP3    H210162   2.372   3.386   3.783 -1.4852 -1.3245  0.0647
 3386TIP3   OH210163   4.597   2.852   4.210 -0.1162 -0.2135  0.2094
 3386TIP3    H110164   4.645   2.777   4.176  1.4732  1.1161 -0.6444
 3386TIP3    H210165   4.567   2.824   4.297  1.0920 -1.5651  0.2333
 3387TIP3   OH210166   3.092   4.665   3.217  0.0612 -0.0874 -0.6023
 3387TIP3    H110167   3.171   4.620   3.246  0.6339  0.7984 -0.7272
 3387TIP3    H210168   3.112   4.694   3.128 -0.1378  0.7272 -0.3919
 3388TIP3   OH210169   5.589   4.740   3.973 -0.1261 -0.4335  0.4093
 3388TIP3    H110170   5.538   4.818   3.948 -0.5214 -1.0523 -0.7385
 3388TIP3    H210171   5.538   4.701   4.044  0.8542  1.1631  2.0995
 3389TIP3   OH210172   5.605   3.667   5.007 -0.0368  0.1512  0.0741
 3389TIP3    H110173   5.607   3.588   4.954 -1.8316  0.1735 -0.0920
 3389TIP3    H210174   5.662   3.728   4.960  2.1233 -1.2757  0.6926
 3390TIP3   OH210175   5.866   4.448   2.887  0.1862  0.3923 -0.3367
 3390TIP3    H110176   5.798   4.516   2.885  0.0792  0.3356 -3.0852
 3390TIP3    H210177   5.833   4.381   2.827  1.3296 -1.0543  0.6137
 3391TIP3   OH210178   5.972   0.578   1.456 -0.4802  0.5670 -0.7322
 3391TIP3    H110179   5.903   0.635   1.423 -1.5988 -0.8903 -0.9915
 3391TIP3    H210180   5.954   0.493   1.418  1.7517  0.2275 -1.1858
 3392TIP3   OH210181   0.218   2.235   2.978  0.2009  0.2694  0.0138
 3392TIP3    H110182   0.130   2.273   2.979 -0.9734 -2.1896 -1.0303
 3392TIP3    H210183   0.242   2.233   2.886  1.3111  0.7408  0.2751
 3393TIP3   OH210184   4.914   5.623   3.297 -0.3429  0.4036  0.3715
 3393TIP3    H110185   4.911   5.713   3.330 -2.3679  1.2282 -1.7889
 3393TIP3    H210186   4.981   5.626   3.228 -0.2655  0.2141  0.4407
 3394TIP3   OH210187   4.783   0.540   1.961  0.3531  0.2907  0.5501
 3394TIP3    H110188   4.771   0.531   2.055  0.2279  0.0493  0.5110
 3394TIP3    H210189   4.817   0.629   1.949  1.3538 -0.0342  0.9049
 3395TIP3   OH210190   4.198   3.492   2.438 -0.3322 -0.5970 -0.0809
 3395TIP3    H110191   4.145   3.462   2.512  0.3105  0.0305  0.6521
 3395TIP3    H210192   4.137   3.543   2.384 -1.4983 -3.2376 -1.4369
 3396TIP3   OH210193   4.683   1.823   0.869  0.1231 -0.8174  0.0407
 3396TIP3    H110194   4.661   1.879   0.794 -0.6202 -0.8858  0.1988
 3396TIP3    H210195   4.757   1.867   0.910  1.4290 -1.4874 -1.4971
 3397TIP3   OH210196   0.668   5.646   4.704  0.0026  0.2137 -0.2433
 3397TIP3    H110197   0.643   5.694   4.625  2.5340  0.0491 -1.2262
 3397TIP3    H210198   0.641   5.556   4.687  0.5149  0.1849 -0.9030
 3398TIP3   OH210199   0.742   5.826   1.622  0.3410  0.3386 -0.3398
 3398TIP3    H110200   0.834   5.815   1.600 -0.1673 -0.8494 -2.0424
 3398TIP3    H210201   0.698   5.837   1.538 -1.2496 -0.5396  0.3367
 3399TIP3   OH210202   1.638   3.243   1.704 -0.0566 -0.0828 -0.4045
 3399TIP3    H110203   1.700   3.221   1.635  0.4246  0.9964 -0.3427
 3399TIP3    H210204   1.554   3.210   1.673  0.4380 -1.0447 -0.7589
 3400TIP3   OH210205   3.469   1.524   4.752  0.2516 -0.0180 -0.0986
 3400TIP3    H110206   3.384   1.569   4.749  0.4530  0.6288  1.9159
 3400TIP3    H210207   3.461   1.451   4.691 -1.4435  0.5494 -0.5937
 3401TIP3   OH210208   2.316   2.014   3.818  0.3608 -0.4513 -0.0073
 3401TIP3    H110209   2.409   1.997   3.828  0.3430  0.0516  1.1531
 3401TIP3    H210210   2.294   2.073   3.890 -0.7541 -0.1605 -0.5535
 3402TIP3   OH210211   5.386   0.171   0.897 -0.4351 -0.0816  0.0019
 3402TIP3    H110212   5.407   0.083   0.925 -2.3918 -0.5343  0.2275
 3402TIP3    H210213   5.298   0.187   0.932 -0.2812  1.8004 -0.3686
 3403TIP3   OH210214   4.234   2.034   0.028 -0.3706  0.5114 -0.6087
 3403TIP3    H110215   4.265   1.944   0.023 -0.3165  0.3152  1.8116
 3403TIP3    H210216   4.289   2.075   0.095 -1.5369  1.8102 -0.3825
 3404TIP3   OH210217   1.031   1.110   3.526 -0.0244 -0.0030 -0.7805
 3404TIP3    H110218   1.011   1.202   3.542 -3.4473 -0.8079  0.2303
 3404TIP3    H210219   1.079   1.081   3.604  0.1790  0.6614 -0.6542
 3405TIP3   OH210220   5.122   1.561   3.377  0.7224  0.5957  0.6522
 3405TIP3    H110221   5.071   1.482   3.394  2.2527 -0.3366  1.1929
 3405TIP3    H210222   5.209   1.529   3.354  0.7818  2.0829 -1.5037
 3406TIP3   OH210223   5.388   0.762   0.123 -0.1590 -0.4877 -0.1184
 3406TIP3    H110224   5.330   0.749   0.199  0.0154  1.6622  0.4398
 3406TIP3    H210225   5.440   0.839   0.146 -1.0775  1.1063 -3.0098
 3407TIP3   OH210226   1.069   3.747   4.572 -0.1860 -0.1363  0.2840
 3407TIP3    H110227   1.162   3.741   4.595 -0.5220 -0.7208  1.5989
 3407TIP3    H210228   1.030   3.667   4.608 -1.3666  0.5688  0.6357
 3408TIP3   OH210229   3.827   0.024   4.881 -0.2605 -0.3163 -0.4223
 3408TIP3    H110230   3.821   0.117   4.901 -1.6145 -0.7978  1.7194
 3408TIP3    H210231   3.805   0.018   4.788 -0.0781  1.4885 -0.6159
 3409TIP3   OH210232   3.070   3.047   1.540  0.2740  0.9879 -0.3697
 3409TIP3    H110233   3.070   3.042   1.445 -2.3279 -0.7670 -0.3909
 3409TIP3    H210234   3.120   2.971   1.569 -0.3441  0.5743 -0.3700
 3410TIP3   OH210235   1.683   4.739   4.946  0.1186 -0.7358  0.2026
 3410TIP3    H110236   1.645   4.757   4.860 -0.2686 -0.3850  0.4400
 3410TIP3    H210237   1.740   4.814   4.962  0.3747 -0.9193  0.1489
 3411TIP3   OH210238   3.504   4.359   2.437  0.4087 -0.2154 -0.0731
 3411TIP3    H110239   3.529   4.304   2.363  0.8725  0.9418 -0.7949
 3411TIP3    H210240   3.428   4.408   2.406  0.7427  0.4450  0.1206
 3412TIP3   OH210241   3.302   0.860   2.307  0.1490  0.0583 -0.1083
 3412TIP3    H110242   3.392   0.870   2.276  0.4425  2.1248  1.2163
 3412TIP3    H210243   3.250   0.847   2.227  1.6773 -2.3804 -0.8304
 3413TIP3   OH210244   2.755   2.434   4.055  0.1998  0.4665  0.6796
 3413TIP3    H110245   2.660   2.427   4.047  0.1083  0.9697  1.2883
 3413TIP3    H210246   2.780   2.494   3.984  0.0965  0.1560  0.3759
 3414TIP3   OH210247   6.331   3.626   3.738  0.5891  0.3679  0.2401
 3414TIP3    H110248   6.314   3.720   3.729  0.1581  0.2193 -0.6063
 3414TIP3    H210249   6.420   3.614   3.703  0.3355  0.3510 -0.4196
 3415TIP3   OH210250   2.026   3.063   3.696  0.8129 -0.3045  0.3863
 3415TIP3    H110251   2.095   3.104   3.747 -0.1275  0.1723  1.3081
 3415TIP3    H210252   1.950   3.120   3.709 -0.1479 -1.5978  0.5703
 3416TIP3   OH210253   5.658   4.903   1.485  0.6231 -0.4587 -0.3795
 3416TIP3    H110254   5.661   4.974   1.420  0.7033  0.6768  0.8220
 3416TIP3    H210255   5.743   4.908   1.529 -0.0054 -0.2062  0.8367
 3417TIP3   OH210256   5.700   1.093   3.327  0.2099 -0.1381 -0.3915
 3417TIP3    H110257   5.624   1.103   3.384  0.4090  1.1391 -0.3097
 3417TIP3    H210258   5.693   1.165   3.264  1.6232  0.3798 -0.0170
 3418TIP3   OH210259   1.022   1.169   1.269 -0.5873  0.0365 -0.1183
 3418TIP3    H110260   1.065   1.230   1.208 -0.7105  0.6527  0.3954
 3418TIP3    H210261   0.929   1.180   1.252 -0.5730 -0.8928 -0.8466
 3419TIP3   OH210262   4.798   0.149   2.342  0.1584 -0.2043  0.2932
 3419TIP3    H110263   4.722   0.191   2.303 -0.7689 -0.8197  1.3972
 3419TIP3    H210264   4.764   0.100   2.416  1.6572 -0.3549  0.9286
 3420TIP3   OH210265   0.581   4.060   0.956 -0.1393  0.1456  0.3209
 3420TIP3    H110266   0.584   3.967   0.931 -0.2206  0.8758 -2.8025
 3420TIP3    H210267   0.491   4.087   0.937  0.3605  1.2577 -0.5910
 3421TIP3   OH210268   5.797   3.971   3.034  0.4563 -0.2146  0.0428
 3421TIP3    H110269   5.838   3.898   3.080  1.0504  0.6401  0.9135
 3421TIP3    H210270   5.866   4.006   2.978 -0.0201 -0.7211 -0.8729
 3422TIP3   OH210271   3.890   2.859   0.511  0.0069 -0.5713  0.0994
 3422TIP3    H110272   3.960   2.853   0.576 -0.3745  1.5378  0.7601
 3422TIP3    H210273   3.933   2.893   0.432 -0.1006 -0.1605  0.2173
 3423TIP3   OH210274   4.515   0.022   0.514  0.6873  0.2738 -0.6952
 3423TIP3    H110275   4.479   0.109   0.499  0.4902  0.2540 -0.3459
 3423TIP3    H210276   4.487  -0.001   0.603 -0.5759 -0.7892 -1.3414
 3424TIP3   OH210277   4.934   4.146   0.816 -0.7582  0.5937  0.1390
 3424TIP3    H110278   4.906   4.186   0.898 -0.7770  1.4974 -0.2949
 3424TIP3    H210279   4.948   4.054   0.838  0.2324  1.0092  1.3946
 3425TIP3   OH210280   1.412   1.835   0.948  0.4600  0.0126  0.6063
 3425TIP3    H110281   1.384   1.781   0.874  0.3420 -0.9528  1.3429
 3425TIP3    H210282   1.424   1.922   0.910  1.7524 -0.7532 -0.8395
 3426TIP3   OH210283   2.082   3.530   4.548  0.2532  0.1407  0.1103
 3426TIP3    H110284   1.989   3.506   4.547  0.0611  0.8838 -0.1994
 3426TIP3    H210285   2.127   3.452   4.516 -0.4103  0.3890 -1.4867
 3427TIP3   OH210286   2.170   5.307   1.426  0.2360 -0.4534 -0.3776
 3427TIP3    H110287   2.166   5.358   1.506  0.8180 -2.3842  0.9557
 3427TIP3    H210288   2.085   5.262   1.422  0.1401 -0.2315 -0.9562
 3428TIP3   OH210289   5.207   2.741   5.063 -0.3106  0.2097 -0.2806
 3428TIP3    H110290   5.251   2.802   5.123  0.9386  0.0591 -1.0189
 3428TIP3    H210291   5.192   2.662   5.116 -2.6631  1.3406  0.9318
 3429TIP3   OH210292   0.269   0.483   5.178 -0.2904  0.0719  0.3802
 3429TIP3    H110293   0.329   0.537   5.229 -1.7238 -0.1852  2.4193
 3429TIP3    H210294   0.257   0.532   5.097  1.4801  0.8458  0.5285
 3430TIP3   OH210295   4.354   4.991   2.698 -0.2914 -0.3944 -0.6624
 3430TIP3    H110296   4.291   5.016   2.630 -2.1143  0.1369  1.0991
 3430TIP3    H210297   4.303   4.936   2.758  1.0601 -0.3245  0.6071
 3431TIP3   OH210298   2.089   3.791   0.216 -0.4793 -0.3629  0.3815
 3431TIP3    H110299   2.010   3.747   0.183 -0.5509 -0.4380  0.6496
 3431TIP3    H210300   2.074   3.884   0.200 -0.1349 -0.4597 -0.6070
 3432TIP3   OH210301   4.014   4.015   2.333 -0.2652  0.3759  0.0823
 3432TIP3    H110302   4.069   3.998   2.409 -0.9865 -2.7291  0.0191
 3432TIP3    H210303   4.070   3.995   2.258 -0.8283 -0.7894 -0.0425
 3433TIP3   OH210304   0.462   3.754   1.135  0.6312 -0.5646 -0.0216
 3433TIP3    H110305   0.518   3.800   1.072 -1.2330 -0.1483 -1.4454
 3433TIP3    H210306   0.377   3.749   1.093 -0.0964 -2.3965  1.5068
 3434TIP3   OH210307   3.457   4.021   4.937 -0.1465  0.1766  0.2443
 3434TIP3    H110308   3.422   4.073   5.009 -0.0651  0.3744  0.1425
 3434TIP3    H210309   3.401   4.041   4.863  2.0751  3.1631 -0.8798
 3435TIP3   OH210310   4.503   2.838   0.462 -0.5960  0.2726  0.5780
 3435TIP3    H110311   4.558   2.778   0.411 -0.8828  1.3072 -1.0310
 3435TIP3    H210312   4.552   2.853   0.543  0.5505 -0.3445  0.0185
 3436TIP3   OH210313   1.650   0.011   2.740 -0.0489 -0.3004 -0.4345
 3436TIP3    H110314   1.608   0.051   2.816 -0.7490  1.2391 -1.5815
 3436TIP3    H210315   1.583  -0.049   2.705 -0.1426 -0.1607 -0.4928
 3437TIP3   OH210316   0.538   1.465   1.733 -0.3189 -0.1729 -0.1705
 3437TIP3    H110317   0.581   1.508   1.808  0.5560 -0.9498 -0.2072
 3437TIP3    H210318   0.460   1.425   1.771 -0.7171  0.7497  0.0186
 3438TIP3   OH210319   5.831   1.808   1.710 -0.1253  0.0841  0.1015
 3438TIP3    H110320   5.741   1.814   1.679 -0.7158  0.1379  1.7048
 3438TIP3    H210321   5.880   1.771   1.637 -1.1886  1.2642 -1.2643
 3439TIP3   OH210322   0.330   4.845   1.552  0.4878 -0.4363  0.0951
 3439TIP3    H110323   0.326   4.787   1.627 -0.5084  0.4020  0.7195
 3439TIP3    H210324   0.242   4.884   1.547  0.6305 -0.2380 -1.3102
 3440TIP3   OH210325   1.412   5.508   4.273 -0.5903 -0.2319  0.7210
 3440TIP3    H110326   1.322   5.537   4.285 -0.5340  0.0191  0.5521
 3440TIP3    H210327   1.408   5.449   4.198 -0.2418  1.6905 -0.9056
 3441TIP3   OH210328   5.940   2.076   2.381  0.5792  0.1127 -0.0546
 3441TIP3    H110329   5.922   2.046   2.291 -0.5889  0.3557  0.0819
 3441TIP3    H210330   5.892   2.159   2.388 -0.3679 -0.5204  1.1851
 3442TIP3   OH210331   1.834   5.099   4.035  0.4770  0.3199  0.7798
 3442TIP3    H110332   1.877   5.177   4.072  2.0132  0.3441 -0.9236
 3442TIP3    H210333   1.804   5.128   3.949  1.0584 -0.9574  0.1319
 3443TIP3   OH210334   5.435   3.924   5.076 -0.5322  0.1463  0.0771
 3443TIP3    H110335   5.514   3.871   5.086 -1.1970 -1.3014 -1.7225
 3443TIP3    H210336   5.463   4.013   5.097  1.0656 -0.6201  1.4164
 3444TIP3   OH210337   5.017   2.568   4.121  0.0376 -0.1933  0.5578
 3444TIP3    H110338   5.020   2.574   4.026  2.2892  0.2200  0.5754
 3444TIP3    H210339   4.948   2.506   4.140 -0.6014 -0.1113 -1.3362
 3445TIP3   OH210340   1.577   1.015   4.771 -0.1354  0.3812 -0.3146
 3445TIP3    H110341   1.495   1.044   4.731 -0.3939  2.9384  1.7885
 3445TIP3    H210342   1.552   0.943   4.829 -0.7065  0.4381 -0.4850
 3446TIP3   OH210343   0.509   5.808   3.422 -0.0975  0.3846 -0.8972
 3446TIP3    H110344   0.513   5.787   3.328 -2.7709 -0.5481 -0.8896
 3446TIP3    H210345   0.417   5.798   3.444  0.4409  0.8185  1.8174
 3447TIP3   OH210346   1.309   2.322   3.155 -0.5530 -0.3914  0.0639
 3447TIP3    H110347   1.377   2.344   3.219 -1.4651 -1.9779  1.6779
 3447TIP3    H210348   1.245   2.393   3.162  0.1618  0.2975 -0.3197
 3448TIP3   OH210349   3.678   5.917   3.842  0.4962  0.3133 -0.4775
 3448TIP3    H110350   3.761   5.873   3.863  0.0183 -0.1609  0.4633
 3448TIP3    H210351   3.695   6.009   3.859  0.5715  0.1160  0.6066
 3449TIP3   OH210352   3.194   0.153   0.278 -0.1732 -0.3065 -0.1986
 3449TIP3    H110353   3.121   0.096   0.301 -1.1365  1.2878  0.9452
 3449TIP3    H210354   3.265   0.125   0.336 -0.7240 -0.1924  0.5522
 3450TIP3   OH210355   1.674   0.702   3.649  0.4019  0.4740  0.6225
 3450TIP3    H110356   1.597   0.720   3.595  1.1313 -0.9516 -0.9729
 3450TIP3    H210357   1.638   0.664   3.729 -0.5643 -0.1230 -0.0667
 3451TIP3   OH210358   5.721   0.231   3.371  0.3935 -0.4865  0.2064
 3451TIP3    H110359   5.808   0.270   3.369  0.2053  0.0046  1.0897
 3451TIP3    H210360   5.707   0.198   3.282  0.9592  0.5988 -0.2988
 3452TIP3   OH210361   0.058   0.443   1.870  0.2031  0.1085 -0.3304
 3452TIP3    H110362  -0.013   0.506   1.855 -0.8594 -0.8929  0.3921
 3452TIP3    H210363   0.115   0.487   1.934  0.9676  1.4451 -1.8420
 3453TIP3   OH210364   2.681   4.701   5.115  0.0076 -0.2004 -0.2622
 3453TIP3    H110365   2.655   4.782   5.071  0.0184  0.4664  0.9143
 3453TIP3    H210366   2.753   4.667   5.063  0.6563  1.0762 -0.2357
 3454TIP3   OH210367   5.473   4.637   1.063  0.1916 -0.3300 -0.6198
 3454TIP3    H110368   5.440   4.712   1.113  0.7339 -0.9761  0.7696
 3454TIP3    H210369   5.407   4.623   0.994 -1.1668 -0.0716  0.5731
 3455TIP3   OH210370   6.054   5.064   0.596 -0.0558  0.6398  0.1881
 3455TIP3    H110371   6.079   4.972   0.605 -0.5363  0.3676 -1.1162
 3455TIP3    H210372   5.960   5.061   0.575  0.4148  1.2979 -2.1920
 3456TIP3   OH210373   1.791   3.036   3.045 -0.2341  0.0974 -0.3786
 3456TIP3    H110374   1.774   3.059   3.137 -1.1441 -0.5576 -0.3723
 3456TIP3    H210375   1.885   3.051   3.034  0.9651 -4.0953  1.9688
 3457TIP3   OH210376   1.199   4.084   4.221  0.3768  0.2050  0.3280
 3457TIP3    H110377   1.176   4.176   4.209 -4.1754 -0.3351  2.6063
 3457TIP3    H210378   1.154   4.038   4.151 -0.0846 -0.4767  1.0507
 3458TIP3   OH210379   1.995   5.127   3.659 -0.1045  0.5173 -0.1103
 3458TIP3    H110380   1.921   5.141   3.718 -0.2309  0.7680 -0.3238
 3458TIP3    H210381   1.981   5.189   3.587 -0.3860 -0.3377 -0.8156
 3459TIP3   OH210382   2.906   4.392   5.143  0.2841 -0.9817  0.0101
 3459TIP3    H110383   2.981   4.383   5.084  0.5333 -1.6141  0.4114
 3459TIP3    H210384   2.840   4.332   5.108 -0.2302 -0.0688 -0.6237
 3460TIP3   OH210385   4.635   3.542   0.156 -0.3043  0.2170  0.7443
 3460TIP3    H110386   4.565   3.604   0.135  0.2992  0.3355 -1.1148
 3460TIP3    H210387   4.671   3.517   0.071  1.2730 -0.5881  1.6010
 3461TIP3   OH210388   5.683   3.877   1.984  0.0662 -0.6299 -0.5198
 3461TIP3    H110389   5.608   3.817   1.983  1.0866 -2.0428  1.1459
 3461TIP3    H210390   5.651   3.955   2.030 -0.7396 -0.6811 -0.9798
 3462TIP3   OH210391   5.874   2.486   3.706 -0.8040 -0.4416 -0.0297
 3462TIP3    H110392   5.955   2.482   3.656 -0.2747 -2.2268  0.8770
 3462TIP3    H210393   5.871   2.576   3.739  0.9154 -0.3699  0.0523
 3463TIP3   OH210394   4.339   2.375   4.587 -0.0505  0.0630 -0.5274
 3463TIP3    H110395   4.341   2.469   4.600  0.4438  0.0160 -0.2183
 3463TIP3    H210396   4.249   2.356   4.560  0.6301  1.0335 -3.8185
 3464TIP3   OH210397   0.127   1.534   3.884  0.0446  0.5135 -0.0228
 3464TIP3    H110398   0.192   1.464   3.871 -1.2325 -0.7942  0.4521
 3464TIP3    H210399   0.059   1.516   3.819 -2.0402 -0.8334  2.3701
 3465TIP3   OH210400   5.657   2.711   3.833 -0.0925  0.5669  0.2809
 3465TIP3    H110401   5.655   2.648   3.905 -0.4711  0.5339  0.2452
 3465TIP3    H210402   5.565   2.721   3.808  0.0958  0.1005 -0.6195
 3466TIP3   OH210403   6.252   5.994   3.762 -0.5322  0.3476 -0.2652
 3466TIP3    H110404   6.163   5.974   3.732 -0.3365 -0.3358 -0.4226
 3466TIP3    H210405   6.307   5.928   3.719 -0.1288 -0.1303  0.9327
 3467TIP3   OH210406   5.320   0.105   5.065  0.1596 -0.6929  0.1232
 3467TIP3    H110407   5.368   0.082   5.145 -0.0513 -2.1953 -0.1420
 3467TIP3    H210408   5.386   0.100   4.996  0.1380 -0.3279  0.0739
 3468TIP3   OH210409   1.830   2.478   0.687 -0.4874  0.0134  0.2234
 3468TIP3    H110410   1.790   2.396   0.715  1.4524 -1.1303 -0.2105
 3468TIP3    H210411   1.786   2.500   0.604 -0.0163 -1.3876 -0.4178
 3469TIP3   OH210412   3.346   5.278   0.449 -0.2306 -0.5569 -0.0935
 3469TIP3    H110413   3.437   5.277   0.420 -0.2765 -1.1348 -0.2145
 3469TIP3    H210414   3.296   5.294   0.369 -0.3039 -1.3358 -0.2074
 3470TIP3   OH210415   3.658   3.938   4.777 -0.1559 -0.1256 -0.9513
 3470TIP3    H110416   3.698   4.013   4.734  0.5581  0.4204  0.5890
 3470TIP3    H210417   3.594   3.977   4.837 -0.5104 -0.8031 -0.8874
 3471TIP3   OH210418   1.430   1.680   4.594 -0.1307  0.0948  0.2267
 3471TIP3    H110419   1.379   1.691   4.674  0.8640  1.1183  0.7451
 3471TIP3    H210420   1.518   1.710   4.616  0.0632  0.8388 -1.3773
 3472TIP3   OH210421   2.769   0.284   4.749 -0.8030  0.3548  0.0053
 3472TIP3    H110422   2.746   0.197   4.716 -0.8119  0.2377  0.3225
 3472TIP3    H210423   2.702   0.304   4.814  1.0127 -0.8073  2.3585
 3473TIP3   OH210424   4.205   2.946   2.810  0.1776  0.3566 -0.2851
 3473TIP3    H110425   4.134   3.010   2.820  0.9906  1.0092  1.8574
 3473TIP3    H210426   4.161   2.866   2.781 -1.2495  1.0992 -0.2939
 3474TIP3   OH210427   0.647   3.317   2.981 -0.5017 -0.3614 -0.3754
 3474TIP3    H110428   0.710   3.279   2.920  0.9465  1.1541  0.0873
 3474TIP3    H210429   0.683   3.404   3.001 -1.8243 -0.1515  1.3153
 3475TIP3   OH210430   4.798   4.693   2.323  0.0417 -0.0320  0.0702
 3475TIP3    H110431   4.841   4.773   2.352  0.5614  0.4314 -1.8698
 3475TIP3    H210432   4.728   4.679   2.386  0.6014  1.3529  1.0399
 3476TIP3   OH210433   4.041   5.074   1.702  0.8553  0.0257 -0.9953
 3476TIP3    H110434   4.079   5.104   1.620  0.2207  0.6148 -1.0803
 3476TIP3    H210435   3.958   5.034   1.677  0.8402 -0.1497 -0.6776
 3477TIP3   OH210436   4.544   3.695   0.855  0.5395  0.1245  0.3239
 3477TIP3    H110437   4.553   3.647   0.937 -0.9990  1.0035  1.0627
 3477TIP3    H210438   4.613   3.761   0.859  0.8538 -0.2122  0.6233
 3478TIP3   OH210439   3.807   1.060   3.037 -0.7384 -0.1143 -0.4845
 3478TIP3    H110440   3.803   0.964   3.038  0.5043 -0.2085  1.7779
 3478TIP3    H210441   3.806   1.085   3.129 -1.8336  2.1228 -1.0436
 3479TIP3   OH210442   0.797   5.200   5.108  0.0800 -0.2566 -0.2077
 3479TIP3    H110443   0.888   5.172   5.091  0.1760  0.7213 -1.5365
 3479TIP3    H210444   0.760   5.130   5.161  1.1471 -1.4750 -0.9947
 3480TIP3   OH210445   3.992   1.279   4.671 -0.3853 -0.3633  0.1195
 3480TIP3    H110446   4.032   1.212   4.615 -1.3345 -0.5705 -0.3316
 3480TIP3    H210447   3.995   1.240   4.759  2.0872  0.4106  0.4468
 3481TIP3   OH210448   1.756   5.308   2.434 -0.4144 -0.7625  0.0377
 3481TIP3    H110449   1.698   5.380   2.459  0.2112 -0.5286  0.8393
 3481TIP3    H210450   1.753   5.249   2.509  0.8156 -0.4752  0.3258
 3482TIP3   OH210451   3.400   5.971   4.220  0.1340  0.1308  0.4633
 3482TIP3    H110452   3.370   5.953   4.130 -0.3520  3.9134 -0.3181
 3482TIP3    H210453   3.489   5.937   4.223  1.0394  1.8038 -2.3474
 3483TIP3   OH210454   1.511   1.794   2.720  0.0455  0.2515  0.2546
 3483TIP3    H110455   1.605   1.777   2.712 -0.1235  0.2492 -3.7003
 3483TIP3    H210456   1.504   1.886   2.744  1.1009  0.4861 -0.3054
 3484TIP3   OH210457   2.092   5.836   1.557 -0.0736  0.1363 -0.3128
 3484TIP3    H110458   2.182   5.853   1.529 -0.3652  1.1532 -0.6926
 3484TIP3    H210459   2.101   5.792   1.641  0.7840 -0.3263 -0.6275
 3485TIP3   OH210460   3.177   3.961   0.589  0.1558  0.4930 -0.2486
 3485TIP3    H110461   3.213   4.014   0.517 -1.7270 -0.0224 -1.6511
 3485TIP3    H210462   3.083   3.976   0.585 -0.2963 -1.8336  0.2221
 3486TIP3   OH210463   2.408   5.204   0.813  0.4809 -0.1332 -0.0616
 3486TIP3    H110464   2.339   5.181   0.751 -0.1836 -1.0221  0.9671
 3486TIP3    H210465   2.484   5.152   0.785  0.8355  1.0458 -1.3512
 3487TIP3   OH210466   3.680   4.111   3.189  0.0383 -0.2434 -0.4491
 3487TIP3    H110467   3.662   4.178   3.123  1.0821  0.1275 -0.3715
 3487TIP3    H210468   3.602   4.056   3.189  0.1752 -0.4965 -2.2877
 3488TIP3   OH210469   3.268   5.271   0.093  0.3370 -0.7894 -0.8849
 3488TIP3    H110470   3.227   5.190   0.064 -1.1263  0.1352 -1.5407
 3488TIP3    H210471   3.194   5.329   0.114  1.3411 -0.0732  0.8854
 3489TIP3   OH210472   4.451   0.214   3.828  0.4564  0.0740  0.0767
 3489TIP3    H110473   4.458   0.309   3.827  1.5172  0.0134  0.6512
 3489TIP3    H210474   4.501   0.185   3.753  0.4106 -0.0483  0.0922
 3490TIP3   OH210475   5.394   5.677   4.062 -0.3856  0.5819  0.0156
 3490TIP3    H110476   5.384   5.604   4.001 -0.2008  0.4759  0.1094
 3490TIP3    H210477   5.483   5.709   4.046 -0.5743  0.9799 -0.2363
 3491TIP3   OH210478   3.886   5.752   4.365  0.4124  0.0008 -0.5446
 3491TIP3    H110479   3.810   5.761   4.422  0.4198 -0.5097 -0.4473
 3491TIP3    H210480   3.934   5.677   4.400  1.1556  0.5348 -0.3891
 3492TIP3   OH210481   0.537   1.649   4.375  0.0497  0.1620 -0.5340
 3492TIP3    H110482   0.543   1.574   4.434 -1.0996 -0.0640 -0.6846
 3492TIP3    H210483   0.617   1.698   4.391 -1.0014  1.0976  2.6312
 3493TIP3   OH210484   4.104   3.633   1.293 -0.4749  0.2685 -0.0098
 3493TIP3    H110485   4.172   3.654   1.229 -1.8816 -0.3566 -1.7993
 3493TIP3    H210486   4.039   3.703   1.282 -0.2649  0.7324  1.5087
 3494TIP3   OH210487   2.984   5.186   3.976 -0.1295  0.5348 -0.4720
 3494TIP3    H110488   3.067   5.163   4.019 -0.5885  0.0421  0.1694
 3494TIP3    H210489   2.985   5.281   3.972  0.4416  0.5369 -0.4200
 3495TIP3   OH210490   4.126   1.658   2.840 -0.2320 -0.0204  0.1535
 3495TIP3    H110491   4.117   1.651   2.935 -0.6430  2.3269  0.3447
 3495TIP3    H210492   4.209   1.615   2.821  0.4883  0.5645  1.7569
 3496TIP3   OH210493   0.799   3.753   4.774  0.2228 -0.0615  0.6104
 3496TIP3    H110494   0.796   3.694   4.850  1.9221 -1.6673 -0.4567
 3496TIP3    H210495   0.892   3.764   4.757 -0.1228  0.7355 -0.8936
 3497TIP3   OH210496   2.412   4.263   1.012  0.9189  0.1101  0.5307
 3497TIP3    H110497   2.320   4.238   1.006  1.5230 -1.8721 -1.3888
 3497TIP3    H210498   2.444   4.220   1.091  0.8913 -1.8064 -0.4508
 3498TIP3   OH210499   5.221   2.294   2.553 -0.4756  0.6324 -0.4827
 3498TIP3    H110500   5.226   2.357   2.624 -0.2033  0.9690 -0.7957
 3498TIP3    H210501   5.128   2.274   2.545 -0.3234 -1.6446  1.8849
 3499TIP3   OH210502   5.331   3.414   4.845  0.0552  0.3814  0.0587
 3499TIP3    H110503   5.244   3.447   4.822 -0.0979 -0.1570 -0.1493
 3499TIP3    H210504   5.347   3.449   4.933 -0.1950  0.8153 -0.0611
 3500TIP3   OH210505   4.163   4.685   4.655  0.6191 -0.0561 -0.0218
 3500TIP3    H110506   4.139   4.775   4.677 -0.0859  0.0256 -1.0361
 3500TIP3    H210507   4.139   4.634   4.732 -4.0214 -0.1533 -1.2436
 3501TIP3   OH210508   2.020   4.995   0.831 -0.2070  0.0087  0.4213
 3501TIP3    H110509   1.971   5.078   0.829  1.6261  1.1356 -0.1256
 3501TIP3    H210510   2.084   5.004   0.761  1.1888 -1.1606  1.4912
 3502TIP3   OH210511   0.304   3.939   2.974 -0.4250  0.0206 -0.1210
 3502TIP3    H110512   0.374   3.910   3.032 -0.9943 -0.1293  0.4938
 3502TIP3    H210513   0.330   3.907   2.888  0.9569  1.1444 -0.1646
 3503TIP3   OH210514   3.434   1.719   3.247 -0.0932 -0.0335 -0.3447
 3503TIP3    H110515   3.412   1.793   3.303 -0.3522 -0.8248  0.6387
 3503TIP3    H210516   3.492   1.755   3.180 -1.8542  1.4933 -1.1537
 3504TIP3   OH210517   0.912   2.703   2.691  0.3713 -0.2584  0.4807
 3504TIP3    H110518   0.876   2.619   2.720 -2.5383  0.9354  0.6952
 3504TIP3    H210519   1.003   2.684   2.669 -0.2238 -3.5009  0.3229
 3505TIP3   OH210520   0.061   4.100   5.173 -0.4001 -0.1466  0.7830
 3505TIP3    H110521  -0.001   4.028   5.163  0.4605 -0.6549 -1.5421
 3505TIP3    H210522   0.147   4.060   5.157  0.2052  1.1478  0.6461
 3506TIP3   OH210523   4.673   2.603   2.533  0.0075 -0.3727 -0.0549
 3506TIP3    H110524   4.716   2.531   2.581 -0.5037 -1.1524 -0.7505
 3506TIP3    H210525   4.630   2.560   2.460  0.7867  0.8116 -1.2390
 3507TIP3   OH210526   3.254   3.325   1.293 -0.2392 -0.3820 -0.1591
 3507TIP3    H110527   3.258   3.336   1.199  0.0095  1.7541  0.0564
 3507TIP3    H210528   3.342   3.295   1.318  0.3180  1.0064 -0.4069
 3508TIP3   OH210529   2.570   3.777   0.448  0.1140 -0.1593  0.0054
 3508TIP3    H110530   2.503   3.818   0.394  0.7780  0.9166 -0.0468
 3508TIP3    H210531   2.642   3.841   0.449  0.0573 -0.0348  2.3182
 3509TIP3   OH210532   0.994   0.511   4.441  0.0136 -0.3562  0.4048
 3509TIP3    H110533   0.939   0.525   4.518 -1.6860 -0.2083 -0.7815
 3509TIP3    H210534   1.014   0.599   4.408  0.5692 -0.4221  0.5526
 3510TIP3   OH210535   4.183   3.316   5.184 -0.2851  0.4358 -0.1527
 3510TIP3    H110536   4.258   3.275   5.140 -0.1799  1.8303 -1.3549
 3510TIP3    H210537   4.216   3.402   5.212 -0.6732  0.0012  1.7519
 3511TIP3   OH210538   2.567   0.072   0.352 -0.6010  0.0189  0.6431
 3511TIP3    H110539   2.533  -0.017   0.350 -0.5003 -0.0256  0.8992
 3511TIP3    H210540   2.498   0.123   0.393  0.1370 -0.2948  2.3584
 3512TIP3   OH210541   3.474   4.707   0.773 -0.3601 -0.5286  0.0983
 3512TIP3    H110542   3.443   4.785   0.727  0.2971  0.5219  1.3392
 3512TIP3    H210543   3.547   4.675   0.719 -1.8163 -1.4351 -1.4078
 3513TIP3   OH210544   6.349   4.066   1.242  0.3294 -0.5740 -0.2623
 3513TIP3    H110545   6.297   4.081   1.163  0.0096  0.3970  0.1177
 3513TIP3    H210546   6.309   4.121   1.309  1.7062  0.0428  0.0989
 3514TIP3   OH210547   4.459   4.147   3.065  0.5258  0.0938 -0.2136
 3514TIP3    H110548   4.386   4.087   3.053 -0.9827  1.2366  2.2858
 3514TIP3    H210549   4.499   4.119   3.147 -0.9067  2.9577  1.6454
 3515TIP3   OH210550   6.181   0.902   2.857  0.7031 -0.1456 -0.3935
 3515TIP3    H110551   6.257   0.905   2.915  0.6304 -1.6450 -0.1781
 3515TIP3    H210552   6.216   0.873   2.773  0.3537 -1.0751 -0.2313
 3516TIP3   OH210553   2.563   1.715   0.632 -0.0552  0.4671  0.2176
 3516TIP3    H110554   2.536   1.757   0.713  1.6105  0.5339  0.7674
 3516TIP3    H210555   2.522   1.768   0.563 -0.8924  0.8372  0.9758
 3517TIP3   OH210556   0.331   1.271   1.855  0.4040  0.1912  0.1044
 3517TIP3    H110557   0.299   1.189   1.890  0.2932  0.3010  0.2609
 3517TIP3    H210558   0.303   1.271   1.764  2.5836 -1.1125 -0.6597
 3518TIP3   OH210559   3.110   0.967   3.741 -0.0903  0.4729 -0.3092
 3518TIP3    H110560   3.178   0.931   3.797  1.4521 -1.6915 -3.2690
 3518TIP3    H210561   3.044   0.897   3.735  0.4968  0.0159 -2.2117
 3519TIP3   OH210562   1.064   1.714   0.766 -0.4051  0.6364  0.0824
 3519TIP3    H110563   0.992   1.697   0.705 -0.4856 -0.0914  0.3752
 3519TIP3    H210564   1.098   1.799   0.739  1.8830 -1.1523 -3.2706
 3520TIP3   OH210565   6.270   3.093   0.832  0.2293  0.7667  0.1549
 3520TIP3    H110566   6.221   3.164   0.792  0.1629  1.1774  0.9431
 3520TIP3    H210567   6.262   3.020   0.770 -0.6231  1.0982 -0.1371
 3521TIP3   OH210568   4.568   0.536   4.317  0.0098  0.7277  0.2929
 3521TIP3    H110569   4.574   0.552   4.223 -0.3149  2.0336  0.4792
 3521TIP3    H210570   4.658   0.544   4.348  0.6166 -2.5610 -0.2826
 3522TIP3   OH210571   2.281   3.967   4.580 -0.3885 -0.3452 -0.1145
 3522TIP3    H110572   2.256   3.911   4.654  0.1158 -0.0524  0.2870
 3522TIP3    H210573   2.323   3.907   4.518  2.7476 -0.0559  1.5304
 3523TIP3   OH210574   0.990   1.896   4.700  0.2897 -0.5696 -0.8420
 3523TIP3    H110575   1.043   1.957   4.648  1.5326  0.2375  1.2429
 3523TIP3    H210576   0.901   1.929   4.692  0.4686 -0.3270 -2.2100
 3524TIP3   OH210577   2.202   0.597   4.070  0.5513 -0.3258 -0.0904
 3524TIP3    H110578   2.122   0.551   4.098  0.1467  0.1326 -0.4818
 3524TIP3    H210579   2.256   0.527   4.032 -0.4402 -0.3794 -1.5228
 3525TIP3   OH210580   0.339   1.392   2.574 -0.5253 -0.0598 -0.8737
 3525TIP3    H110581   0.372   1.305   2.596 -0.7969  0.2114  0.7340
 3525TIP3    H210582   0.274   1.376   2.506  0.1331 -0.9976 -1.3051
 3526TIP3   OH210583   1.056   4.091   1.937 -0.2172 -0.7378 -0.2174
 3526TIP3    H110584   1.147   4.120   1.946 -0.6595  0.6857 -0.0205
 3526TIP3    H210585   1.007   4.148   1.996 -1.6595  0.8399 -2.7174
 3527TIP3   OH210586   4.927   5.942   0.552  0.0015  0.1800 -0.6305
 3527TIP3    H110587   5.009   5.968   0.510  1.3481 -0.9358  1.1612
 3527TIP3    H210588   4.867   5.923   0.480  1.6900 -0.1219 -2.0022
 3528TIP3   OH210589   0.519   1.258   1.262 -0.3458 -0.4050 -0.0311
 3528TIP3    H110590   0.565   1.240   1.344  1.1337 -0.4177 -0.8205
 3528TIP3    H210591   0.589   1.269   1.198 -1.4088  1.0615 -1.0131
 3529TIP3   OH210592   0.606   5.763   3.958  0.1055 -0.0609  0.1080
 3529TIP3    H110593   0.609   5.852   3.923  0.1886 -0.0297  0.1943
 3529TIP3    H210594   0.675   5.716   3.911  0.7352  0.1804  0.7739
 3530TIP3   OH210595   1.500   0.752   0.068 -0.0155  0.7415 -0.5061
 3530TIP3    H110596   1.477   0.818   0.134  1.4349  0.9108 -0.1323
 3530TIP3    H210597   1.428   0.755   0.005 -1.2721  0.8135  0.8774
 3531TIP3   OH210598   5.318   4.794   1.640  0.0657 -0.0568 -0.0629
 3531TIP3    H110599   5.343   4.741   1.564  0.9972  1.3778 -0.8021
 3531TIP3    H210600   5.395   4.795   1.696 -0.2022 -0.1147  0.3094
 3532TIP3   OH210601   6.029   5.214   1.375 -0.1522 -0.9039  0.2239
 3532TIP3    H110602   6.100   5.166   1.334  1.3836  1.2330  0.1914
 3532TIP3    H210603   5.984   5.258   1.303 -0.3280 -0.7559  0.4207
 3533TIP3   OH210604   3.240   1.780   5.037  0.8688 -0.2854 -0.4708
 3533TIP3    H110605   3.277   1.849   4.982  2.4407 -1.5473 -1.0967
 3533TIP3    H210606   3.304   1.768   5.107 -0.2470  0.0726  0.6415
 3534TIP3   OH210607   4.372   4.687   0.908  0.3623  0.1023  0.0361
 3534TIP3    H110608   4.362   4.782   0.899  0.8295  0.2929  1.2797
 3534TIP3    H210609   4.345   4.652   0.824 -1.7279  1.1997  0.1884
 3535TIP3   OH210610   2.551   4.091   2.602 -0.1868 -0.4966  0.7481
 3535TIP3    H110611   2.627   4.107   2.546 -0.6329  1.3294  0.5807
 3535TIP3    H210612   2.573   4.012   2.652  1.3244 -0.6421 -0.1046
 3536TIP3   OH210613   5.828   4.402   3.412 -0.6651 -0.3402 -0.4024
 3536TIP3    H110614   5.800   4.404   3.321  1.4457  1.7252 -1.1083
 3536TIP3    H210615   5.909   4.351   3.411 -0.2529  0.2888  0.1794
 3537TIP3   OH210616   6.256   1.465   0.234 -0.0114 -0.8351 -0.3594
 3537TIP3    H110617   6.196   1.456   0.308  0.9158  0.7570  0.6582
 3537TIP3    H210618   6.298   1.379   0.227 -0.1386 -1.0330  0.9729
 3538TIP3   OH210619   0.088   2.322   4.456 -0.0779 -0.0834 -0.1597
 3538TIP3    H110620   0.005   2.340   4.500  0.3092 -0.3799  0.7206
 3538TIP3    H210621   0.130   2.408   4.448  0.1744 -0.1176  0.7371
 3539TIP3   OH210622   2.363   3.849   2.842 -0.0953  0.1376 -0.0434
 3539TIP3    H110623   2.329   3.835   2.754  0.3633 -2.3181  0.1178
 3539TIP3    H210624   2.458   3.841   2.833 -0.0295  0.1009  0.6385
 3540TIP3   OH210625   1.582   5.956   1.519  0.5937  0.3416 -0.0050
 3540TIP3    H110626   1.657   5.977   1.464  1.4007 -1.3777  0.3789
 3540TIP3    H210627   1.620   5.924   1.601 -0.5766  0.7014  0.7052
 3541TIP3   OH210628   1.048   3.488   3.002 -0.0718  0.0366 -0.5894
 3541TIP3    H110629   1.028   3.394   3.003  0.1795 -0.0461 -2.0523
 3541TIP3    H210630   0.996   3.523   2.930 -1.2110  1.2955  0.7656
 3542TIP3   OH210631   1.458   5.601   2.335 -0.2109 -0.7769 -0.7685
 3542TIP3    H110632   1.475   5.557   2.419  0.3634 -0.1270 -0.5362
 3542TIP3    H210633   1.537   5.652   2.318  0.5747 -2.5360 -2.7889
 3543TIP3   OH210634   6.318   1.646   2.891 -0.8837 -0.1151  0.0780
 3543TIP3    H110635   6.377   1.621   2.819 -0.8008 -0.4495  0.2621
 3543TIP3    H210636   6.323   1.741   2.893 -0.2876 -0.1426  0.1411
 3544TIP3   OH210637   4.359   3.130   1.503  0.0283  0.6245 -0.5327
 3544TIP3    H110638   4.417   3.055   1.492  0.7672  1.0916  0.0282
 3544TIP3    H210639   4.411   3.194   1.552 -1.2449  0.7147  0.7900
 3545TIP3   OH210640   2.221   1.169   2.019  0.2481 -0.2927  0.1892
 3545TIP3    H110641   2.137   1.215   2.013  1.2348  1.4718 -1.1182
 3545TIP3    H210642   2.246   1.177   2.110 -1.1605 -1.2191  0.7003
 3546TIP3   OH210643   6.052   0.277   1.878  0.2415  0.4094  0.1533
 3546TIP3    H110644   6.110   0.230   1.937  1.6225  1.6337 -0.1824
 3546TIP3    H210645   6.070   0.240   1.791  0.7079  0.9562  0.0138
 3547TIP3   OH210646   1.650   1.893   3.528  0.1876  0.0090  0.1459
 3547TIP3    H110647   1.586   1.831   3.494  0.8807  0.4953 -2.2021
 3547TIP3    H210648   1.598   1.951   3.585 -1.0708 -0.8083 -0.1282
 3548TIP3   OH210649   2.661   0.012   3.791 -0.7886 -0.2863 -0.1614
 3548TIP3    H110650   2.729   0.052   3.846 -0.6117 -1.0836  0.2125
 3548TIP3    H210651   2.710  -0.042   3.729 -1.0776 -1.0539  0.2614
 3549TIP3   OH210652   3.911   1.292   0.974  0.1736  0.2497  0.6909
 3549TIP3    H110653   3.963   1.372   0.976 -0.0327  0.4741 -1.1190
 3549TIP3    H210654   3.976   1.221   0.977  0.3646  0.4645  2.1344
 3550TIP3   OH210655   3.472   4.719   4.096 -0.0786 -0.2300  0.8824
 3550TIP3    H110656   3.521   4.783   4.044  0.0705 -0.2948  0.9413
 3550TIP3    H210657   3.453   4.648   4.035 -2.0917  0.7958  0.2437
 3551TIP3   OH210658   3.938   0.438   4.232 -0.4409 -0.6090 -0.0720
 3551TIP3    H110659   3.865   0.496   4.250 -0.3410 -0.8965  1.3547
 3551TIP3    H210660   4.006   0.495   4.196 -0.2010  0.2577  1.6702
 3552TIP3   OH210661   1.948   0.436   4.783 -0.0206 -0.7045  0.1380
 3552TIP3    H110662   1.974   0.466   4.696 -1.9871 -0.2858 -0.3384
 3552TIP3    H210663   1.884   0.367   4.767 -0.8672 -0.2072  1.2561
 3553TIP3   OH210664   5.511   5.701   1.128 -0.7226 -0.4294  0.0893
 3553TIP3    H110665   5.436   5.654   1.092 -0.8783  0.6158 -1.0156
 3553TIP3    H210666   5.474   5.778   1.169 -0.5056 -1.3833  2.2330
 3554TIP3   OH210667   4.245   0.412   2.965 -0.1115  0.0053 -0.3333
 3554TIP3    H110668   4.270   0.406   2.873 -0.3295 -1.6285 -0.3248
 3554TIP3    H210669   4.188   0.336   2.979 -0.2722  0.3576  1.0907
 3555TIP3   OH210670   4.048   2.598   4.665 -0.3773  0.4389  0.3712
 3555TIP3    H110671   4.082   2.522   4.713  2.1866  1.2981  0.1000
 3555TIP3    H210672   4.077   2.584   4.575 -0.5702  1.3480  0.1636
 3556TIP3   OH210673   6.217   5.381   0.225  0.2256 -0.2686  0.3658
 3556TIP3    H110674   6.210   5.304   0.168  1.3307  0.9865 -1.5814
 3556TIP3    H210675   6.173   5.355   0.306 -2.6073 -1.7336 -1.4766
 3557TIP3   OH210676   4.538   2.252   2.424 -0.4745  0.0975 -0.9849
 3557TIP3    H110677   4.527   2.199   2.503 -0.0403 -0.1797 -1.1053
 3557TIP3    H210678   4.470   2.221   2.364 -0.8573  0.3636 -0.6947
 3558TIP3   OH210679   0.313   0.445   0.296  0.3892 -0.2665  0.4451
 3558TIP3    H110680   0.351   0.486   0.219  1.5771 -0.1626  1.0663
 3558TIP3    H210681   0.341   0.500   0.370 -2.3926  0.8408  0.8318
 3559TIP3   OH210682   2.123   0.413   0.961  0.1370  0.4403 -0.3177
 3559TIP3    H110683   2.131   0.475   0.889  1.9232  0.3232 -0.2685
 3559TIP3    H210684   2.147   0.463   1.039 -0.8150  0.3091  0.0722
 3560TIP3   OH210685   4.116   2.194   1.525  0.3484 -0.0958 -0.2789
 3560TIP3    H110686   4.033   2.197   1.572 -0.8879  0.2714 -2.3506
 3560TIP3    H210687   4.129   2.283   1.493  0.5700 -0.5586 -1.5336
 3561TIP3   OH210688   1.043   3.031   0.928  0.0596 -0.2165 -0.1367
 3561TIP3    H110689   0.997   2.956   0.890 -1.2617 -0.2135  1.3336
 3561TIP3    H210690   0.999   3.045   1.012  2.0082  0.5535  0.8101
 3562TIP3   OH210691   0.831   0.323   2.137  0.2893  0.0201 -0.2147
 3562TIP3    H110692   0.819   0.236   2.098  0.4696  0.4463 -1.2568
 3562TIP3    H210693   0.879   0.306   2.218 -0.3083 -0.9169 -0.0297
 3563TIP3   OH210694   5.691   0.496   1.761  0.0017  0.3976  0.3719
 3563TIP3    H110695   5.777   0.537   1.763 -0.2540  0.9862 -0.3042
 3563TIP3    H210696   5.654   0.515   1.848 -0.1780  1.7744  0.0202
 3564TIP3   OH210697   4.291   0.917   2.501 -0.0203 -0.5461  0.0213
 3564TIP3    H110698   4.291   0.822   2.489  0.4119 -0.6041  0.4353
 3564TIP3    H210699   4.222   0.933   2.566 -0.3209 -0.5416 -0.2988
 3565TIP3   OH210700   3.302   0.485   0.513  0.3138 -0.0297 -0.5573
 3565TIP3    H110701   3.350   0.510   0.592  1.7828 -1.5271 -0.9065
 3565TIP3    H210702   3.354   0.413   0.475 -0.5097  0.4203 -2.7042
 3566TIP3   OH210703   2.002   1.953   0.316  0.6619 -0.3786  0.1690
 3566TIP3    H110704   1.979   2.030   0.369  1.7174 -0.5124  0.8733
 3566TIP3    H210705   2.047   1.895   0.378 -0.1823 -1.6044 -0.3418
 3567TIP3   OH210706   3.759   5.699   0.071  0.0261  0.0164  0.4634
 3567TIP3    H110707   3.720   5.618   0.103  0.6578 -0.2815  0.4889
 3567TIP3    H210708   3.704   5.725  -0.003  1.3628 -1.8842 -1.3058
 3568TIP3   OH210709   2.745   1.327   2.932 -0.2960 -0.5093  0.2660
 3568TIP3    H110710   2.733   1.312   3.026 -1.4717  0.4096  0.2907
 3568TIP3    H210711   2.741   1.240   2.894 -0.1765 -0.8629  1.0294
 3569TIP3   OH210712   5.743   0.162   4.099 -0.0948  0.6473 -0.2178
 3569TIP3    H110713   5.765   0.077   4.138 -3.2982  0.2070  0.9087
 3569TIP3    H210714   5.816   0.219   4.123  1.2162 -1.2864  0.6818
 3570TIP3   OH210715   0.476   1.916   0.198 -0.5136  0.0616 -0.1980
 3570TIP3    H110716   0.438   1.864   0.127 -1.4525 -0.8583  0.9572
 3570TIP3    H210717   0.401   1.955   0.243 -0.1905 -1.7423  2.0907
 3571TIP3   OH210718   5.518   5.630   3.164 -0.9867  0.0796 -0.1928
 3571TIP3    H110719   5.598   5.674   3.134 -0.5544  0.7454  1.7352
 3571TIP3    H210720   5.549   5.551   3.209 -1.4219  0.1760  0.2921
 3572TIP3   OH210721   4.117   2.729   4.083  0.1207  0.3820 -0.1693
 3572TIP3    H110722   4.084   2.782   4.155  0.5559  0.9776 -0.4057
 3572TIP3    H210723   4.163   2.791   4.026  1.9801 -0.4668  0.3262
 3573TIP3   OH210724   3.698   5.067   0.682  0.0800  0.3003  0.0664
 3573TIP3    H110725   3.715   5.126   0.608 -2.0865  1.0363  0.0830
 3573TIP3    H210726   3.736   5.111   0.758 -1.7961  1.9133  0.1376
 3574TIP3   OH210727   3.759   0.686   0.208 -0.4886 -0.4677  0.2225
 3574TIP3    H110728   3.776   0.766   0.158  0.8624 -1.0283 -0.2596
 3574TIP3    H210729   3.675   0.654   0.175  0.6636 -1.2019 -2.2445
 3575TIP3   OH210730   5.044   2.656   2.723 -0.9574 -0.1327 -0.3187
 3575TIP3    H110731   5.117   2.594   2.728 -0.5978  0.2461 -0.7551
 3575TIP3    H210732   4.973   2.614   2.771 -0.5444 -0.6398 -0.1458
 3576TIP3   OH210733   1.017   4.830   0.412  0.3220  0.1622 -0.4218
 3576TIP3    H110734   1.098   4.781   0.428  0.9064  1.9429  2.9793
 3576TIP3    H210735   1.047   4.917   0.387 -0.5655  0.5376 -0.2015
 3577TIP3   OH210736   4.618   4.594   2.539 -0.7301  0.3578 -0.8377
 3577TIP3    H110737   4.705   4.557   2.555 -1.1829  0.0315  1.0117
 3577TIP3    H210738   4.588   4.624   2.624 -2.7485 -0.1765 -1.3121
 3578TIP3   OH210739   2.115   3.501   1.597  0.2062  0.5585  0.4637
 3578TIP3    H110740   2.210   3.503   1.605  0.2698 -0.3552  0.0180
 3578TIP3    H210741   2.093   3.585   1.556  0.8690  0.5310  0.0427
 3579TIP3   OH210742   0.668   5.965   3.557 -0.6970 -0.3543 -0.1327
 3579TIP3    H110743   0.656   6.060   3.550  1.9365  0.0463  0.0799
 3579TIP3    H210744   0.604   5.929   3.495  0.6256  1.7291 -2.9204
 3580TIP3   OH210745   0.049   1.419   4.971  0.3661  0.2574  0.1112
 3580TIP3    H110746   0.014   1.488   4.914  1.6720  1.5170  0.7897
 3580TIP3    H210747  -0.026   1.361   4.986 -0.1473  0.0878 -2.5313
 3581TIP3   OH210748   0.100   4.651   2.981 -0.1155  0.6699 -0.1638
 3581TIP3    H110749   0.039   4.579   2.967 -0.0228  0.5745 -0.0846
 3581TIP3    H210750   0.090   4.706   2.904  0.6352 -0.0200 -0.7715
 3582TIP3   OH210751   5.613   1.378   3.214 -0.3930  0.0972  0.1837
 3582TIP3    H110752   5.696   1.392   3.170 -0.3510 -0.8557 -0.0531
 3582TIP3    H210753   5.564   1.320   3.156 -0.4574 -0.9284  1.2125
 3583TIP3   OH210754   0.501   2.353   3.836 -0.4950 -0.2346 -0.2535
 3583TIP3    H110755   0.508   2.289   3.766  1.5406  0.8886 -1.1418
 3583TIP3    H210756   0.420   2.401   3.817 -1.8247 -2.1685  0.1909
 3584TIP3   OH210757   2.493   1.070   0.391  0.0004 -0.5641 -0.2150
 3584TIP3    H110758   2.437   1.074   0.314 -0.5128 -1.5074  0.1038
 3584TIP3    H210759   2.433   1.061   0.465  0.4372  1.0536  0.3910
 3585TIP3   OH210760   2.167   4.894   4.210  0.1181 -0.7507 -0.3246
 3585TIP3    H110761   2.119   4.812   4.202  0.9691 -1.1958 -1.0340
 3585TIP3    H210762   2.116   4.946   4.272 -0.7726 -1.5612 -0.3621
 3586TIP3   OH210763   5.976   2.560   0.976  0.4427  0.3620  0.2599
 3586TIP3    H110764   5.886   2.552   0.945  0.2023  0.9560  0.7873
 3586TIP3    H210765   5.979   2.506   1.055  1.0347 -1.0917 -0.7131
 3587TIP3   OH210766   0.446   5.252   3.556  0.7345 -0.7994  0.7908
 3587TIP3    H110767   0.449   5.312   3.481 -0.4214  1.9401  2.7556
 3587TIP3    H210768   0.354   5.227   3.562  0.1574  1.4618  2.9436
 3588TIP3   OH210769   1.103   1.376   4.680 -0.2801 -0.1937  0.1035
 3588TIP3    H110770   1.069   1.419   4.601  0.6217 -1.3315 -0.9574
 3588TIP3    H210771   1.197   1.369   4.664  0.0905  0.4748  1.7743
 3589TIP3   OH210772   0.215   1.467   4.244 -0.0896 -0.6387  0.0180
 3589TIP3    H110773   0.135   1.427   4.210 -0.0076 -0.5478 -0.2750
 3589TIP3    H210774   0.202   1.467   4.339 -1.9123  2.4206 -0.0897
 3590TIP3   OH210775   3.123   3.641   2.259 -0.4938  0.7530 -0.1701
 3590TIP3    H110776   3.040   3.607   2.293  0.6711 -2.2782 -0.0063
 3590TIP3    H210777   3.109   3.647   2.164 -0.4992 -1.3047 -0.3486
 3591TIP3   OH210778   0.590   4.774   4.410 -0.2931 -0.3830  0.0219
 3591TIP3    H110779   0.587   4.714   4.483  1.4830  0.6596  1.0335
 3591TIP3    H210780   0.595   4.861   4.450  1.1960  0.1898 -1.2704
 3592TIP3   OH210781   4.836   5.622   0.805  0.0396 -0.1118 -0.4619
 3592TIP3    H110782   4.890   5.551   0.840  0.1243 -0.2549 -0.8771
 3592TIP3    H210783   4.848   5.694   0.867 -0.5799 -0.6749  0.3189
 3593TIP3   OH210784   4.871   5.080   1.267 -0.4062 -0.3633 -0.0790
 3593TIP3    H110785   4.885   5.031   1.348  0.4266 -1.8746 -1.0876
 3593TIP3    H210786   4.858   5.170   1.295  1.3413 -0.5896  1.6393
 3594TIP3   OH210787   3.930   4.109   3.039 -0.4790  0.1777  0.4688
 3594TIP3    H110788   3.864   4.050   3.076  0.8246 -0.1285  2.4456
 3594TIP3    H210789   3.908   4.195   3.074 -0.5094  0.2841  0.1870
 3595TIP3   OH210790   3.030   2.433   2.987 -0.2760 -0.1138  0.0334
 3595TIP3    H110791   2.956   2.471   3.034 -1.3108 -0.3838 -1.3272
 3595TIP3    H210792   3.003   2.343   2.968  0.2545 -0.1186 -0.7461
 3596TIP3   OH210793   0.212   4.465   2.320  0.0312  0.0551  0.3103
 3596TIP3    H110794   0.183   4.386   2.366  0.9201  0.5743  1.8112
 3596TIP3    H210795   0.279   4.503   2.376  0.3503  1.3503 -0.8778
 3597TIP3   OH210796   5.621   2.461   1.200  0.0926 -0.1691 -0.3134
 3597TIP3    H110797   5.689   2.404   1.165  0.7140  1.1763 -1.4174
 3597TIP3    H210798   5.539   2.425   1.168  0.3142 -1.4038  0.4430
 3598TIP3   OH210799   2.686   3.036   4.583  0.2475 -0.0490  0.0199
 3598TIP3    H110800   2.728   2.962   4.627  0.2470  1.0177  1.9231
 3598TIP3    H210801   2.749   3.062   4.515  0.4191 -1.5153 -0.4075
 3599TIP3   OH210802   3.353   2.871   1.021 -0.5189  0.1023 -0.9136
 3599TIP3    H110803   3.368   2.786   1.060 -1.1535  0.2116 -0.4352
 3599TIP3    H210804   3.441   2.902   0.999 -0.1304  0.0882  0.5147
 3600TIP3   OH210805   0.887   1.063   2.367  0.1282  0.1951 -0.2357
 3600TIP3    H110806   0.844   1.147   2.354  1.4125  1.4056  2.3903
 3600TIP3    H210807   0.816   1.004   2.393 -0.3520  1.5960  1.9359
 3601TIP3   OH210808   0.614   2.796   3.244 -0.1296  0.5268 -0.5894
 3601TIP3    H110809   0.601   2.704   3.268 -0.4326  0.5160 -0.7905
 3601TIP3    H210810   0.534   2.821   3.199  0.8639  0.1967 -2.6755
 3602TIP3   OH210811   2.096   0.044   0.718  0.0071  0.2829 -0.3297
 3602TIP3    H110812   2.077   0.085   0.634  2.2691  1.0355 -0.5298
 3602TIP3    H210813   2.062   0.105   0.783 -0.2225  0.5172 -0.6693
 3603TIP3   OH210814   4.462   3.623   2.509  0.7325 -0.1235  0.0171
 3603TIP3    H110815   4.379   3.585   2.482  1.6359 -1.5879 -0.8162
 3603TIP3    H210816   4.494   3.668   2.431  0.3923  1.0765  0.5542
 3604TIP3   OH210817   5.195   4.521   0.609 -0.2848 -0.9062  0.4378
 3604TIP3    H110818   5.165   4.459   0.543 -0.0470 -1.4406  0.8220
 3604TIP3    H210819   5.264   4.475   0.656  0.1270 -0.2288  0.5196
 3605TIP3   OH210820   2.756   3.317   1.729 -0.6124  0.5708 -0.8464
 3605TIP3    H110821   2.785   3.226   1.725  0.2661  0.8593 -1.0829
 3605TIP3    H210822   2.767   3.350   1.640 -0.6839  0.9836 -0.7053
 3606TIP3   OH210823   1.194   4.323   2.554  0.1218  0.4140 -0.8934
 3606TIP3    H110824   1.254   4.281   2.616  2.0890  2.0176 -1.6123
 3606TIP3    H210825   1.250   4.381   2.501 -2.2537  3.3191 -0.4972
 3607TIP3   OH210826   3.473   3.961   1.808 -0.6495  0.8029 -0.0634
 3607TIP3    H110827   3.496   3.882   1.760  1.3144  1.3136 -0.0324
 3607TIP3    H210828   3.488   3.940   1.899  0.3649  1.3454 -0.0928
 3608TIP3   OH210829   5.597   3.559   0.667 -0.6722  0.4929  0.2790
 3608TIP3    H110830   5.532   3.490   0.652 -1.5643  1.0725  1.3016
 3608TIP3    H210831   5.615   3.555   0.761  0.3208  0.7559  0.1136
 3609TIP3   OH210832   4.443   2.469   2.915  0.7460  0.1314  0.1888
 3609TIP3    H110833   4.409   2.483   3.003  0.1132 -0.4004  0.0354
 3609TIP3    H210834   4.462   2.557   2.882 -0.0578  0.4072  0.4463
 3610TIP3   OH210835   0.353   1.064   4.100  0.3558  0.0848  0.5401
 3610TIP3    H110836   0.386   1.152   4.084 -0.5159  0.1881 -0.8919
 3610TIP3    H210837   0.429   1.015   4.133  1.2417  0.9662 -0.1388
 3611TIP3   OH210838   5.570   1.776   1.527  0.2982  0.0165  0.1236
 3611TIP3    H110839   5.489   1.816   1.495  0.2970 -0.1095 -0.0333
 3611TIP3    H210840   5.554   1.681   1.520  0.3000 -0.0125  0.4910
 3612TIP3   OH210841   3.088  -0.024   2.611 -0.0456  0.0121 -0.3729
 3612TIP3    H110842   3.175   0.015   2.598 -0.9642  2.8889  1.1548
 3612TIP3    H210843   3.035   0.013   2.541  0.0099 -2.2050 -1.6665
 3613TIP3   OH210844   3.211   0.923   4.178 -0.0325  0.4015 -0.4539
 3613TIP3    H110845   3.139   0.981   4.151 -1.4907 -0.8913  0.4923
 3613TIP3    H210846   3.168   0.856   4.231  2.0955  0.3496  1.3037
 3614TIP3   OH210847   0.798   5.226   2.828  0.7508 -0.7168 -0.1509
 3614TIP3    H110848   0.855   5.173   2.772  0.1180  0.2821 -1.7981
 3614TIP3    H210849   0.780   5.304   2.777 -0.3226 -0.0051  1.2480
 3615TIP3   OH210850   5.892   3.977   0.292  0.2078 -0.2374 -0.2186
 3615TIP3    H110851   5.927   4.034   0.360  1.2332 -0.9653 -0.1193
 3615TIP3    H210852   5.800   3.963   0.318  0.0978  0.8827  0.0565
 3616TIP3   OH210853   0.714   4.902   0.953  0.4727 -0.4338 -0.2503
 3616TIP3    H110854   0.798   4.863   0.979  0.4322  0.2028  0.8911
 3616TIP3    H210855   0.694   4.965   1.022 -0.6620 -0.1485 -0.8121
 3617TIP3   OH210856   0.188   3.108   2.670  0.0769  0.0590  1.0907
 3617TIP3    H110857   0.202   3.047   2.743 -1.3315 -0.1502  1.2051
 3617TIP3    H210858   0.276   3.132   2.642  0.6451 -0.4623  2.3602
 3618TIP3   OH210859   6.211   5.923   0.109 -0.3268 -0.6610  0.6686
 3618TIP3    H110860   6.130   5.916   0.058  0.6631 -0.0648 -1.0787
 3618TIP3    H210861   6.278   5.882   0.053  1.1447  1.5588  0.6777
 3619TIP3   OH210862   2.954   5.761   0.560 -0.5732  0.7299 -0.0138
 3619TIP3    H110863   3.019   5.828   0.536 -1.0023  1.7125  1.4289
 3619TIP3    H210864   2.949   5.704   0.483 -0.0458  2.2434 -1.2257
 3620TIP3   OH210865   1.628   5.395   2.944  0.4374  0.9054 -0.2070
 3620TIP3    H110866   1.707   5.385   2.996  0.8997  0.9233 -0.8905
 3620TIP3    H210867   1.658   5.430   2.860 -0.0456 -0.6981 -1.1071
 3621TIP3   OH210868   5.580   0.682   1.121  0.0463  0.0422 -0.1212
 3621TIP3    H110869   5.580   0.667   1.026 -1.6997  1.2358 -0.3616
 3621TIP3    H210870   5.529   0.610   1.157  0.1744 -0.0695 -0.1638
 3622TIP3   OH210871   1.600   4.202   2.455  0.0295 -0.1938  0.3904
 3622TIP3    H110872   1.636   4.194   2.367  2.2951  1.5660  1.0561
 3622TIP3    H210873   1.662   4.155   2.511 -1.9273 -2.1908  1.0207
 3623TIP3   OH210874   4.747   1.203   2.847 -0.2159 -0.0539 -0.1429
 3623TIP3    H110875   4.677   1.138   2.858  0.2243 -0.5215 -0.0373
 3623TIP3    H210876   4.769   1.199   2.754  0.9124 -1.2440  0.1378
 3624TIP3   OH210877   0.872   3.381   3.318  0.1358 -0.4625 -0.2192
 3624TIP3    H110878   0.895   3.330   3.240 -1.8156  0.7557 -1.6850
 3624TIP3    H210879   0.925   3.460   3.311 -1.3115  0.4565 -1.3424
 3625TIP3   OH210880   4.581   4.482   3.918  0.3518 -0.7039  0.2186
 3625TIP3    H110881   4.589   4.422   3.992  0.0152 -0.2437  0.6321
 3625TIP3    H210882   4.571   4.569   3.958  0.8138 -0.3723 -0.3709
 3626TIP3   OH210883   5.993   0.025   0.626  0.1979 -0.1322  0.3016
 3626TIP3    H110884   5.988  -0.065   0.594 -0.2100 -0.4244  1.1661
 3626TIP3    H210885   5.914   0.067   0.592 -1.6710 -1.1600  3.0131
 3627TIP3   OH210886   6.016   4.896   2.084 -0.2515 -0.1971 -0.0435
 3627TIP3    H110887   5.932   4.934   2.111 -0.2645 -0.9400  0.9879
 3627TIP3    H210888   6.016   4.906   1.988 -1.5288 -0.2200 -0.0705
 3628TIP3   OH210889   6.185   1.541   4.848 -0.0916 -0.1032  0.1184
 3628TIP3    H110890   6.170   1.524   4.941  0.9882 -2.1230  0.0019
 3628TIP3    H210891   6.148   1.627   4.833 -0.0564  0.4054  2.4806
 3629TIP3   OH210892   2.926   2.971   4.146 -0.3575 -0.3819  1.3457
 3629TIP3    H110893   2.895   3.046   4.198 -1.5574 -1.2217  1.8883
 3629TIP3    H210894   2.849   2.915   4.138 -0.3610 -0.0667 -1.7803
 3630TIP3   OH210895   5.017   2.954   2.351  0.1022 -0.0457  0.3030
 3630TIP3    H110896   5.066   2.873   2.339  1.8116  1.1467 -1.3824
 3630TIP3    H210897   5.084   3.021   2.360 -1.2384  1.3876 -0.0089
 3631TIP3   OH210898   3.182   1.955   0.075  0.4221 -0.0718  0.2870
 3631TIP3    H110899   3.165   2.049   0.073  0.6728  0.0217  1.6152
 3631TIP3    H210900   3.160   1.925  -0.013 -1.2896  0.9396  0.3268
 3632TIP3   OH210901   2.787   3.214   2.224  0.2570  0.0128  0.2800
 3632TIP3    H110902   2.726   3.205   2.297 -0.7419 -1.1134 -0.6431
 3632TIP3    H210903   2.863   3.161   2.249  0.1771  0.1183  0.7495
 3633TIP3   OH210904   5.517   2.790   1.497 -0.0928 -0.8235 -0.3114
 3633TIP3    H110905   5.520   2.787   1.402 -0.3511 -0.2489 -0.3443
 3633TIP3    H210906   5.575   2.721   1.526  2.3573  0.8800 -0.8714
 3634TIP3   OH210907   2.664   5.946   1.807  0.0303 -0.1541  0.4021
 3634TIP3    H110908   2.668   5.851   1.816 -2.5804 -0.5723 -1.5760
 3634TIP3    H210909   2.696   5.964   1.718 -0.3754  0.6836  0.4070
 3635TIP3   OH210910   4.275   4.703   2.163  0.2882  0.5491 -0.3211
 3635TIP3    H110911   4.255   4.741   2.249 -1.4975 -0.9750  0.0069
 3635TIP3    H210912   4.197   4.721   2.111  0.5951 -0.1405 -1.0322
 3636TIP3   OH210913   3.712   1.950   3.953 -0.2628 -0.2325  0.2169
 3636TIP3    H110914   3.692   2.014   3.884  1.1972  1.3511  1.1879
 3636TIP3    H210915   3.688   1.994   4.035  1.1491 -0.7437  0.9437
 3637TIP3   OH210916   0.326   0.860   3.534 -0.7335 -0.7115 -0.0083
 3637TIP3    H110917   0.341   0.850   3.628 -0.9543 -3.1591 -0.1735
 3637TIP3    H210918   0.255   0.800   3.515 -1.8965  1.0365 -1.4953
 3638TIP3   OH210919   3.202   5.241   4.131 -0.0099  0.1206 -0.0627
 3638TIP3    H110920   3.276   5.236   4.071  0.4154 -1.5748  0.5484
 3638TIP3    H210921   3.241   5.228   4.218 -0.8137  0.9000  0.4278
 3639TIP3   OH210922   0.732   4.358   3.772  0.3074 -0.2179 -0.2038
 3639TIP3    H110923   0.648   4.365   3.818  0.2301  0.9326 -0.4871
 3639TIP3    H210924   0.710   4.333   3.683  0.4092 -1.6884  0.1467
 3640TIP3   OH210925   1.431   0.381   2.782 -0.3115 -0.6382  0.1137
 3640TIP3    H110926   1.507   0.439   2.779 -0.3817 -0.5544 -0.0353
 3640TIP3    H210927   1.379   0.413   2.855 -0.2155 -0.6812  0.2012
 3641TIP3   OH210928   2.936   5.672   1.701 -0.1072  1.0351 -0.2335
 3641TIP3    H110929   2.918   5.721   1.781 -0.6729 -0.0573  0.3272
 3641TIP3    H210930   2.980   5.735   1.644 -0.4662  2.0744  0.6071
 3642TIP3   OH210931   0.500   3.312   2.083  0.1143 -0.1228 -0.1585
 3642TIP3    H110932   0.514   3.369   2.158  1.7280  1.5798 -1.6616
 3642TIP3    H210933   0.476   3.371   2.012 -0.6805 -1.6182 -1.1845
 3643TIP3   OH210934   1.929   5.243   0.808  0.1935  0.1515 -0.1340
 3643TIP3    H110935   1.839   5.251   0.840  0.1715 -1.5295  0.3174
 3643TIP3    H210936   1.932   5.300   0.731 -0.5432  2.1109  1.1868
 3644TIP3   OH210937   0.097   2.220   0.817 -0.6041  0.4178 -0.1757
 3644TIP3    H110938   0.178   2.252   0.857 -0.8914  1.2181 -0.2322
 3644TIP3    H210939   0.111   2.233   0.723 -0.8301  0.6260 -0.1797
 3645TIP3   OH210940   3.420   3.582   3.534  0.0805  0.6636 -0.0565
 3645TIP3    H110941   3.446   3.549   3.448 -0.7834  1.0876 -0.4921
 3645TIP3    H210942   3.325   3.596   3.527 -0.2320 -0.4259  1.3301
 3646TIP3   OH210943   1.275   3.596   1.150 -0.4454  0.0187  0.3589
 3646TIP3    H110944   1.219   3.568   1.077  1.4628  0.2723 -1.2724
 3646TIP3    H210945   1.243   3.683   1.173 -1.0324 -0.0404 -0.2045
 3647TIP3   OH210946   0.262   4.221   2.469 -0.2120  0.3522 -0.1466
 3647TIP3    H110947   0.296   4.208   2.557 -0.6004 -1.9880 -0.2942
 3647TIP3    H210948   0.337   4.208   2.411 -0.3937 -0.1759 -0.2620
 3648TIP3   OH210949   5.541   0.462   3.573  0.1708  0.1004 -0.1426
 3648TIP3    H110950   5.468   0.400   3.574 -0.6613  1.0430  0.4820
 3648TIP3    H210951   5.578   0.456   3.661 -0.7368  1.3817  0.3596
 3649TIP3   OH210952   6.035   0.764   4.075 -0.1919  0.1026  0.4090
 3649TIP3    H110953   6.119   0.808   4.065 -0.6723  1.4495  1.7710
 3649TIP3    H210954   5.983   0.794   4.000  0.1499  0.2231  0.2184
 3650TIP3   OH210955   0.513   4.279   3.163 -0.2580  0.1908 -0.6988
 3650TIP3    H110956   0.542   4.342   3.230  1.5729 -0.3849 -0.8862
 3650TIP3    H210957   0.448   4.327   3.112 -1.2743  0.8436  1.1115
 3651TIP3   OH210958   0.810   3.687   1.251 -0.1242 -0.2505  0.5595
 3651TIP3    H110959   0.816   3.738   1.170 -0.9808  0.4846  0.9399
 3651TIP3    H210960   0.852   3.604   1.230  0.8689  0.4222 -0.2287
 3652TIP3   OH210961   4.141   5.453   2.647 -0.4329  0.5376  0.4194
 3652TIP3    H110962   4.185   5.525   2.692 -1.1133  0.3530  1.4166
 3652TIP3    H210963   4.194   5.437   2.569  0.8275  0.8245  1.1942
 3653TIP3   OH210964   0.642   4.745   0.320 -0.3371  0.3322 -0.5753
 3653TIP3    H110965   0.660   4.789   0.403  3.1450  0.7500 -1.3838
 3653TIP3    H210966   0.706   4.782   0.260 -0.2865 -2.5932 -2.4955
 3654TIP3   OH210967   2.048   3.357   2.790  0.1488 -0.5705 -0.1749
 3654TIP3    H110968   1.985   3.327   2.725 -1.1351  1.4126  0.0498
 3654TIP3    H210969   1.994   3.400   2.857  1.5701 -1.0212  1.3341
 3655TIP3   OH210970   2.163   5.009   1.082  0.5643 -0.4282  1.0119
 3655TIP3    H110971   2.109   4.978   1.009  2.2982 -1.9444  0.2977
 3655TIP3    H210972   2.145   4.947   1.153 -1.8776  1.6020  2.3573
 3656TIP3   OH210973   1.799   2.994   3.455 -0.5336  0.1460 -0.6271
 3656TIP3    H110974   1.893   2.988   3.474 -0.3128  0.3948 -1.5874
 3656TIP3    H210975   1.766   2.906   3.473 -0.0467 -0.0368 -0.5976
 3657TIP3   OH210976   4.399   3.355   2.742 -0.0121  0.0612  0.3047
 3657TIP3    H110977   4.303   3.354   2.740 -0.0119 -0.2176  0.4094
 3657TIP3    H210978   4.424   3.350   2.650 -0.0960 -1.1139  0.3230
 3658TIP3   OH210979   3.743   0.260   0.698 -0.2823 -0.4563  0.0119
 3658TIP3    H110980   3.718   0.232   0.610  0.6407  1.3563 -0.8905
 3658TIP3    H210981   3.838   0.247   0.700 -0.0192  1.2977  0.0165
 3659TIP3   OH210982   1.665   5.087   0.818  0.0490  0.9491 -0.6142
 3659TIP3    H110983   1.690   5.086   0.726  0.3695 -1.6430 -0.5558
 3659TIP3    H210984   1.570   5.076   0.817  0.2218 -0.7649 -0.6476
 3660TIP3   OH210985   1.848   2.759   3.250  0.3310  0.4807 -0.1851
 3660TIP3    H110986   1.931   2.768   3.203  1.0645  1.6967  1.2865
 3660TIP3    H210987   1.870   2.772   3.342 -1.6378  1.8063  0.1676
 3661TIP3   OH210988   2.939   4.987   1.510 -0.5339  0.4266 -0.3002
 3661TIP3    H110989   2.913   4.943   1.592 -1.1954 -1.0000 -1.2441
 3661TIP3    H210990   2.860   5.034   1.483 -0.0744  1.5718  0.2684
 3662TIP3   OH210991   5.916   2.198   1.662 -0.3119  0.2167  0.2255
 3662TIP3    H110992   5.854   2.141   1.616 -1.5860  0.5885  1.4061
 3662TIP3    H210993   6.001   2.176   1.625 -1.0432 -0.9175 -0.8567
 3663TIP3   OH210994   4.417   5.825   1.184  0.5768 -0.1515  0.1548
 3663TIP3    H110995   4.326   5.852   1.171  0.1101 -1.8566 -0.4511
 3663TIP3    H210996   4.462   5.850   1.103  1.0620  2.0992  1.0548
 3664TIP3   OH210997   2.156   2.382   4.610  0.3628 -0.5081 -0.2408
 3664TIP3    H110998   2.076   2.341   4.576  0.2100  0.6048 -1.2911
 3664TIP3    H210999   2.202   2.413   4.532  1.7739 -1.0201  0.3615
 3665TIP3   OH211000   5.502   4.695   1.430 -0.3367 -0.8497  0.1294
 3665TIP3    H111001   5.545   4.777   1.455 -1.9795 -0.2790  1.3041
 3665TIP3    H211002   5.539   4.673   1.344 -0.4692  1.5948 -0.6298
 3666TIP3   OH211003   4.275   0.799   1.112 -0.2503  0.4015  0.4045
 3666TIP3    H111004   4.254   0.721   1.163  0.6638 -0.0870  0.0583
 3666TIP3    H211005   4.194   0.822   1.067  0.2124 -2.2376 -2.0098
 3667TIP3   OH211006   0.380   5.233   2.697  0.2406 -0.1437  0.2267
 3667TIP3    H111007   0.440   5.244   2.771  1.0484 -1.9666 -0.0820
 3667TIP3    H211008   0.436   5.232   2.620 -0.5501  1.3162 -0.3968
 3668TIP3   OH211009   0.463   4.232   1.252 -0.0593  0.4378 -0.2596
 3668TIP3    H111010   0.478   4.310   1.200  1.1456 -0.6448 -1.6294
 3668TIP3    H211011   0.547   4.185   1.251 -0.9735 -1.2991 -0.2446
 3669TIP3   OH211012   0.868   5.481   4.499  0.5274 -0.0136 -0.5712
 3669TIP3    H111013   0.775   5.472   4.523  0.2449 -0.1972 -1.6659
 3669TIP3    H211014   0.913   5.498   4.582 -0.5593  0.6295 -0.0891
 3670TIP3   OH211015   1.659   1.371   3.110 -0.0305  0.3232  0.6182
 3670TIP3    H111016   1.571   1.338   3.090 -0.1366  0.6206  0.5833
 3670TIP3    H211017   1.648   1.423   3.189  0.4768 -1.2220  1.7316
 3671TIP3   OH211018   0.489   3.791   3.151 -0.7740  0.8529  0.6298
 3671TIP3    H111019   0.569   3.769   3.198 -0.3702  0.7755 -0.0848
 3671TIP3    H211020   0.434   3.834   3.217 -0.4151  0.3201  1.2945
 3672TIP3   OH211021   2.201   1.002   0.003 -0.0732 -0.1525 -0.0322
 3672TIP3    H111022   2.182   0.909  -0.010  0.3412  0.0191 -2.2090
 3672TIP3    H211023   2.295   1.005   0.022 -0.1337 -0.1854  0.2818
 3673TIP3   OH211024   3.821   4.850   1.952  0.3552  0.3525  0.0427
 3673TIP3    H111025   3.778   4.926   1.993 -1.7191 -0.3733 -0.6282
 3673TIP3    H211026   3.751   4.808   1.901  2.0165 -0.6908 -1.5067
 3674TIP3   OH211027   6.164   5.767   2.960 -0.2967  0.3703 -0.4134
 3674TIP3    H111028   6.091   5.724   3.005  1.1951 -0.9123  0.8959
 3674TIP3    H211029   6.182   5.710   2.884 -0.0769  0.1825 -0.2212
 3675TIP3   OH211030   1.036   1.414   0.583  0.3704  0.1051 -0.4634
 3675TIP3    H111031   1.042   1.375   0.671 -1.0042 -0.4101 -0.5766
 3675TIP3    H211032   0.955   1.463   0.584 -0.2776 -0.8863 -1.8139
 3676TIP3   OH211033   2.329   5.704   2.587 -0.2474  0.0565  0.1472
 3676TIP3    H111034   2.344   5.660   2.504 -0.1808 -0.3869  0.3946
 3676TIP3    H211035   2.272   5.778   2.564 -1.9362 -1.2247  0.0055
 3677TIP3   OH211036   6.085   5.713   1.362  0.2867  0.6168  0.2752
 3677TIP3    H111037   6.121   5.707   1.274  1.5402 -0.9609  0.8327
 3677TIP3    H211038   5.991   5.726   1.349  0.1701 -1.2622 -1.3546
 3678TIP3   OH211039   4.281   4.546   2.875  0.3636  0.7752  0.1138
 3678TIP3    H111040   4.313   4.485   2.940  0.6751  0.8118 -0.0029
 3678TIP3    H211041   4.186   4.537   2.878  0.4051  0.3406  0.1487
 3679TIP3   OH211042   0.904   1.924   3.192 -0.0972  1.1565  0.2975
 3679TIP3    H111043   0.974   1.988   3.182 -0.1086  0.9716 -1.2845
 3679TIP3    H211044   0.945   1.850   3.236  0.9667  0.7228 -1.3149
 3680TIP3   OH211045   3.953   2.314   0.474 -0.3314 -0.3685  0.2484
 3680TIP3    H111046   3.883   2.356   0.525 -2.0608 -2.0230 -0.6388
 3680TIP3    H211047   3.919   2.311   0.385  0.5429 -1.9051 -0.0668
 3681TIP3   OH211048   2.839   1.784   1.976  0.6578  0.5188 -0.2381
 3681TIP3    H111049   2.858   1.837   2.053  1.9779 -0.8904  0.4667
 3681TIP3    H211050   2.920   1.788   1.924  0.2099  0.4689 -0.9433
 3682TIP3   OH211051   6.257   4.838   1.872  0.0801  0.0126 -0.0486
 3682TIP3    H111052   6.252   4.837   1.967 -0.1522 -1.5626 -0.0396
 3682TIP3    H211053   6.190   4.901   1.845 -1.0654 -0.7937  0.8055
 3683TIP3   OH211054   1.963   4.568   5.176  0.4445  0.0748  0.1681
 3683TIP3    H111055   1.941   4.491   5.124  0.1135  0.7781 -0.7511
 3683TIP3    H211056   1.992   4.532   5.260  0.2141 -1.0443 -0.2114
 3684TIP3   OH211057   4.406   1.045   4.393 -0.2608 -0.7173  0.0321
 3684TIP3    H111058   4.491   1.001   4.401  0.3748  0.4430 -0.0355
 3684TIP3    H211059   4.418   1.127   4.442 -0.4159  0.7388 -2.2287
 3685TIP3   OH211060   5.500   5.267   2.721 -0.2443 -0.5151  0.6005
 3685TIP3    H111061   5.529   5.294   2.633 -1.5275 -1.1012 -0.0344
 3685TIP3    H211062   5.433   5.330   2.745 -1.8412 -1.8666 -0.0499
 3686TIP3   OH211063   3.306   5.761   1.209 -0.4429  0.1912  0.0744
 3686TIP3    H111064   3.214   5.778   1.231 -0.2466  0.9039  0.3981
 3686TIP3    H211065   3.313   5.666   1.208 -0.9564  0.1245  1.0608
 3687TIP3   OH211066   2.793   3.233   1.212  0.1486 -0.3725  0.7369
 3687TIP3    H111067   2.863   3.298   1.216 -0.3824  0.4348 -1.4533
 3687TIP3    H211068   2.838   3.149   1.215  1.3258  0.1289 -1.1903
 3688TIP3   OH211069   6.179   1.250   5.018 -0.1458  0.4141  0.1390
 3688TIP3    H111070   6.165   1.264   5.112 -0.9332  0.7524 -0.0185
 3688TIP3    H211071   6.094   1.269   4.978  0.1031 -0.0123 -0.6164
 3689TIP3   OH211072   2.096   0.530   3.454  0.0624  0.1065 -0.6063
 3689TIP3    H111073   2.153   0.559   3.382 -0.0141 -0.5301 -0.9262
 3689TIP3    H211074   2.008   0.543   3.420  0.0257 -0.0984 -0.5876
 3690TIP3   OH211075   0.615   0.530   2.101 -0.2844  0.3887 -0.2460
 3690TIP3    H111076   0.543   0.485   2.146 -0.9516 -1.1470 -2.6317
 3690TIP3    H211077   0.676   0.460   2.078  0.3665  1.2023 -1.0547
 3691TIP3   OH211078   5.071   3.356   1.020 -0.3664 -0.0561  0.0063
 3691TIP3    H111079   5.004   3.370   0.954 -0.0061  0.2221 -0.3047
 3691TIP3    H211080   5.152   3.385   0.978 -0.3458  1.6405  1.1068
 3692TIP3   OH211081   0.397   5.555   1.920 -0.3403 -0.2079 -0.3506
 3692TIP3    H111082   0.348   5.637   1.919 -0.6216 -0.3748 -0.7294
 3692TIP3    H211083   0.459   5.564   1.992  1.7004  1.5508 -2.1706
 3693TIP3   OH211084   2.553   3.882   0.882  0.0763  0.0650  0.1987
 3693TIP3    H111085   2.583   3.948   0.819 -1.3854 -1.1225 -1.8795
 3693TIP3    H211086   2.466   3.856   0.851 -0.2519 -1.3840  2.1124
 3694TIP3   OH211087   2.616   0.733   3.377  0.2673 -0.5654 -0.3313
 3694TIP3    H111088   2.573   0.714   3.294 -0.1147 -0.4590 -0.1566
 3694TIP3    H211089   2.693   0.675   3.378  0.9215  0.2556 -1.2823
 3695TIP3   OH211090   6.151   2.533   0.050  0.5537 -0.2832 -0.2212
 3695TIP3    H111091   6.216   2.599   0.025 -0.2350  0.2506 -0.9217
 3695TIP3    H211092   6.070   2.562   0.008 -0.0314 -1.1912  0.2468
 3696TIP3   OH211093   0.186   1.087   2.214  0.0341 -0.2202 -0.4542
 3696TIP3    H111094   0.186   1.170   2.165  1.8165 -0.4881 -0.9746
 3696TIP3    H211095   0.160   1.021   2.150  0.7110 -0.3372 -0.6193
 3697TIP3   OH211096   3.581   3.685   4.706  0.1203  0.2722  0.1830
 3697TIP3    H111097   3.605   3.776   4.726  1.1768 -0.0850  0.6120
 3697TIP3    H211098   3.495   3.673   4.746  0.2088  0.9221  0.5802
 3698TIP3   OH211099   3.591   3.245   0.772 -0.1845  0.0606 -0.7893
 3698TIP3    H111100   3.632   3.187   0.708 -0.4510 -2.0913  0.8837
 3698TIP3    H211101   3.568   3.188   0.845 -1.9926  2.0093  0.2727
 3699TIP3   OH211102   0.493   0.124   1.987 -0.1628  0.3368  1.1311
 3699TIP3    H111103   0.468   0.175   2.064  0.4859  0.3393  1.3500
 3699TIP3    H211104   0.447   0.166   1.914 -1.8415 -0.4885  1.6852
 3700TIP3   OH211105   3.259   2.387   1.954  0.6130 -0.6131  0.1596
 3700TIP3    H111106   3.293   2.372   2.043  0.0793 -0.0427  0.4723
 3700TIP3    H211107   3.175   2.430   1.968  0.9762  0.3908 -0.6402
 3701TIP3   OH211108   0.656   1.228   0.969  0.1864 -0.8094  0.5334
 3701TIP3    H111109   0.627   1.154   0.917 -0.3017  0.2114 -0.6948
 3701TIP3    H211110   0.587   1.294   0.959  1.2405  0.3226  0.4737
 3702TIP3   OH211111   3.458   1.937   1.581  0.3385 -0.0264 -0.3861
 3702TIP3    H111112   3.526   1.917   1.646 -0.2562  1.3768  0.7386
 3702TIP3    H211113   3.379   1.896   1.615  0.3742 -0.7598 -1.1511
 3703TIP3   OH211114   2.218   0.851   3.943  0.3071 -0.1495  0.0583
 3703TIP3    H111115   2.202   0.921   4.006  0.2587 -0.4029  0.3329
 3703TIP3    H211116   2.240   0.775   3.997 -1.5025 -0.8442 -0.1300
 3704TIP3   OH211117   6.032   3.688   4.389  0.0656 -0.1320  0.1362
 3704TIP3    H111118   5.956   3.745   4.391 -0.2210 -0.5189  0.2795
 3704TIP3    H211119   6.070   3.701   4.301 -1.1922 -1.2821 -0.6086
 3705TIP3   OH211120   5.357   3.777   0.892 -0.9265 -0.3078 -0.3018
 3705TIP3    H111121   5.380   3.775   0.985 -1.1421 -1.6216 -0.2559
 3705TIP3    H211122   5.427   3.729   0.848 -1.4825 -0.8271 -0.6490
 3706TIP3   OH211123   0.450   1.758   3.139  0.4640 -0.0682 -0.3710
 3706TIP3    H111124   0.376   1.774   3.197 -1.2712 -1.3569 -2.0939
 3706TIP3    H211125   0.521   1.811   3.175 -1.4468  1.7106  0.9943
 3707TIP3   OH211126   1.324   4.219   4.866  0.1359 -0.2499  0.2161
 3707TIP3    H111127   1.367   4.220   4.780 -0.9123 -0.1088 -0.3257
 3707TIP3    H211128   1.263   4.144   4.862  0.2040 -0.3506  0.9023
 3708TIP3   OH211129   3.436   1.711   2.060 -0.1320 -0.2304  0.4135
 3708TIP3    H111130   3.359   1.766   2.071 -0.0937 -0.1514  0.2766
 3708TIP3    H211131   3.510   1.769   2.079 -0.1125 -0.3463  0.7037
 3709TIP3   OH211132   5.177   4.244   3.061 -0.0081 -0.3992 -0.2505
 3709TIP3    H111133   5.153   4.225   3.152  0.6451  0.0417  0.0170
 3709TIP3    H211134   5.159   4.338   3.051 -0.8229 -0.6007 -0.8162
 3710TIP3   OH211135   5.160   3.478   2.347 -0.0274 -0.5802 -0.5183
 3710TIP3    H111136   5.192   3.400   2.393 -0.2123  0.3574  1.3108
 3710TIP3    H211137   5.079   3.502   2.393  1.2642  2.0412  0.5887
 3711TIP3   OH211138   3.344   5.479   1.920 -0.1983  0.2784 -0.0790
 3711TIP3    H111139   3.294   5.433   1.853  0.4825  0.1051 -0.4780
 3711TIP3    H211140   3.373   5.559   1.877  0.4852  0.0314 -0.0880
 3712TIP3   OH211141   5.112   1.260   0.749 -0.2739  0.1055 -0.3676
 3712TIP3    H111142   5.163   1.183   0.774  0.1544  0.0539 -1.3306
 3712TIP3    H211143   5.051   1.228   0.683  0.2516  0.6685 -1.1517
 3713TIP3   OH211144   5.154   1.156   3.631 -0.1039  0.1654 -0.2006
 3713TIP3    H111145   5.104   1.093   3.580 -0.8425 -0.0744  0.7873
 3713TIP3    H211146   5.097   1.233   3.637 -0.6569 -0.3352  1.4587
 3714TIP3   OH211147   4.673   1.844   4.495 -0.0202  0.3336 -0.1035
 3714TIP3    H111148   4.636   1.886   4.417 -3.1097 -1.3353  0.3084
 3714TIP3    H211149   4.661   1.909   4.564 -2.7280 -0.2373  0.0814
 3715TIP3   OH211150   0.437   1.688   4.103 -0.2355 -0.3593 -0.1126
 3715TIP3    H111151   0.479   1.680   4.189  1.4488 -0.0498 -0.8747
 3715TIP3    H211152   0.361   1.629   4.108 -0.0344 -0.5271  1.4943
 3716TIP3   OH211153   4.799   0.968   0.052  0.3901 -0.2707 -0.0665
 3716TIP3    H111154   4.862   1.039   0.066  0.6015 -0.5576  0.5091
 3716TIP3    H211155   4.830   0.898   0.110 -1.3091  0.1106  1.3937
 3717TIP3   OH211156   0.039   0.544   3.298 -0.1800  0.5306 -1.0099
 3717TIP3    H111157  -0.045   0.499   3.286 -0.3765  1.2209 -2.4882
 3717TIP3    H211158   0.031   0.624   3.245  1.9438 -0.1350 -2.4602
 3718TIP3   OH211159   0.923   5.262   3.395 -0.4277  0.1611 -0.1536
 3718TIP3    H111160   0.901   5.259   3.302 -0.2718  1.9829 -0.2889
 3718TIP3    H211161   0.953   5.351   3.409  1.1194 -0.5464  1.3187
 3719TIP3   OH211162   1.116   3.261   0.502 -0.6389  0.0939 -0.3116
 3719TIP3    H111163   1.147   3.345   0.468  1.4831 -0.1954  0.7742
 3719TIP3    H211164   1.150   3.196   0.442  2.4372 -0.3519  1.6939
 3720TIP3   OH211165   3.987   4.696   1.338  0.4314  0.7030 -0.5216
 3720TIP3    H111166   3.933   4.617   1.338 -0.6116  1.3839 -0.9845
 3720TIP3    H211167   3.935   4.761   1.386  1.0393  1.2566 -0.5903
 3721TIP3   OH211168   1.685   3.505   2.599  0.2546  0.3099 -0.2552
 3721TIP3    H111169   1.666   3.554   2.679 -0.2364  0.9244 -0.7421
 3721TIP3    H211170   1.747   3.560   2.551  0.2710  0.1073 -0.4690
 3722TIP3   OH211171   3.303   2.764   0.126  0.2861  0.2221 -0.0476
 3722TIP3    H111172   3.287   2.858   0.119 -1.4977 -0.0300  0.1082
 3722TIP3    H211173   3.248   2.736   0.199  2.6044 -0.5886  1.5196
 3723TIP3   OH211174   1.536   2.629   1.271 -0.3183 -0.1346 -0.5001
 3723TIP3    H111175   1.477   2.566   1.229  0.0712 -0.7076 -0.2030
 3723TIP3    H211176   1.511   2.627   1.364  0.1798 -0.3926 -0.3725
 3724TIP3   OH211177   2.668   2.099   0.233 -0.2998  0.1057  0.3823
 3724TIP3    H111178   2.664   2.032   0.165  0.4123 -0.1337  0.5652
 3724TIP3    H211179   2.721   2.060   0.302  0.5931  1.0522  0.2615
 3725TIP3   OH211180   0.694   3.137   2.143  0.0702  0.4754 -0.5556
 3725TIP3    H111181   0.630   3.194   2.098  0.2763  1.1116 -0.0616
 3725TIP3    H211182   0.779   3.169   2.114  0.4073  3.1628  2.7277
 3726TIP3   OH211183   1.969   0.749   1.916 -0.1585  1.0711 -0.0034
 3726TIP3    H111184   1.949   0.784   1.829 -1.7663  0.7281  0.1940
 3726TIP3    H211185   1.883   0.732   1.955  0.5377 -0.7150  0.8549
 3727TIP3   OH211186   6.350   5.475   3.755 -0.3824  0.2767 -0.0168
 3727TIP3    H111187   6.397   5.462   3.673 -0.4576  0.1652 -0.0427
 3727TIP3    H211188   6.291   5.548   3.739  0.5337  1.1182  0.3388
 3728TIP3   OH211189   4.633   1.280   0.266 -0.0509 -0.4048  0.2783
 3728TIP3    H111190   4.668   1.196   0.296  0.6588  0.0762  0.8360
 3728TIP3    H211191   4.690   1.306   0.194  0.4376  0.1212  0.8366
 3729TIP3   OH211192   5.938   1.180   2.644 -0.4454 -0.0740 -0.1976
 3729TIP3    H111193   5.886   1.183   2.564 -0.6543  0.8291 -0.0348
 3729TIP3    H211194   5.944   1.271   2.672  0.9846 -0.1975 -0.0480
 3730TIP3   OH211195   4.894   1.326   3.694  0.5235 -0.0694  0.2024
 3730TIP3    H111196   4.858   1.293   3.612  3.5004  0.4940 -1.4632
 3730TIP3    H211197   4.872   1.419   3.694 -0.8528 -0.3686  0.8922
 3731TIP3   OH211198   4.680   2.479   1.938 -0.2188  0.1475 -0.1993
 3731TIP3    H111199   4.590   2.490   1.967  0.0001  0.2421  0.4570
 3731TIP3    H211200   4.714   2.569   1.931  0.2734  0.0723  1.0205
 3732TIP3   OH211201   1.543   2.971   0.737  0.5331  0.1591 -0.0165
 3732TIP3    H111202   1.495   3.010   0.809  0.6724 -0.9191  0.6932
 3732TIP3    H211203   1.574   2.887   0.772  0.9001 -0.2290 -1.2179
 3733TIP3   OH211204   5.807   2.699   0.616  0.4901  0.4222  0.2208
 3733TIP3    H111205   5.812   2.724   0.524  1.2407  0.6286  0.3095
 3733TIP3    H211206   5.845   2.773   0.664 -2.1510  1.4406  0.9258
 3734TIP3   OH211207   4.238   5.579   1.971 -0.1873 -0.0207 -0.0545
 3734TIP3    H111208   4.291   5.499   1.964  0.9165  0.7393 -0.6046
 3734TIP3    H211209   4.292   5.647   1.933 -0.5737  1.2723  1.6167
 3735TIP3   OH211210   0.527   0.424   5.034 -0.1662  0.0164  0.4296
 3735TIP3    H111211   0.572   0.384   4.960  0.6387  1.3796  0.1344
 3735TIP3    H211212   0.551   0.370   5.109  1.4901  0.3390  0.1720
 3736TIP3   OH211213   5.527   2.037   2.487  0.7493  0.3818  0.2522
 3736TIP3    H111214   5.533   2.117   2.540 -1.3688  1.4091 -0.9499
 3736TIP3    H211215   5.448   2.048   2.436  0.4528 -2.4827 -0.0533
 3737TIP3   OH211216   3.704   3.836   1.404  0.0317  0.5645 -0.0926
 3737TIP3    H111217   3.633   3.803   1.350 -0.1691 -0.4752  0.7696
 3737TIP3    H211218   3.784   3.814   1.356 -0.0991 -1.1699  0.4225
 3738TIP3   OH211219   4.555   2.398   0.950 -0.5669  0.2373 -0.0411
 3738TIP3    H111220   4.561   2.328   0.885 -0.0067 -0.5283  0.8194
 3738TIP3    H211221   4.609   2.369   1.022 -0.2998  1.5815  0.3318
 3739TIP3   OH211222   4.681   2.154   3.960 -0.8120 -0.5353  0.5548
 3739TIP3    H111223   4.738   2.079   3.977  1.8455  1.2860  0.2563
 3739TIP3    H211224   4.649   2.180   4.046  0.4280 -0.4258  0.9993
 3740TIP3   OH211225   1.599   1.520   1.063 -0.3482  0.3180  0.0277
 3740TIP3    H111226   1.657   1.517   1.138 -0.2237  1.6898  0.0171
 3740TIP3    H211227   1.598   1.431   1.029 -0.0409 -0.2194  1.3639
 3741TIP3   OH211228   2.205   1.183   1.141  0.4615  0.2104  0.6814
 3741TIP3    H111229   2.238   1.233   1.067 -0.3426 -0.4999 -0.1889
 3741TIP3    H211230   2.132   1.132   1.105  1.8709 -2.3913  1.2332
 3742TIP3   OH211231   3.011   5.780   3.682  0.0975 -0.6050 -0.1676
 3742TIP3    H111232   2.965   5.783   3.766  0.2468 -1.3978 -0.0533
 3742TIP3    H211233   2.965   5.844   3.627  0.2424  0.1997  0.6344
 3743TIP3   OH211234   2.045   0.069   3.379  0.0636  0.6240  0.1096
 3743TIP3    H111235   1.981   0.139   3.387  1.7188  2.1680  0.4368
 3743TIP3    H211236   2.076   0.074   3.289  0.2752  0.3843  0.1658
 3744TIP3   OH211237   1.740   3.938   4.819 -0.4610  0.2523  0.0776
 3744TIP3    H111238   1.827   3.905   4.843  0.2703  0.7558 -1.7818
 3744TIP3    H211239   1.679   3.882   4.868  0.8835 -0.2334  1.2584
 3745TIP3   OH211240   3.947   2.342   2.113  0.4631  0.3804 -0.1723
 3745TIP3    H111241   3.951   2.353   2.209 -3.2970  0.0911  0.1745
 3745TIP3    H211242   3.919   2.428   2.081 -1.6975 -0.4062 -0.5440
 3746TIP3   OH211243   3.279   0.894   2.813  0.2794 -0.0683  0.2711
 3746TIP3    H111244   3.274   0.816   2.758  1.4218  0.7131 -1.0372
 3746TIP3    H211245   3.269   0.862   2.902  0.7691 -1.7140 -0.2292
 3747TIP3   OH211246  -0.007   4.368   2.642  0.0611  0.0820  0.5527
 3747TIP3    H111247   0.008   4.276   2.620  1.4732  0.0356  1.5415
 3747TIP3    H211248   0.020   4.375   2.734 -1.1787  1.2343  0.8546
 3748TIP3   OH211249   4.906   1.799   3.514  0.3419 -0.2243  0.1721
 3748TIP3    H111250   4.999   1.785   3.529  0.2815 -0.7797  0.0593
 3748TIP3    H211251   4.863   1.762   3.591  0.2052 -0.1909  0.1130
 3749TIP3   OH211252   0.625   0.909   1.108  0.1394 -0.0984 -0.0495
 3749TIP3    H111253   0.657   0.923   1.197 -1.4982 -1.0803  0.7557
 3749TIP3    H211254   0.703   0.885   1.058  1.0304  0.0555  1.2088
 3750TIP3   OH211255   2.471   2.355   2.156  0.0308  0.2132 -0.1946
 3750TIP3    H111256   2.379   2.327   2.159 -0.2691  1.0522 -1.0444
 3750TIP3    H211257   2.470   2.444   2.191  1.0526 -0.8663  2.9396
 3751TIP3   OH211258   3.734   3.132   3.868 -0.0759 -0.2828  0.3614
 3751TIP3    H111259   3.759   3.093   3.784 -2.1691  1.0057 -0.9380
 3751TIP3    H211260   3.730   3.226   3.851 -1.8372 -0.1036  1.5213
 3752TIP3   OH211261   0.931   0.974   0.398  0.1367 -0.0630  0.4256
 3752TIP3    H111262   0.896   1.010   0.317  1.6881 -0.5601 -0.5103
 3752TIP3    H211263   0.986   1.044   0.433  0.5959 -0.3571  0.2955
 3753TIP3   OH211264   5.700   1.879   3.349 -0.5806  0.2733 -0.1692
 3753TIP3    H111265   5.616   1.835   3.348 -1.0434  0.9712  1.8126
 3753TIP3    H211266   5.761   1.817   3.309 -1.7635 -0.8300 -0.3128
 3754TIP3   OH211267   3.367   2.792   4.781 -0.0178 -0.2787 -0.9190
 3754TIP3    H111268   3.336   2.878   4.810  1.6952  0.4511 -1.1283
 3754TIP3    H211269   3.371   2.740   4.861  0.1050  0.2225 -0.5932
 3755TIP3   OH211270   5.143   4.728   4.636 -0.1611  0.1178  0.5999
 3755TIP3    H111271   5.149   4.674   4.558  0.5206  0.0927  0.6623
 3755TIP3    H211272   5.171   4.670   4.707  1.4086  0.7648  0.5598
 3756TIP3   OH211273   3.229   3.298   0.102 -0.3070 -0.3001 -0.0548
 3756TIP3    H111274   3.246   3.326   0.192  1.5886  0.3609 -0.5773
 3756TIP3    H211275   3.140   3.329   0.084  0.0692  1.4468  0.8888
 3757TIP3   OH211276   2.758   2.887   1.910  0.5189 -0.2825 -0.4628
 3757TIP3    H111277   2.763   2.956   1.844 -0.9814  0.6662  0.3384
 3757TIP3    H211278   2.823   2.912   1.976 -2.1105  2.3129  1.4390
 3758TIP3   OH211279   0.504   5.785   4.504  0.0346  0.0839  0.1943
 3758TIP3    H111280   0.476   5.873   4.480 -1.1858 -0.6238 -1.1758
 3758TIP3    H211281   0.540   5.749   4.423 -0.7849 -1.1409  0.3450
 3759TIP3   OH211282   2.551   0.096   1.075 -0.2405  0.2889 -0.2392
 3759TIP3    H111283   2.542   0.045   0.994 -0.9264  1.3438 -0.8630
 3759TIP3    H211284   2.486   0.057   1.135  1.1290 -1.2966  0.2743
 3760TIP3   OH211285   6.033   5.599   0.233 -0.7669  0.3024  0.4354
 3760TIP3    H111286   6.088   5.668   0.270  0.2315 -0.7641  1.0099
 3760TIP3    H211287   6.095   5.535   0.198 -1.5276 -1.8179  2.7045
 3761TIP3   OH211288   0.588   4.909   1.465 -0.2426  0.1141 -0.0351
 3761TIP3    H111289   0.510   4.859   1.487 -0.8316  1.1825  0.4124
 3761TIP3    H211290   0.574   4.994   1.506  1.6819 -0.0330  1.0274
 3762TIP3   OH211291   0.860   2.793   1.674  0.3273  0.5063 -0.2709
 3762TIP3    H111292   0.949   2.778   1.644  0.0089 -1.8122 -0.2450
 3762TIP3    H211293   0.870   2.842   1.756  1.6136 -0.1956  0.0126
 3763TIP3   OH211294   0.964   4.385   2.689  0.2272  0.1463  0.0777
 3763TIP3    H111295   0.974   4.298   2.726 -1.0549 -0.0497  0.0331
 3763TIP3    H211296   1.038   4.395   2.630  1.2840 -0.2554  1.3014
 3764TIP3   OH211297   2.661   5.469   0.266  0.6752  0.4833 -0.1871
 3764TIP3    H111298   2.582   5.522   0.269  1.1084  1.1741 -0.5541
 3764TIP3    H211299   2.716   5.512   0.200  1.2505 -0.1305 -0.1213
 3765TIP3   OH211300   2.971   1.176   3.558 -1.2419  0.6029  0.6366
 3765TIP3    H111301   2.951   1.243   3.623  0.8917 -0.6758  2.7686
 3765TIP3    H211302   2.947   1.093   3.601  1.9184 -0.4290  0.6779
 3766TIP3   OH211303   0.391   3.852   2.688  0.4846 -0.5026  0.1387
 3766TIP3    H111304   0.469   3.834   2.636  0.4869  0.4552 -0.2005
 3766TIP3    H211305   0.323   3.797   2.650  0.9401 -1.2050  0.3193
 3767TIP3   OH211306   1.827   3.178   1.487  0.1105 -0.0138 -0.3132
 3767TIP3    H111307   1.792   3.168   1.399  0.6654  1.4380 -0.7392
 3767TIP3    H211308   1.920   3.156   1.479  0.6817  2.2250 -0.6404
 3768TIP3   OH211309   1.128   3.297   3.939 -0.0104  0.2235 -0.2812
 3768TIP3    H111310   1.184   3.228   3.902  1.2795  0.7629  0.5859
 3768TIP3    H211311   1.181   3.336   4.008 -1.4153  0.8984  0.4549
 3769TIP3   OH211312   2.598   0.499   4.498 -0.0146  0.0005  0.1435
 3769TIP3    H111313   2.671   0.517   4.438 -1.2214  2.3045 -0.7612
 3769TIP3    H211314   2.521   0.495   4.441 -0.8036 -0.9219  1.2400
 3770TIP3   OH211315   2.023   4.263   1.476 -0.5288  0.0073  0.6808
 3770TIP3    H111316   2.008   4.347   1.519 -0.3012  1.2393 -1.5165
 3770TIP3    H211317   2.116   4.264   1.453 -1.2546  0.8348 -2.5941
 3771TIP3   OH211318   0.431   3.483   1.846 -0.5955 -0.1121 -0.0037
 3771TIP3    H111319   0.378   3.524   1.778 -1.0503 -0.0588  0.3812
 3771TIP3    H211320   0.464   3.403   1.806  1.0371  1.0270 -1.0750
 3772TIP3   OH211321   5.488   1.157   3.119 -0.5517 -0.2263  0.0837
 3772TIP3    H111322   5.406   1.113   3.142  0.0509 -2.8383 -2.1867
 3772TIP3    H211323   5.497   1.143   3.025  2.4736 -0.0141  0.2407
 3773TIP3   OH211324   2.560   2.323   1.892 -0.1431  0.8829  0.0183
 3773TIP3    H111325   2.518   2.325   1.977  0.3245 -1.6343  0.4056
 3773TIP3    H211326   2.497   2.364   1.832 -1.2492  1.0504  1.2646
 3774TIP3   OH211327   5.225   2.101   3.899  0.5798  0.1731  0.5492
 3774TIP3    H111328   5.215   2.196   3.897 -0.9815  0.0336 -1.5463
 3774TIP3    H211329   5.284   2.081   3.827  0.3440 -0.5004  0.5391
 3775TIP3   OH211330   5.150   3.602   3.626 -0.4296 -0.8205 -0.1219
 3775TIP3    H111331   5.057   3.626   3.631 -0.3890 -0.6379 -0.2192
 3775TIP3    H211332   5.197   3.685   3.638 -0.2571 -1.0411  0.7637
 3776TIP3   OH211333   1.802   0.875   0.039 -0.2571  0.0439 -0.2497
 3776TIP3    H111334   1.763   0.834  -0.037 -1.2456 -0.0986  0.3192
 3776TIP3    H211335   1.803   0.807   0.106  0.5802  0.1727 -0.1136
 3777TIP3   OH211336   6.172   4.194   1.477  0.0581  0.1145 -0.3672
 3777TIP3    H111337   6.083   4.157   1.477  0.0198  0.1663  0.8590
 3777TIP3    H211338   6.184   4.227   1.566  0.2861  2.6143 -1.2568
 3778TIP3   OH211339   4.256   2.369   4.139  0.0292  0.0545 -0.2347
 3778TIP3    H111340   4.296   2.380   4.053  1.1465 -0.1726  0.2319
 3778TIP3    H211341   4.331   2.364   4.199 -0.7030 -0.6050  0.6433
 3779TIP3   OH211342   5.427   3.556   3.701  0.4828 -0.1632  0.1514
 3779TIP3    H111343   5.331   3.548   3.707  0.4592  0.9913  2.2180
 3779TIP3    H211344   5.450   3.616   3.771  2.5617  1.1548 -1.5415
 3780TIP3   OH211345   3.378   5.654   0.144  0.4064  0.1239 -0.6841
 3780TIP3    H111346   3.392   5.749   0.143  0.7109  0.0954  0.1611
 3780TIP3    H211347   3.459   5.618   0.178  0.3668 -0.4645 -1.1988
 3781TIP3   OH211348   3.608   3.099   2.126  0.3768 -0.6505  0.6148
 3781TIP3    H111349   3.611   3.009   2.095  0.1714 -0.4156 -0.1122
 3781TIP3    H211350   3.680   3.142   2.080  0.7881 -0.5558  1.3371
 3782TIP3   OH211351   4.049   5.408   3.152  0.2759  0.0158  0.0787
 3782TIP3    H111352   4.109   5.441   3.086 -0.3995  2.3446  0.5559
 3782TIP3    H211353   3.967   5.455   3.136 -0.4464 -0.7161  1.4375
 3783TIP3   OH211354   0.193   3.326   3.949 -0.1145 -0.8423 -0.8290
 3783TIP3    H111355   0.215   3.419   3.944  0.9346 -1.1327 -3.2987
 3783TIP3    H211356   0.099   3.325   3.967  0.2720  0.5872  1.8112
 3784TIP3   OH211357   0.023   1.221   3.088 -0.3370 -0.1511 -0.0162
 3784TIP3    H111358  -0.002   1.137   3.128 -1.6400  0.7510  1.1411
 3784TIP3    H211359   0.114   1.207   3.060 -0.3604 -1.7934  0.5888
 3785TIP3   OH211360   3.115   4.146   5.171 -0.2825  0.4018  0.2375
 3785TIP3    H111361   3.121   4.226   5.119 -1.5411  0.3992  0.0714
 3785TIP3    H211362   3.031   4.152   5.216 -0.7191 -1.1146 -0.2965
 3786TIP3   OH211363   1.519   0.249   4.277 -0.3356 -0.3573 -0.2583
 3786TIP3    H111364   1.510   0.282   4.366  0.5569 -0.9157  0.0591
 3786TIP3    H211365   1.434   0.210   4.257 -0.9988  1.0228 -0.1918
 3787TIP3   OH211366   3.737   2.766   0.139  0.0915 -0.3862  0.0608
 3787TIP3    H111367   3.672   2.827   0.175 -0.1179 -0.3132 -0.4328
 3787TIP3    H211368   3.684   2.697   0.098  0.3290 -0.6891  0.2617
 3788TIP3   OH211369   6.246   5.127   0.091 -0.2743 -0.0602 -0.3481
 3788TIP3    H111370   6.239   5.128   0.187  2.3760 -2.9833  0.0330
 3788TIP3    H211371   6.246   5.034   0.068  0.3279  0.5486 -3.0962
 3789TIP3   OH211372   5.102   4.836   3.649 -0.6849 -0.5873  0.3826
 3789TIP3    H111373   5.071   4.840   3.559 -1.0752 -1.6538  0.4571
 3789TIP3    H211374   5.183   4.787   3.645 -0.2707  0.0699  0.5160
 3790TIP3   OH211375   2.405   3.305   3.132 -0.3330  0.3253  0.4806
 3790TIP3    H111376   2.339   3.362   3.172 -1.4105 -0.0966 -0.6260
 3790TIP3    H211377   2.368   3.283   3.046  1.8063  1.0203 -0.6713
 3791TIP3   OH211378   6.020   2.056   2.632 -0.7641  0.6806  0.5369
 3791TIP3    H111379   5.996   2.064   2.539 -0.5421  1.1625  0.5181
 3791TIP3    H211380   6.112   2.029   2.631 -0.4165  1.7906  0.6065
 3792TIP3   OH211381   2.085   2.955   0.782 -0.4281 -0.3343 -0.4757
 3792TIP3    H111382   2.148   2.885   0.766 -1.0101 -1.1509  0.6419
 3792TIP3    H211383   2.013   2.936   0.721 -0.8160 -1.0325  0.1817
 3793TIP3   OH211384   1.423   4.914   1.415 -0.1717 -0.4514 -0.7211
 3793TIP3    H111385   1.398   5.005   1.400  1.4974  0.6837  2.2812
 3793TIP3    H211386   1.340   4.866   1.420 -1.2855  1.4645  0.3478
 3794TIP3   OH211387   4.779   4.430   2.242 -0.1210  0.3278 -0.5708
 3794TIP3    H111388   4.800   4.518   2.272  1.1506 -0.2768  0.3961
 3794TIP3    H211389   4.695   4.440   2.197  0.6092  2.2724 -1.6645
 3795TIP3   OH211390   5.647   4.367   2.365  0.1808 -0.2668 -0.2128
 3795TIP3    H111391   5.635   4.278   2.396 -1.0411 -0.0428  0.0121
 3795TIP3    H211392   5.737   4.370   2.332  0.4764 -1.3607  0.4681
 3796TIP3   OH211393   3.525   5.251   0.205  0.5961  0.1565 -0.3153
 3796TIP3    H111394   3.445   5.234   0.155 -0.6975 -0.6216  1.8812
 3796TIP3    H211395   3.592   5.199   0.161 -1.0938 -2.7277  0.2541
 3797TIP3   OH211396   0.320   3.718   4.164  0.0862  0.0454 -0.0955
 3797TIP3    H111397   0.271   3.715   4.247  1.9796 -0.5023  1.0539
 3797TIP3    H211398   0.369   3.800   4.168  1.2482 -0.6341 -0.0215
 3798TIP3   OH211399   1.541   4.454   0.447  0.1250 -0.0088  0.1437
 3798TIP3    H111400   1.636   4.438   0.443  0.1958  0.1947  0.7952
 3798TIP3    H211401   1.517   4.479   0.358  0.6508 -0.2538 -0.0734
 3799TIP3   OH211402   2.558   2.907   3.020 -0.4220  0.9175  0.0816
 3799TIP3    H111403   2.596   2.861   3.095 -1.0743  1.4998  0.7844
 3799TIP3    H211404   2.552   2.841   2.951 -0.4018  0.2118  0.7490
 3800TIP3   OH211405   2.274   4.512   0.452  0.1952  0.4246  0.1675
 3800TIP3    H111406   2.328   4.502   0.374 -1.6411 -0.1991 -1.0753
 3800TIP3    H211407   2.280   4.427   0.496 -1.2473 -0.3102 -0.9873
 3801TIP3   OH211408   3.260   0.292   0.843 -0.0061 -0.6403 -0.0327
 3801TIP3    H111409   3.330   0.310   0.905  0.3715 -0.3725 -0.5283
 3801TIP3    H211410   3.203   0.370   0.849  1.1244  0.3562 -1.4889
 3802TIP3   OH211411   4.412   1.220   2.214 -0.8431  0.1373  0.1654
 3802TIP3    H111412   4.481   1.286   2.205  0.6971 -1.5520 -1.3675
 3802TIP3    H211413   4.330   1.268   2.204  0.0410  2.2815  2.3674
 3803TIP3   OH211414   6.219   2.925   4.471  0.4011  0.2299  0.4539
 3803TIP3    H111415   6.140   2.916   4.417  0.3133 -0.1260  0.6393
 3803TIP3    H211416   6.251   3.013   4.452  0.8326 -0.1728 -0.8058
 3804TIP3   OH211417   6.275   3.064   3.815 -1.0753 -0.3629  0.3674
 3804TIP3    H111418   6.345   3.055   3.750 -0.2374  2.3480  0.7821
 3804TIP3    H211419   6.211   2.996   3.790  0.0423 -0.6279 -2.1635
 3805TIP3   OH211420   0.452   3.852   0.528 -0.0676  0.5229  0.6122
 3805TIP3    H111421   0.453   3.946   0.549  2.1721  0.7963 -0.4023
 3805TIP3    H211422   0.542   3.823   0.544 -0.5306 -1.2835  0.1337
 3806TIP3   OH211423   3.761   3.435   1.478 -0.3544  0.2493  0.1252
 3806TIP3    H111424   3.675   3.477   1.480 -0.0603  0.8966 -0.5689
 3806TIP3    H211425   3.790   3.443   1.388  0.2402 -0.3859  0.2489
 3807TIP3   OH211426   1.229   4.613   2.099  0.1908  0.0265  0.1928
 3807TIP3    H111427   1.287   4.538   2.088 -1.3736 -1.2349  0.0266
 3807TIP3    H211428   1.232   4.633   2.193  1.2198  0.2722  0.1105
 3808TIP3   OH211429   0.432   0.609   0.484 -0.0697 -0.5741 -0.0025
 3808TIP3    H111430   0.454   0.702   0.481 -0.5623 -0.4680 -0.5182
 3808TIP3    H211431   0.362   0.602   0.548 -0.9431 -0.3868 -0.9190
 3809TIP3   OH211432   0.809   1.408   1.612  0.4154  0.3180  0.2514
 3809TIP3    H111433   0.770   1.485   1.654  0.7211  1.6081 -1.7079
 3809TIP3    H211434   0.896   1.401   1.652  0.6199  1.3759  0.0432
 3810TIP3   OH211435   0.240   1.591   2.740 -0.4311  0.1196  0.5833
 3810TIP3    H111436   0.256   1.511   2.690  0.2416  0.3344  0.4440
 3810TIP3    H211437   0.275   1.572   2.827  0.8118  0.6478  0.2324
 3811TIP3   OH211438   3.173   1.153   2.705 -0.0514  0.1606 -0.7004
 3811TIP3    H111439   3.237   1.166   2.635  1.1056 -0.3390  0.2309
 3811TIP3    H211440   3.217   1.096   2.767 -1.8125 -1.1188 -0.5457
 3812TIP3   OH211441   3.943   3.696   1.986  0.2950  0.1167 -0.0556
 3812TIP3    H111442   3.932   3.788   1.963 -0.1975  0.0624 -0.0554
 3812TIP3    H211443   4.006   3.663   1.922  0.7186  0.5233  0.1422
 3813TIP3   OH211444   2.447   5.729   0.730 -0.6250  0.2639 -0.3092
 3813TIP3    H111445   2.421   5.815   0.764  0.5221 -0.0693  1.5287
 3813TIP3    H211446   2.407   5.666   0.791 -1.5177 -0.5316 -1.6758
 3814TIP3   OH211447   4.143   5.528   1.313  0.1410 -0.4697  0.2015
 3814TIP3    H111448   4.190   5.499   1.392  0.2191 -0.2199  0.2471
 3814TIP3    H211449   4.054   5.494   1.325  0.9135 -3.1546 -1.0805
 3815TIP3   OH211450   4.888   2.678   1.331 -0.1520  0.2772  0.2683
 3815TIP3    H111451   4.869   2.722   1.413  0.3655 -0.6873  0.9220
 3815TIP3    H211452   4.913   2.748   1.271 -0.3091  0.9642  0.9930
 3816TIP3   OH211453   5.799   2.148   2.110 -0.1691 -0.2651 -0.3742
 3816TIP3    H111454   5.856   2.225   2.105 -0.6227  0.2382  1.4316
 3816TIP3    H211455   5.828   2.092   2.038  2.4194  0.0952  0.2942
 3817TIP3   OH211456   4.958   4.857   1.928  0.1326 -0.3839  0.1990
 3817TIP3    H111457   5.041   4.898   1.953  1.2776 -2.1119 -0.5877
 3817TIP3    H211458   4.982   4.796   1.858 -2.1614  0.6948 -1.6406
 3818TIP3   OH211459   4.499   1.226   1.233  0.0511 -0.1561  0.3371
 3818TIP3    H111460   4.528   1.205   1.322 -0.8413 -1.1356  0.4118
 3818TIP3    H211461   4.489   1.142   1.190 -2.0308  0.1481  0.1189
 3819TIP3   OH211462   4.447   5.747   2.990 -0.4472  0.2911  0.1202
 3819TIP3    H111463   4.495   5.669   2.962 -0.3895  0.8086 -1.2835
 3819TIP3    H211464   4.514   5.804   3.029  0.1652  1.0856 -1.9806
 3820TIP3   OH211465   0.694   0.034   4.472  0.1736 -0.4510 -0.5004
 3820TIP3    H111466   0.607  -0.003   4.457 -0.0836 -0.4320  0.8449
 3820TIP3    H211467   0.680   0.129   4.472  0.3047 -0.4299 -0.8816
 3821TIP3   OH211468   5.402   3.226   1.928  0.1957  0.2398 -0.2395
 3821TIP3    H111469   5.353   3.144   1.924  1.0581 -0.3876  1.2373
 3821TIP3    H211470   5.409   3.254   1.837 -1.0147 -0.7721 -0.6706
 3822TIP3   OH211471   4.381   5.091   1.361  0.4693  0.1521  0.1235
 3822TIP3    H111472   4.448   5.159   1.358  0.0927  0.5085 -0.7815
 3822TIP3    H211473   4.399   5.035   1.285 -0.2606  0.2815 -0.1631
 3823TIP3   OH211474   2.823   5.836   2.994 -0.2369 -0.1084 -0.1119
 3823TIP3    H111475   2.899   5.857   3.047 -1.4277 -0.8285  1.9820
 3823TIP3    H211476   2.753   5.891   3.029 -0.9742 -0.3115 -1.2066
 3824TIP3   OH211477   1.730   0.775   2.293 -0.1286 -0.0646  0.3777
 3824TIP3    H111478   1.707   0.777   2.200 -1.2365  0.4002  0.6379
 3824TIP3    H211479   1.680   0.847   2.331  1.1011  0.4012  1.1708
 3825TIP3   OH211480   2.263   5.481   2.725  0.5977  0.1407 -0.0194
 3825TIP3    H111481   2.354   5.453   2.739  0.4181 -0.3039  0.3047
 3825TIP3    H211482   2.269   5.574   2.706  1.3079 -0.2677 -2.0210
 3826TIP3   OH211483   4.185   1.913   3.689  0.8184  0.5605  0.9111
 3826TIP3    H111484   4.169   1.965   3.610  0.3300  0.2535  0.8029
 3826TIP3    H211485   4.097   1.888   3.719  1.0364  0.0347  1.1185
 3827TIP3   OH211486   4.225   4.831   2.400  0.2489 -0.7298 -0.2573
 3827TIP3    H111487   4.312   4.870   2.411 -0.1681  0.6839 -1.6522
 3827TIP3    H211488   4.164   4.904   2.413 -0.6847 -1.4610 -0.4199
 3828TIP3   OH211489   5.443   0.238   2.708 -0.2233 -0.4894  0.0402
 3828TIP3    H111490   5.440   0.149   2.674  0.1531 -0.6920  0.5207
 3828TIP3    H211491   5.366   0.244   2.766 -1.0728 -0.0259 -1.1005
 3829TIP3   OH211492   2.074   3.713   1.176  0.5233 -0.2026 -0.6498
 3829TIP3    H111493   2.078   3.778   1.106  0.2637  1.9074  1.1824
 3829TIP3    H211494   1.992   3.665   1.160 -0.6459  1.6999 -0.6108
 3830TIP3   OH211495   0.436   4.649   4.214 -0.1801 -0.4449 -0.6691
 3830TIP3    H111496   0.472   4.707   4.282  0.3861 -0.4039 -0.9971
 3830TIP3    H211497   0.378   4.704   4.163 -2.1125 -0.9101  0.9164
 3831TIP3   OH211498   3.686   3.097   1.491  0.4513  0.1173  0.0481
 3831TIP3    H111499   3.718   3.082   1.580  2.5690 -0.7379 -0.7902
 3831TIP3    H211500   3.759   3.072   1.435 -1.7751 -2.0786 -2.0912
 3832TIP3   OH211501   2.912   3.699   4.836 -0.0817 -0.6068 -0.6098
 3832TIP3    H111502   2.887   3.621   4.785 -0.4455 -1.3215  0.6080
 3832TIP3    H211503   3.007   3.698   4.834 -0.0631 -1.4689 -0.0843
 3833TIP3   OH211504   4.514   1.656   4.878 -0.2875  0.2348 -0.3269
 3833TIP3    H111505   4.512   1.751   4.889  1.8899  0.2201  0.5935
 3833TIP3    H211506   4.518   1.621   4.967 -3.2701 -0.8935 -0.5221
 3834TIP3   OH211507   1.809   3.398   0.984  0.6847 -0.3852  0.2428
 3834TIP3    H111508   1.714   3.405   0.969  0.9098  0.8918 -0.7226
 3834TIP3    H211509   1.847   3.406   0.897  1.7572  0.6924  0.7835
 3835TIP3   OH211510   4.676   5.930   4.362 -0.1618  0.4887  0.3950
 3835TIP3    H111511   4.679   6.022   4.336 -1.5136 -0.0241 -1.8454
 3835TIP3    H211512   4.733   5.886   4.299 -0.1768 -0.3192  0.9293
 3836TIP3   OH211513   4.395   2.567   3.438 -0.7557 -0.1873 -0.0925
 3836TIP3    H111514   4.319   2.512   3.460 -1.5470  0.5953 -0.7734
 3836TIP3    H211515   4.365   2.620   3.364  1.0520 -1.1006 -1.5467
 3837TIP3   OH211516   3.050   0.554   4.056  0.5951  0.3648  0.1970
 3837TIP3    H111517   3.120   0.490   4.056 -0.0427 -0.3757 -1.3664
 3837TIP3    H211518   2.997   0.532   4.133 -0.2959 -1.8056 -0.9630
 3838TIP3   OH211519   1.442   0.333   0.423  0.2121  0.2203  0.0096
 3838TIP3    H111520   1.455   0.341   0.517 -1.1085 -0.4235  0.2746
 3838TIP3    H211521   1.394   0.411   0.398 -2.0448 -0.9432  0.4407
 3839TIP3   OH211522   5.747   0.510   4.142 -0.2383  0.4763  0.0990
 3839TIP3    H111523   5.702   0.562   4.209  0.6351 -1.2443  2.1044
 3839TIP3    H211524   5.832   0.490   4.180  0.5146 -0.0984 -1.7858
 3840TIP3   OH211525   5.319   0.245   3.564  0.3631  0.0736  0.6401
 3840TIP3    H111526   5.322   0.272   3.655  3.0755  0.9441  0.3769
 3840TIP3    H211527   5.389   0.179   3.556  0.0832 -0.0966 -0.7644
 3841TIP3   OH211528   1.051   3.569   5.112  0.2580  0.0747 -0.1408
 3841TIP3    H111529   1.077   3.644   5.165  0.7261  0.2351 -0.5895
 3841TIP3    H211530   1.034   3.499   5.175  0.4348  0.3707  0.2369
 3842TIP3   OH211531   5.894   2.996   3.403  0.0984  0.5985 -0.5681
 3842TIP3    H111532   5.824   3.059   3.391  0.0208  1.0168  1.6286
 3842TIP3    H211533   5.974   3.049   3.407  0.4650  0.2165 -1.9791
 3843TIP3   OH211534   4.377   4.122   0.935 -0.0627 -0.0641  0.1550
 3843TIP3    H111535   4.374   4.217   0.931 -2.7690 -0.0399  0.8192
 3843TIP3    H211536   4.470   4.100   0.922  0.7104  2.6487  0.4991
 3844TIP3   OH211537   0.084   3.538   3.258  0.0305  0.7376  0.3068
 3844TIP3    H111538   0.066   3.491   3.340  0.6213  0.4615  0.2885
 3844TIP3    H211539   0.179   3.527   3.245 -0.0896  0.6106 -0.5186
 3845TIP3   OH211540   3.220   5.105   1.608 -0.1740  0.0784  0.6755
 3845TIP3    H111541   3.139   5.064   1.579 -0.7189  3.0248 -2.6715
 3845TIP3    H211542   3.290   5.049   1.574 -0.8686  0.1169 -0.8653
 3846TIP3   OH211543   3.878   5.876   1.368  0.7554  0.2490 -0.4948
 3846TIP3    H111544   3.966   5.854   1.398  0.3144 -1.1156 -0.1334
 3846TIP3    H211545   3.877   5.852   1.275  0.0298 -2.2079  0.0817
 3847TIP3   OH211546   6.106   0.285   4.547 -0.9017  0.3590  0.3928
 3847TIP3    H111547   6.013   0.294   4.566 -1.3725 -1.7736 -0.6088
 3847TIP3    H211548   6.143   0.371   4.567 -2.8488  0.9015  2.0050
 3848TIP3   OH211549   3.160   0.530   3.159 -0.0347 -0.4095 -0.6812
 3848TIP3    H111550   3.140   0.609   3.108 -0.4678  1.0772  1.6636
 3848TIP3    H211551   3.075   0.498   3.188  0.2567 -0.6294 -0.0500
 3849TIP3   OH211552   1.943   5.344   4.131  0.0164 -0.1427  0.5281
 3849TIP3    H111553   2.015   5.312   4.078  1.7981  1.0628  2.0606
 3849TIP3    H211554   1.917   5.426   4.089 -0.0922 -0.3052  0.2780
 3850TIP3   OH211555   1.297   5.922   0.266 -0.5395 -0.0459 -0.5971
 3850TIP3    H111556   1.381   5.897   0.228 -0.9415 -0.5365 -1.1816
 3850TIP3    H211557   1.285   5.862   0.340 -1.4602 -1.6023 -1.9415
 3851TIP3   OH211558   4.618   2.168   5.104 -0.4210 -0.0353 -0.0932
 3851TIP3    H111559   4.660   2.171   5.190  0.0804  3.0226 -0.3385
 3851TIP3    H211560   4.533   2.208   5.117 -1.2768 -1.5814 -0.6348
 3852TIP3   OH211561   4.820   4.825   0.691  0.3775  0.6361 -0.2175
 3852TIP3    H111562   4.793   4.826   0.783  1.0885  2.8789  0.0298
 3852TIP3    H211563   4.905   4.782   0.692  0.2242  0.3344  0.1171
 3853TIP3   OH211564   6.066   5.487   0.800  0.0199 -0.0658 -0.8067
 3853TIP3    H111565   6.127   5.533   0.857 -0.1541 -1.1757  0.3243
 3853TIP3    H211566   6.121   5.431   0.746  0.0845 -0.2559 -0.5468
 3854TIP3   OH211567   6.332   4.205   0.804 -0.3531  0.3769 -0.1014
 3854TIP3    H111568   6.374   4.282   0.765  1.1403 -0.1518  0.3701
 3854TIP3    H211569   6.358   4.133   0.746  2.3287 -0.5096  2.0220
 3855TIP3   OH211570   6.073   4.602   3.994 -0.5576  0.4590  0.3389
 3855TIP3    H111571   6.097   4.583   3.903  0.8348 -2.4235  1.1960
 3855TIP3    H211572   5.983   4.572   4.002 -0.2704 -0.4394  0.2227
 3856TIP3   OH211573   2.281   5.689   0.506  0.9149  0.1927  0.4613
 3856TIP3    H111574   2.351   5.694   0.572  0.0330  0.2794  1.4160
 3856TIP3    H211575   2.218   5.755   0.533  0.1342 -0.3469  0.0007
 3857TIP3   OH211576   4.289   3.221   3.732  0.2432  0.2888  0.1239
 3857TIP3    H111577   4.298   3.222   3.637 -0.2823  0.1941  0.0720
 3857TIP3    H211578   4.362   3.167   3.762 -0.6225 -1.2167 -0.3554
 3858TIP3   OH211579   5.185   5.503   1.281  0.0292 -0.3573  0.1403
 3858TIP3    H111580   5.107   5.555   1.296 -0.2411 -0.5516 -0.5710
 3858TIP3    H211581   5.252   5.543   1.336 -0.2142  0.6438 -0.2760
 3859TIP3   OH211582   2.022   1.080   3.694  0.3622  0.7659  0.0572
 3859TIP3    H111583   2.066   1.009   3.646  1.0738  0.4286  1.1621
 3859TIP3    H211584   1.950   1.037   3.740 -1.6064  1.4174 -2.2296
 3860TIP3   OH211585   4.997   1.440   0.309  0.1136 -0.2229  0.3924
 3860TIP3    H111586   4.966   1.531   0.309  0.7382 -0.0018  1.2518
 3860TIP3    H211587   5.079   1.443   0.259 -1.4268 -0.9043 -2.3663
 3861TIP3   OH211588   4.946   4.701   2.952 -0.5014  0.1832 -0.1160
 3861TIP3    H111589   4.897   4.760   2.895 -0.9866  0.1279  0.2367
 3861TIP3    H211590   4.914   4.614   2.930 -1.0897  0.2052  0.6112
 3862TIP3   OH211591   2.890   2.218   0.128 -0.1864 -0.0248  0.4473
 3862TIP3    H111592   2.915   2.203   0.219  0.7874 -0.1585  0.1709
 3862TIP3    H211593   2.796   2.199   0.125 -0.2564  0.1368  1.4528
 3863TIP3   OH211594   2.598   3.187   2.436  0.1244  0.1925  0.1770
 3863TIP3    H111595   2.571   3.193   2.528 -0.2056  0.9057  0.0425
 3863TIP3    H211596   2.588   3.095   2.414 -0.6043  0.1542  0.6241
 3864TIP3   OH211597   1.575   4.531   4.083  0.1670  0.0170  0.7607
 3864TIP3    H111598   1.521   4.518   4.161 -1.0861  0.3946 -0.0201
 3864TIP3    H211599   1.517   4.573   4.020  1.4003  0.5016 -0.0960
 3865TIP3   OH211600   3.749   4.047   1.594  0.5820 -0.2197 -0.3396
 3865TIP3    H111601   3.664   4.085   1.615  0.9814  0.5248 -0.0555
 3865TIP3    H211602   3.729   3.975   1.534 -0.3149 -0.5261  0.3037
 3866TIP3   OH211603   1.984   5.489   2.842 -0.1076 -0.2772  0.6107
 3866TIP3    H111604   2.070   5.528   2.856  0.1794 -0.0256 -1.5643
 3866TIP3    H211605   2.002   5.401   2.809 -0.7246 -0.8436  1.7222
 3867TIP3   OH211606   1.113   3.781   3.732 -0.0291 -0.4329  0.7440
 3867TIP3    H111607   1.020   3.805   3.736 -0.1102 -0.5494 -0.2980
 3867TIP3    H211608   1.116   3.705   3.673  1.0763  1.4703 -1.8291
 3868TIP3   OH211609   2.737   1.249   3.208  0.1322 -0.3843 -0.0175
 3868TIP3    H111610   2.698   1.249   3.295  0.8311 -2.7766  0.3843
 3868TIP3    H211611   2.826   1.281   3.221  0.2755 -0.8553  0.1968
 3869TIP3   OH211612   1.258   1.805   4.162 -0.0667  0.7835 -0.2902
 3869TIP3    H111613   1.290   1.849   4.240 -0.3750 -0.9281  0.8581
 3869TIP3    H211614   1.298   1.853   4.089  0.7297  2.0282  0.9241
 3870TIP3   OH211615   0.501   3.081   3.868 -0.0675  0.3978  0.3849
 3870TIP3    H111616   0.579   3.070   3.922  0.8739  0.3619 -0.9322
 3870TIP3    H211617   0.447   3.144   3.915  1.0044  0.8264  1.0575
 3871TIP3   OH211618   5.075   1.990   1.435 -0.4323  0.0112 -0.1422
 3871TIP3    H111619   5.099   2.005   1.343 -1.3242 -1.1153 -0.5854
 3871TIP3    H211620   4.995   2.042   1.447  0.7178  1.7120  0.5935
 3872TIP3   OH211621   3.285   2.699   1.381 -0.2324 -0.2495  0.6782
 3872TIP3    H111622   3.241   2.616   1.400 -0.6792 -0.6690 -1.8416
 3872TIP3    H211623   3.370   2.692   1.423  0.2942 -2.6304 -0.6173
 3873TIP3   OH211624   5.125   2.418   1.055 -0.2252  0.6859  0.4682
 3873TIP3    H111625   5.092   2.370   0.979  1.4089  1.1374 -0.5793
 3873TIP3    H211626   5.140   2.507   1.022  0.6377  0.8482  1.2721
 3874TIP3   OH211627   0.778   4.504   1.760  0.0906  0.0898  0.5171
 3874TIP3    H111628   0.853   4.551   1.724 -0.3207 -0.1093 -0.6238
 3874TIP3    H211629   0.718   4.573   1.790  0.4354  0.2550  0.8319
 3875TIP3   OH211630   3.984   0.045   0.473 -0.5311  0.1218 -0.4410
 3875TIP3    H111631   3.987   0.135   0.443  0.7272 -0.1345 -1.1497
 3875TIP3    H211632   3.897   0.035   0.510 -1.0728  1.3027 -1.3445
 3876TIP3   OH211633   0.915   4.075   3.810 -0.1608  0.5344 -0.2399
 3876TIP3    H111634   0.869   4.142   3.758 -0.3876 -1.2122 -2.4713
 3876TIP3    H211635   0.879   3.992   3.779  2.4216 -0.7979  0.0158
 3877TIP3   OH211636   2.879   5.148   0.053  0.0712 -0.1872  0.2457
 3877TIP3    H111637   2.845   5.190   0.132  0.7785  1.2257 -0.1697
 3877TIP3    H211638   2.820   5.074   0.039 -0.8133  0.2564  1.3943
 3878TIP3   OH211639   2.919   1.514   4.305 -0.4822 -0.1640  0.4340
 3878TIP3    H111640   2.876   1.429   4.313  0.6355 -0.7754  0.1142
 3878TIP3    H211641   2.862   1.565   4.247 -0.6768 -1.0218 -0.1465
 3879TIP3   OH211642   0.988   3.247   4.911  0.3309  0.1796 -0.1653
 3879TIP3    H111643   0.930   3.228   4.837  0.3423  1.6758 -0.5944
 3879TIP3    H211644   0.939   3.218   4.988 -0.2500 -0.1637 -0.6506
 3880TIP3   OH211645   0.495   3.865   2.269  0.1858 -0.1678 -0.1869
 3880TIP3    H111646   0.410   3.883   2.309 -0.3457 -1.5302 -0.6500
 3880TIP3    H211647   0.512   3.943   2.215 -0.1889  0.6447  0.8223
 3881TIP3   OH211648   3.710   4.006   2.770 -0.0073  0.6435  0.4355
 3881TIP3    H111649   3.793   4.033   2.730 -0.9860  0.5308 -1.7923
 3881TIP3    H211650   3.697   3.916   2.739 -2.2149  1.5455 -1.4960
 3882TIP3   OH211651   3.096   1.957   4.608  0.0150  0.0481 -0.1668
 3882TIP3    H111652   3.037   2.026   4.640 -1.5190 -1.5633  0.6653
 3882TIP3    H211653   3.037   1.888   4.577  1.4871 -1.2258 -0.2412
 3883TIP3   OH211654   0.887   1.848   3.826 -0.3337  0.8372 -0.5334
 3883TIP3    H111655   0.799   1.849   3.864 -0.7970 -1.6365 -1.3856
 3883TIP3    H211656   0.919   1.759   3.841  2.7762  2.0557  1.2526
 3884TIP3   OH211657   3.257   3.577   2.575  0.5279  0.5323  0.1741
 3884TIP3    H111658   3.337   3.614   2.538  0.3585  0.5778 -0.1515
 3884TIP3    H211659   3.186   3.621   2.527  0.3315 -1.3640 -1.3820
 3885TIP3   OH211660   1.016   5.489   4.750  0.3939  0.3430  0.2340
 3885TIP3    H111661   1.052   5.401   4.762 -1.8072 -1.0630 -2.3052
 3885TIP3    H211662   0.975   5.510   4.834 -0.0003 -1.5657  0.5566
 3886TIP3   OH211663   1.522   4.018   2.164  0.8476 -0.8635  0.3622
 3886TIP3    H111664   1.568   3.957   2.107  0.7538 -0.6291  0.0316
 3886TIP3    H211665   1.589   4.079   2.194  0.6752 -0.2249 -0.5121
 3887TIP3   OH211666   0.424   5.165   2.299  0.3005 -0.3831 -0.6724
 3887TIP3    H111667   0.454   5.185   2.388 -2.0261  1.2592 -0.1777
 3887TIP3    H211668   0.369   5.088   2.309 -0.5149  0.2056 -0.5519
 3888TIP3   OH211669   0.924   1.165   4.634 -0.1067  0.1030  0.1050
 3888TIP3    H111670   0.958   1.097   4.576  1.0456  0.2759  0.5481
 3888TIP3    H211671   0.999   1.222   4.650  0.2383 -1.0529  3.3914
 3889TIP3   OH211672   1.817   4.383   2.576  0.0104  0.3694  0.1954
 3889TIP3    H111673   1.751   4.399   2.508  0.3364 -1.1677 -0.5295
 3889TIP3    H211674   1.854   4.298   2.553 -0.5583 -0.6748  2.8700
 3890TIP3   OH211675   4.699   0.167   1.968  0.2641  0.2897 -0.3584
 3890TIP3    H111676   4.654   0.221   1.902 -0.3773 -1.1564 -1.1415
 3890TIP3    H211677   4.742   0.098   1.918  2.1832  0.7815  0.5137
 3891TIP3   OH211678   2.741   2.877   0.463  0.2622 -0.2041  0.0056
 3891TIP3    H111679   2.654   2.845   0.488  0.6402 -1.2815 -0.0159
 3891TIP3    H211680   2.776   2.808   0.405  0.3267  1.1354 -1.6412
 3892TIP3   OH211681   2.509   3.001   1.356 -0.4227 -0.1488 -0.3450
 3892TIP3    H111682   2.586   2.954   1.387 -0.0736  0.7209  0.1359
 3892TIP3    H211683   2.469   2.943   1.292  0.8928 -0.4004 -0.9523
 3893TIP3   OH211684   0.539   2.438   2.054  0.2697 -0.3022  0.5215
 3893TIP3    H111685   0.577   2.361   2.011 -0.0630 -0.5379  0.6464
 3893TIP3    H211686   0.582   2.513   2.012 -0.4069 -0.5118 -0.5979
 3894TIP3   OH211687   3.884   5.386   2.634  0.5334  0.4419  0.6478
 3894TIP3    H111688   3.863   5.403   2.542  0.8424 -1.5410  0.1443
 3894TIP3    H211689   3.978   5.399   2.640  0.5644  0.2482  0.5931
 3895TIP3   OH211690   6.129   2.133   4.269  0.1944  0.0175  0.7321
 3895TIP3    H111691   6.188   2.196   4.227 -1.2612  1.4383  0.7341
 3895TIP3    H211692   6.074   2.101   4.198  0.8225 -1.1946  0.7609
 3896TIP3   OH211693   2.297   4.182   3.270 -0.3777 -0.5105 -0.1490
 3896TIP3    H111694   2.260   4.149   3.352 -1.2227 -1.0230 -0.7253
 3896TIP3    H211695   2.284   4.111   3.207  0.3848 -0.1745 -0.7054
 3897TIP3   OH211696   0.736   3.921   2.990  0.2477 -0.4154 -0.3697
 3897TIP3    H111697   0.650   3.956   2.966 -0.9271 -2.2572  0.9178
 3897TIP3    H211698   0.763   3.972   3.066  0.1387 -0.0524 -0.5745
 3898TIP3   OH211699   2.707   4.736   3.292 -0.4142 -0.4668 -0.0441
 3898TIP3    H111700   2.715   4.642   3.307  0.5805 -0.5561 -0.9638
 3898TIP3    H211701   2.617   4.757   3.316 -0.4395 -1.5209  0.8432
 3899TIP3   OH211702   2.454   0.670   0.757  0.2948 -0.1306 -0.0667
 3899TIP3    H111703   2.427   0.752   0.798 -1.8284  0.6903 -2.8017
 3899TIP3    H211704   2.532   0.692   0.707 -0.1308  0.1909 -0.5987
 3900TIP3   OH211705   2.686   3.156   4.176 -0.3467 -0.1113  0.0017
 3900TIP3    H111706   2.615   3.162   4.239 -2.3582 -0.1987 -2.1070
 3900TIP3    H211707   2.731   3.241   4.181 -1.6002  0.5569  0.3120
 3901TIP3   OH211708   2.421   3.849   3.163 -0.2484  0.1762 -0.0537
 3901TIP3    H111709   2.472   3.903   3.103 -0.5590  0.5742  0.0390
 3901TIP3    H211710   2.455   3.760   3.150  0.1484  0.3652 -0.3265
 3902TIP3   OH211711   2.371   4.521   3.359  0.3731 -0.0511  0.2140
 3902TIP3    H111712   2.383   4.484   3.272  0.8914 -4.0103  1.7404
 3902TIP3    H211713   2.287   4.486   3.389 -0.3730  2.1927  0.9698
 3903TIP3   OH211714   3.289   1.441   5.008  0.7305  0.0176  0.2449
 3903TIP3    H111715   3.356   1.389   4.966 -0.9410 -0.1194 -2.4819
 3903TIP3    H211716   3.299   1.423   5.102  1.7583 -3.2967 -0.3877
 3904TIP3   OH211717   5.455   4.338   2.173  0.1979  0.0298  0.6041
 3904TIP3    H111718   5.517   4.353   2.243  0.5741  2.7721 -0.1976
 3904TIP3    H211719   5.375   4.382   2.201 -0.5440 -1.1452  0.4346
 3905TIP3   OH211720   3.856   2.925   3.949  0.0725  0.3235 -0.1964
 3905TIP3    H111721   3.796   2.986   3.908 -1.1006 -0.3709  0.4330
 3905TIP3    H211722   3.943   2.964   3.937 -0.5637  1.6893 -0.5075
 3906TIP3   OH211723   0.603   1.684   1.131  0.3752 -0.7317 -0.3381
 3906TIP3    H111724   0.683   1.681   1.183  0.8393  1.0811 -0.8502
 3906TIP3    H211725   0.533   1.663   1.193  1.2612 -3.2793 -0.0915
 3907TIP3   OH211726   2.193   1.489   4.338 -1.0333  0.4114  0.2296
 3907TIP3    H111727   2.190   1.495   4.242 -0.9250  0.3996  0.2252
 3907TIP3    H211728   2.236   1.406   4.355  0.3533  1.1046  0.2866
 3908TIP3   OH211729   3.229   2.063   4.952 -0.1175  0.0486  0.6295
 3908TIP3    H111730   3.324   2.073   4.962  0.2839 -1.3998 -1.2453
 3908TIP3    H211731   3.201   2.145   4.909  0.0859  0.9034  2.0663
 3909TIP3   OH211732   4.499   5.913   4.577  0.1631  0.4564 -0.6448
 3909TIP3    H111733   4.574   5.872   4.534  0.0202  0.0623 -0.5286
 3909TIP3    H211734   4.433   5.921   4.509  0.5956  1.5813 -0.9575
 3910TIP3   OH211735   5.812   4.069   1.819  0.2578  0.2692  0.0992
 3910TIP3    H111736   5.825   4.134   1.888 -2.7772  1.1488 -0.0292
 3910TIP3    H211737   5.765   3.997   1.862  1.5044 -0.8537 -0.3149
 3911TIP3   OH211738   1.258   1.771   2.594 -0.1626  0.6568 -0.4466
 3911TIP3    H111739   1.239   1.863   2.574 -1.1397  1.1343  2.1688
 3911TIP3    H211740   1.330   1.775   2.657 -2.1552 -0.0606  2.0466
 3912TIP3   OH211741   0.815   1.538   2.347 -0.2260  0.2363  0.1350
 3912TIP3    H111742   0.901   1.569   2.376 -0.3920 -0.5618  1.5623
 3912TIP3    H211743   0.753   1.589   2.399 -0.5671 -0.3810  0.3369
 3913TIP3   OH211744   1.481   1.662   0.144  0.2573  0.0312  0.1310
 3913TIP3    H111745   1.549   1.700   0.200 -0.1638  2.1409 -0.6731
 3913TIP3    H211746   1.516   1.668   0.056 -1.3077  2.1531 -0.4258
 3914TIP3   OH211747   5.957   4.643   2.197 -0.1598 -0.4548  0.2798
 3914TIP3    H111748   5.896   4.691   2.253 -0.6419 -1.4576  0.6357
 3914TIP3    H211749   6.006   4.711   2.151 -0.1193  0.4036  1.5265
 3915TIP3   OH211750   4.705   1.906   2.952 -0.2841  0.0911 -0.3370
 3915TIP3    H111751   4.689   1.828   3.004 -0.1455  0.0757 -0.3150
 3915TIP3    H211752   4.767   1.957   3.004 -0.6881  0.4069 -0.1651
 3916TIP3   OH211753   1.847   4.582   1.243 -0.1238 -0.0336  0.0700
 3916TIP3    H111754   1.775   4.522   1.221 -0.5682  1.0188 -1.5689
 3916TIP3    H211755   1.805   4.655   1.288  0.2433 -0.3974  1.0142
 3917TIP3   OH211756   4.517   3.348   1.590 -0.1054  0.4141  0.0928
 3917TIP3    H111757   4.555   3.435   1.580  0.2283  0.3179  0.4895
 3917TIP3    H211758   4.591   3.288   1.578 -0.2248  0.2078  0.3673
 3918TIP3   OH211759   0.540   0.118   0.026  0.6800  0.3805 -0.1148
 3918TIP3    H111760   0.604   0.172   0.073  0.2900  1.7017 -1.0378
 3918TIP3    H211761   0.472   0.098   0.091  0.2274  2.0426 -0.0305
 3919TIP3   OH211762   2.009   5.527   1.222  0.0591  0.4511  0.6930
 3919TIP3    H111763   1.913   5.520   1.223 -0.1180  0.9701 -2.5958
 3919TIP3    H211764   2.039   5.436   1.225 -0.6903  0.1151 -0.7821
 3920TIP3   OH211765   2.330   2.179   0.308 -0.2920  0.1121  0.6079
 3920TIP3    H111766   2.285   2.151   0.228  1.0621 -1.2051  0.2662
 3920TIP3    H211767   2.387   2.106   0.330  0.4362  1.0547  1.9725
 3921TIP3   OH211768   6.216   3.240   0.192  0.4398 -0.0026  0.6056
 3921TIP3    H111769   6.291   3.240   0.133 -0.0218 -0.3016  0.0071
 3921TIP3    H211770   6.209   3.149   0.222  2.2770  0.6173  3.2355
 3922TIP3   OH211771   2.521   3.658   1.196  0.5589 -0.5098 -1.1311
 3922TIP3    H111772   2.501   3.565   1.200 -1.4370 -0.1031  1.5792
 3922TIP3    H211773   2.459   3.698   1.256  2.3433  2.4206 -1.0409
 3923TIP3   OH211774   4.357   0.221   0.423 -0.5360  0.1662 -0.1954
 3923TIP3    H111775   4.339   0.243   0.331  2.6923  2.5971 -0.4626
 3923TIP3    H211776   4.306   0.285   0.473 -0.3336  0.5270 -0.4438
 3924TIP3   OH211777   0.065   4.602   3.619 -0.2111 -0.2387 -0.4343
 3924TIP3    H111778  -0.011   4.561   3.661  2.0705 -2.0849  2.3697
 3924TIP3    H211779   0.071   4.559   3.534 -1.1376 -1.6258  0.1556
 3925TIP3   OH211780   6.277   0.205   5.192  0.0097  0.4556  0.0896
 3925TIP3    H111781   6.270   0.129   5.250  1.4887  0.4489  0.2949
 3925TIP3    H211782   6.268   0.169   5.104 -1.0996  0.3045  0.2552
 3926TIP3   OH211783   3.767   2.145   2.972 -0.3889  0.5078 -0.0992
 3926TIP3    H111784   3.747   2.112   2.884 -2.7442  2.1342 -0.2744
 3926TIP3    H211785   3.681   2.150   3.015  0.8510 -2.0773  3.0531
 3927TIP3   OH211786   4.943   2.274   1.202  0.6077  0.7039  0.0829
 3927TIP3    H111787   5.002   2.325   1.147 -2.4025  2.1808 -2.0170
 3927TIP3    H211788   4.918   2.334   1.272  0.1886  0.7046 -0.0687
 3928TIP3   OH211789   1.454   5.067   2.826  0.1552 -0.1363  0.0415
 3928TIP3    H111790   1.400   5.006   2.776 -0.3962  0.7207 -0.4219
 3928TIP3    H211791   1.396   5.140   2.847  0.5111 -0.2573  1.5355
 3929TIP3   OH211792   0.212   3.934   3.589  0.2958  0.2196  0.5773
 3929TIP3    H111793   0.132   3.963   3.633  1.3711  1.5264  1.7180
 3929TIP3    H211794   0.280   3.995   3.617  1.3464  0.3021 -1.8499
 3930TIP3   OH211795   1.686   2.721   3.513  0.1061 -0.1058  0.5483
 3930TIP3    H111796   1.685   2.645   3.570 -0.8332 -1.2869 -0.9669
 3930TIP3    H211797   1.717   2.687   3.428 -1.6784  0.8573 -0.5498
 3931TIP3   OH211798   1.109   5.473   4.388 -0.3780 -0.6246 -0.4555
 3931TIP3    H111799   1.031   5.497   4.438 -1.3489 -0.1845 -2.0946
 3931TIP3    H211800   1.145   5.556   4.358  1.3478 -0.7503  1.1102
 3932TIP3   OH211801   2.528   2.638   3.770 -0.1964  0.2516 -0.0498
 3932TIP3    H111802   2.544   2.710   3.709 -0.5617 -0.9147 -1.5580
 3932TIP3    H211803   2.609   2.633   3.822  0.7794  0.2600 -1.5024
 3933TIP3   OH211804   3.024   5.892   5.007  0.5352 -0.2647 -0.2090
 3933TIP3    H111805   3.058   5.805   4.985  2.1091 -0.3236  2.0869
 3933TIP3    H211806   3.098   5.951   4.991  0.2747  0.2785  0.5266
 3934TIP3   OH211807   2.083   4.228   0.115  0.0314 -0.2764  0.2875
 3934TIP3    H111808   2.026   4.181   0.176  1.6904  0.6356  2.6788
 3934TIP3    H211809   2.061   4.320   0.129  0.9383 -0.0194  0.0337
 3935TIP3   OH211810   5.404   2.342   1.094 -0.2984 -0.3082 -0.4302
 3935TIP3    H111811   5.381   2.319   1.184  2.3170 -0.2850  0.3309
 3935TIP3    H211812   5.333   2.399   1.065 -1.5748 -0.9180  1.3552
 3936TIP3   OH211813   1.830   3.252   2.643 -0.0891  0.0705  0.0426
 3936TIP3    H111814   1.776   3.173   2.657  0.0765  0.0342  0.5106
 3936TIP3    H211815   1.766   3.323   2.638 -0.2015 -0.0089  0.3049
 3937TIP3   OH211816   2.167   2.798   0.485 -0.2547  0.1467  0.5732
 3937TIP3    H111817   2.213   2.787   0.401  0.1303  1.2225  0.6291
 3937TIP3    H211818   2.136   2.710   0.506  0.8257 -0.4079 -0.0234
 3938TIP3   OH211819   1.937   2.116   2.383 -0.3314 -0.3824  0.1583
 3938TIP3    H111820   1.868   2.087   2.444  0.1120 -1.6183  0.1058
 3938TIP3    H211821   1.971   2.035   2.346  1.0755  0.2119  0.0931
 3939TIP3   OH211822   0.640   3.013   1.098  0.1365 -0.3396 -0.5394
 3939TIP3    H111823   0.657   3.107   1.100 -1.8675  0.0615 -0.0513
 3939TIP3    H211824   0.545   3.005   1.109  0.2883 -2.4345 -0.2240
 3940TIP3   OH211825   6.159   1.797   4.187 -0.2400 -1.0790  0.3185
 3940TIP3    H111826   6.162   1.704   4.207 -2.0736 -1.5724 -1.3184
 3940TIP3    H211827   6.220   1.809   4.114  0.4847 -0.8604  0.9559
 3941TIP3   OH211828   5.002   0.964   3.509  0.7657 -0.0504 -0.3486
 3941TIP3    H111829   4.982   0.872   3.528  1.2700 -0.6092 -2.2956
 3941TIP3    H211830   4.933   0.992   3.449  0.8524  0.7313 -0.0950
 3942TIP3   OH211831   4.033   4.554   2.343 -0.4538  0.0973  0.2992
 3942TIP3    H111832   4.059   4.471   2.383  0.1960  0.9962  1.8382
 3942TIP3    H211833   4.036   4.617   2.415 -1.6729  1.3238 -0.6614
 3943TIP3   OH211834   3.918   0.061   2.942 -0.4334  0.1555  0.0512
 3943TIP3    H111835   3.829   0.069   2.978 -0.1338 -0.8405  1.0629
 3943TIP3    H211836   3.928  -0.032   2.922  0.1360  0.3740 -0.7566
 3944TIP3   OH211837   5.529   2.163   0.436  0.2042 -0.4093  0.0470
 3944TIP3    H111838   5.577   2.096   0.389  0.1469 -1.0311  0.8589
 3944TIP3    H211839   5.523   2.131   0.526 -2.5126 -0.8098 -0.1713
 3945TIP3   OH211840   6.291   5.362   2.568  0.3057  0.5265 -0.4012
 3945TIP3    H111841   6.353   5.345   2.639  0.1547 -0.0231 -0.3964
 3945TIP3    H211842   6.320   5.305   2.497 -2.6053 -3.1374  0.9648
 3946TIP3   OH211843   2.989   5.016   0.701 -0.3690 -0.3011 -0.5170
 3946TIP3    H111844   3.029   5.093   0.662  0.7042 -1.1765 -1.1923
 3946TIP3    H211845   2.985   5.036   0.795  0.4273  0.3519 -0.6115
 3947TIP3   OH211846   2.485   0.512   2.686 -0.7213  0.4373  0.3503
 3947TIP3    H111847   2.392   0.534   2.697 -0.7163  0.4264  0.4188
 3947TIP3    H211848   2.503   0.528   2.594 -1.2039 -1.1560 -0.0422
 3948TIP3   OH211849  -0.009   4.609   0.199  0.1361 -0.0798  0.3995
 3948TIP3    H111850   0.039   4.528   0.212  1.8614  0.6121 -1.3239
 3948TIP3    H211851   0.050   4.678   0.229 -0.5756  0.6740  0.1248
 3949TIP3   OH211852   5.908   4.392   4.347 -0.8132 -0.1881  0.1054
 3949TIP3    H111853   5.942   4.403   4.258  0.3014 -0.4047  0.4964
 3949TIP3    H211854   5.864   4.307   4.345  2.3236 -1.9941  0.6592
 3950TIP3   OH211855   2.914   1.184   0.929 -0.3204 -0.0879  0.2943
 3950TIP3    H111856   2.955   1.264   0.896  0.1392 -0.8379 -1.0293
 3950TIP3    H211857   2.975   1.114   0.904 -1.5427 -1.0347 -0.1314
 3951TIP3   OH211858   4.962   5.021   1.546 -0.3091  0.0224  0.8751
 3951TIP3    H111859   5.031   5.052   1.604  1.0891 -0.6410 -0.3713
 3951TIP3    H211860   4.909   4.964   1.601  1.8852 -1.8439  1.2009
 3952TIP3   OH211861   2.153   5.185   2.043 -0.3372  0.5232  0.0635
 3952TIP3    H111862   2.113   5.103   2.013 -1.3188  1.4776 -1.3564
 3952TIP3    H211863   2.245   5.163   2.056 -0.6641 -0.9085  0.1194
 3953TIP3   OH211864   4.091   2.694   2.268 -0.3158  0.5028 -0.2997
 3953TIP3    H111865   4.078   2.612   2.317  0.3733  0.5402 -0.0504
 3953TIP3    H211866   4.178   2.686   2.230 -1.3427 -0.1133 -2.6877
 3954TIP3   OH211867   3.371   0.079   1.038  0.3886  0.0250 -0.1986
 3954TIP3    H111868   3.414   0.143   0.982  1.1771 -0.5846 -0.3067
 3954TIP3    H211869   3.433   0.063   1.109  0.4183 -0.9640 -0.4250
 3955TIP3   OH211870   6.272   5.448   2.887 -0.1441 -0.0241  0.2352
 3955TIP3    H111871   6.309   5.523   2.840  1.2074 -0.3975  0.6547
 3955TIP3    H211872   6.332   5.376   2.867  0.2326 -0.2976  2.1824
 3956TIP3   OH211873   0.239   0.130   0.898  0.3492 -0.1759  0.0275
 3956TIP3    H111874   0.184   0.144   0.976  0.8743  0.5836  0.2771
 3956TIP3    H211875   0.320   0.091   0.933  0.3663 -0.3531 -0.2097
 3957TIP3   OH211876   2.772   5.685   1.096 -0.0607 -0.3586 -0.1252
 3957TIP3    H111877   2.799   5.670   1.005 -0.2142 -0.0828 -0.2191
 3957TIP3    H211878   2.803   5.608   1.143  0.9424 -0.0275 -0.2189
 3958TIP3   OH211879   4.928   4.287   1.309 -0.2554 -0.1058  0.5231
 3958TIP3    H111880   5.003   4.228   1.311 -0.1055  0.0740  0.2517
 3958TIP3    H211881   4.957   4.364   1.357  0.2977  0.6189 -0.9043
 3959TIP3   OH211882   2.630   5.451   1.014  0.0739  0.2592 -0.6405
 3959TIP3    H111883   2.683   5.424   0.939 -1.6145 -0.3662 -1.6503
 3959TIP3    H211884   2.639   5.378   1.076 -1.9182 -1.3123 -2.0533
 3960TIP3   OH211885   0.388   2.532   0.482 -0.0846 -0.2475 -0.2185
 3960TIP3    H111886   0.304   2.533   0.528  1.2487 -0.3722  2.4300
 3960TIP3    H211887   0.428   2.617   0.502  1.3271 -1.0325  0.5031
 3961TIP3   OH211888   4.164   5.286   3.927  0.1234 -0.2528 -0.4333
 3961TIP3    H111889   4.254   5.266   3.953 -0.0243 -0.8122 -0.3371
 3961TIP3    H211890   4.161   5.262   3.834 -0.6656 -2.9265  0.1899
 3962TIP3   OH211891   1.674   5.643   0.456  0.1831  0.3329 -0.1586
 3962TIP3    H111892   1.697   5.581   0.387 -1.0634 -0.5289  0.1683
 3962TIP3    H211893   1.593   5.609   0.493  1.1627  0.4179  2.1935
 3963TIP3   OH211894   1.573   5.452   4.622  0.1456  0.1029 -0.1072
 3963TIP3    H111895   1.645   5.411   4.573 -0.2468  0.8364 -1.3381
 3963TIP3    H211896   1.494   5.418   4.581 -0.2040  0.2943  0.4022
 3964TIP3   OH211897   0.614   2.725   1.304  0.0665  0.4313  0.8712
 3964TIP3    H111898   0.607   2.667   1.229 -0.9065  1.1972  0.3413
 3964TIP3    H211899   0.707   2.747   1.309  0.3560 -0.7239  0.7534
 3965TIP3   OH211900   4.221   0.676   4.597  0.3486 -0.4794  0.3731
 3965TIP3    H111901   4.292   0.656   4.536 -0.8526  1.5151 -1.7995
 3965TIP3    H211902   4.248   0.758   4.638 -0.8046  0.4674 -0.7127
 3966TIP3   OH211903   6.218   5.055   2.237 -0.6283 -0.0878  0.3756
 3966TIP3    H111904   6.182   4.981   2.188  0.8790  0.1469 -1.1919
 3966TIP3    H211905   6.157   5.127   2.220 -1.6242 -0.7098  1.1890
 3967TIP3   OH211906   4.876   0.825   0.313  0.0878  0.0313  0.6820
 3967TIP3    H111907   4.859   0.755   0.376  0.0229  0.9842  1.7549
 3967TIP3    H211908   4.951   0.872   0.350  1.2067 -0.4306 -0.8662
 3968TIP3   OH211909   0.350   2.293   0.918 -0.4774  0.6959 -0.2055
 3968TIP3    H111910   0.443   2.303   0.896 -1.1023  3.0010 -2.3067
 3968TIP3    H211911   0.335   2.358   0.987 -0.5068  0.2357  0.2212
 3969TIP3   OH211912   2.782   0.958   2.425  0.1730 -0.1029 -0.4094
 3969TIP3    H111913   2.804   1.006   2.345 -2.8562  1.5064 -0.4238
 3969TIP3    H211914   2.828   1.004   2.494  1.0030 -0.1076 -0.9397
 3970TIP3   OH211915   6.102   3.058   2.997  0.3161 -0.3069 -0.5513
 3970TIP3    H111916   6.172   3.030   2.937  0.3702  0.2557 -0.7512
 3970TIP3    H211917   6.024   3.064   2.942  0.3780  0.2664 -0.5842
 3971TIP3   OH211918   5.773   1.041   1.204 -0.3128 -0.4264 -0.0983
 3971TIP3    H111919   5.844   0.983   1.231 -1.8243 -2.7987 -0.8834
 3971TIP3    H211920   5.718   1.049   1.281  0.2751  0.6486  0.2321
 3972TIP3   OH211921   1.070   4.883   3.858  0.2887 -0.2785 -0.3062
 3972TIP3    H111922   1.009   4.810   3.844  1.1400 -0.9888 -0.4349
 3972TIP3    H211923   1.120   4.857   3.935 -0.6442  1.0479  0.7754
 3973TIP3   OH211924   4.974   2.549   4.479  0.2068 -0.3804 -0.1060
 3973TIP3    H111925   4.971   2.567   4.573 -2.0420  0.0979 -0.2012
 3973TIP3    H211926   5.055   2.590   4.449 -0.4148  1.9616  1.1877
 3974TIP3   OH211927   5.286   5.592   1.013  0.0962  0.1434 -0.6236
 3974TIP3    H111928   5.204   5.572   1.058 -0.0184 -1.1478 -1.3572
 3974TIP3    H211929   5.259   5.620   0.925  0.4430 -1.1983 -1.1866
 3975TIP3   OH211930   2.996   3.351   1.927 -0.2850  0.1042  0.2666
 3975TIP3    H111931   3.012   3.312   1.840  0.2169  1.8798 -0.4853
 3975TIP3    H211932   2.902   3.367   1.929 -0.4958 -1.0545  0.5754
 3976TIP3   OH211933   1.641   4.653   0.267 -0.2664 -0.0479  0.0828
 3976TIP3    H111934   1.622   4.605   0.186 -0.7167  0.0116  0.1473
 3976TIP3    H211935   1.695   4.593   0.319 -1.2077 -0.6859  0.3552
 3977TIP3   OH211936   5.086   0.552   3.398  0.6929 -0.5873 -0.0277
 3977TIP3    H111937   5.052   0.463   3.388  2.7357 -1.3084 -1.3132
 3977TIP3    H211938   5.172   0.540   3.438  0.5283  0.9345  0.8420
 3978TIP3   OH211939   2.813   2.524   2.677 -0.4587  0.2541  0.0476
 3978TIP3    H111940   2.777   2.494   2.594  1.5675  1.2233 -1.2935
 3978TIP3    H211941   2.777   2.465   2.742 -2.8271 -0.0046 -1.3699
 3979TIP3   OH211942   3.317   5.940   2.488 -0.3845  0.6232  0.0260
 3979TIP3    H111943   3.393   5.899   2.447 -0.9824 -0.0973 -0.3836
 3979TIP3    H211944   3.294   6.012   2.428 -0.6034  0.2482 -0.3399
 3980TIP3   OH211945   3.263   4.344   2.872 -0.7401  0.1087  0.1668
 3980TIP3    H111946   3.349   4.351   2.830  0.3729  1.2644  2.4160
 3980TIP3    H211947   3.224   4.265   2.835 -0.1832  1.3226 -3.3896
 3981TIP3   OH211948   2.158   5.104   0.368 -0.0868 -0.0677 -0.0527
 3981TIP3    H111949   2.066   5.077   0.366  0.1844 -1.0620  0.5572
 3981TIP3    H211950   2.163   5.172   0.301 -1.3350  0.2339  0.1200
 3982TIP3   OH211951   5.972   1.547   0.917  0.0877  0.1481  0.1539
 3982TIP3    H111952   5.929   1.463   0.935  0.6925  0.0253  1.0902
 3982TIP3    H211953   6.065   1.526   0.913  0.4002  0.9941  1.9522
 3983TIP3   OH211954   3.909   2.536   3.322  0.0656  0.8957 -0.4967
 3983TIP3    H111955   3.857   2.474   3.374  2.2985  0.7072  1.7520
 3983TIP3    H211956   3.849   2.607   3.300 -2.0785 -1.0925 -1.4640
 3984TIP3   OH211957   4.094   1.522   1.935  0.6987 -0.2812 -1.1091
 3984TIP3    H111958   3.998   1.517   1.932  0.7325 -0.4775 -2.5174
 3984TIP3    H211959   4.112   1.606   1.979 -0.1204  0.0379 -1.3573
 3985TIP3   OH211960   2.254   1.247   1.412 -0.1357 -0.4208  0.0210
 3985TIP3    H111961   2.336   1.257   1.460  0.3170 -0.2235 -0.7851
 3985TIP3    H211962   2.281   1.232   1.321 -0.9914 -0.3047 -0.2577
 3986TIP3   OH211963   0.837   0.157   0.639  0.1318  0.1050  0.1846
 3986TIP3    H111964   0.748   0.126   0.622 -0.2971  1.0966  0.5536
 3986TIP3    H211965   0.832   0.251   0.624  0.8719  0.3131  1.2264
 3987TIP3   OH211966   4.429   3.135   0.409  0.1087  0.1333 -0.7954
 3987TIP3    H111967   4.427   3.049   0.451  0.9026 -0.5834 -2.1617
 3987TIP3    H211968   4.387   3.121   0.324  0.6081  1.0000 -1.1923
 3988TIP3   OH211969   2.782   4.078   1.226 -0.3998  0.0468 -0.3285
 3988TIP3    H111970   2.811   4.115   1.309  0.1246  0.8819 -0.8674
 3988TIP3    H211971   2.830   3.995   1.219 -2.7581 -1.6101  1.6151
 3989TIP3   OH211972   3.047   0.823   1.671  0.4368 -0.5810 -0.5291
 3989TIP3    H111973   3.012   0.738   1.645 -1.3826 -0.2957  0.8518
 3989TIP3    H211974   3.138   0.804   1.697 -0.0570 -2.1851  0.1637
 3990TIP3   OH211975   3.064   0.809   2.473 -0.1133 -0.1689 -0.3003
 3990TIP3    H111976   3.157   0.794   2.491 -0.3723 -1.4499  0.1151
 3990TIP3    H211977   3.053   0.783   2.381 -0.1938 -0.7527 -0.1312
 3991TIP3   OH211978   3.426   4.339   0.082  0.2189  0.7830 -0.2408
 3991TIP3    H111979   3.420   4.335  -0.014 -2.5347 -1.3423 -0.1059
 3991TIP3    H211980   3.340   4.370   0.110 -0.1882 -1.6279  1.5541
 3992TIP3   OH211981   1.023   3.492   4.684  0.2882  0.2678  0.6939
 3992TIP3    H111982   0.969   3.487   4.763  2.1685  0.1260  2.0561
 3992TIP3    H211983   1.057   3.403   4.672 -0.6569  0.0851 -0.8142
 3993TIP3   OH211984   0.935   0.372   3.575  0.2793  0.6279  0.1028
 3993TIP3    H111985   0.860   0.423   3.548  0.5368  0.9089 -0.0851
 3993TIP3    H211986   1.000   0.386   3.506  0.0550 -0.6321 -0.3868
 3994TIP3   OH211987   1.380   5.251   3.782 -0.2667  0.0411 -0.6982
 3994TIP3    H111988   1.462   5.301   3.787 -0.3644  0.0582  1.7879
 3994TIP3    H211989   1.331   5.293   3.712  1.8621 -0.0291 -2.3469
 3995TIP3   OH211990   2.321   3.350   4.476 -0.0600 -0.6591 -0.0928
 3995TIP3    H111991   2.373   3.396   4.542  0.9083  1.4977 -2.2108
 3995TIP3    H211992   2.324   3.258   4.503  1.5466 -0.0626  2.0066
 3996TIP3   OH211993   4.469   3.915   2.573  0.5127  0.0409  0.1157
 3996TIP3    H111994   4.553   3.961   2.562  1.1612 -0.5730  2.1940
 3996TIP3    H211995   4.490   3.823   2.555  0.3249 -0.1351  0.7854
 3997TIP3   OH211996   1.566   3.032   3.679  0.1448  0.3184 -0.4411
 3997TIP3    H111997   1.615   2.964   3.725 -0.7099  0.1804  0.2972
 3997TIP3    H211998   1.632   3.081   3.631  0.8798 -0.4801 -0.2727
 3998TIP3   OH211999   1.312   4.118   1.887  0.1126 -0.2357  0.1197
 3998TIP3    H112000   1.305   4.158   1.974  0.9744 -0.7942  0.4473
 3998TIP3    H212001   1.379   4.169   1.843  1.4521 -1.4810  0.6501
 3999TIP3   OH212002   1.164   4.953   3.606 -0.8788 -0.6179 -0.2830
 3999TIP3    H112003   1.135   4.934   3.695 -0.7992 -0.9545 -0.3272
 3999TIP3    H212004   1.084   4.959   3.554 -1.0140  0.9074  0.0550
 4000TIP3   OH212005   2.149   5.950   0.377 -0.1083 -0.1280 -0.3987
 4000TIP3    H112006   2.140   5.970   0.470  1.2308  1.2874 -0.5224
 4000TIP3    H212007   2.164   6.035   0.336  1.5048 -0.9326 -1.6063
 4001TIP3   OH212008   3.944   0.394   3.335 -0.0697 -0.6440 -0.3602
 4001TIP3    H112009   3.985   0.311   3.356 -0.8427 -0.7226  1.0025
 4001TIP3    H212010   3.973   0.453   3.405 -0.3957 -0.0763 -0.6972
 4002TIP3   OH212011   3.837   0.214   4.355  0.3411  0.1191  0.2556
 4002TIP3    H112012   3.859   0.304   4.328 -0.1813 -0.4093 -2.1358
 4002TIP3    H212013   3.921   0.168   4.354  0.4770  0.3513  0.6053
 4003TIP3   OH212014   0.985   4.817   4.498  0.2858  0.1497 -0.3791
 4003TIP3    H112015   0.948   4.903   4.479 -0.9878 -0.5093 -1.0019
 4003TIP3    H212016   0.979   4.809   4.593 -2.4040 -0.4260 -0.5236
 4004TIP3   OH212017   2.834   2.607   3.849 -0.0563 -0.4791 -0.0908
 4004TIP3    H112018   2.918   2.629   3.891 -0.7138  0.4133  0.8015
 4004TIP3    H212019   2.859   2.562   3.768  1.3122  0.3686 -0.1862
 4005TIP3   OH212020   0.839   5.157   1.878 -0.0794  0.0676 -0.0034
 4005TIP3    H112021   0.769   5.106   1.919  0.9755 -0.9126  0.6365
 4005TIP3    H212022   0.826   5.246   1.911 -0.5188 -0.2827  0.7973
 4006TIP3   OH212023   0.398   5.600   2.589 -0.4766  0.6605  0.0036
 4006TIP3    H112024   0.455   5.668   2.554 -0.1106  1.1701  1.4859
 4006TIP3    H212025   0.398   5.615   2.684  0.1771 -1.8167  0.4809
 4007TIP3   OH212026   0.692   1.543   1.988 -0.1852  0.1393  0.4738
 4007TIP3    H112027   0.653   1.620   2.030  1.7077  1.5794 -0.2470
 4007TIP3    H212028   0.709   1.482   2.059 -1.5948  0.4275  1.0851
 4008TIP3   OH212029   2.628   5.571   3.654  0.0306  0.1652  0.3837
 4008TIP3    H112030   2.661   5.661   3.662  1.8157 -0.4398  0.0031
 4008TIP3    H212031   2.544   5.581   3.610 -0.6620  1.7972  1.9251
 4009TIP3   OH212032   5.498   0.287   4.116  0.0519  0.1032 -0.3116
 4009TIP3    H112033   5.431   0.218   4.120  1.2878 -1.1253  2.6469
 4009TIP3    H212034   5.577   0.241   4.085  0.4436  0.6284 -0.0968
 4010TIP3   OH212035   1.640   5.152   2.647 -0.3351 -0.2689  0.4984
 4010TIP3    H112036   1.560   5.132   2.696 -0.3454  0.6143  0.8575
 4010TIP3    H212037   1.711   5.125   2.705 -0.3652 -0.8574  0.2662
 4011TIP3   OH212038   0.071   2.777   4.365  0.4625  0.9242  0.4737
 4011TIP3    H112039  -0.020   2.799   4.382  0.3658  0.6216  0.3655
 4011TIP3    H212040   0.110   2.858   4.333  0.0375  0.8587 -0.2269
 4012TIP3   OH212041   0.815   0.714   1.810 -0.0215 -0.0861  0.1133
 4012TIP3    H112042   0.907   0.718   1.784 -0.1256  1.6881 -0.0904
 4012TIP3    H212043   0.816   0.731   1.904 -0.1755  0.3368  0.0380
 4013TIP3   OH212044   4.066   0.940   0.973 -0.0516  0.5574 -0.7184
 4013TIP3    H112045   4.016   0.971   1.048  0.2429 -2.0820  0.6933
 4013TIP3    H212046   3.999   0.914   0.909 -0.3515  0.7739 -0.4949
 4014TIP3   OH212047   0.487   3.079   1.443 -0.0316  0.3423  0.4874
 4014TIP3    H112048   0.581   3.076   1.424 -0.0722  1.7889 -0.0195
 4014TIP3    H212049   0.446   3.045   1.363  0.0797 -3.7096  1.9031
 4015TIP3   OH212050   3.515   1.167   3.308  0.4168 -0.1831 -0.3187
 4015TIP3    H112051   3.538   1.144   3.398 -1.1156  0.4466  0.2760
 4015TIP3    H212052   3.569   1.244   3.290  0.8005 -0.3620  0.0212
 4016TIP3   OH212053   1.194   2.798   3.311 -0.2054 -0.0762  0.3759
 4016TIP3    H112054   1.165   2.885   3.337 -0.6798 -0.1663  0.1661
 4016TIP3    H212055   1.279   2.786   3.354  0.3150  0.8601 -0.3693
 4017TIP3   OH212056   4.308   3.364   4.844 -0.3252 -0.5775 -0.1144
 4017TIP3    H112057   4.307   3.453   4.809 -2.0257 -0.4201  0.2667
 4017TIP3    H212058   4.217   3.347   4.869  0.2128 -1.9626  0.9998
 4018TIP3   OH212059   4.733   1.649   1.829 -0.0062 -0.1068  0.7215
 4018TIP3    H112060   4.702   1.607   1.909 -2.3919 -1.2414 -0.6831
 4018TIP3    H212061   4.654   1.667   1.779  1.3568  1.2719 -1.0644
 4019TIP3   OH212062   4.118   4.020   0.862 -0.7752  0.4912  0.2506
 4019TIP3    H112063   4.207   4.045   0.885 -0.4415  2.0392 -2.2613
 4019TIP3    H212064   4.128   3.951   0.796 -1.4439  0.1864  0.4637
 4020TIP3   OH212065   2.301   5.634   1.716 -0.3535 -0.2716 -0.4618
 4020TIP3    H112066   2.352   5.711   1.738 -1.9623  0.7698 -0.2513
 4020TIP3    H212067   2.360   5.581   1.661  1.0382  0.7076  0.0420
 4021TIP3   OH212068   4.164   2.434   3.419  0.1941  0.3320  0.2786
 4021TIP3    H112069   4.087   2.473   3.378 -0.7412 -0.1298  1.5190
 4021TIP3    H212070   4.149   2.340   3.414  1.3200  0.1801 -0.6161
 4022TIP3   OH212071   5.611   4.675   3.139 -0.3094  0.2799  0.2145
 4022TIP3    H112072   5.547   4.655   3.071  1.0727 -0.4011 -0.9421
 4022TIP3    H212073   5.611   4.597   3.195  1.1111 -0.7760 -1.1336
 4023TIP3   OH212074   1.502   2.389   0.170 -0.2640 -0.1302  0.5920
 4023TIP3    H112075   1.447   2.438   0.109 -0.6234 -0.9419  0.2421
 4023TIP3    H212076   1.584   2.375   0.123 -0.1362  0.1720  0.7171
 4024TIP3   OH212077   4.739   5.484   2.293  0.2469 -1.1007 -0.6331
 4024TIP3    H112078   4.783   5.401   2.273  0.0617 -1.2875 -0.2745
 4024TIP3    H212079   4.659   5.458   2.338  1.1848 -0.6722  1.3848
 4025TIP3   OH212080   1.835   3.370   1.837  0.0898 -0.1289 -0.4554
 4025TIP3    H112081   1.740   3.364   1.828 -0.1487  1.1266  0.8766
 4025TIP3    H212082   1.864   3.279   1.846 -1.2371 -0.4447  1.2316
 4026TIP3   OH212083   4.339   4.131   3.904 -0.2825 -0.7377  0.1713
 4026TIP3    H112084   4.307   4.048   3.870  2.0017 -0.7309 -2.3076
 4026TIP3    H212085   4.317   4.195   3.837  2.3698 -0.3052 -0.4121
 4027TIP3   OH212086   5.311   2.097   1.858  0.6005  0.2845 -0.2759
 4027TIP3    H112087   5.348   2.182   1.885 -0.4105  0.3342  1.1190
 4027TIP3    H212088   5.241   2.120   1.797  1.3159  0.3374 -1.0942
 4028TIP3   OH212089   5.872   2.582   4.303  0.1400  0.0569  0.5269
 4028TIP3    H112090   5.834   2.575   4.391 -2.2296  0.2793 -0.3977
 4028TIP3    H212091   5.846   2.501   4.260 -2.4020  1.6591 -1.2120
 4029TIP3   OH212092   1.865   4.005   2.041  0.0667 -0.6241  0.6141
 4029TIP3    H112093   1.926   3.936   2.065 -1.0456 -2.0518 -0.4941
 4029TIP3    H212094   1.910   4.052   1.970  0.2860 -1.0569  0.4584
 4030TIP3   OH212095   1.458   3.232   1.358 -0.1201  0.6724  0.0988
 4030TIP3    H112096   1.531   3.285   1.389  0.1024  0.6817 -0.4291
 4030TIP3    H212097   1.487   3.197   1.274 -0.5256  0.2565  0.1246
 4031TIP3   OH212098   2.753   5.115   1.824  0.0589 -0.7252 -0.1966
 4031TIP3    H112099   2.780   5.024   1.813 -1.1412 -1.1625  0.2708
 4031TIP3    H212100   2.771   5.156   1.739 -0.7920 -1.7899 -0.9218
 4032TIP3   OH212101   4.565   2.113   0.827  0.3064  0.6261  0.4765
 4032TIP3    H112102   4.657   2.101   0.848  0.7164 -2.2168 -2.2588
 4032TIP3    H212103   4.565   2.179   0.757  0.6305 -1.0529 -1.1940
 4033TIP3   OH212104   2.453   1.758   2.480 -0.0649 -0.0946  0.0981
 4033TIP3    H112105   2.380   1.783   2.537 -0.1687 -0.5318  0.1587
 4033TIP3    H212106   2.425   1.786   2.393 -0.3696 -0.3909  0.0997
 4034TIP3   OH212107   2.585   4.202   3.234  0.0296 -0.1462  0.1535
 4034TIP3    H112108   2.611   4.182   3.144  1.1665  0.8898  0.2259
 4034TIP3    H212109   2.493   4.177   3.239  0.2187 -1.1241 -1.0112
 4035TIP3   OH212110   1.266   1.285   0.778  0.2855  0.5842  0.0921
 4035TIP3    H112111   1.358   1.278   0.800  0.7115  2.2508 -1.0031
 4035TIP3    H212112   1.226   1.332   0.851  0.1221 -0.7576  0.9045
 4036TIP3   OH212113   4.944   5.770   1.035 -0.2593  0.6219 -0.2506
 4036TIP3    H112114   5.021   5.821   1.011  0.0790 -0.1289 -0.7835
 4036TIP3    H212115   4.902   5.821   1.105 -0.9379  2.5682 -1.9653
 4037TIP3   OH212116   3.851   3.808   3.084  0.1056 -0.2946 -0.3775
 4037TIP3    H112117   3.942   3.835   3.071 -0.2534  0.5777 -1.2558
 4037TIP3    H212118   3.849   3.771   3.172  1.3041 -0.3174 -0.3420
 4038TIP3   OH212119   4.179   2.466   1.569 -0.2901 -0.0778  0.2478
 4038TIP3    H112120   4.196   2.478   1.662 -3.2249 -0.6936  0.9482
 4038TIP3    H212121   4.241   2.525   1.526  2.0242 -0.7197  2.4703
 4039TIP3   OH212122   3.878   3.150   0.584 -0.5294  0.2423  0.0900
 4039TIP3    H112123   3.860   3.206   0.508 -1.6850 -0.5083 -0.2199
 4039TIP3    H212124   3.873   3.061   0.549  0.5795 -0.0838  0.7222
 4040TIP3   OH212125   3.324   3.490   0.734  0.0278 -0.3551 -0.2060
 4040TIP3    H112126   3.284   3.414   0.777  0.2303 -0.3754 -0.0551
 4040TIP3    H212127   3.351   3.458   0.648  0.8792 -0.6740  0.1769
 4041TIP3   OH212128   6.258   0.868   2.346 -0.1605 -0.5034  0.3993
 4041TIP3    H112129   6.279   0.949   2.394  0.8661 -1.5037  1.7028
 4041TIP3    H212130   6.256   0.895   2.254 -0.1292  1.0631  0.8174
 4042TIP3   OH212131   3.202   3.246   4.419 -0.0139 -0.1115  0.1526
 4042TIP3    H112132   3.258   3.184   4.467 -0.8632  0.7866  2.4568
 4042TIP3    H212133   3.177   3.311   4.484  0.2717  2.3259 -2.0141
 4043TIP3   OH212134   5.782   1.538   3.847 -0.6457  0.6182  0.2021
 4043TIP3    H112135   5.795   1.591   3.926  0.8325 -1.1181  1.1974
 4043TIP3    H212136   5.729   1.594   3.790  0.3103  2.9187  1.4123
 4044TIP3   OH212137   5.916   0.377   0.804  0.0323  0.2187 -0.4221
 4044TIP3    H112138   5.969   0.353   0.880 -0.3974 -0.7482 -0.4178
 4044TIP3    H212139   5.980   0.401   0.737  0.4249  0.6189  0.0850
 4045TIP3   OH212140   4.655   4.706   4.544  0.3190  0.3597 -0.3195
 4045TIP3    H112141   4.566   4.721   4.514  0.0365  0.4331  0.5360
 4045TIP3    H212142   4.670   4.613   4.529 -0.9892 -0.3537  2.2887
 4046TIP3   OH212143   1.099   0.338   1.343 -0.2782  0.2038  0.2734
 4046TIP3    H112144   1.014   0.372   1.315 -0.6407  0.2878  1.4482
 4046TIP3    H212145   1.127   0.282   1.270 -0.2415  1.9727 -1.1333
 4047TIP3   OH212146   2.412   3.824   4.379 -0.0593  0.4749 -0.7323
 4047TIP3    H112147   2.410   3.733   4.347 -0.0551 -0.2255  1.1110
 4047TIP3    H212148   2.465   3.871   4.314 -0.3232 -0.7553 -1.8951
 4048TIP3   OH212149   2.083   3.121   4.797 -0.2161  0.0853  1.0278
 4048TIP3    H112150   2.156   3.058   4.806  0.6370  0.5513 -1.7140
 4048TIP3    H212151   2.126   3.205   4.783 -1.3547  1.0639  3.0373
 4049TIP3   OH212152   3.827   0.877   0.869 -0.3811 -0.0677 -0.4961
 4049TIP3    H112153   3.816   0.782   0.878 -0.8223  0.0568  0.4146
 4049TIP3    H212154   3.743   0.913   0.897  0.4300  0.6698  1.0909
 4050TIP3   OH212155   5.372   2.067   4.306 -0.1122 -0.0657 -0.5833
 4050TIP3    H112156   5.379   2.163   4.309  1.6864 -0.1879  0.5862
 4050TIP3    H212157   5.432   2.041   4.236 -0.4868 -0.3560 -0.8010
 4051TIP3   OH212158   3.165   4.073   4.492  0.2522  0.2039  0.0975
 4051TIP3    H112159   3.195   4.043   4.406 -0.0074  0.7865 -0.2000
 4051TIP3    H212160   3.071   4.060   4.491  0.5070 -2.5017  1.3804
 4052TIP3   OH212161   5.876   0.150   2.836 -0.2721 -0.0489 -0.3102
 4052TIP3    H112162   5.859   0.231   2.788 -1.2557 -0.7969 -1.2530
 4052TIP3    H212163   5.949   0.110   2.789  0.6239  0.5611  0.5225
 4053TIP3   OH212164   2.498   1.415   5.018 -0.0440  0.3794  0.4628
 4053TIP3    H112165   2.470   1.324   5.030 -0.2702  0.5601  1.4059
 4053TIP3    H212166   2.494   1.453   5.106  0.3103  1.2292  0.1233
 4054TIP3   OH212167   3.508   5.001   0.365  0.2118 -0.3838 -0.6370
 4054TIP3    H112168   3.481   4.941   0.295  0.4268 -1.3794  0.1185
 4054TIP3    H212169   3.430   5.012   0.419  0.8804 -2.1763  0.7701
 4055TIP3   OH212170   0.691   0.955   3.924  0.0099 -0.1476  0.4643
 4055TIP3    H112171   0.775   0.993   3.899  0.5188 -1.6881 -0.2757
 4055TIP3    H212172   0.625   1.015   3.888  0.7740  0.4424  0.0330
 4056TIP3   OH212173   2.699   1.964   1.512  0.3414 -0.2453 -0.1797
 4056TIP3    H112174   2.687   2.034   1.577  0.2485  0.1021 -0.5650
 4056TIP3    H212175   2.612   1.952   1.474  0.6211  0.3737 -1.0567
 4057TIP3   OH212176   1.649   4.830   4.448  0.3029 -0.6049 -0.4785
 4057TIP3    H112177   1.657   4.835   4.352  1.5272 -0.5336 -0.3813
 4057TIP3    H212178   1.737   4.809   4.479  0.1411  0.3173  0.7011
 4058TIP3   OH212179   1.884   3.660   0.097  0.8572  0.2519 -0.2311
 4058TIP3    H112180   1.813   3.703   0.048  1.5458  0.5687 -0.9694
 4058TIP3    H212181   1.889   3.572   0.060  0.0252 -0.2061  0.6898
 4059TIP3   OH212182   2.439   1.497   4.055  0.1036  0.1724 -0.3851
 4059TIP3    H112183   2.523   1.453   4.067  0.4994  1.2731  1.1751
 4059TIP3    H212184   2.458   1.571   3.998  0.1540  0.3221 -0.1734
 4060TIP3   OH212185   6.206   2.868   1.098 -0.3722 -0.6306  0.6452
 4060TIP3    H112186   6.199   2.812   1.021  1.1267  1.4826 -1.1174
 4060TIP3    H212187   6.235   2.808   1.168 -2.9461 -2.8304  0.0064
 4061TIP3   OH212188   1.047   1.503   4.447  0.2931  0.1759  0.8122
 4061TIP3    H112189   1.000   1.440   4.391  0.4981 -0.5663  1.4619
 4061TIP3    H212190   1.125   1.526   4.397 -0.2547  0.6493  0.1571
 4062TIP3   OH212191   3.223   0.035   2.971 -0.7040 -0.4059  0.8984
 4062TIP3    H112192   3.306   0.012   2.931 -0.5554  0.5094  0.6554
 4062TIP3    H212193   3.247   0.063   3.060 -0.8815 -1.1631  1.1915
 4063TIP3   OH212194   3.582   3.095   3.077  0.7806  0.4809 -0.1086
 4063TIP3    H112195   3.489   3.107   3.055  0.2847 -0.6503  1.1764
 4063TIP3    H212196   3.612   3.182   3.102 -0.3338  0.6443  0.7758
 4064TIP3   OH212197   4.811   0.902   1.147 -0.2674 -0.2268  0.7386
 4064TIP3    H112198   4.904   0.907   1.171  0.1894 -0.8084 -0.8061
 4064TIP3    H212199   4.773   0.982   1.184  0.9620  0.3030  0.9066
 4065TIP3   OH212200   4.099   5.555   2.367 -0.4404 -0.2284  0.4070
 4065TIP3    H112201   4.172   5.605   2.330  1.0315 -1.5250  1.3877
 4065TIP3    H212202   4.047   5.620   2.415  1.9986  0.3155  2.5586
 4066TIP3   OH212203   1.913   1.999   3.514 -0.0668  0.1133  0.2108
 4066TIP3    H112204   1.880   2.060   3.448  0.5545 -0.1576 -0.3694
 4066TIP3    H212205   1.838   1.943   3.534 -0.4986  0.7296  0.3689
 4067TIP3   OH212206   1.904   1.305   3.541  0.2170 -0.2218 -0.1657
 4067TIP3    H112207   1.920   1.222   3.585 -1.4003 -0.7032 -0.4184
 4067TIP3    H212208   1.959   1.303   3.463  1.3869 -0.3428  0.6407
 4068TIP3   OH212209   0.915   4.160   2.838 -0.8068  0.0858  0.3278
 4068TIP3    H112210   0.904   4.083   2.783 -0.9162  0.4665 -0.1882
 4068TIP3    H212211   0.969   4.130   2.911 -0.3662 -0.3371 -0.1676
 4069TIP3   OH212212   1.624   4.563   3.534 -0.3043  0.2823  0.2420
 4069TIP3    H112213   1.680   4.509   3.590  0.0980  1.3304  0.8807
 4069TIP3    H212214   1.679   4.584   3.458  0.0659  1.0071  0.6968
 4070TIP3   OH212215   3.608   1.205   4.762 -0.3373 -0.5923  0.2610
 4070TIP3    H112216   3.665   1.148   4.710  0.0652  0.6429 -0.6922
 4070TIP3    H212217   3.547   1.243   4.699 -0.4734  0.1838  0.8384
 4071TIP3   OH212218   1.141   2.099   1.515  0.2740  0.2043 -0.4328
 4071TIP3    H112219   1.141   2.054   1.600 -0.6707 -0.9766 -1.0099
 4071TIP3    H212220   1.100   2.036   1.455  1.4227  0.7852 -1.8960
 4072TIP3   OH212221   5.711   1.614   1.918 -0.0960  0.9297  0.3885
 4072TIP3    H112222   5.704   1.710   1.923  0.7622  0.9639  1.1290
 4072TIP3    H212223   5.640   1.582   1.973 -0.2982  1.1407  0.2515
 4073TIP3   OH212224   0.456   4.602   5.003 -0.2820  0.5496 -0.0084
 4073TIP3    H112225   0.456   4.694   5.030 -2.7824  0.7651 -0.4775
 4073TIP3    H212226   0.546   4.573   5.015  0.1828  2.5474  1.9098
 4074TIP3   OH212227   3.206   2.849   3.900 -0.2828  0.5164  0.4443
 4074TIP3    H112228   3.298   2.823   3.908 -0.2065  0.7672  0.3775
 4074TIP3    H212229   3.158   2.778   3.942 -0.0609  0.3627  0.4428
 4075TIP3   OH212230   0.763   4.593   4.140  0.1579 -0.3503  0.1476
 4075TIP3    H112231   0.670   4.608   4.157  0.2635 -0.0384  0.4693
 4075TIP3    H212232   0.804   4.596   4.227  0.5819  0.3788 -0.0686
 4076TIP3   OH212233   2.995   1.237   0.545 -0.0496  0.3283  0.2222
 4076TIP3    H112234   2.918   1.196   0.585 -0.0551 -2.3975 -2.2194
 4076TIP3    H212235   2.966   1.260   0.457  1.7636 -0.3225 -0.5905
 4077TIP3   OH212236   3.319   4.833   3.240 -0.2542  0.4397 -0.2847
 4077TIP3    H112237   3.278   4.846   3.325 -0.4924  0.1667 -0.3544
 4077TIP3    H212238   3.250   4.851   3.176 -0.6959 -1.3664 -0.3788
 4078TIP3   OH212239   0.185   1.797   3.806 -0.1008 -0.1885 -0.2884
 4078TIP3    H112240   0.164   1.722   3.860 -0.7418  0.3596  0.2522
 4078TIP3    H212241   0.277   1.786   3.783  0.1487 -0.4930  0.8094
 4079TIP3   OH212242   1.692   5.766   2.596 -0.2568 -0.0803 -0.3174
 4079TIP3    H112243   1.665   5.769   2.504 -0.8879  2.2828 -0.1273
 4079TIP3    H212244   1.764   5.830   2.602 -3.2095  3.4678  1.5848
 4080TIP3   OH212245   5.665   2.050   1.587 -0.3290 -0.3620 -0.0358
 4080TIP3    H112246   5.607   2.039   1.511  1.0020 -0.2432 -1.1097
 4080TIP3    H212247   5.627   1.993   1.654 -2.1317  0.3312 -0.4128
 4081TIP3   OH212248   0.726   0.123   1.391 -0.0838 -0.3706  0.0722
 4081TIP3    H112249   0.702   0.133   1.483 -0.0667 -0.7832  0.1258
 4081TIP3    H212250   0.715   0.210   1.353 -2.4645 -0.6672 -0.0835
 4082TIP3   OH212251   5.361   3.804   3.007 -0.0608 -0.1934 -0.0223
 4082TIP3    H112252   5.445   3.827   2.969 -0.4847  0.8264 -0.3612
 4082TIP3    H212253   5.336   3.723   2.963 -0.1830  0.5541 -1.3878
 4083TIP3   OH212254   3.601   0.108   1.190  0.0245  0.2294  0.4836
 4083TIP3    H112255   3.667   0.050   1.227  1.6966  1.7517 -0.0034
 4083TIP3    H212256   3.650   0.174   1.142 -1.9062  0.7147 -0.9839
 4084TIP3   OH212257   5.256   5.239   1.620  0.0860 -0.5193  0.2040
 4084TIP3    H112258   5.169   5.262   1.586  1.3195  1.5155 -1.8380
 4084TIP3    H212259   5.238   5.177   1.691 -3.0454  0.1783  0.1702
 4085TIP3   OH212260   0.094   5.505   0.245  0.2483 -0.0156  0.3476
 4085TIP3    H112261  -0.000   5.491   0.251  0.0424  0.7079 -0.8515
 4085TIP3    H212262   0.105   5.599   0.259  0.8436 -0.1561  0.8897
 4086TIP3   OH212263   4.296   3.886   3.784 -0.0263  0.0541 -0.0343
 4086TIP3    H112264   4.213   3.859   3.744  0.3770  0.9056 -1.5491
 4086TIP3    H212265   4.331   3.806   3.823 -0.9395 -0.6160 -0.5515
 4087TIP3   OH212266   4.266   3.119   3.419  0.0361 -0.1486  0.1322
 4087TIP3    H112267   4.212   3.057   3.370  0.3250  0.4940 -1.0121
 4087TIP3    H212268   4.335   3.066   3.458 -0.0882 -0.6373 -0.3122
 4088TIP3   OH212269   0.346   0.680   4.934  0.0635  0.7929  0.2498
 4088TIP3    H112270   0.274   0.631   4.897  0.2063  0.9965 -0.3002
 4088TIP3    H212271   0.401   0.614   4.976 -0.7592  0.7015  1.2293
 4089TIP3   OH212272   2.960   1.741   4.465  0.3081  0.4445 -0.5503
 4089TIP3    H112273   2.964   1.674   4.533 -0.6406 -0.3255 -1.2232
 4089TIP3    H212274   2.944   1.693   4.384 -0.9585  1.4883 -0.9718
 4090TIP3   OH212275   3.634   0.566   2.681 -0.3293  0.5968 -0.2411
 4090TIP3    H112276   3.566   0.499   2.671 -0.1872 -0.2092  2.9449
 4090TIP3    H212277   3.591   0.648   2.659 -1.4274 -0.1971 -1.1960
 4091TIP3   OH212278   0.532   2.987   4.327  0.2971  0.3628 -0.2716
 4091TIP3    H112279   0.476   2.912   4.305  1.0452 -0.8317  1.5671
 4091TIP3    H212280   0.618   2.964   4.291  0.4262  0.5157 -0.0625
 4092TIP3   OH212281   4.166   0.094   3.785 -0.2586 -0.1413  0.3949
 4092TIP3    H112282   4.117   0.087   3.868  0.3104  1.6935  0.9402
 4092TIP3    H212283   4.256   0.073   3.809  0.3300  2.5245  0.7846
 4093TIP3   OH212284   4.968   0.219   4.848  0.4173 -0.6090 -0.2020
 4093TIP3    H112285   4.876   0.223   4.822  0.0891  1.5641  0.9887
 4093TIP3    H212286   4.973   0.147   4.911 -1.0231  0.6493  1.4448
 4094TIP3   OH212287   1.351   3.646   0.426  0.2728  0.5303 -0.4434
 4094TIP3    H112288   1.427   3.676   0.477 -0.0080  0.5110 -0.0110
 4094TIP3    H212289   1.276   3.665   0.482  0.0998 -1.3011  0.0115
 4095TIP3   OH212290   1.501   4.705   3.121 -0.4312  0.2997 -0.3755
 4095TIP3    H112291   1.542   4.622   3.096 -0.5308  0.6963 -1.9432
 4095TIP3    H212292   1.544   4.770   3.066 -1.0814  1.1440  0.0992
 4096TIP3   OH212293   3.594   5.813   1.139  0.4449 -0.3723 -0.4042
 4096TIP3    H112294   3.618   5.722   1.160  1.1093 -0.0998  0.0466
 4096TIP3    H212295   3.500   5.817   1.157  0.3025 -1.1073 -0.9258
 4097TIP3   OH212296   0.127   2.637   3.565 -0.0927 -0.1601 -0.0952
 4097TIP3    H112297   0.124   2.546   3.535 -0.1012 -0.6069  1.1860
 4097TIP3    H212298   0.041   2.652   3.604  0.9503 -0.7259  2.6881
 4098TIP3   OH212299   6.037   5.888   5.124 -0.3188  0.2744 -0.1538
 4098TIP3    H112300   6.076   5.810   5.085 -0.7369  0.3364 -0.7047
 4098TIP3    H212301   5.969   5.855   5.182  0.0625  0.1980  0.2562
 4099TIP3   OH212302   0.373   4.448   1.504  0.2434  0.2711 -0.4317
 4099TIP3    H112303   0.355   4.492   1.587 -1.8491  0.4329 -0.9149
 4099TIP3    H212304   0.452   4.397   1.520 -1.1220 -1.1868  2.2473
 4100TIP3   OH212305   1.301   3.779   3.480 -0.0109  0.2218  0.6382
 4100TIP3    H112306   1.325   3.832   3.404 -0.3304 -1.1742 -0.4712
 4100TIP3    H212307   1.206   3.789   3.488  0.0188  0.3465  0.8468
 4101TIP3   OH212308   4.796   4.920   3.586  0.6426 -0.1865 -0.4355
 4101TIP3    H112309   4.839   4.960   3.662 -0.3900 -0.4102  0.2871
 4101TIP3    H212310   4.723   4.870   3.623 -0.9978  1.1612 -1.6970
 4102TIP3   OH212311   1.444   5.220   2.458  0.0714  0.0397  0.1220
 4102TIP3    H112312   1.469   5.312   2.446 -0.6570  0.1489 -0.6366
 4102TIP3    H212313   1.520   5.180   2.500  0.4501  0.9590  0.3296
 4103TIP3   OH212314   4.610   1.015   4.026 -0.5807  0.4696 -0.4941
 4103TIP3    H112315   4.620   1.093   3.970  0.4366  0.7346  0.0274
 4103TIP3    H212316   4.518   0.991   4.018 -1.0114  1.9939 -0.3160
 4104TIP3   OH212317   6.204   3.973   0.478  0.5051  0.4644  0.0442
 4104TIP3    H112318   6.192   3.883   0.449  1.1158 -0.2982  1.9727
 4104TIP3    H212319   6.126   3.993   0.529  0.0364  1.3176 -0.9647
 4105TIP3   OH212320   5.949   3.529   5.074  0.3112  1.0082 -0.2138
 4105TIP3    H112321   6.015   3.536   5.005  0.0829 -0.0290 -0.5595
 4105TIP3    H212322   5.907   3.444   5.058 -1.7285  2.0253 -0.5606
 4106TIP3   OH212323   4.885   2.606   0.493 -0.1930 -0.1310 -0.1783
 4106TIP3    H112324   4.948   2.610   0.421  0.4403  1.7641  0.4313
 4106TIP3    H212325   4.800   2.605   0.450  0.2020 -0.6179 -0.9702
 4107TIP3   OH212326   3.489   5.614   4.103  0.0879 -0.0979  0.1360
 4107TIP3    H112327   3.515   5.573   4.020  0.1445  0.5457 -0.1759
 4107TIP3    H212328   3.490   5.708   4.084 -2.8908  0.0025 -0.0566
 4108TIP3   OH212329   4.578   4.094   0.066  0.1932 -0.2796  0.1805
 4108TIP3    H112330   4.500   4.142   0.093  0.4421  1.8322 -2.4134
 4108TIP3    H212331   4.650   4.138   0.112  0.1306 -0.3782  0.3768
 4109TIP3   OH212332   0.191   5.511   3.544  0.0045  0.1897 -0.4468
 4109TIP3    H112333   0.171   5.578   3.479 -1.5762  0.6109  0.4161
 4109TIP3    H212334   0.269   5.543   3.589 -0.4971  1.2731 -0.3159
 4110TIP3   OH212335   4.069   2.188   1.160 -0.7915  0.1141 -0.6054
 4110TIP3    H112336   4.138   2.222   1.102  2.1810 -0.5970  2.2189
 4110TIP3    H212337   4.100   2.101   1.184 -3.0330 -0.4657  0.3745
 4111TIP3   OH212338   5.893   4.309   1.019  0.3735  0.2028  0.4283
 4111TIP3    H112339   5.911   4.334   1.109 -0.7264 -0.2277  0.7903
 4111TIP3    H212340   5.806   4.345   1.001  0.9351  1.0145 -0.7545
 4112TIP3   OH212341   0.072   2.167   2.389 -0.7921 -0.1589  0.4713
 4112TIP3    H112342   0.077   2.071   2.381 -1.4382 -0.1244 -0.6299
 4112TIP3    H212343   0.162   2.194   2.407 -0.4185 -0.9147 -0.1400
 4113TIP3   OH212344   1.854   4.630   2.006  0.3967 -0.0875 -0.2994
 4113TIP3    H112345   1.831   4.688   1.933 -1.2198  0.1119  0.3115
 4113TIP3    H212346   1.945   4.651   2.026  0.5062  0.6782 -1.5179
 4114TIP3   OH212347   4.894   4.557   1.583 -0.7697  0.9782  0.4121
 4114TIP3    H112348   4.835   4.627   1.556 -1.1497  0.9709  1.1973
 4114TIP3    H212349   4.854   4.521   1.662 -0.1941  0.3587  0.4286
 4115TIP3   OH212350   4.211   0.244   3.551 -0.0007 -0.4504  0.0727
 4115TIP3    H112351   4.296   0.288   3.558 -0.6780  0.8896  0.3302
 4115TIP3    H212352   4.203   0.194   3.632  0.5794 -0.6375  0.0124
 4116TIP3   OH212353   1.341   0.028   0.947 -0.4597  0.2622  0.2210
 4116TIP3    H112354   1.273   0.011   0.882 -1.2233  0.3755  0.9715
 4116TIP3    H212355   1.328  -0.039   1.013  1.1680 -0.6890 -0.3635
 4117TIP3   OH212356   4.851   5.887   3.383  0.1930 -0.0678  0.0873
 4117TIP3    H112357   4.945   5.884   3.402  0.5312  1.7507 -1.0311
 4117TIP3    H212358   4.841   5.962   3.324 -1.9386 -0.3675 -0.0097
 4118TIP3   OH212359   5.295   2.580   4.172  0.6210 -0.2576 -0.0644
 4118TIP3    H112360   5.328   2.645   4.109  1.6460 -0.2327  0.4764
 4118TIP3    H212361   5.203   2.603   4.184  0.5133 -0.0090 -1.2416
 4119TIP3   OH212362   1.899   4.124   0.297 -0.0468  0.1467 -0.0204
 4119TIP3    H112363   1.863   4.042   0.333  0.3383 -0.4608 -0.9713
 4119TIP3    H212364   1.931   4.172   0.373 -0.0723 -0.6899  0.5335
 4120TIP3   OH212365   3.947   2.508   0.007 -0.4976 -0.6476  0.4002
 4120TIP3    H112366   4.003   2.432   0.021  0.7624  0.2757  0.4566
 4120TIP3    H212367   3.942   2.552   0.092  1.0662  0.8368 -0.2180
 4121TIP3   OH212368   5.688   4.416   3.652 -0.7298 -0.2630 -0.1631
 4121TIP3    H112369   5.722   4.406   3.563  0.5039 -1.4695  0.3999
 4121TIP3    H212370   5.721   4.500   3.682 -1.2802  0.2196 -0.8850
 4122TIP3   OH212371   5.974   0.044   0.928  0.1383  0.2419  0.3334
 4122TIP3    H112372   5.893  -0.001   0.905  0.0992 -0.1463  1.1962
 4122TIP3    H212373   6.011   0.070   0.844  0.9179 -2.6855 -0.3519
 4123TIP3   OH212374   0.943   2.754   0.796  0.0595  0.6635  0.1045
 4123TIP3    H112375   0.982   2.694   0.859  0.8462  2.2300  1.1676
 4123TIP3    H212376   0.849   2.750   0.814  0.1759  0.2961  0.6500
 4124TIP3   OH212377   4.710   0.965   2.138 -0.3166  0.2744 -0.9285
 4124TIP3    H112378   4.766   0.898   2.176 -1.6064  0.3023  1.1560
 4124TIP3    H212379   4.764   1.044   2.138  0.6109 -0.3313 -1.7530
 4125TIP3   OH212380   3.473   1.257   2.808 -0.2546  0.0753 -0.1441
 4125TIP3    H112381   3.476   1.333   2.750  0.0018 -0.2668 -0.5889
 4125TIP3    H212382   3.458   1.294   2.895  1.6983  0.7941 -0.0554
 4126TIP3   OH212383   5.616   0.746   2.705 -0.1007 -0.0350 -0.3939
 4126TIP3    H112384   5.533   0.716   2.668  0.3932 -1.0422 -0.7408
 4126TIP3    H212385   5.602   0.748   2.799 -0.4492 -0.4363 -0.4383
 4127TIP3   OH212386   3.098   3.741   0.358  0.0142 -0.1308  0.2721
 4127TIP3    H112387   3.058   3.792   0.428 -1.5245  0.5390 -1.0322
 4127TIP3    H212388   3.033   3.674   0.337  1.9471 -2.7132  1.9019
 4128TIP3   OH212389   5.171   0.005   1.844  0.1909  0.2017  0.5003
 4128TIP3    H112390   5.257   0.018   1.884  0.4104  0.4147 -0.0281
 4128TIP3    H212391   5.130   0.092   1.847  0.2163  0.2243  0.2577
 4129TIP3   OH212392   0.538   1.782   1.829 -0.1349 -0.5623  0.1926
 4129TIP3    H112393   0.601   1.854   1.833  0.8817 -1.4702  0.8307
 4129TIP3    H212394   0.493   1.785   1.914 -1.7202  0.7159 -0.6299
 4130TIP3   OH212395   3.588   3.847   2.989 -0.4308 -0.3868 -0.1302
 4130TIP3    H112396   3.615   3.924   2.939  1.6736 -1.7092 -1.1703
 4130TIP3    H212397   3.670   3.810   3.023 -1.4621 -1.6690  1.1029
 4131TIP3   OH212398   1.787   5.081   0.166  0.5477  0.0825  0.1387
 4131TIP3    H112399   1.767   5.068   0.073  1.1961  0.1289 -0.0110
 4131TIP3    H212400   1.810   4.994   0.198 -1.3346 -0.2602  0.6827
 4132TIP3   OH212401   2.167   4.901   4.625 -0.3706 -0.5836  0.1234
 4132TIP3    H112402   2.234   4.896   4.693  0.2366 -0.3703 -0.4349
 4132TIP3    H212403   2.136   4.991   4.628 -1.3111 -0.9310  1.0001
 4133TIP3   OH212404   5.483   0.444   0.953  0.3610 -0.1295 -0.2518
 4133TIP3    H112405   5.578   0.435   0.960  0.4042  0.6117  0.2939
 4133TIP3    H212406   5.452   0.358   0.925  1.1046 -0.6652  0.5243
 4134TIP3   OH212407   6.246   3.916   4.063 -0.0341 -0.2339 -0.0677
 4134TIP3    H112408   6.193   3.992   4.038 -1.0967 -1.5317 -1.9268
 4134TIP3    H212409   6.295   3.893   3.985  1.3027 -0.6878  0.8640
 4135TIP3   OH212410   5.572   2.712   0.774  0.0934  0.1781 -0.1732
 4135TIP3    H112411   5.636   2.706   0.703  0.4270 -0.5694  0.1798
 4135TIP3    H212412   5.546   2.621   0.791 -2.9112  0.5589 -1.9370
 4136TIP3   OH212413   0.688   5.232   4.299 -0.0288  0.0307  1.0217
 4136TIP3    H112414   0.634   5.288   4.244  0.7653  0.4625  0.6653
 4136TIP3    H212415   0.679   5.269   4.387  0.2536  0.5445  0.8396
 4137TIP3   OH212416   4.019   5.500   4.332  0.4750 -0.4929 -0.0188
 4137TIP3    H112417   3.943   5.513   4.275  0.0270  0.7317  0.8187
 4137TIP3    H212418   4.093   5.496   4.271  0.1798  2.2115 -0.7072
 4138TIP3   OH212419   0.677   5.333   4.895 -0.1429  0.6078 -0.9154
 4138TIP3    H112420   0.724   5.288   4.965 -1.7734 -0.8553 -0.7048
 4138TIP3    H212421   0.690   5.426   4.914  2.7918  0.3037 -1.0163
 4139TIP3   OH212422   5.323   1.371   1.310  0.0041 -0.4223 -0.0331
 4139TIP3    H112423   5.371   1.289   1.308  0.6130 -0.0715 -0.0611
 4139TIP3    H212424   5.234   1.348   1.284 -0.3386 -1.4110  1.8120
 4140TIP3   OH212425   1.863   1.330   4.580  0.0467  0.0656 -0.1497
 4140TIP3    H112426   1.820   1.245   4.570  0.0533  0.0341  0.0699
 4140TIP3    H212427   1.845   1.376   4.499 -0.0758 -0.0949 -0.2138
 4141TIP3   OH212428   0.437   0.407   1.878 -0.0482  0.1847  0.5140
 4141TIP3    H112429   0.378   0.453   1.819  0.0031 -0.1454  0.1985
 4141TIP3    H212430   0.511   0.467   1.890 -0.2532  0.4265  0.5803
 4142TIP3   OH212431   4.265   5.774   3.892  0.2799  0.6735 -0.2577
 4142TIP3    H112432   4.355   5.773   3.924  0.2573  0.5526 -0.1983
 4142TIP3    H212433   4.212   5.781   3.971  0.2173  0.2140 -0.2596
 4143TIP3   OH212434   4.486   5.300   4.239 -0.2887 -0.2549 -0.6485
 4143TIP3    H112435   4.449   5.215   4.214 -4.7435  0.9991  0.6697
 4143TIP3    H212436   4.450   5.362   4.174 -0.0768  1.0548  0.4372
 4144TIP3   OH212437   3.225   1.871   3.520  0.4476  0.4216 -0.0910
 4144TIP3    H112438   3.199   1.956   3.553  1.2940  0.6526 -0.0154
 4144TIP3    H212439   3.166   1.856   3.445 -0.3632  0.6169  0.4884
 4145TIP3   OH212440   4.095   0.483   5.105 -0.3582  0.5427 -0.1392
 4145TIP3    H112441   4.006   0.468   5.137 -0.1217  0.6399  0.5908
 4145TIP3    H212442   4.087   0.560   5.049 -0.7101  0.6467  0.0470
 4146TIP3   OH212443   1.097   0.652   1.452  0.2283 -0.1290  0.2520
 4146TIP3    H112444   1.035   0.664   1.381  0.2295 -0.4553  0.1941
 4146TIP3    H212445   1.167   0.599   1.415 -0.4756 -1.5603  0.8783
 4147TIP3   OH212446   2.970   5.050   0.980 -0.6539  0.2209 -0.5330
 4147TIP3    H112447   2.884   5.036   1.020 -0.5231  0.6425 -0.0918
 4147TIP3    H212448   3.027   4.986   1.023 -0.7397 -0.0532 -0.8200
 4148TIP3   OH212449   4.365   1.568   2.883 -0.0902 -0.2308  0.2409
 4148TIP3    H112450   4.366   1.510   2.960  2.2447 -0.1874  0.3004
 4148TIP3    H212451   4.400   1.515   2.812  1.8951  0.9899  0.2463
 4149TIP3   OH212452   1.832   2.271   3.362 -0.3715 -0.1965  0.7756
 4149TIP3    H112453   1.892   2.342   3.387  0.4964 -1.0113  1.0930
 4149TIP3    H212454   1.846   2.260   3.268  1.2651 -1.4793  1.1135
 4150TIP3   OH212455   3.557   4.220   2.884  0.0631 -0.2650 -0.3884
 4150TIP3    H112456   3.621   4.290   2.893 -0.3184  0.2938 -1.8300
 4150TIP3    H212457   3.592   4.162   2.816 -1.2571  0.4439 -1.7328
 4151TIP3   OH212458   2.401   5.417   1.241  0.4739 -0.2054  0.3441
 4151TIP3    H112459   2.374   5.326   1.235  1.0015 -0.5279  2.2120
 4151TIP3    H212460   2.441   5.437   1.156 -2.6935 -0.6366 -1.4112
 4152TIP3   OH212461   1.393   3.238   4.638 -0.1679  0.1734 -0.1200
 4152TIP3    H112462   1.350   3.274   4.715  0.4842  1.1576 -0.1887
 4152TIP3    H212463   1.466   3.187   4.673 -0.4638 -0.2028 -0.0536
 4153TIP3   OH212464   3.132   4.536   0.656  0.2519  0.0689 -0.5331
 4153TIP3    H112465   3.079   4.615   0.666  0.5697  0.0462  2.1268
 4153TIP3    H212466   3.068   4.467   0.636 -0.2600  0.6344 -0.9016
 4154TIP3   OH212467   1.473   5.854   2.095  0.2937  0.0662 -0.2026
 4154TIP3    H112468   1.389   5.847   2.140  0.6086 -0.4759  0.3312
 4154TIP3    H212469   1.486   5.768   2.055  0.6418  0.1087 -0.1849
 4155TIP3   OH212470   0.620   0.622   1.270  0.1900  0.2749 -0.0455
 4155TIP3    H112471   0.581   0.660   1.348 -0.3958  0.6439 -0.5034
 4155TIP3    H212472   0.710   0.601   1.295  0.4058  1.5761  0.3479
 4156TIP3   OH212473   3.664   0.404   2.904  0.6280 -0.0216 -0.0423
 4156TIP3    H112474   3.652   0.479   2.846  0.0234 -0.3928 -0.4140
 4156TIP3    H212475   3.725   0.347   2.857 -0.7424 -0.8640 -0.8875
 4157TIP3   OH212476   5.746   2.749   1.003  0.1611  0.4344 -0.4849
 4157TIP3    H112477   5.700   2.742   0.919 -1.1901 -0.5699  0.3113
 4157TIP3    H212478   5.728   2.837   1.033 -0.2171  0.4534 -0.7624
 4158TIP3   OH212479   4.861   0.284   3.284 -0.2691 -0.1246  0.6069
 4158TIP3    H112480   4.954   0.305   3.272 -0.3256  0.9134  1.7152
 4158TIP3    H212481   4.817   0.369   3.281 -1.2266 -0.6312 -0.1582
 4159TIP3   OH212482   4.331   2.759   1.974  0.6068 -0.5309  0.0254
 4159TIP3    H112483   4.242   2.783   1.998  1.2804  0.9853  1.2088
 4159TIP3    H212484   4.344   2.672   2.012  0.3573  0.1959  1.8454
 4160TIP3   OH212485   2.968   3.750   3.394 -0.1315 -1.0080  0.4699
 4160TIP3    H112486   2.902   3.703   3.443 -1.8405  1.1104  0.3503
 4160TIP3    H212487   2.918   3.803   3.331  1.6430  0.7678  0.4550
 4161TIP3   OH212488   4.874   4.328   4.747  0.7465  0.1770  0.0782
 4161TIP3    H112489   4.854   4.369   4.831 -0.2538 -2.2398  1.1340
 4161TIP3    H212490   4.800   4.268   4.732  1.0795  0.2724 -2.3686
 4162TIP3   OH212491   2.768   2.695   0.802  0.4769 -0.1727 -0.0357
 4162TIP3    H112492   2.673   2.687   0.815  0.1857  1.7131 -0.6913
 4162TIP3    H212493   2.789   2.628   0.738 -0.7737  0.5462 -1.2572
 4163TIP3   OH212494   5.938   3.687   2.728 -0.3705  0.2468  0.8972
 4163TIP3    H112495   6.015   3.717   2.679 -1.1336  0.2476 -0.3505
 4163TIP3    H212496   5.974   3.647   2.807  1.1933 -2.6747 -1.1024
 4164TIP3   OH212497   0.192   1.200   5.141  0.4116 -0.1776 -0.1181
 4164TIP3    H112498   0.156   1.200   5.052 -0.3506  0.5072  0.1758
 4164TIP3    H212499   0.115   1.191   5.197  0.5483  2.2204  0.5623
 4165TIP3   OH212500   0.119   2.584   2.824  0.0356  0.3630  0.5524
 4165TIP3    H112501   0.072   2.519   2.772  0.4192 -0.1191  0.7906
 4165TIP3    H212502   0.149   2.650   2.761  0.9452 -0.4802  0.0689
 4166TIP3   OH212503   3.338   1.072   0.361 -0.2191 -0.1100 -0.4547
 4166TIP3    H112504   3.414   1.019   0.335  0.2755 -0.0742  0.8323
 4166TIP3    H212505   3.372   1.162   0.366 -0.1536 -0.1842  0.7657
 4167TIP3   OH212506   6.035   0.911   0.489 -0.2526  0.5241  0.4032
 4167TIP3    H112507   6.121   0.876   0.467 -1.4381 -2.6936  0.3253
 4167TIP3    H212508   6.035   0.916   0.585  0.1758  0.9985  0.3801
 4168TIP3   OH212509   5.849   3.924   3.887 -0.1764 -0.1260 -0.3903
 4168TIP3    H112510   5.914   3.994   3.901 -0.1829 -0.1701 -0.1322
 4168TIP3    H212511   5.789   3.931   3.961  0.7406 -1.4170  0.5328
 4169TIP3   OH212512   2.723   5.573   0.599 -0.5373  0.3511 -0.4538
 4169TIP3    H112513   2.740   5.609   0.512  0.9397  3.4923  0.9543
 4169TIP3    H212514   2.635   5.604   0.620 -0.8572 -0.3279 -0.7787
 4170TIP3   OH212515   3.537   2.157   0.255 -0.1338  0.2016 -0.0503
 4170TIP3    H112516   3.596   2.106   0.200 -1.4035  0.3403 -1.6194
 4170TIP3    H212517   3.545   2.246   0.223 -0.4397  0.3945  0.3966
 4171TIP3   OH212518   2.957   1.758   3.690 -0.8829 -0.7181 -0.3844
 4171TIP3    H112519   3.044   1.783   3.722 -0.7901  1.2980 -1.9583
 4171TIP3    H212520   2.912   1.721   3.766  0.2580  1.1563  1.2994
 4172TIP3   OH212521   1.288   4.984   0.180 -0.5504  0.0619  0.0260
 4172TIP3    H112522   1.320   5.071   0.204 -1.3244  0.3405  0.0830
 4172TIP3    H212523   1.315   4.928   0.253 -0.3921  0.3335  0.1785
 4173TIP3   OH212524   1.311   1.649   1.804 -0.2688  0.4583  0.1987
 4173TIP3    H112525   1.353   1.634   1.720  0.1523 -0.7516  0.6021
 4173TIP3    H212526   1.219   1.665   1.783 -0.1792  0.0981 -0.4848
 4174TIP3   OH212527   4.516   5.922   2.360 -0.1769 -0.5770  0.2205
 4174TIP3    H112528   4.599   5.951   2.398 -0.2725 -0.6870  0.5170
 4174TIP3    H212529   4.541   5.861   2.291  0.0844  0.9632 -1.1213
 4175TIP3   OH212530   3.562   5.339   4.448  0.4269 -0.4462 -0.0232
 4175TIP3    H112531   3.580   5.252   4.413  2.5821 -0.3145  0.6115
 4175TIP3    H212532   3.622   5.348   4.522  0.4932  1.7010 -0.2790
 4176TIP3   OH212533   2.534   2.347   0.024  0.3670  0.9600 -0.1859
 4176TIP3    H112534   2.523   2.364   0.118 -0.6284  2.5481 -0.5637
 4176TIP3    H212535   2.503   2.257   0.013  1.9009  0.2015  1.2150
 4177TIP3   OH212536   3.289   0.924   3.477 -0.0414  0.3680 -0.6297
 4177TIP3    H112537   3.271   0.949   3.568  1.8374  0.8294 -0.3430
 4177TIP3    H212538   3.252   0.836   3.469 -0.1987  0.2978  0.6071
 4178TIP3   OH212539   1.472   1.575   2.924  0.2910 -0.0873  0.3301
 4178TIP3    H112540   1.509   1.499   2.878  1.8643  0.5697  0.4603
 4178TIP3    H212541   1.480   1.647   2.861  0.0953  0.2791  0.7231
 4179TIP3   OH212542   4.548   0.113   1.677  0.2214  0.5283 -0.0393
 4179TIP3    H112543   4.494   0.190   1.691  0.6866  0.9193 -0.3812
 4179TIP3    H212544   4.493   0.040   1.706 -0.9814  0.8028 -1.5031
 4180TIP3   OH212545   4.937   1.245   4.122  0.0835 -0.1661 -0.0420
 4180TIP3    H112546   4.951   1.195   4.041 -1.4349 -0.7232  0.0005
 4180TIP3    H212547   4.875   1.191   4.173  0.1819  0.6903  1.0105
 4181TIP3   OH212548   5.081   4.270   3.838 -0.0555 -0.0548  0.3029
 4181TIP3    H112549   5.167   4.303   3.862  0.9314 -0.6604 -2.0676
 4181TIP3    H212550   5.026   4.348   3.833  1.0743  0.7049 -0.7849
 4182TIP3   OH212551   1.886   5.220   2.179  0.4263  0.6218  0.0729
 4182TIP3    H112552   1.914   5.182   2.262  0.2492 -0.5821 -0.4107
 4182TIP3    H212553   1.822   5.287   2.205 -0.8085 -0.7989  0.8528
 4183TIP3   OH212554   5.143   1.781   0.129 -0.4916 -0.1984 -0.4625
 4183TIP3    H112555   5.193   1.758   0.208 -2.7203  0.4326  1.2367
 4183TIP3    H212556   5.182   1.727   0.060  1.3505 -1.0220  1.1120
 4184TIP3   OH212557   6.372   0.144   2.993  0.5099 -0.5303  0.5075
 4184TIP3    H112558   6.293   0.095   2.971  1.2858 -0.6384 -2.5506
 4184TIP3    H212559   6.395   0.116   3.081 -3.0188 -0.2074  1.6564
 4185TIP3   OH212560   0.374   0.329   2.133 -0.0841 -0.4196  0.1303
 4185TIP3    H112561   0.374   0.373   2.049 -0.9659 -0.3086  0.1743
 4185TIP3    H212562   0.287   0.290   2.140  0.2285 -1.0593  0.6640
 4186TIP3   OH212563   5.945   5.461   1.905  0.0245 -0.2213 -0.8186
 4186TIP3    H112564   6.024   5.470   1.958  0.6187  2.4558 -2.0125
 4186TIP3    H212565   5.968   5.395   1.839  0.5434 -0.8827  0.0018
 4187TIP3   OH212566   2.109   4.180   0.979  0.6237  0.6126 -0.0957
 4187TIP3    H112567   2.032   4.230   1.006 -0.0140 -1.7012  2.9103
 4187TIP3    H212568   2.073   4.106   0.929  0.6410 -1.0749  2.2359
 4188TIP3   OH212569   2.443   1.022   4.286  0.0364  0.2357  0.0079
 4188TIP3    H112570   2.517   1.039   4.343  1.7219 -0.3660 -1.8882
 4188TIP3    H212571   2.472   0.952   4.228 -2.1370 -0.2459 -0.6219
 4189TIP3   OH212572   1.635   1.764   1.612 -0.4899  0.1926 -0.1779
 4189TIP3    H112573   1.702   1.726   1.555  0.0826  1.4427 -0.3653
 4189TIP3    H212574   1.684   1.815   1.676 -1.1881 -0.3167  0.7891
 4190TIP3   OH212575   4.006   5.117   3.194 -0.1578  0.0838 -0.3593
 4190TIP3    H112576   4.017   5.205   3.158 -0.7019 -0.4770 -1.9840
 4190TIP3    H212577   3.911   5.103   3.193  0.0341 -1.7349 -3.3261
 4191TIP3   OH212578   0.135   5.286   2.810  0.4330  0.1325  0.4436
 4191TIP3    H112579   0.081   5.207   2.813  0.9495 -0.2750 -0.5968
 4191TIP3    H212580   0.206   5.265   2.750  0.2222  1.6016 -0.3728
 4192TIP3   OH212581   2.632   1.000   5.052  0.1505  0.4004 -0.0343
 4192TIP3    H112582   2.573   0.933   5.017  0.8311 -0.2658  0.0735
 4192TIP3    H212583   2.577   1.054   5.108 -0.3603 -0.2018  0.0510
 4193TIP3   OH212584   5.242   3.737   0.614 -0.2344  0.6565  0.0867
 4193TIP3    H112585   5.184   3.772   0.547 -0.2129 -0.7385 -0.7110
 4193TIP3    H212586   5.234   3.797   0.687 -1.4110  1.4001 -0.6230
 4194TIP3   OH212587   3.565   2.778   2.758  0.0848  0.6196 -0.6148
 4194TIP3    H112588   3.551   2.794   2.851  1.8431 -1.1136  0.0134
 4194TIP3    H212589   3.562   2.865   2.718  1.6372  1.7199  1.4265
 4195TIP3   OH212590  -0.000   5.683   2.795  0.7872 -1.1511 -0.2338
 4195TIP3    H112591   0.077   5.736   2.813 -0.8741  1.3840 -0.0256
 4195TIP3    H212592  -0.017   5.695   2.701 -1.2447  1.2586  0.3295
 4196TIP3   OH212593   2.580   5.930   4.645  0.5520 -0.2166 -0.4099
 4196TIP3    H112594   2.493   5.971   4.647  0.0929 -1.1298  1.5236
 4196TIP3    H212595   2.582   5.881   4.563  0.5116  2.2847 -2.0143
 4197TIP3   OH212596   1.530   0.368   1.631  0.2946  0.4985  0.0393
 4197TIP3    H112597   1.590   0.307   1.590 -0.8171 -2.0442  1.9139
 4197TIP3    H212598   1.445   0.350   1.590  0.0401  1.1359  0.2673
 4198TIP3   OH212599   0.798   2.218   2.977 -0.4573 -0.0543  0.8048
 4198TIP3    H112600   0.730   2.199   3.041 -1.4718 -1.4519 -0.6211
 4198TIP3    H212601   0.750   2.253   2.902  0.8352  2.9306  1.2431
 4199TIP3   OH212602   2.932   5.530   4.669  0.0224 -0.4069  0.2096
 4199TIP3    H112603   2.913   5.624   4.666  1.0115 -0.1474  1.3188
 4199TIP3    H212604   2.890   5.501   4.750 -1.3977 -1.2069 -0.7796
 4200TIP3   OH212605   3.944   5.954   2.024 -0.1751 -0.1063 -0.0823
 4200TIP3    H112606   3.951   5.859   2.035 -1.9465 -0.1321  1.2961
 4200TIP3    H212607   3.916   5.965   1.933 -0.9335 -0.9840  0.0276
 4201TIP3   OH212608   5.372   2.225   2.335  0.2725 -0.1172  0.0182
 4201TIP3    H112609   5.413   2.310   2.323  1.2011 -0.5820 -0.2218
 4201TIP3    H212610   5.327   2.232   2.419  1.1080  0.3203  0.4416
 4202TIP3   OH212611   4.171   5.719   4.769 -0.4456  0.0981  0.2897
 4202TIP3    H112612   4.261   5.752   4.766 -0.0470 -0.9544  0.1829
 4202TIP3    H212613   4.178   5.627   4.741 -0.9554 -1.1851  3.7932
 4203TIP3   OH212614   4.938   4.240   2.404 -0.3454 -0.7928  0.1309
 4203TIP3    H112615   5.012   4.203   2.356 -0.2608 -0.4948  0.0287
 4203TIP3    H212616   4.926   4.327   2.366  0.3525 -0.1483  1.3110
 4204TIP3   OH212617   2.939   2.183   2.907  0.1676  0.0281 -0.7566
 4204TIP3    H112618   2.933   2.114   2.841 -0.0737 -1.1921  0.4888
 4204TIP3    H212619   2.852   2.187   2.946  0.4523  0.3229 -0.1329
 4205TIP3   OH212620   1.756   3.196   4.429 -0.4192 -0.5913  0.1853
 4205TIP3    H112621   1.707   3.130   4.379 -0.4230  0.7326 -1.6709
 4205TIP3    H212622   1.801   3.146   4.497 -2.6843 -2.1297  0.6951
 4206TIP3   OH212623   1.951   4.811   2.626 -0.2716  0.3577 -0.2739
 4206TIP3    H112624   1.983   4.866   2.697  1.2259  0.3602 -0.9084
 4206TIP3    H212625   1.906   4.872   2.567  1.6752  1.0311 -1.1506
 4207TIP3   OH212626   3.864   2.114   4.231 -0.3415 -0.2652 -0.3716
 4207TIP3    H112627   3.924   2.121   4.157  0.1264  0.1923  0.0374
 4207TIP3    H212628   3.780   2.093   4.192  0.0487 -0.7500 -0.9715
 4208TIP3   OH212629   0.649   1.922   5.109 -0.0780 -0.3549 -0.7172
 4208TIP3    H112630   0.686   1.925   5.020  0.2530  1.6234 -0.5643
 4208TIP3    H212631   0.571   1.978   5.104  0.8437  1.1281  0.5806
 4209TIP3   OH212632   3.969   2.620   3.580  0.2874 -0.0250  0.2022
 4209TIP3    H112633   3.949   2.586   3.493  0.0468  0.0773  0.2165
 4209TIP3    H212634   3.953   2.714   3.573  0.1369 -0.0353  0.3925
 4210TIP3   OH212635   3.728   4.767   3.640  0.6416  0.1724 -0.8242
 4210TIP3    H112636   3.720   4.859   3.614  0.1773  0.4187  0.1317
 4210TIP3    H212637   3.762   4.770   3.730  0.2228 -0.5702 -0.6300
 4211TIP3   OH212638   0.592   2.520   4.051 -0.2450 -0.1237 -0.4680
 4211TIP3    H112639   0.612   2.560   3.966  0.1287  0.0595 -0.2950
 4211TIP3    H212640   0.520   2.460   4.033 -1.2019  1.0407 -0.6340
 4212TIP3   OH212641   3.636   3.534   3.818 -0.2786 -0.1158 -0.1217
 4212TIP3    H112642   3.722   3.498   3.839  0.1991  1.3678  0.5919
 4212TIP3    H212643   3.636   3.621   3.858 -1.9644  0.0688 -0.4589
 4213TIP3   OH212644   4.076   2.479   3.810 -0.1483 -0.0179  0.0291
 4213TIP3    H112645   4.055   2.544   3.743  2.6255  1.8723  0.7897
 4213TIP3    H212646   3.996   2.468   3.860 -1.6961  0.0711 -2.3002
 4214TIP3   OH212647   6.219   2.087   1.733 -0.1851  0.6356 -0.0199
 4214TIP3    H112648   6.168   2.094   1.814 -0.7768 -1.1692 -0.1805
 4214TIP3    H212649   6.310   2.098   1.760 -0.4844  1.6696  0.6179
 4215TIP3   OH212650   5.681   3.619   0.936 -0.1033  0.5434 -0.0362
 4215TIP3    H112651   5.758   3.563   0.928 -1.0919 -1.2240  1.8069
 4215TIP3    H212652   5.702   3.679   1.008  0.5801  1.9639 -1.3745
 4216TIP3   OH212653   0.256   4.210   0.078 -0.2668  0.0840 -0.0095
 4216TIP3    H112654   0.299   4.223  -0.006  2.6062 -0.6858  1.2012
 4216TIP3    H212655   0.215   4.124   0.072 -0.6317  0.3051 -0.8040
 4217TIP3   OH212656   6.231   2.948   4.064 -0.1667  0.3947  0.7270
 4217TIP3    H112657   6.155   2.890   4.057 -1.7461  2.2791  1.2247
 4217TIP3    H212658   6.242   2.983   3.976 -0.3073  0.6264  0.8008
 4218TIP3   OH212659   1.219   3.047   0.364  0.2088 -0.2689  0.2905
 4218TIP3    H112660   1.193   3.098   0.288  1.1988  0.9502  0.7290
 4218TIP3    H212661   1.312   3.029   0.350  0.5444  0.4758  1.4757
 4219TIP3   OH212662   2.371   3.855   3.430 -0.3292 -0.3805 -0.1104
 4219TIP3    H112663   2.380   3.823   3.340 -0.0724  0.5894 -0.4397
 4219TIP3    H212664   2.444   3.815   3.477 -1.6857 -2.6756  0.2335
 4220TIP3   OH212665   4.946   0.679   1.492  0.3876  0.3229 -0.2136
 4220TIP3    H112666   4.985   0.647   1.573 -1.2878 -1.3586  0.0183
 4220TIP3    H212667   4.937   0.773   1.504  0.4227  0.1384  1.4548
 4221TIP3   OH212668   4.006   4.545   4.831 -0.3059 -0.0464 -0.1726
 4221TIP3    H112669   4.069   4.477   4.809  2.1621  1.8452  0.6344
 4221TIP3    H212670   3.993   4.536   4.926  1.7753  1.8761  0.3692
 4222TIP3   OH212671   1.829   2.196   4.154  0.1069 -0.3937 -0.3977
 4222TIP3    H112672   1.897   2.195   4.086  0.0320 -0.0321 -0.4802
 4222TIP3    H212673   1.823   2.105   4.183 -0.3731 -0.6948 -1.3887
 4223TIP3   OH212674   5.567   0.506   0.025 -0.0400 -0.3783  0.8979
 4223TIP3    H112675   5.491   0.528  -0.029  0.6900 -0.4052 -0.1743
 4223TIP3    H212676   5.556   0.413   0.045  0.4578 -0.7688 -0.5343
 4224TIP3   OH212677   2.444   3.355   2.071 -0.5019  0.5316 -0.5528
 4224TIP3    H112678   2.382   3.377   2.001 -1.6126  2.4148  0.9410
 4224TIP3    H212679   2.398   3.291   2.125  0.0375 -0.2964 -1.0497
 4225TIP3   OH212680   1.754   4.163   4.652 -0.4699 -0.0079  0.8283
 4225TIP3    H112681   1.759   4.104   4.576 -0.0254  0.0971  0.7745
 4225TIP3    H212682   1.738   4.105   4.726  1.1286 -0.3404  0.9519
 4226TIP3   OH212683   4.777   1.065   4.244 -0.1497  0.2368 -0.4910
 4226TIP3    H112684   4.713   1.027   4.184  0.1724  1.6334 -1.7661
 4226TIP3    H212685   4.750   1.034   4.331 -2.7395  1.0488 -0.9380
 4227TIP3   OH212686   3.756   1.536   4.702  0.1212 -0.1049 -0.4743
 4227TIP3    H112687   3.785   1.458   4.748 -0.0351  0.6652  0.9852
 4227TIP3    H212688   3.662   1.523   4.688  0.1811 -0.3619 -0.6520
 4228TIP3   OH212689   3.881   0.310   2.787 -0.5011  0.4842 -0.2139
 4228TIP3    H112690   3.909   0.226   2.824  0.2816  1.2865  1.1465
 4228TIP3    H212691   3.940   0.374   2.828 -1.0698  1.6960 -1.2250
 4229TIP3   OH212692   0.739   5.534   0.912  0.2251 -0.0765 -0.0908
 4229TIP3    H112693   0.682   5.530   0.835  0.6820  0.1978 -0.4465
 4229TIP3    H212694   0.741   5.444   0.944 -0.9627  0.0384  0.3343
 4230TIP3   OH212695   2.217   5.088   0.654  0.2410  0.7951  0.8375
 4230TIP3    H112696   2.191   5.115   0.566 -1.7867 -0.7379  0.8903
 4230TIP3    H212697   2.256   5.002   0.643 -2.1239 -0.4561  1.5963
 4231TIP3   OH212698   5.394   4.810   4.764 -0.2933 -0.1015 -0.1285
 4231TIP3    H112699   5.353   4.832   4.680  1.7645  0.6340 -1.0023
 4231TIP3    H212700   5.433   4.892   4.794 -0.6182 -0.4626  1.3520
 4232TIP3   OH212701   4.384   2.935   4.885  0.0036 -0.0178  0.1367
 4232TIP3    H112702   4.329   3.001   4.843 -0.0432 -0.2027 -0.0913
 4232TIP3    H212703   4.378   2.859   4.828  1.2225  0.2576 -0.3806
 4233TIP3   OH212704   3.058   0.377   5.146  0.3924  0.4236 -0.2568
 4233TIP3    H112705   3.000   0.326   5.202  0.8983 -0.5197 -0.5682
 4233TIP3    H212706   3.011   0.387   5.064  0.7485 -0.5752 -0.6054
 4234TIP3   OH212707   5.934   3.788   4.720 -0.3453 -0.7650 -0.0142
 4234TIP3    H112708   6.011   3.845   4.724 -1.2573  0.4554  0.4592
 4234TIP3    H212709   5.881   3.812   4.795 -1.3898 -1.3138 -0.5458
 4235TIP3   OH212710   6.307   0.264   4.322 -0.0788 -0.2942  0.4378
 4235TIP3    H112711   6.353   0.324   4.379  1.4839 -1.1106  0.0858
 4235TIP3    H212712   6.222   0.251   4.364  0.0476  1.1302  1.1797
 4236TIP3   OH212713   5.094   3.664   1.294 -0.1996  0.0122 -0.6610
 4236TIP3    H112714   5.001   3.687   1.295 -0.4624 -0.8472 -2.0425
 4236TIP3    H212715   5.136   3.732   1.346 -1.6273  0.2620  0.2334
 4237TIP3   OH212716   0.191   4.414   1.837  0.2597 -0.1141  0.4057
 4237TIP3    H112717   0.235   4.330   1.827 -0.9356 -0.9577  1.9091
 4237TIP3    H212718   0.131   4.402   1.910 -0.2165  1.9434  0.4286
 4238TIP3   OH212719   4.201   5.918   2.441 -0.3354  0.0257 -0.1106
 4238TIP3    H112720   4.124   5.883   2.396 -1.2248  3.6120 -1.7990
 4238TIP3    H212721   4.250   5.963   2.372  1.5805  0.5510  1.5075
 4239TIP3   OH212722   4.986   3.073   3.106  0.1552 -0.6325 -0.3314
 4239TIP3    H112723   4.935   3.021   3.045 -0.1858  0.0262 -0.6220
 4239TIP3    H212724   5.069   3.026   3.115 -0.0855 -1.1342 -0.7039
 4240TIP3   OH212725   1.267   3.358   3.594  0.4778  0.5414  0.9628
 4240TIP3    H112726   1.302   3.385   3.509  0.9547  0.9422  1.2790
 4240TIP3    H212727   1.278   3.263   3.596  0.6073  0.5473  0.6488
 4241TIP3   OH212728   0.505   0.427   2.863  0.2943 -0.4988 -0.3090
 4241TIP3    H112729   0.514   0.488   2.790  0.8649 -0.8576 -0.5434
 4241TIP3    H212730   0.480   0.344   2.822  2.7481 -1.2921 -0.3647
 4242TIP3   OH212731   5.591   1.253   2.634 -0.0265  0.3447 -0.4049
 4242TIP3    H112732   5.663   1.244   2.572 -0.3656 -1.8149 -0.5522
 4242TIP3    H212733   5.526   1.306   2.589 -0.0936 -0.8547 -1.7833
 4243TIP3   OH212734   2.533   1.000   3.498 -0.4244  0.4572 -0.0736
 4243TIP3    H112735   2.572   0.925   3.453  2.4735  0.5732  1.9950
 4243TIP3    H212736   2.467   0.962   3.556 -1.1315 -0.1060 -1.1966
 4244TIP3   OH212737   5.739   3.356   4.588 -0.1153  0.3343 -0.5834
 4244TIP3    H112738   5.817   3.407   4.612  0.4511 -1.5831  2.1247
 4244TIP3    H212739   5.771   3.267   4.577 -2.0095 -0.8322  2.1203
 4245TIP3   OH212740   1.381   1.082   2.975  0.3464 -0.5919  0.3022
 4245TIP3    H112741   1.333   1.022   2.918  0.3191  0.6372 -0.9982
 4245TIP3    H212742   1.440   1.130   2.917  2.6747 -1.5035  1.7298
 4246TIP3   OH212743   1.598   2.762   3.122  0.4043  0.4540  0.3191
 4246TIP3    H112744   1.524   2.817   3.148 -2.2726 -3.8801  3.1123
 4246TIP3    H212745   1.674   2.803   3.162 -1.2201  2.6293  1.3686
 4247TIP3   OH212746   0.842   0.527   4.694 -0.5017 -0.3089 -0.1669
 4247TIP3    H112747   0.814   0.617   4.704 -2.0815 -0.8447  0.4845
 4247TIP3    H212748   0.856   0.496   4.783  0.1119 -0.6948 -0.3879
 4248TIP3   OH212749   0.876   2.755   1.299  0.4502 -0.0083  0.7500
 4248TIP3    H112750   0.912   2.814   1.233 -0.0147  0.9343  1.3231
 4248TIP3    H212751   0.929   2.675   1.291  1.2498  0.5642  0.1306
 4249TIP3   OH212752   3.299   4.627   0.459 -0.0136 -0.7263  0.0174
 4249TIP3    H112753   3.260   4.570   0.525  2.7835 -0.9189  1.7174
 4249TIP3    H212754   3.272   4.715   0.484 -1.2250 -0.9919 -0.3004
 4250TIP3   OH212755   3.435   2.393   4.507 -0.0336  0.3065  0.3428
 4250TIP3    H112756   3.371   2.465   4.506 -0.7339 -0.2908  0.6961
 4250TIP3    H212757   3.516   2.434   4.537  0.0934  1.3354 -1.2460
 4251TIP3   OH212758   1.998   5.921   3.526  0.1057  0.3899 -0.0599
 4251TIP3    H112759   1.982   5.950   3.615  1.4786 -0.0209  0.3395
 4251TIP3    H212760   1.945   5.841   3.516 -1.1156  1.1819 -0.0896
 4252TIP3   OH212761   4.773   4.154   2.788  0.4844  0.1438 -0.0879
 4252TIP3    H112762   4.679   4.135   2.796  1.0390 -2.3651  1.5754
 4252TIP3    H212763   4.798   4.116   2.704  0.1828  0.0276 -0.1284
 4253TIP3   OH212764   0.125   3.225   0.896  0.5997 -0.0579  0.1060
 4253TIP3    H112765   0.052   3.164   0.881  0.4510  0.0565  0.3604
 4253TIP3    H212766   0.163   3.196   0.978  1.5145 -0.7883 -0.5506
 4254TIP3   OH212767   5.896   3.773   0.818 -0.4662  0.0676  0.4714
 4254TIP3    H112768   5.925   3.691   0.778 -0.7145 -0.6699  1.7254
 4254TIP3    H212769   5.866   3.747   0.905 -0.8905  1.4501  0.7586
 4255TIP3   OH212770   4.255   1.649   3.698  0.3209  0.0958  0.3458
 4255TIP3    H112771   4.220   1.714   3.637  0.1444 -0.3401 -0.0254
 4255TIP3    H212772   4.238   1.685   3.785 -0.0474  0.4041  0.1468
 4256TIP3   OH212773   3.190   5.768   2.674  0.2642 -0.6687 -0.3881
 4256TIP3    H112774   3.171   5.834   2.608  0.3456 -1.9213 -1.7034
 4256TIP3    H212775   3.286   5.763   2.677  0.2774 -0.2062  0.2687
 4257TIP3   OH212776   2.480   2.617   2.279  0.0240  0.7672  0.1472
 4257TIP3    H112777   2.542   2.684   2.251  0.3538  0.2948 -0.2823
 4257TIP3    H212778   2.430   2.658   2.349  1.0666  1.0489  0.7559
 4258TIP3   OH212779   1.513   0.245   0.899  0.6020 -0.6925 -0.1106
 4258TIP3    H112780   1.458   0.168   0.912 -0.0020 -0.1134  0.8738
 4258TIP3    H212781   1.573   0.245   0.973  0.3668 -0.0397  0.0921
 4259TIP3   OH212782   6.237   2.600   2.024  0.0912  0.7232  0.0728
 4259TIP3    H112783   6.171   2.654   2.068  0.6056 -0.0390  1.8652
 4259TIP3    H212784   6.275   2.547   2.094  0.2097 -1.3475 -1.4696
 4260TIP3   OH212785   6.168   1.753   3.717  0.3883 -0.2344 -0.2392
 4260TIP3    H112786   6.081   1.746   3.676  0.1278  1.4241 -0.0369
 4260TIP3    H212787   6.227   1.713   3.653 -0.3863 -0.3908 -0.8839
 4261TIP3   OH212788   3.318   5.924   1.628 -0.0976 -0.1569 -0.6205
 4261TIP3    H112789   3.376   5.927   1.552 -0.5188 -1.0429 -0.9893
 4261TIP3    H212790   3.236   5.886   1.594 -0.4456 -0.1285  0.1725
 4262TIP3   OH212791   1.041   4.440   5.126  0.6107  0.2034  0.1950
 4262TIP3    H112792   0.981   4.513   5.114  0.6230  0.0188 -1.1939
 4262TIP3    H212793   0.986   4.369   5.159 -0.0189 -0.0362 -1.2802
 4263TIP3   OH212794   3.846   3.721   1.696 -0.2416 -0.0328  0.3903
 4263TIP3    H112795   3.844   3.754   1.606 -0.0165  0.3156  0.5116
 4263TIP3    H212796   3.879   3.794   1.748  2.8479 -1.2390  0.3125
 4264TIP3   OH212797   5.674   5.901   3.204 -0.1540 -0.1412 -0.1578
 4264TIP3    H112798   5.683   5.896   3.299  2.4118 -0.6586 -0.3516
 4264TIP3    H212799   5.639   5.989   3.188 -0.5972 -0.0315  1.2377
 4265TIP3   OH212800   4.104   3.012   4.832 -0.1906 -0.4605 -0.3947
 4265TIP3    H112801   4.057   2.937   4.867 -1.0107  0.9608  1.8108
 4265TIP3    H212802   4.059   3.088   4.870  1.3648  1.1013 -1.5143
 4266TIP3   OH212803   3.726   2.808   2.142 -0.0073  0.3388  0.1456
 4266TIP3    H112804   3.708   2.772   2.229  0.0508 -0.5207 -0.1946
 4266TIP3    H212805   3.780   2.886   2.159 -0.3560  0.4272  0.8995
 4267TIP3   OH212806   5.587   2.377   4.605  0.0654  0.1600  0.5253
 4267TIP3    H112807   5.573   2.340   4.692  0.8542 -0.5328  0.3684
 4267TIP3    H212808   5.653   2.321   4.565 -0.7179  0.0891 -0.7485
 4268TIP3   OH212809   3.110   0.972   0.266  0.3978 -0.1500 -0.9042
 4268TIP3    H112810   3.199   0.991   0.296 -0.0347  1.0749 -0.3168
 4268TIP3    H212811   3.082   1.053   0.222 -1.2874  0.4150  1.0431
 4269TIP3   OH212812   1.545   1.249   2.775 -0.1396 -0.6411  0.6274
 4269TIP3    H112813   1.600   1.323   2.801 -0.4145  0.3879 -1.4762
 4269TIP3    H212814   1.478   1.288   2.718 -0.6795 -2.4268 -0.0160
 4270TIP3   OH212815   1.628   5.891   3.220  0.8170  0.1378  0.0518
 4270TIP3    H112816   1.611   5.982   3.195  1.4454  0.6673  1.4506
 4270TIP3    H212817   1.627   5.843   3.138 -0.5684  1.2263 -0.6202
 4271TIP3   OH212818   4.461   4.424   0.439 -0.0163 -1.0824  0.0383
 4271TIP3    H112819   4.480   4.412   0.346 -2.8718  0.0875 -0.8020
 4271TIP3    H212820   4.456   4.335   0.474 -0.5379 -1.6060 -1.2977
 4272TIP3   OH212821   5.812   2.030   3.116  0.0135 -0.0744  0.2053
 4272TIP3    H112822   5.779   2.042   3.206  0.6735  0.6015  0.3764
 4272TIP3    H212823   5.865   1.951   3.120 -0.6465 -0.5169  0.2083
 4273TIP3   OH212824   3.480   2.142   0.653  0.1247  0.2539 -0.1271
 4273TIP3    H112825   3.537   2.115   0.725 -0.7928 -0.2347  0.4376
 4273TIP3    H212826   3.497   2.078   0.584  0.3880  0.2180 -0.0300
 4274TIP3   OH212827   0.143   1.528   1.367 -0.0215 -0.2696 -0.0652
 4274TIP3    H112828   0.084   1.560   1.436 -2.3256 -2.0965 -1.0451
 4274TIP3    H212829   0.086   1.516   1.291  2.1521  0.2019 -1.8417
 4275TIP3   OH212830   2.176   1.745   4.739 -0.1586 -0.7502 -0.3062
 4275TIP3    H112831   2.122   1.667   4.729 -0.3453 -0.5215 -1.1509
 4275TIP3    H212832   2.231   1.748   4.661  0.1977 -0.3044 -0.0485
 4276TIP3   OH212833   4.593   0.051   1.012  0.6277  0.3068  0.2338
 4276TIP3    H112834   4.651   0.074   0.940  1.3764  1.4221  1.1323
 4276TIP3    H212835   4.631  -0.027   1.051  1.8413  1.2736  1.0791
 4277TIP3   OH212836   4.684   4.412   1.288  0.1058 -0.5174  0.0380
 4277TIP3    H112837   4.633   4.358   1.349 -1.1719  0.0374 -0.5093
 4277TIP3    H212838   4.773   4.375   1.292 -0.3646 -1.6176  0.8804
 4278TIP3   OH212839   4.522   0.610   3.009  0.3835 -0.1184 -0.0180
 4278TIP3    H112840   4.511   0.609   3.104  0.6500  2.0572  0.0801
 4278TIP3    H212841   4.453   0.669   2.978  0.0593 -1.0936 -1.2345
 4279TIP3   OH212842   5.261   2.582   0.556 -0.7124  0.0814 -0.3808
 4279TIP3    H112843   5.342   2.549   0.516 -1.0348  0.3315 -1.2545
 4279TIP3    H212844   5.260   2.675   0.534 -2.2794 -0.3152 -2.2156
 4280TIP3   OH212845   5.729   0.920   0.252 -0.1817 -0.0308  0.0370
 4280TIP3    H112846   5.719   0.833   0.215 -1.9446 -0.3359  1.1255
 4280TIP3    H212847   5.824   0.929   0.266 -0.0292 -2.0801  0.6408
 4281TIP3   OH212848   0.799   0.706   0.391  0.0261  0.1114 -0.1178
 4281TIP3    H112849   0.878   0.755   0.370 -0.3019  0.4513 -0.5763
 4281TIP3    H212850   0.734   0.773   0.412 -0.3420 -0.1373 -0.4617
 4282TIP3   OH212851   5.596   3.076   3.661 -0.3645 -0.0094  0.4896
 4282TIP3    H112852   5.544   2.996   3.654 -0.1944 -0.1293  0.5972
 4282TIP3    H212853   5.614   3.102   3.571  0.8317 -0.9007  0.4615
 4283TIP3   OH212854   1.713   5.946   2.018 -0.0358 -0.3614 -0.0553
 4283TIP3    H112855   1.705   6.018   2.081  0.6332  0.2702 -0.6799
 4283TIP3    H212856   1.632   5.895   2.029 -1.1338  1.2191 -0.5227
 4284TIP3   OH212857   0.364   1.929   3.452  0.9139  0.1214 -0.4031
 4284TIP3    H112858   0.407   1.993   3.395 -0.3830  0.1777 -1.3711
 4284TIP3    H212859   0.300   1.980   3.501  0.0100 -0.3747 -1.0341
 4285TIP3   OH212860   4.831   0.844   5.044 -0.4081 -0.1101  0.0611
 4285TIP3    H112861   4.858   0.764   5.089 -0.5248 -1.6117 -2.3435
 4285TIP3    H212862   4.908   0.900   5.045  0.5000 -1.3151 -0.3846
 4286TIP3   OH212863   5.736   1.778   0.352  0.7180  0.8605 -0.5157
 4286TIP3    H112864   5.789   1.797   0.430  0.3686 -0.1882  0.0033
 4286TIP3    H212865   5.711   1.863   0.318 -2.7831  1.5212  2.9985
 4287TIP3   OH212866   2.186   1.877   1.535 -0.6624 -0.1047  0.0963
 4287TIP3    H112867   2.279   1.898   1.538 -0.7540  0.4163 -0.5664
 4287TIP3    H212868   2.142   1.960   1.553 -0.9957 -0.5572  1.4110
 4288TIP3   OH212869   4.211   0.875   4.874 -0.1684  0.2349  0.1348
 4288TIP3    H112870   4.289   0.865   4.930 -0.2672  1.6427  0.5822
 4288TIP3    H212871   4.245   0.914   4.793 -0.1925 -0.7020 -0.3356
 4289TIP3   OH212872   1.711   5.112   4.931  0.3282 -0.2444  0.2941
 4289TIP3    H112873   1.763   5.070   5.000 -0.1404 -1.7169 -0.2084
 4289TIP3    H212874   1.763   5.101   4.851 -1.1167 -2.5947 -0.3940
 4290TIP3   OH212875   2.725   4.773   4.082 -0.2581 -0.2463  0.5399
 4290TIP3    H112876   2.777   4.817   4.014  1.1920 -2.9338 -0.2268
 4290TIP3    H212877   2.635   4.775   4.049 -0.4270  2.7301  0.9332
 4291TIP3   OH212878   5.084   2.700   0.986  0.0682  0.5260  0.2442
 4291TIP3    H112879   4.996   2.736   0.976  0.5235  1.2474 -1.5408
 4291TIP3    H212880   5.130   2.765   1.040  0.3897  1.8077 -1.5004
 4292TIP3   OH212881   3.886   5.255   3.538  0.5561  0.2223 -0.3970
 4292TIP3    H112882   3.934   5.328   3.577  1.0730 -0.2584 -0.1250
 4292TIP3    H212883   3.795   5.271   3.562  0.9540 -0.6072  1.9282
 4293TIP3   OH212884   6.118   2.845   2.761  0.3756 -0.1192  0.3373
 4293TIP3    H112885   6.035   2.885   2.734  1.5456  2.9302  0.8472
 4293TIP3    H212886   6.169   2.840   2.681  0.3095 -0.3628  0.3113
 4294TIP3   OH212887   2.146   0.550   3.150  0.7852 -0.0457  1.0301
 4294TIP3    H112888   2.149   0.562   3.055  0.8110  0.0058  1.0374
 4294TIP3    H212889   2.091   0.622   3.182  0.0037 -0.6104  0.9611
 4295TIP3   OH212890   0.581   5.946   5.199 -0.7201  0.0352  0.0013
 4295TIP3    H112891   0.557   5.867   5.248 -1.6755  0.1578 -0.2356
 4295TIP3    H212892   0.607   5.915   5.113  0.7704 -0.1651  0.4937
 4296TIP3   OH212893   3.032  -0.011   1.868  0.3257  0.2947 -0.4938
 4296TIP3    H112894   3.042   0.078   1.834  1.8927 -0.1918 -1.4230
 4296TIP3    H212895   3.063  -0.067   1.796 -0.2728 -0.9855  0.2156
 4297TIP3   OH212896   1.843   5.180   1.843 -0.3043 -0.1445 -0.5853
 4297TIP3    H112897   1.853   5.219   1.929  1.4946 -2.3354  0.3127
 4297TIP3    H212898   1.781   5.237   1.797 -0.6628  1.5519  1.8327
 4298TIP3   OH212899   5.929   2.019   5.099 -0.7764  0.0500  0.0272
 4298TIP3    H112900   5.929   2.011   5.004 -0.3448  2.7896 -0.2922
 4298TIP3    H212901   5.848   1.975   5.127 -1.3278 -0.0856 -1.6674
 4299TIP3   OH212902   5.612   0.378   2.873 -0.6329  0.0326 -0.2961
 4299TIP3    H112903   5.538   0.437   2.879 -0.7967  0.0643 -2.1857
 4299TIP3    H212904   5.584   0.310   2.812  0.1657 -1.0893  0.5386
 4300TIP3   OH212905   1.808   3.133   3.905  1.0972 -0.6129  0.2303
 4300TIP3    H112906   1.743   3.151   3.973  1.6835  2.3527  0.1336
 4300TIP3    H212907   1.766   3.161   3.824  2.0949  0.3681  0.0386
 4301TIP3   OH212908   3.675   0.631   0.816 -0.2962 -0.0768 -0.2550
 4301TIP3    H112909   3.654   0.601   0.727 -0.9505 -0.8412  0.1331
 4301TIP3    H212910   3.594   0.673   0.846  0.3359  1.3555 -0.4710
 4302TIP3   OH212911   5.274   1.266   4.912  0.1520 -0.0829  0.3130
 4302TIP3    H112912   5.316   1.347   4.938 -0.7328  0.5732 -0.2411
 4302TIP3    H212913   5.191   1.266   4.959 -0.3236 -0.1369 -0.5124
 4303TIP3   OH212914   3.424   2.395   3.494 -0.6428 -0.3445 -0.3994
 4303TIP3    H112915   3.398   2.442   3.574  1.8480 -0.2326  0.4244
 4303TIP3    H212916   3.341   2.371   3.453 -2.0095  1.3567  1.1703
 4304TIP3   OH212917   2.959   1.651   3.399 -0.2406  0.0620  0.3856
 4304TIP3    H112918   2.963   1.660   3.494 -0.2301  0.7243  0.3281
 4304TIP3    H212919   3.051   1.645   3.372 -0.2787 -1.4845  0.5263
 4305TIP3   OH212920   3.154   1.409   1.582  0.5206 -0.0226  0.3375
 4305TIP3    H112921   3.193   1.357   1.653  2.1194  0.0937 -0.4207
 4305TIP3    H212922   3.196   1.376   1.503  2.0739  2.8022 -0.1267
 4306TIP3   OH212923   1.084   4.941   4.255  0.1323 -0.4022  0.7011
 4306TIP3    H112924   1.039   5.025   4.262 -1.3063 -1.1314  0.6156
 4306TIP3    H212925   1.070   4.900   4.340  1.5854 -0.2158  1.0539
 4307TIP3   OH212926   0.552   2.125   3.676 -0.0583  0.1277 -0.0797
 4307TIP3    H112927   0.636   2.156   3.709 -0.5171  1.8245 -0.4343
 4307TIP3    H212928   0.570   2.098   3.586  0.2791 -0.3993  0.1376
 4308TIP3   OH212929   6.037   0.127   1.183 -0.5952 -0.0596  0.5000
 4308TIP3    H112930   6.009   0.096   1.098 -0.1745  2.2448 -0.5692
 4308TIP3    H212931   6.128   0.096   1.191 -0.2054  0.7618 -0.4965
 4309TIP3   OH212932   5.347   4.990   1.409  0.5097 -0.2698 -0.7302
 4309TIP3    H112933   5.335   4.996   1.504 -0.6281 -1.8585 -0.7298
 4309TIP3    H212934   5.438   5.014   1.394  0.3245  1.4235  0.5871
 4310TIP3   OH212935   4.138   3.028   3.948  0.2903  0.1204 -0.0396
 4310TIP3    H112936   4.168   2.989   3.866  0.1922 -0.2675  0.1115
 4310TIP3    H212937   4.219   3.056   3.992  0.2867  2.1094 -1.1313
 4311TIP3   OH212938   6.001   0.038   3.513 -0.1187  0.0393 -0.6642
 4311TIP3    H112939   6.004   0.097   3.437 -0.8938  0.6362 -0.2422
 4311TIP3    H212940   6.092   0.010   3.524  0.3844  1.6178 -0.5300
 4312TIP3   OH212941   3.218   2.134   3.611 -0.7312 -0.7150  0.5098
 4312TIP3    H112942   3.209   2.140   3.706 -0.4595  0.6268  0.4752
 4312TIP3    H212943   3.186   2.219   3.579  0.7448 -0.4918 -0.4553
 4313TIP3   OH212944   5.242   1.265   2.248  0.2360  0.5518 -0.2443
 4313TIP3    H112945   5.207   1.350   2.222  0.5485  1.0769  0.9893
 4313TIP3    H212946   5.238   1.212   2.169  0.4974  1.8633 -1.1627
 4314TIP3   OH212947   3.323   2.117   4.160 -0.6136  0.3691  0.5372
 4314TIP3    H112948   3.364   2.125   4.246 -0.9623 -0.2986  0.7699
 4314TIP3    H212949   3.248   2.060   4.174  1.1913 -2.5412 -0.8217
 4315TIP3   OH212950   3.046   0.081   4.766  0.4265  0.3092  0.2184
 4315TIP3    H112951   3.113   0.105   4.703  0.1374 -0.3287 -0.3503
 4315TIP3    H212952   2.970   0.058   4.712  0.0876  0.0305  0.8092
 4316TIP3   OH212953   6.203   3.915   1.748 -0.1710 -0.5893 -0.0912
 4316TIP3    H112954   6.216   3.852   1.819 -1.6309 -0.1329  0.6182
 4316TIP3    H212955   6.244   3.873   1.672 -1.5012 -2.6303  0.2414
 4317TIP3   OH212956   1.849   3.556   1.195  0.2053  0.0528 -0.6578
 4317TIP3    H112957   1.781   3.622   1.182  0.2777  0.1944 -0.3217
 4317TIP3    H212958   1.829   3.488   1.131  0.4571  0.6610 -1.3931
 4318TIP3   OH212959   0.464   5.491   0.828 -0.3210  0.8263  0.5819
 4318TIP3    H112960   0.420   5.570   0.798 -0.1810  0.6679 -0.0529
 4318TIP3    H212961   0.459   5.431   0.754 -0.7025  0.1214  1.1684
 4319TIP3   OH212962   5.500   4.082   1.721 -0.1610 -0.0674 -0.7148
 4319TIP3    H112963   5.467   4.141   1.654  1.6438  1.6998 -0.1390
 4319TIP3    H212964   5.596   4.090   1.716  0.0495  0.7617  2.5359
 4320TIP3   OH212965   1.836   3.037   4.892  0.6418  0.0860  0.3320
 4320TIP3    H112966   1.925   3.058   4.866  0.6870 -1.3767 -0.8216
 4320TIP3    H212967   1.833   2.942   4.895 -0.9838  0.0812 -0.0908
 4321TIP3   OH212968   1.144   1.243   3.857  0.5732 -0.0971  0.1190
 4321TIP3    H112969   1.231   1.214   3.885  0.5800 -1.2419 -1.0000
 4321TIP3    H212970   1.161   1.292   3.776  0.2435  0.2881  0.2836
 4322TIP3   OH212971   5.236   2.832   1.183  0.2458 -0.7633  0.4398
 4322TIP3    H112972   5.237   2.925   1.157  0.7606 -1.0160 -0.4694
 4322TIP3    H212973   5.327   2.812   1.203 -0.0942 -0.6471  2.2873
 4323TIP3   OH212974   1.923   1.622   2.238  0.7737 -0.0946 -0.4155
 4323TIP3    H112975   1.888   1.562   2.304 -1.7194  1.4800 -0.2061
 4323TIP3    H212976   1.848   1.648   2.185  2.0620  1.5367 -1.5690
 4324TIP3   OH212977   4.246   1.770   1.654 -0.0744  0.0295  0.0438
 4324TIP3    H112978   4.241   1.843   1.592  0.4449 -0.3438 -0.4429
 4324TIP3    H212979   4.200   1.698   1.611  0.1518 -0.1860  0.1610
 4325TIP3   OH212980   2.958   1.566   3.022  0.1086 -0.0512 -0.7607
 4325TIP3    H112981   2.924   1.568   3.111 -0.0070 -2.3791 -0.6934
 4325TIP3    H212982   3.016   1.489   3.020 -1.2352 -1.0949 -3.1244
 4326TIP3   OH212983   1.220   1.893   3.295 -0.4447 -0.2099  0.3432
 4326TIP3    H112984   1.217   1.978   3.252  1.8732  0.2737  0.9545
 4326TIP3    H212985   1.269   1.837   3.234 -0.7944 -0.7253  0.5281
 4327TIP3   OH212986   5.075   0.682   0.902 -0.5969 -0.0490 -0.9779
 4327TIP3    H112987   5.042   0.772   0.898  2.5647  1.2345 -1.3530
 4327TIP3    H212988   5.026   0.636   0.834 -1.2271  1.8026 -1.8687
 4328TIP3   OH212989   0.777   4.212   0.820  0.5059  0.4646 -0.1842
 4328TIP3    H112990   0.712   4.154   0.861  0.5358 -0.4716 -1.3629
 4328TIP3    H212991   0.810   4.266   0.891 -2.4312  1.8372  0.2771
 4329TIP3   OH212992   5.328   5.850   3.142  0.2072 -0.9869 -0.8598
 4329TIP3    H112993   5.399   5.796   3.176  0.6672 -0.7965 -1.5109
 4329TIP3    H212994   5.248   5.808   3.176  0.6281 -1.0134  0.1359
 4330TIP3   OH212995   5.205   4.370   4.190 -0.3688  0.1777  0.5794
 4330TIP3    H112996   5.236   4.326   4.111 -1.1301  0.4952  0.0930
 4330TIP3    H212997   5.177   4.299   4.247 -0.7479 -0.0201  0.1582
 4331TIP3   OH212998   2.625   1.765   2.236  0.0332 -0.5906 -0.2464
 4331TIP3    H112999   2.546   1.722   2.203 -0.2655 -0.2705  0.0540
 4331TIP3    H213000   2.596   1.849   2.270  0.3161 -0.9171  0.8795
 4332TIP3   OH213001   5.825   2.103   3.444  0.0151  0.0624  0.1282
 4332TIP3    H113002   5.813   2.102   3.539 -0.8268  1.0424  0.0531
 4332TIP3    H213003   5.789   2.020   3.414 -1.8536  0.7056  0.4632
 4333TIP3   OH213004   5.601   4.142   2.047  0.2548  0.1593  0.2858
 4333TIP3    H113005   5.522   4.190   2.073 -0.0715 -0.0274 -0.3504
 4333TIP3    H213006   5.663   4.211   2.024  0.0852  0.3007  0.2429
 4334TIP3   OH213007   4.911   4.917   2.455  0.0041  0.4706 -0.0692
 4334TIP3    H113008   4.963   4.977   2.509 -0.1782 -0.3672  1.0985
 4334TIP3    H213009   4.823   4.954   2.455  0.0516  0.5848  0.0605
 4335TIP3   OH213010   0.148   4.793   4.024 -0.1338 -0.4895 -0.1002
 4335TIP3    H113011   0.055   4.812   4.033  0.2964  0.5651  3.5765
 4335TIP3    H213012   0.190   4.879   4.021  0.8082 -0.9484 -0.4071
 4336TIP3   OH213013   5.341   5.723   2.683  0.2066 -0.1938 -0.3417
 4336TIP3    H113014   5.435   5.739   2.675  0.4954 -1.2403  0.7358
 4336TIP3    H213015   5.312   5.785   2.750  0.5661 -1.2966  0.8881
 4337TIP3   OH213016   1.388   5.779   0.949 -0.5026  0.6831 -0.1123
 4337TIP3    H113017   1.400   5.863   0.904  0.2668  1.2836  1.1603
 4337TIP3    H213018   1.293   5.769   0.956 -0.6550  0.5651 -1.8287
 4338TIP3   OH213019   0.537   1.399   4.517 -0.5773  0.2237 -0.0725
 4338TIP3    H113020   0.463   1.347   4.549 -0.4234 -0.1583 -0.3291
 4338TIP3    H213021   0.551   1.367   4.427  0.2522 -0.0914  0.1600
 4339TIP3   OH213022   3.474   5.878   1.388 -0.2951 -0.0931  0.2318
 4339TIP3    H113023   3.513   5.790   1.390 -0.5271 -0.2159 -0.5501
 4339TIP3    H213024   3.388   5.865   1.349 -0.1686  0.5439 -0.2683
 4340TIP3   OH213025   1.094   4.388   4.803 -0.3875  0.4252 -0.4464
 4340TIP3    H113026   1.103   4.380   4.708  0.3005  0.8109 -0.4235
 4340TIP3    H213027   1.180   4.364   4.837 -0.5699  0.4877  0.0686
 4341TIP3   OH213028   1.715   3.236   5.056 -0.2536 -0.0553  0.1403
 4341TIP3    H113029   1.763   3.162   5.017  0.8203  0.7130 -0.0507
 4341TIP3    H213030   1.761   3.314   5.023  0.8817  0.6467  3.1225
 4342TIP3   OH213031   3.527   2.613   4.271  0.2980  0.5191  0.3358
 4342TIP3    H113032   3.562   2.529   4.241 -0.5710 -0.2726  1.4505
 4342TIP3    H213033   3.594   2.646   4.331  0.3452  0.3060  0.4020
 4343TIP3   OH213034   0.783   4.563   2.111  0.4770 -0.1279  0.2688
 4343TIP3    H113035   0.832   4.614   2.047  0.1495 -0.4422 -0.2370
 4343TIP3    H213036   0.835   4.569   2.191  2.4405 -2.0547 -0.7391
 4344TIP3   OH213037   1.661   0.560   2.760  0.1011  0.1224  0.2900
 4344TIP3    H113038   1.690   0.597   2.677  0.5823  1.8168  1.1639
 4344TIP3    H213039   1.702   0.473   2.764 -0.9486 -0.5083 -1.7691
 4345TIP3   OH213040   2.109   2.729   3.096  0.3329  0.0350 -0.0595
 4345TIP3    H113041   2.141   2.795   3.034 -1.2140  0.9836  0.0879
 4345TIP3    H213042   2.167   2.654   3.083 -0.2531 -0.0553 -3.1227
 4346TIP3   OH213043   2.860   0.435   0.387  0.7607  0.0743  0.0206
 4346TIP3    H113044   2.866   0.516   0.336  1.6502 -0.5799 -0.9447
 4346TIP3    H213045   2.860   0.365   0.322 -1.2680 -0.6996  0.7598
 4347TIP3   OH213046   3.993   1.708   4.606  0.4713 -0.3103 -0.4403
 4347TIP3    H113047   3.929   1.657   4.655  0.6151 -0.4677 -0.4147
 4347TIP3    H213048   4.078   1.675   4.636  0.6606  1.9130  1.7170
 4348TIP3   OH213049   4.423   3.689   3.932 -0.1281  0.0712  0.1875
 4348TIP3    H113050   4.347   3.675   3.988  1.2908  2.3076  2.9251
 4348TIP3    H213051   4.478   3.612   3.947 -0.2459  0.1455  1.0311
 4349TIP3   OH213052   2.330   1.596   2.875 -0.4273  0.4465 -0.2225
 4349TIP3    H113053   2.241   1.629   2.860 -0.7008 -0.6189 -1.0947
 4349TIP3    H213054   2.356   1.633   2.959 -2.0472  0.0831  0.4719
 4350TIP3   OH213055   4.711   3.391   3.184 -0.2090  0.5572 -0.6113
 4350TIP3    H113056   4.743   3.461   3.128 -0.0418  1.0720  0.1157
 4350TIP3    H213057   4.623   3.373   3.153  0.4023 -0.2041 -2.0115
 4351TIP3   OH213058   5.789   2.442   0.690 -0.2354  0.4195 -0.1278
 4351TIP3    H113059   5.804   2.535   0.673  0.9005  0.2452 -0.1191
 4351TIP3    H213060   5.704   2.440   0.734  0.4951  1.6304  1.4414
 4352TIP3   OH213061   3.267   0.175   5.191  0.5438  0.1994  0.1346
 4352TIP3    H113062   3.270   0.140   5.102  1.0582  0.3601  0.0892
 4352TIP3    H213063   3.192   0.235   5.190  0.4783  0.1152 -0.1578
 4353TIP3   OH213064   0.516   3.391   3.602  0.4860 -1.3393  0.1185
 4353TIP3    H113065   0.551   3.332   3.536  0.8302  0.6722 -1.6352
 4353TIP3    H213066   0.584   3.396   3.669  1.5646 -1.0059 -0.9730
 4354TIP3   OH213067   2.542   1.203   2.170 -0.5939 -0.0293  0.5538
 4354TIP3    H113068   2.532   1.201   2.074  2.1178  0.6479  0.1820
 4354TIP3    H213069   2.477   1.267   2.199 -1.9229 -0.7211 -0.7190
 4355TIP3   OH213070   6.233   5.738   4.574 -0.3785 -0.0467 -0.3701
 4355TIP3    H113071   6.323   5.706   4.568 -0.5549 -0.9011  0.9765
 4355TIP3    H213072   6.182   5.676   4.523 -0.4722 -0.8505  0.6765
 4356TIP3   OH213073   5.809   0.464   4.449 -0.0813  0.1326  0.2027
 4356TIP3    H113074   5.888   0.519   4.456 -0.8138  1.1430  0.7699
 4356TIP3    H213075   5.740   0.525   4.425 -0.4869 -0.9435 -1.5495
 4357TIP3   OH213076   6.284   1.780   5.112  0.5477  0.5489 -0.0393
 4357TIP3    H113077   6.228   1.702   5.106  0.1954  0.5864  1.9466
 4357TIP3    H213078   6.358   1.761   5.054  0.6487 -1.4438  0.6593
 4358TIP3   OH213079   2.933   2.544   3.605 -0.1514 -0.1189  0.1124
 4358TIP3    H113080   2.938   2.452   3.632 -1.2645 -0.3490 -0.4082
 4358TIP3    H213081   3.020   2.579   3.623  0.2347 -1.2283  0.4859
 4359TIP3   OH213082   3.552   4.224   1.288  0.4062 -0.2653 -0.3169
 4359TIP3    H113083   3.480   4.272   1.248  0.5065  2.1936  2.1323
 4359TIP3    H213084   3.520   4.134   1.296 -3.1643  1.0016  2.0551
 4360TIP3   OH213085   1.478   2.910   0.490  0.0802  0.0774  0.0577
 4360TIP3    H113086   1.476   2.908   0.585  1.4724 -2.7732  0.1186
 4360TIP3    H213087   1.400   2.861   0.463  1.3515 -1.9610 -0.1205
 4361TIP3   OH213088   2.882   0.436   1.312  0.1027  0.0066 -0.8875
 4361TIP3    H113089   2.919   0.379   1.379  0.7548  0.7151 -0.6299
 4361TIP3    H213090   2.797   0.396   1.290  0.8919 -1.5103 -1.3140
 4362TIP3   OH213091   3.055   4.470   2.362  0.2416 -0.4920 -0.0424
 4362TIP3    H113092   2.963   4.492   2.379 -0.1549 -0.0717 -2.3472
 4362TIP3    H213093   3.085   4.427   2.442 -1.7235  0.0752  1.0659
 4363TIP3   OH213094   5.454   3.730   2.058  0.0847  0.1252 -0.3373
 4363TIP3    H113095   5.474   3.729   2.152  0.1267  1.6521 -0.3149
 4363TIP3    H213096   5.482   3.644   2.027 -0.7400 -0.7484  1.2082
 4364TIP3   OH213097   5.008   2.352   2.938 -0.1780  0.2859 -0.4513
 4364TIP3    H113098   5.071   2.387   3.000 -0.0525  0.5722 -0.7375
 4364TIP3    H213099   5.056   2.286   2.889 -0.0237  0.6852 -0.8442
 4365TIP3   OH213100   4.007   4.956   2.796 -0.1066 -0.5700 -0.1799
 4365TIP3    H113101   4.049   5.024   2.849  0.1357  0.0018 -1.0883
 4365TIP3    H213102   4.013   4.877   2.849  0.3237 -0.0537  0.5501
 4366TIP3   OH213103   2.203   3.845   2.359 -0.1192 -0.9775  0.5474
 4366TIP3    H113104   2.136   3.871   2.295  0.2095 -1.0810  0.1548
 4366TIP3    H213105   2.254   3.779   2.313  0.1023 -1.0722  0.9346
 4367TIP3   OH213106   6.051   2.762   3.027  0.5062  0.0718  0.0717
 4367TIP3    H113107   6.056   2.808   2.943  2.5584 -0.4745 -0.1756
 4367TIP3    H213108   5.989   2.691   3.012  0.0745  0.5973 -0.6731
 4368TIP3   OH213109   2.262   2.083   0.712 -0.5317  0.3396 -0.1892
 4368TIP3    H113110   2.246   2.124   0.797  2.3518  0.9728  0.1541
 4368TIP3    H213111   2.246   1.990   0.727  2.8229 -0.0237  2.0036
 4369TIP3   OH213112   1.090   3.946   3.965  0.2031 -0.2647 -0.1816
 4369TIP3    H113113   1.036   4.000   3.908  0.0519  1.7786  1.7860
 4369TIP3    H213114   1.032   3.875   3.993 -0.5963  0.3185 -0.3267
 4370TIP3   OH213115   3.591   5.492   3.870 -0.9473  0.2314  0.2986
 4370TIP3    H113116   3.540   5.484   3.790 -0.4685 -3.5263  0.2110
 4370TIP3    H213117   3.681   5.474   3.844 -0.6958 -0.4732  1.5497
 4371TIP3   OH213118   2.623   0.106   1.618  0.6403  0.1100  0.5879
 4371TIP3    H113119   2.544   0.052   1.605  1.1453 -0.2018 -1.7903
 4371TIP3    H213120   2.629   0.118   1.712  0.0579 -3.3726  1.2094
 4372TIP3   OH213121   1.186   4.681   2.389  0.1540  0.1804 -0.4461
 4372TIP3    H113122   1.181   4.775   2.406 -0.6146 -0.2691  2.2850
 4372TIP3    H213123   1.240   4.647   2.461 -1.5727 -1.7328  0.0251
 4373TIP3   OH213124   1.155   4.260   1.188 -0.3241 -0.5304 -0.2310
 4373TIP3    H113125   1.199   4.322   1.247 -2.1556  0.3587  0.2579
 4373TIP3    H213126   1.104   4.203   1.245 -1.2025 -0.4134 -0.8737
 4374TIP3   OH213127   5.852   0.231   4.696  0.2391  0.0302 -0.3795
 4374TIP3    H113128   5.837   0.143   4.729 -2.1622  0.9767  1.4277
 4374TIP3    H213129   5.771   0.278   4.717  1.0556  2.4290 -2.1274
 4375TIP3   OH213130   2.940   0.913   1.075 -0.3603  0.4277  0.2172
 4375TIP3    H113131   2.948   0.908   0.980  0.7870  0.9722  0.2702
 4375TIP3    H213132   2.896   0.832   1.100 -2.7641  1.2468 -0.9691
 4376TIP3   OH213133   4.021   0.089   1.065  0.3951 -0.2594 -0.3015
 4376TIP3    H113134   4.087   0.159   1.063 -0.1045  0.3419  1.7055
 4376TIP3    H213135   4.066   0.012   1.031  1.6171  0.5364 -0.5384
 4377TIP3   OH213136   1.583   5.816   1.773  0.1702 -0.0969 -0.0269
 4377TIP3    H113137   1.582   5.752   1.844 -0.2940 -0.0754 -0.0118
 4377TIP3    H213138   1.638   5.776   1.705 -0.7906 -0.8836 -0.3548
 4378TIP3   OH213139   5.117   5.534   1.945  0.0825  0.0984 -0.0076
 4378TIP3    H113140   5.187   5.470   1.938 -1.4074 -1.4571 -1.5817
 4378TIP3    H213141   5.148   5.608   1.892 -0.4128 -1.5988 -2.9289
 4379TIP3   OH213142   1.485   3.609   4.361  0.3746 -0.0788  0.5623
 4379TIP3    H113143   1.466   3.690   4.408 -1.6054 -1.4464  2.3238
 4379TIP3    H213144   1.529   3.637   4.281  1.3110  2.5771  1.8967
 4380TIP3   OH213145   5.312   2.489   4.837 -0.3317  0.9137 -0.6061
 4380TIP3    H113146   5.349   2.573   4.864 -0.3403  0.5091  0.7342
 4380TIP3    H213147   5.225   2.487   4.878 -1.0019  0.9351 -1.9710
 4381TIP3   OH213148   1.537   1.917   0.590  0.0752  0.8650 -0.0603
 4381TIP3    H113149   1.482   1.939   0.665 -0.9752  0.0189 -0.5506
 4381TIP3    H213150   1.578   2.000   0.565 -0.1183  1.2939  0.9936
 4382TIP3   OH213151   1.947   4.052   3.954  0.9854  0.3547 -0.2971
 4382TIP3    H113152   1.868   4.103   3.973  0.3089  0.1835 -2.3949
 4382TIP3    H213153   2.019   4.105   3.990 -0.0188  0.7872  1.1441
 4383TIP3   OH213154   4.424   2.038   0.236  0.6697  0.1432  0.0084
 4383TIP3    H113155   4.452   2.111   0.291  2.7944 -0.0908 -0.6526
 4383TIP3    H213156   4.505   2.009   0.192 -0.1633 -2.3807 -0.0169
 4384TIP3   OH213157   2.688   3.756   1.954 -0.2313 -0.1216  0.5553
 4384TIP3    H113158   2.664   3.847   1.973 -0.6379 -0.1730  0.3120
 4384TIP3    H213159   2.756   3.735   2.018  0.3210  0.5520  0.2114
 4385TIP3   OH213160   0.448   0.697   1.708 -0.4923  0.4659  0.1633
 4385TIP3    H113161   0.410   0.783   1.730 -0.6729 -0.1701  2.6759
 4385TIP3    H213162   0.541   0.715   1.695 -0.9433  1.4399 -2.2515
 4386TIP3   OH213163   0.381   1.658   1.303 -0.2959 -0.2000  0.2896
 4386TIP3    H113164   0.411   1.679   1.392  0.0140 -1.3572  0.4675
 4386TIP3    H213165   0.301   1.606   1.317 -0.8058  0.4486 -0.1361
 4387TIP3   OH213166   4.925   0.758   4.116  0.1110 -0.6023 -0.3525
 4387TIP3    H113167   5.001   0.812   4.096 -0.2656 -0.2616 -0.8941
 4387TIP3    H213168   4.851   0.818   4.114 -0.1578 -0.9017  0.3318
 4388TIP3   OH213169   0.453   4.544   3.568  0.0840 -0.2113  0.3336
 4388TIP3    H113170   0.405   4.613   3.615 -2.1118 -2.8661  2.3200
 4388TIP3    H213171   0.424   4.553   3.477 -2.1195  0.0153  0.9847
 4389TIP3   OH213172   0.895   0.281   0.933 -0.3822 -0.2426 -0.2298
 4389TIP3    H113173   0.901   0.221   1.007 -1.0500  1.2819  1.1271
 4389TIP3    H213174   0.982   0.321   0.926 -0.0156 -1.1387 -0.9633
 4390TIP3   OH213175   1.870   3.946   2.346  0.3103  0.2295 -0.1028
 4390TIP3    H113176   1.810   3.884   2.389 -2.3081  2.3887 -0.3298
 4390TIP3    H213177   1.892   3.904   2.263 -0.0775 -1.0697  0.4201
 4391TIP3   OH213178   2.717   0.492   3.616 -0.2508  0.1515 -0.1931
 4391TIP3    H113179   2.751   0.543   3.689 -0.8522  1.1707 -0.6091
 4391TIP3    H213180   2.751   0.535   3.538 -1.3303  0.3516 -0.5715
 4392TIP3   OH213181   3.222   2.540   2.803 -0.0042 -0.2324 -0.4435
 4392TIP3    H113182   3.144   2.514   2.852  0.2398 -2.8560 -1.2898
 4392TIP3    H213183   3.287   2.473   2.826  1.1795  0.4604 -1.6890
 4393TIP3   OH213184   3.319   1.030   4.473 -0.2419 -0.1096 -0.0266
 4393TIP3    H113185   3.276   1.088   4.411 -0.9885 -0.8309 -0.2018
 4393TIP3    H213186   3.252   1.011   4.538  0.1033 -0.4918  0.2205
 4394TIP3   OH213187   4.363   1.572   0.915 -0.5297  0.1923 -0.2401
 4394TIP3    H113188   4.453   1.599   0.898 -0.5151  1.0859  1.1421
 4394TIP3    H213189   4.321   1.574   0.830  1.0787 -1.5643 -1.1560
 4395TIP3   OH213190   0.724   0.679   4.284  0.6546  0.0838 -0.6627
 4395TIP3    H113191   0.709   0.749   4.348  0.8563 -0.1427 -0.3674
 4395TIP3    H213192   0.688   0.714   4.202  0.1567  0.2668 -0.3692
 4396TIP3   OH213193   5.526   3.268   2.721 -0.1637  0.1658 -0.1749
 4396TIP3    H113194   5.599   3.323   2.748 -0.8365  0.2021  1.7989
 4396TIP3    H213195   5.542   3.249   2.629  3.0227 -0.8998  0.4710
 4397TIP3   OH213196   4.669   0.416   2.183 -0.3687  0.1633 -0.3119
 4397TIP3    H113197   4.716   0.360   2.120  2.6322  0.9122  1.0714
 4397TIP3    H213198   4.584   0.431   2.142 -0.7590 -3.9653 -1.5401
 4398TIP3   OH213199   2.395   5.831   4.209  0.0601 -0.1614  0.1958
 4398TIP3    H113200   2.312   5.783   4.203 -0.2467  0.4687 -1.2314
 4398TIP3    H213201   2.459   5.775   4.165  0.2435 -0.3580  0.7156
 4399TIP3   OH213202   0.171   5.249   3.502 -0.8017  0.2428  0.0364
 4399TIP3    H113203   0.177   5.341   3.527  0.4654  0.4645 -0.9885
 4399TIP3    H213204   0.162   5.250   3.407 -2.0197 -0.6740  0.1114
 4400TIP3   OH213205   2.561   4.492   1.551 -0.3754  0.4576  0.1183
 4400TIP3    H113206   2.533   4.480   1.461  0.3509 -0.8323  0.0377
 4400TIP3    H213207   2.556   4.405   1.590  1.1826  0.6082  0.7620
 4401TIP3   OH213208   1.646   1.051   3.369 -0.5019  0.0461  0.0221
 4401TIP3    H113209   1.610   1.135   3.396 -0.4188 -0.1524  0.7949
 4401TIP3    H213210   1.582   1.015   3.308 -0.9216  0.3248  0.2898
 4402TIP3   OH213211   5.197   4.768   2.817 -0.2953 -0.4921 -0.0822
 4402TIP3    H113212   5.133   4.740   2.882 -0.2197 -1.0545 -0.2429
 4402TIP3    H213213   5.203   4.695   2.755 -1.1744  0.4545 -1.3425
 4403TIP3   OH213214   2.871   4.883   4.661 -0.0569 -0.0733  0.3995
 4403TIP3    H113215   2.804   4.934   4.616 -0.4311 -1.1073 -0.2661
 4403TIP3    H213216   2.920   4.947   4.713  0.3576  1.1605 -1.4277
 4404TIP3   OH213217   3.117   4.431   4.178 -0.0333  0.8550 -0.5669
 4404TIP3    H113218   3.210   4.430   4.203  0.6946  0.8824 -2.9361
 4404TIP3    H213219   3.078   4.500   4.232  0.8363 -0.4522  1.8665
 4405TIP3   OH213220   3.159   1.142   2.348 -0.1112 -0.1329  0.6207
 4405TIP3    H113221   3.091   1.201   2.381 -0.7223 -0.8980  0.7619
 4405TIP3    H213222   3.147   1.061   2.398 -1.1459 -1.3959 -1.5101
 4406TIP3   OH213223   5.685   3.955   0.804 -0.0848 -0.6750 -0.4408
 4406TIP3    H113224   5.637   3.902   0.740  0.3356  0.2539 -1.5738
 4406TIP3    H213225   5.756   3.899   0.834  0.6823 -0.6275 -2.0326
 4407TIP3   OH213226   1.753   2.323   0.061  0.2074  0.0953 -0.4411
 4407TIP3    H113227   1.794   2.403   0.093 -0.4210  1.0199 -1.8509
 4407TIP3    H213228   1.799   2.253   0.106  1.4481  1.2063  0.0866
 4408TIP3   OH213229   0.938   0.373   4.183  0.1365  0.2027  0.1137
 4408TIP3    H113230   0.849   0.370   4.147  0.0739  0.1303  0.2700
 4408TIP3    H213231   0.931   0.434   4.257 -0.1242 -0.9038  1.0316
 4409TIP3   OH213232   5.349   5.877   3.604 -0.0019  0.0347 -0.0033
 4409TIP3    H113233   5.426   5.893   3.659  0.4007  1.1804 -0.8418
 4409TIP3    H213234   5.331   5.784   3.613  0.7967 -0.0280  1.0950
 4410TIP3   OH213235   6.154   4.419   2.889 -0.1219 -0.2153  0.5405
 4410TIP3    H113236   6.059   4.431   2.889 -0.3468 -1.8270  0.1824
 4410TIP3    H213237   6.185   4.476   2.818 -0.9039 -0.2449  0.1626
 4411TIP3   OH213238   1.238   2.967   2.659 -1.0130  0.3120 -0.0911
 4411TIP3    H113239   1.268   2.926   2.578 -2.1346 -1.2650  0.2343
 4411TIP3    H213240   1.250   2.899   2.726 -4.2851 -0.1275  0.2213
 4412TIP3   OH213241   1.647   0.630   4.960  0.4206 -0.0852 -0.8598
 4412TIP3    H113242   1.625   0.710   4.912 -3.5524 -0.0348  0.6930
 4412TIP3    H213243   1.614   0.559   4.904  0.0252 -0.3263 -0.3280
 4413TIP3   OH213244   6.255   0.032   4.630 -0.2094 -0.1088 -0.6143
 4413TIP3    H113245   6.230   0.119   4.598  1.2669  0.0499 -1.4147
 4413TIP3    H213246   6.257  -0.022   4.551  1.4332 -0.2256 -0.5204
 4414TIP3   OH213247   5.592   2.482   3.053 -0.2523 -0.9111  0.2786
 4414TIP3    H113248   5.549   2.498   3.137 -0.7257 -0.7620  0.0133
 4414TIP3    H213249   5.673   2.532   3.057 -2.2964  2.9160 -1.0821
 4415TIP3   OH213250   0.020   5.206   0.627  0.3832 -0.3442 -0.1134
 4415TIP3    H113251   0.023   5.126   0.680  0.9546  0.5598  1.2944
 4415TIP3    H213252   0.070   5.270   0.678  0.4497  0.7533 -1.4909
 4416TIP3   OH213253   6.267   5.452   4.835  0.8060 -0.0871 -0.2359
 4416TIP3    H113254   6.186   5.402   4.843  1.2408 -0.8200 -0.3121
 4416TIP3    H213255   6.309   5.418   4.756  1.0265  0.5234 -0.3853
 4417TIP3   OH213256   4.279   4.777   1.672  0.4067 -0.5390 -0.3072
 4417TIP3    H113257   4.295   4.727   1.752 -0.5750 -0.4822 -0.0683
 4417TIP3    H213258   4.275   4.711   1.603 -1.4038 -0.8862  0.0794
 4418TIP3   OH213259   2.022   2.593   3.744 -0.6564 -0.1375 -0.5662
 4418TIP3    H113260   2.002   2.645   3.822  1.5112 -0.7383  0.4825
 4418TIP3    H213261   2.048   2.657   3.679  2.3989  0.2218  0.8440
 4419TIP3   OH213262   1.320   5.333   4.532  0.5246  0.2453 -0.0520
 4419TIP3    H113263   1.338   5.299   4.445 -1.1367 -1.0705  0.0552
 4419TIP3    H213264   1.251   5.398   4.520  0.5483  0.3311  0.2460
 4420TIP3   OH213265   1.237   4.034   5.079  0.3087  0.8250  0.6332
 4420TIP3    H113266   1.330   4.037   5.054 -0.0180  1.0682 -0.6381
 4420TIP3    H213267   1.192   4.008   4.999 -0.7942  1.4281  1.0337
 4421TIP3   OH213268   0.257   3.367   3.667 -0.5859  0.3547 -0.0687
 4421TIP3    H113269   0.351   3.357   3.681 -0.5368 -0.1561 -0.6975
 4421TIP3    H213270   0.223   3.394   3.752 -0.1302 -1.2898  0.6967
 4422TIP3   OH213271   2.928   3.121   4.455 -0.4794 -0.1749 -0.1535
 4422TIP3    H113272   3.017   3.085   4.448 -0.2194  0.6230 -1.1795
 4422TIP3    H213273   2.939   3.199   4.510 -0.3006  0.6394 -1.3111
 4423TIP3   OH213274   3.690   5.569   2.784  0.3296  0.1869 -0.5815
 4423TIP3    H113275   3.697   5.553   2.690 -1.6337 -0.4918 -0.6695
 4423TIP3    H213276   3.672   5.483   2.821 -1.8605  0.8262  0.0108
 4424TIP3   OH213277   3.189   3.049   4.101  0.3311 -0.0974 -0.2482
 4424TIP3    H113278   3.216   2.976   4.045  1.0142  0.0761 -0.1556
 4424TIP3    H213279   3.093   3.043   4.104  0.3030 -0.2451 -1.2443
 4425TIP3   OH213280   4.282   0.985   2.229  0.0323 -0.0207  0.2023
 4425TIP3    H113281   4.285   0.955   2.320 -0.5184  1.6738  0.8179
 4425TIP3    H213282   4.319   1.073   2.231 -2.1115  0.9931 -0.7495
 4426TIP3   OH213283   4.604   1.377   3.066 -0.2000 -0.0410  0.1956
 4426TIP3    H113284   4.680   1.354   3.012 -0.0004 -0.1595  0.5204
 4426TIP3    H213285   4.537   1.312   3.044  0.2032 -0.6694  0.7748
 4427TIP3   OH213286   2.236   3.357   4.858  0.5964  0.4958  0.0506
 4427TIP3    H113287   2.281   3.338   4.940  0.9458 -0.4499 -0.3420
 4427TIP3    H213288   2.306   3.362   4.793  0.2620  0.5105 -0.3122
 4428TIP3   OH213289   3.204   3.545   3.140 -0.1776  0.0482  0.3635
 4428TIP3    H113290   3.117   3.571   3.172 -0.3467 -0.6098  0.4461
 4428TIP3    H213291   3.207   3.579   3.051  0.0664  1.3838  0.8490
 4429TIP3   OH213292   5.678   0.486   0.747 -0.1088 -0.2477 -0.3383
 4429TIP3    H113293   5.759   0.455   0.787 -1.3545 -1.6552  1.2477
 4429TIP3    H213294   5.638   0.407   0.711 -0.8813  0.3931 -0.9062
 4430TIP3   OH213295   3.636   3.544   0.628  0.0466  0.0779  0.1404
 4430TIP3    H113296   3.627   3.469   0.687 -1.7149 -0.5924 -0.9075
 4430TIP3    H213297   3.564   3.534   0.566 -0.4487  2.8108  0.1556
 4431TIP3   OH213298   5.498   3.897   0.570 -0.0561  0.4171 -0.3767
 4431TIP3    H113299   5.474   3.807   0.550  1.5498  0.4766 -3.1484
 4431TIP3    H213300   5.414   3.943   0.576 -0.8669 -1.0555 -0.0072
 4432TIP3   OH213301   5.808   2.752   4.627 -0.0586 -0.1884 -0.1373
 4432TIP3    H113302   5.781   2.802   4.704 -0.1945 -1.5347  0.7272
 4432TIP3    H213303   5.766   2.796   4.553  1.0797  1.8818  0.3705
 4433TIP3   OH213304   4.531   2.018   2.589  0.1130  0.5294 -0.2940
 4433TIP3    H113305   4.451   1.998   2.540 -1.7225 -2.2918  3.3890
 4433TIP3    H213306   4.580   1.935   2.590  0.4213  0.6865  1.9264
 4434TIP3   OH213307   3.470   3.063   2.725 -0.3355  0.2932 -0.2139
 4434TIP3    H113308   3.430   3.074   2.811  0.1152 -0.6567  0.1310
 4434TIP3    H213309   3.475   3.151   2.689 -0.3326  0.7254  0.8147
 4435TIP3   OH213310   3.393   0.516   4.950 -0.1966  0.0855  0.1759
 4435TIP3    H113311   3.486   0.531   4.969 -0.1584 -0.8570  0.8695
 4435TIP3    H213312   3.393   0.473   4.865  0.0034  0.1637  0.1352
 4436TIP3   OH213313   0.295   4.012   4.984 -0.3374  0.7920 -0.4561
 4436TIP3    H113314   0.346   4.092   4.973  1.5928 -0.0316  1.7493
 4436TIP3    H213315   0.290   3.975   4.896  1.3976  1.8037 -1.0351
 4437TIP3   OH213316   5.662   0.686   3.445 -0.3869  0.5620  0.2098
 4437TIP3    H113317   5.625   0.644   3.523 -1.3065  1.9726  0.5599
 4437TIP3    H213318   5.756   0.691   3.464 -0.5248  0.4055  0.9872
 4438TIP3   OH213319   2.765   0.968   3.114  0.2698  0.2526 -0.4026
 4438TIP3    H113320   2.747   0.989   3.023 -1.2574 -0.7395 -0.3693
 4438TIP3    H213321   2.772   1.052   3.158  3.5563  0.8748 -1.8002
 4439TIP3   OH213322   0.933   0.298   1.856 -0.0367 -0.4313  0.3855
 4439TIP3    H113323   0.954   0.220   1.908 -0.9170 -1.0055 -0.1113
 4439TIP3    H213324   0.853   0.333   1.896 -1.0694 -1.2173 -0.9174
 4440TIP3   OH213325   5.315   1.358   3.305 -0.1242 -0.1928 -0.2845
 4440TIP3    H113326   5.409   1.351   3.291 -0.2092  0.4848 -1.2918
 4440TIP3    H213327   5.280   1.386   3.220 -1.2774 -0.7963 -0.0276
 4441TIP3   OH213328   5.045   1.513   1.437 -0.0969 -0.2133  0.5347
 4441TIP3    H113329   5.077   1.503   1.526 -0.4751  0.3317  0.7335
 4441TIP3    H213330   4.996   1.595   1.437 -0.6519 -0.5279 -0.0046
 4442TIP3   OH213331   5.975   2.080   4.835  0.2149 -0.9014  0.1733
 4442TIP3    H113332   6.008   2.151   4.890 -0.1588 -0.5480 -0.0515
 4442TIP3    H213333   6.001   2.105   4.746  2.2633 -2.2688  0.3206
 4443TIP3   OH213334   1.888   1.384   0.514  0.1071 -0.5616  0.6665
 4443TIP3    H113335   1.895   1.479   0.499  2.1032 -0.7513  0.1640
 4443TIP3    H213336   1.826   1.354   0.448 -2.0665  0.6019  2.0182
 4444TIP3   OH213337   1.057   4.883   0.050 -0.1614 -0.0300  0.4135
 4444TIP3    H113338   1.071   4.915  -0.039 -0.2010 -0.5955  0.2012
 4444TIP3    H213339   1.135   4.911   0.098 -0.3114  0.6033  0.2988
 4445TIP3   OH213340   3.146   0.253   1.856 -0.0753  0.3574 -0.1836
 4445TIP3    H113341   3.148   0.324   1.921  3.7136 -1.2202  1.7917
 4445TIP3    H213342   3.233   0.255   1.816 -0.6957 -1.6848 -1.8215
 4446TIP3   OH213343   4.622   5.153   1.520 -0.4772 -0.2529  0.1101
 4446TIP3    H113344   4.680   5.077   1.516  0.6384  0.5295  0.9642
 4446TIP3    H213345   4.546   5.123   1.570 -0.0608 -0.8161  0.4125
 4447TIP3   OH213346   1.405   0.330   1.887  0.0132  0.1567  0.1235
 4447TIP3    H113347   1.326   0.382   1.875 -0.1851 -0.3368 -0.8485
 4447TIP3    H213348   1.445   0.328   1.800  1.5349  1.0815  0.7706
 4448TIP3   OH213349   6.113   4.795   1.373  0.0857 -0.3433 -0.3816
 4448TIP3    H113350   6.103   4.734   1.446  0.1339  1.3052  1.0747
 4448TIP3    H213351   6.203   4.784   1.344 -0.3796 -2.1340 -1.2952
 4449TIP3   OH213352   3.834   3.779   4.998 -0.1222  0.4546 -0.5390
 4449TIP3    H113353   3.742   3.754   4.999 -0.0281  0.1233  0.4593
 4449TIP3    H213354   3.834   3.870   4.969 -0.7546  0.4421 -0.5877
 4450TIP3   OH213355   4.916   0.715   3.545  1.0604 -0.3633  0.5757
 4450TIP3    H113356   4.964   0.681   3.470  0.0455 -1.2362  0.3081
 4450TIP3    H213357   4.865   0.641   3.578 -0.0446  0.4970  0.8938
 4451TIP3   OH213358   2.040   4.703   0.836 -0.2162  0.2584  0.3109
 4451TIP3    H113359   2.012   4.794   0.824 -1.3103 -0.1102 -0.0318
 4451TIP3    H213360   2.060   4.696   0.929 -2.3719  0.2652  0.8261
 4452TIP3   OH213361   5.580   3.396   3.393  0.3564  0.3365 -0.1610
 4452TIP3    H113362   5.484   3.394   3.390  0.3575 -2.2310 -1.3015
 4452TIP3    H213363   5.601   3.468   3.451 -2.3033  0.0425  1.3060
 4453TIP3   OH213364   1.642   0.511   1.214  0.0998 -0.0158  0.2742
 4453TIP3    H113365   1.648   0.569   1.290  0.9068 -0.7880  0.8188
 4453TIP3    H213366   1.722   0.528   1.165  0.4386 -0.8168  0.5464
 4454TIP3   OH213367   0.417   2.251   1.466  0.2847  0.0290 -0.8073
 4454TIP3    H113368   0.387   2.307   1.537  1.2902 -0.8258  0.3379
 4454TIP3    H213369   0.389   2.163   1.492  1.8197 -0.4811 -0.7714
 4455TIP3   OH213370   3.571   2.862   3.340  0.4108 -0.0957 -0.6442
 4455TIP3    H113371   3.543   2.895   3.425  1.3107 -1.0962  0.0756
 4455TIP3    H213372   3.509   2.899   3.278 -0.6848  0.1186  0.5292
 4456TIP3   OH213373   0.039   0.966   1.741 -0.7931  0.3339 -0.0724
 4456TIP3    H113374   0.012   0.879   1.769 -3.2926  1.1745  0.4033
 4456TIP3    H213375  -0.040   1.005   1.704  0.1981  2.4666 -0.1006
 4457TIP3   OH213376   3.410   3.624   0.271  0.1900  0.0553 -0.7442
 4457TIP3    H113377   3.325   3.639   0.313  0.4306  0.6059 -0.4477
 4457TIP3    H213378   3.421   3.699   0.213 -0.4005 -0.9681 -2.2616
 4458TIP3   OH213379   2.536   5.188   4.843  0.1331  0.1770  0.2733
 4458TIP3    H113380   2.553   5.202   4.750  0.9979  0.6583  0.4966
 4458TIP3    H213381   2.622   5.174   4.882 -0.1139  1.0203  1.1721
 4459TIP3   OH213382   6.071   3.322   2.405  0.2999  0.1037  0.4182
 4459TIP3    H113383   6.117   3.398   2.368 -0.2984 -0.5912 -1.9183
 4459TIP3    H213384   6.135   3.251   2.400 -0.3566 -0.4134 -1.0357
 4460TIP3   OH213385   3.079   5.588   0.017  0.0791 -0.0124  0.3039
 4460TIP3    H113386   3.162   5.604   0.061 -0.1068  1.9345  0.0337
 4460TIP3    H213387   3.087   5.634  -0.067 -0.6345 -1.2634 -0.4821
 4461TIP3   OH213388   3.181   3.482   1.525 -1.1437 -0.3072 -0.1847
 4461TIP3    H113389   3.100   3.522   1.494 -0.3222  0.3507 -1.5690
 4461TIP3    H213390   3.206   3.422   1.456 -0.5886 -0.7068  0.3540
 4462TIP3   OH213391   3.844   5.189   0.885  0.9476 -0.3514 -0.1475
 4462TIP3    H113392   3.932   5.225   0.874  1.8453 -2.1418  0.6348
 4462TIP3    H213393   3.793   5.261   0.921  2.1581  0.6705 -0.3904
 4463TIP3   OH213394   2.429   3.027   5.024  0.2622  0.5526 -0.0493
 4463TIP3    H113395   2.478   2.981   5.092  0.1706  0.6556  0.0850
 4463TIP3    H213396   2.496   3.072   4.973  0.6436 -1.7429 -1.7458
 4464TIP3   OH213397   1.595   5.884   3.801 -0.3751 -0.1712  0.6936
 4464TIP3    H113398   1.621   5.929   3.720 -0.1718 -0.1959  0.7437
 4464TIP3    H213399   1.648   5.925   3.869 -1.3698  0.6243  0.9970
 4465TIP3   OH213400   4.575   0.404   1.872 -0.5717  0.0025 -0.1352
 4465TIP3    H113401   4.523   0.421   1.950 -1.5606 -2.6357 -0.1034
 4465TIP3    H213402   4.663   0.433   1.894 -0.9902  0.0245  1.6759
 4466TIP3   OH213403   3.755   3.018   4.762  0.0646  0.1785 -0.2790
 4466TIP3    H113404   3.698   3.090   4.736  0.9416  1.3130  0.8441
 4466TIP3    H213405   3.770   3.032   4.856 -0.1821 -1.7787  0.1063
 4467TIP3   OH213406   5.609   5.197   3.498  0.3835 -0.0033 -0.2094
 4467TIP3    H113407   5.630   5.259   3.568 -2.9699  0.0166  0.9510
 4467TIP3    H213408   5.526   5.228   3.462  0.2995 -1.9602 -1.9163
 4468TIP3   OH213409   4.055   2.271   5.027 -0.5720  0.0437  0.3698
 4468TIP3    H113410   4.087   2.210   5.093  1.0441 -1.9909 -2.0784
 4468TIP3    H213411   3.967   2.238   5.005  0.2258 -1.4581 -0.8250
 4469TIP3   OH213412   6.198   5.007   3.404  0.1155 -0.0078  0.3667
 4469TIP3    H113413   6.108   5.020   3.375  0.2281 -0.5770 -0.2605
 4469TIP3    H213414   6.203   5.054   3.487 -0.9598 -0.5916  0.7747
 4470TIP3   OH213415  -0.016   0.599   4.332  0.1814  0.0340 -0.3812
 4470TIP3    H113416   0.061   0.543   4.318 -0.3008 -1.0171  0.9888
 4470TIP3    H213417   0.006   0.681   4.287  1.2365 -0.9589 -1.7640
 4471TIP3   OH213418   6.356   5.496   0.598  0.4637 -0.1544  0.4824
 4471TIP3    H113419   6.339   5.588   0.619  1.2455  0.1310 -0.0960
 4471TIP3    H213420   6.279   5.467   0.550  0.0719  0.1048  0.9529
 4472TIP3   OH213421   1.022   4.626   0.198 -0.4488 -0.5100  0.2375
 4472TIP3    H113422   0.985   4.628   0.286 -1.3543 -1.0259 -0.1206
 4472TIP3    H213423   1.009   4.715   0.164  1.8617  0.3520  1.3741
 4473TIP3   OH213424   3.723   1.232   4.350  0.6199 -0.1020  0.6631
 4473TIP3    H113425   3.652   1.292   4.327 -0.1822 -0.9695  0.8131
 4473TIP3    H213426   3.803   1.283   4.335 -0.0051  0.7064 -0.0600
 4474TIP3   OH213427   4.133   0.380   1.038 -0.3827 -0.2977 -0.1530
 4474TIP3    H113428   4.145   0.407   1.129  0.9826 -0.9725 -0.1005
 4474TIP3    H213429   4.054   0.425   1.009  0.9831  2.6749  0.3476
 4475TIP3   OH213430   5.599   3.440   4.320  0.1933  0.6524 -0.6893
 4475TIP3    H113431   5.682   3.474   4.352  0.5086 -0.6116 -0.1333
 4475TIP3    H213432   5.614   3.421   4.228  0.7937 -0.3950 -0.3824
 4476TIP3   OH213433   2.946   0.757   3.125  0.1600 -0.0357 -0.7979
 4476TIP3    H113434   2.920   0.691   3.189  0.4781 -0.2852 -0.9264
 4476TIP3    H213435   2.883   0.829   3.138  0.0238 -0.2196 -0.4303
 4477TIP3   OH213436   4.697   2.330   3.760  0.0093 -0.1323  0.0892
 4477TIP3    H113437   4.648   2.321   3.678  1.6554 -0.5568 -0.8882
 4477TIP3    H213438   4.666   2.258   3.815 -0.3653 -0.4778 -0.5599
 4478TIP3   OH213439   2.356   4.892   3.066  0.2654 -0.1623  0.0556
 4478TIP3    H113440   2.313   4.964   3.112  1.1519  0.1623  0.4134
 4478TIP3    H213441   2.313   4.813   3.098  0.0669  0.1433  0.5453
 4479TIP3   OH213442   5.147   2.495   2.299 -0.1437 -0.3036  0.2160
 4479TIP3    H113443   5.065   2.531   2.334 -1.3083  0.9875 -3.4563
 4479TIP3    H213444   5.129   2.402   2.287 -1.3239  0.0672 -1.0654
 4480TIP3   OH213445   5.922   5.295   0.328 -0.0666  0.3616 -0.0733
 4480TIP3    H113446   5.873   5.371   0.297 -0.3107  0.2776  0.0987
 4480TIP3    H213447   5.903   5.226   0.265 -1.2739 -0.0665  0.7159
 4481TIP3   OH213448   2.419   4.726   2.145  0.0666  0.0215  0.8046
 4481TIP3    H113449   2.493   4.738   2.086 -1.1642 -0.6992 -0.9788
 4481TIP3    H213450   2.450   4.758   2.230  2.2241  0.2074  0.0066
 4482TIP3   OH213451   0.699   2.373   1.006 -0.5274  0.1429 -0.0416
 4482TIP3    H113452   0.649   2.450   0.977 -1.9386 -0.4142  0.8162
 4482TIP3    H213453   0.689   2.373   1.101 -0.3088 -0.9414 -0.0102
 4483TIP3   OH213454   4.151   0.453   2.632  0.5835 -0.2014 -0.0293
 4483TIP3    H113455   4.183   0.370   2.667 -0.4266  0.4879  2.7644
 4483TIP3    H213456   4.218   0.481   2.570  1.9061 -2.1220  0.4669
 4484TIP3   OH213457   0.859   4.385   1.251  0.0032  0.1200  0.1484
 4484TIP3    H113458   0.783   4.389   1.309 -1.1766 -1.0249 -1.2501
 4484TIP3    H213459   0.905   4.306   1.278  0.9040  0.9536  1.1724
 4485TIP3   OH213460   4.825   3.495   3.555  0.2460  0.0359  0.0756
 4485TIP3    H113461   4.823   3.528   3.645  1.3406  2.1221 -0.5923
 4485TIP3    H213462   4.886   3.421   3.557 -0.8549 -0.8845  1.2863
 4486TIP3   OH213463   0.214   1.270   1.623  0.6927 -0.6227 -0.0533
 4486TIP3    H113464   0.152   1.318   1.569  1.8615  0.1532 -0.7617
 4486TIP3    H213465   0.241   1.196   1.567 -1.4483 -2.4764  1.2001
 4487TIP3   OH213466   5.549   1.556   0.211  0.7322 -0.7141 -0.0269
 4487TIP3    H113467   5.615   1.494   0.179  1.0850 -1.8589  2.6719
 4487TIP3    H213468   5.600   1.624   0.254  0.2384  0.0852 -0.6939
 4488TIP3   OH213469   0.320   1.743   0.048 -0.5046  0.2613 -0.0594
 4488TIP3    H113470   0.249   1.744  -0.015 -0.3606  4.0796 -0.3327
 4488TIP3    H213471   0.397   1.716  -0.002 -1.0986 -0.6267 -0.5221
 4489TIP3   OH213472   6.038  -0.016   5.116 -0.3159  0.1996  0.0660
 4489TIP3    H113473   6.097   0.032   5.057 -1.8452 -0.0418 -1.7521
 4489TIP3    H213474   6.012   0.048   5.182  0.6780  0.7560 -0.0644
 4490TIP3   OH213475   0.038   2.621   0.949 -0.4070 -0.6770  0.2313
 4490TIP3    H113476   0.049   2.530   0.974  0.0264 -0.5455  0.5446
 4490TIP3    H213477   0.032   2.668   1.032  0.8852 -0.2499  0.1141
 4491TIP3   OH213478   6.280   5.866   4.287  0.1167  0.4854  0.1470
 4491TIP3    H113479   6.231   5.786   4.307  0.1968  0.4810  0.3220
 4491TIP3    H213480   6.269   5.876   4.192  0.9362 -0.2825 -0.0439
 4492TIP3   OH213481   4.569   2.691   0.945  0.3136 -0.1094 -0.6233
 4492TIP3    H113482   4.579   2.597   0.932 -3.3489 -0.9332  1.1738
 4492TIP3    H213483   4.481   2.711   0.913 -0.1156  2.1207  1.5944
 4493TIP3   OH213484   4.662   3.895   3.831 -0.5616  0.2385 -0.4061
 4493TIP3    H113485   4.643   3.962   3.898 -2.5588 -0.1446 -0.5226
 4493TIP3    H213486   4.623   3.815   3.866 -0.5273 -0.2462 -1.4534
 4494TIP3   OH213487   3.520   3.881   4.374  0.0415  0.4382  0.0390
 4494TIP3    H113488   3.452   3.829   4.331 -0.7252  1.2270  0.2631
 4494TIP3    H213489   3.504   3.971   4.344  0.9975  0.6321  0.0856
 4495TIP3   OH213490   6.190   2.657   0.326  0.7528 -0.2834  0.1336
 4495TIP3    H113491   6.157   2.590   0.387  0.8279 -1.2566 -0.8641
 4495TIP3    H213492   6.150   2.635   0.242  0.5560  1.1165 -0.1523
 4496TIP3   OH213493   1.274   2.360   2.791  0.0064  0.2778  0.6684
 4496TIP3    H113494   1.239   2.374   2.703 -0.8799 -0.1441  0.9392
 4496TIP3    H213495   1.368   2.375   2.782  0.5595 -3.1725 -1.1434
 4497TIP3   OH213496   1.553   5.997   2.376  0.0123 -0.2808 -0.4995
 4497TIP3    H113497   1.615   5.939   2.331  0.7568  0.9500 -1.1400
 4497TIP3    H213498   1.607   6.044   2.439 -0.2866  0.6619 -0.9196
 4498TIP3   OH213499   1.784   0.867   0.427  0.0884  0.0349 -0.2114
 4498TIP3    H113500   1.813   0.776   0.432  1.6825  0.5525  3.3390
 4498TIP3    H213501   1.693   0.865   0.456  0.4567 -0.3773  0.9903
 4499TIP3   OH213502   6.061   5.499   2.339 -0.1366  0.0686  0.2298
 4499TIP3    H113503   6.066   5.447   2.420  0.0667  0.5107  0.5069
 4499TIP3    H213504   6.006   5.574   2.363  1.7084  1.3721  0.6253
 4500TIP3   OH213505   3.405   5.554   4.440  0.0781 -0.2052 -0.4644
 4500TIP3    H113506   3.335   5.502   4.480  2.1819 -0.4154  3.4101
 4500TIP3    H213507   3.469   5.490   4.410  0.5760  0.0362  0.0599
 4501TIP3   OH213508   0.691   1.291   2.332  0.0313 -0.0633  0.5299
 4501TIP3    H113509   0.622   1.318   2.271  1.2726  1.2911 -0.3505
 4501TIP3    H213510   0.743   1.370   2.346  1.5819 -1.1067  0.9124
 4502TIP3   OH213511   4.547   2.603   4.035 -0.4903  0.1231  0.1696
 4502TIP3    H113512   4.634   2.584   3.999 -0.3067  1.1432  0.0435
 4502TIP3    H213513   4.489   2.541   3.992 -0.2090  1.0119 -1.5731
 4503TIP3   OH213514   0.986   0.216   2.402  0.0157  0.2511 -0.1427
 4503TIP3    H113515   0.948   0.199   2.487  1.5538  3.0515  1.2575
 4503TIP3    H213516   1.070   0.258   2.421  0.9665 -0.0814 -3.0454
 4504TIP3   OH213517   5.465   2.158   4.044  0.4883 -0.1685  0.2373
 4504TIP3    H113518   5.532   2.224   4.026  0.3866  0.2041  1.1848
 4504TIP3    H213519   5.383   2.201   4.023  0.3597  0.3086  1.6426
 4505TIP3   OH213520   0.042   0.980   2.680  1.0153 -0.4518 -0.1857
 4505TIP3    H113521  -0.005   1.063   2.686  3.3526  0.8675  2.2512
 4505TIP3    H213522   0.057   0.967   2.587  0.4625  1.8354 -0.6514
 4506TIP3   OH213523   3.941   5.848   4.745  0.0420  0.4907 -0.3042
 4506TIP3    H113524   4.011   5.788   4.773 -0.1777  0.6319  0.6079
 4506TIP3    H213525   3.984   5.932   4.734  0.0424  0.5516  0.1426
 4507TIP3   OH213526   5.878   5.983   1.672 -0.1972  0.3112 -0.6292
 4507TIP3    H113527   5.802   5.988   1.614  0.0055  0.3872 -0.8917
 4507TIP3    H213528   5.868   5.900   1.718 -0.4618  0.3421 -0.6326
 4508TIP3   OH213529   4.213   0.220   2.755  0.3255 -0.0393  0.3743
 4508TIP3    H113530   4.301   0.184   2.750 -0.3109 -1.5847 -0.2233
 4508TIP3    H213531   4.155   0.144   2.752 -1.2125  1.0085 -3.9418
 4509TIP3   OH213532   1.602   1.506   2.479  0.5534 -0.0575 -0.3410
 4509TIP3    H113533   1.590   1.590   2.436  0.1985 -0.4550 -1.0407
 4509TIP3    H213534   1.687   1.513   2.523 -0.9032  1.8322  2.3980
 4510TIP3   OH213535   1.454   1.264   3.395  0.2119 -0.4706 -0.1643
 4510TIP3    H113536   1.417   1.275   3.307  1.1019 -0.5687 -0.5605
 4510TIP3    H213537   1.447   1.351   3.435  0.0081 -0.3705 -0.4121
 4511TIP3   OH213538   2.300   4.215   2.647 -0.0535 -0.2309 -0.1201
 4511TIP3    H113539   2.285   4.172   2.563  1.3035 -1.5863  0.2815
 4511TIP3    H213540   2.385   4.183   2.675 -0.5761  0.0228  1.8844
 4512TIP3   OH213541   1.695   4.757   1.372 -0.2230  0.6724  0.2530
 4512TIP3    H113542   1.638   4.713   1.436 -0.5337  2.6438  1.4493
 4512TIP3    H213543   1.636   4.816   1.324 -0.3656 -2.0589 -3.2918
 4513TIP3   OH213544   4.022   1.371   0.267  0.4102  0.0596  0.4055
 4513TIP3    H113545   4.037   1.396   0.358 -1.0010  1.0729  0.3938
 4513TIP3    H213546   3.980   1.448   0.228 -0.2179 -0.8485 -0.7639
 4514TIP3   OH213547   0.473   4.542   0.553  0.1767 -0.2818  0.5860
 4514TIP3    H113548   0.555   4.535   0.601 -0.4706 -0.3952  1.7206
 4514TIP3    H213549   0.473   4.468   0.492  0.1409 -1.3229  1.8235
 4515TIP3   OH213550   4.205   1.918   1.410 -0.0404  0.2193  0.3067
 4515TIP3    H113551   4.172   1.915   1.320 -0.6198 -0.6242  0.5355
 4515TIP3    H213552   4.226   2.010   1.425  0.8612  0.2547 -0.9717
 4516TIP3   OH213553   1.555   4.551   5.106  0.3800 -0.5542 -0.8667
 4516TIP3    H113554   1.605   4.562   5.187 -1.3887 -1.9352  0.4884
 4516TIP3    H213555   1.597   4.610   5.044  1.3285  1.1707  1.2787
 4517TIP3   OH213556   0.298   0.855   1.306  0.2303  0.2035 -0.1113
 4517TIP3    H113557   0.303   0.867   1.211  0.5529 -0.9102 -0.2485
 4517TIP3    H213558   0.221   0.800   1.320 -0.1302  0.8044  0.3267
 4518TIP3   OH213559   0.083   0.289   0.487  0.4280 -0.0588  0.3375
 4518TIP3    H113560   0.046   0.209   0.524  0.7237 -0.1865  0.3629
 4518TIP3    H213561   0.169   0.297   0.528  1.1726 -0.7151 -1.0195
 4519TIP3   OH213562   5.938   2.996   2.367 -0.0903 -0.2883 -0.3238
 4519TIP3    H113563   6.025   3.000   2.408 -0.2743 -2.6902  0.4245
 4519TIP3    H213564   5.956   3.014   2.274  1.4487 -1.9697 -0.4150
 4520TIP3   OH213565   4.589   5.043   4.132 -0.3655  0.0971 -0.0206
 4520TIP3    H113566   4.659   5.078   4.076  0.2972  1.9989  1.8122
 4520TIP3    H213567   4.632   5.030   4.217 -1.7261 -0.9748  0.5306
 4521TIP3   OH213568   4.716   2.374   2.273  0.5907  0.0064  0.2323
 4521TIP3    H113569   4.668   2.323   2.338 -0.5113  0.3985 -0.2531
 4521TIP3    H213570   4.663   2.452   2.260  1.9389  1.0122  0.5094
 4522TIP3   OH213571   3.196   5.127   2.482  0.0864  0.6817  0.3096
 4522TIP3    H113572   3.184   5.221   2.472 -1.5381  0.3655 -1.1372
 4522TIP3    H213573   3.263   5.104   2.417  1.0515  0.9163  1.1911
 4523TIP3   OH213574   1.162   0.448   1.783  0.1970 -0.2821 -0.3610
 4523TIP3    H113575   1.087   0.403   1.823 -1.3903  0.7866 -1.9731
 4523TIP3    H213576   1.133   0.538   1.774  1.7661  0.1946 -0.8883
 4524TIP3   OH213577   0.951   5.730   5.189 -0.6835 -0.4343  0.7252
 4524TIP3    H113578   1.004   5.778   5.125 -0.4350  0.8173  1.8351
 4524TIP3    H213579   1.006   5.656   5.215  0.5105  0.7559  1.7349
 4525TIP3   OH213580   2.976   1.606   0.337 -0.1106  0.8080  0.2669
 4525TIP3    H113581   2.966   1.694   0.373  1.6571  1.5689 -0.9494
 4525TIP3    H213582   3.071   1.593   0.333 -0.2921 -0.2056 -1.7981
 4526TIP3   OH213583   2.456   5.897   0.278 -0.2365 -0.0190 -0.4634
 4526TIP3    H113584   2.426   5.934   0.361 -1.4651 -1.3684 -0.2696
 4526TIP3    H213585   2.415   5.952   0.212 -2.1517 -1.0195 -0.1785
 4527TIP3   OH213586   2.509   1.890   0.871 -0.9117  0.1194  0.1340
 4527TIP3    H113587   2.417   1.906   0.854 -1.4934 -1.3829  1.5516
 4527TIP3    H213588   2.539   1.970   0.915 -1.6864  0.3961  0.1793
 4528TIP3   OH213589   1.724   1.380   3.723 -0.2598 -0.7440  0.4818
 4528TIP3    H113590   1.771   1.339   3.795 -0.5896 -1.3415  0.3638
 4528TIP3    H213591   1.788   1.385   3.652  1.1265  2.7987  1.7327
 4529TIP3   OH213592   6.103   5.870   1.605 -0.0247  0.4341  0.3611
 4529TIP3    H113593   6.091   5.837   1.516 -0.8313  2.3181 -0.2576
 4529TIP3    H213594   6.025   5.921   1.623  0.4480  0.6672  1.9091
 4530TIP3   OH213595   5.935   5.306   3.283  0.0010 -0.4098  0.1739
 4530TIP3    H113596   5.949   5.323   3.376 -0.5303 -0.9743  0.3644
 4530TIP3    H213597   5.931   5.211   3.277 -1.2266 -0.3424 -0.2313
 4531TIP3   OH213598   1.019   3.356   4.338 -0.5212 -0.5554  0.0991
 4531TIP3    H113599   1.097   3.410   4.350 -0.3277 -1.0998  1.5464
 4531TIP3    H213600   0.951   3.401   4.389 -0.5258 -1.2988  0.7758
 4532TIP3   OH213601   4.917   3.109   2.599  0.0398  0.4208  0.4776
 4532TIP3    H113602   4.981   3.038   2.609  0.6006  1.1138  2.2682
 4532TIP3    H213603   4.839   3.077   2.643  0.8131  1.4606  2.7639
 4533TIP3   OH213604   2.444   0.340   1.771 -0.1670 -0.1718  0.2862
 4533TIP3    H113605   2.374   0.283   1.802 -2.3211  1.5521 -1.1584
 4533TIP3    H213606   2.415   0.429   1.793  1.9946  0.5614  0.4255
 4534TIP3   OH213607   3.732   2.344   1.189 -0.0469 -0.7384  0.2787
 4534TIP3    H113608   3.731   2.252   1.214  0.8901 -0.5266  1.1716
 4534TIP3    H213609   3.804   2.382   1.239 -0.1708  0.4037 -0.3626
 4535TIP3   OH213610   1.298   0.395   0.028  0.2994  0.2322 -0.5827
 4535TIP3    H113611   1.254   0.310   0.036 -1.3432  0.8763 -2.1288
 4535TIP3    H213612   1.268   0.445   0.104  2.3894 -0.9547  1.1413
 4536TIP3   OH213613   2.867   4.065   4.613 -0.2824 -0.2804  0.0397
 4536TIP3    H113614   2.899   4.052   4.702  0.4701 -0.8852 -0.3052
 4536TIP3    H213615   2.774   4.040   4.616  0.0069 -1.3439  0.4213
 4537TIP3   OH213616   5.065   3.821   0.389 -0.2518  0.1644 -0.1202
 4537TIP3    H113617   5.000   3.761   0.352 -0.6591  1.6435 -1.9778
 4537TIP3    H213618   5.068   3.894   0.327  1.1443  1.4757  1.3919
 4538TIP3   OH213619   5.187   4.050   4.873  0.0333  0.3553 -0.0931
 4538TIP3    H113620   5.110   4.042   4.817  0.4786 -3.3485 -0.4371
 4538TIP3    H213621   5.167   3.994   4.948  2.3298 -0.6748 -0.1884
 4539TIP3   OH213622   0.525   1.970   1.185 -0.1889  0.2561  0.1666
 4539TIP3    H113623   0.588   1.901   1.165 -1.3661 -0.6273 -0.6187
 4539TIP3    H213624   0.489   1.945   1.270 -2.5207 -1.6396 -1.2582
 4540TIP3   OH213625   6.215   1.173   1.265  0.7644 -0.2132 -0.2366
 4540TIP3    H113626   6.309   1.187   1.256  0.4262  1.7972 -1.2630
 4540TIP3    H213627   6.191   1.220   1.345  0.4952  0.1737 -0.5386
 4541TIP3   OH213628   0.112   3.459   2.088 -0.3764 -0.2742 -0.0403
 4541TIP3    H113629   0.111   3.365   2.103  1.5782 -0.4838 -0.9659
 4541TIP3    H213630   0.190   3.490   2.134 -0.3577  0.7192 -0.7001
 4542TIP3   OH213631   2.223   2.285   0.507  0.0091  0.1679  0.4423
 4542TIP3    H113632   2.261   2.249   0.427  1.5980  1.0218  0.7646
 4542TIP3    H213633   2.257   2.230   0.577  1.0439  1.1921  0.7750
 4543TIP3   OH213634   3.004   4.517   3.931  0.6313 -0.2148 -0.0841
 4543TIP3    H113635   3.047   4.485   4.011 -0.7967  0.6673  1.0851
 4543TIP3    H213636   2.913   4.489   3.940  0.3641  0.2300 -1.2333
 4544TIP3   OH213637   1.139   4.529   1.019  0.3714 -0.1051 -0.4167
 4544TIP3    H113638   1.230   4.548   1.040 -0.4407  1.7301  1.8394
 4544TIP3    H213639   1.120   4.449   1.068  0.4525  0.1754  0.0775
 4545TIP3   OH213640   3.270   5.784   4.371 -0.1721  0.1225  0.6616
 4545TIP3    H113641   3.324   5.845   4.321  1.2269 -2.8672 -1.8173
 4545TIP3    H213642   3.324   5.705   4.379 -2.2733 -1.2388  2.7297
 4546TIP3   OH213643   2.354   4.514   1.128 -0.1272  0.3605  0.2172
 4546TIP3    H113644   2.357   4.436   1.073  1.3834  1.2407 -1.0295
 4546TIP3    H213645   2.304   4.487   1.205  0.5841 -1.9167 -0.0444
 4547TIP3   OH213646   0.262   0.497   2.422 -0.2099  0.7673  0.0154
 4547TIP3    H113647   0.214   0.418   2.450 -1.0256  0.7696 -1.2761
 4547TIP3    H213648   0.193   0.559   2.396  0.3208  2.6525  2.7371
 4548TIP3   OH213649   4.175   2.949   3.170 -0.0710  0.0828 -0.2872
 4548TIP3    H113650   4.128   2.900   3.102 -0.9605 -1.0726  1.0931
 4548TIP3    H213651   4.180   3.039   3.137  0.2568 -0.6167 -2.2178
 4549TIP3   OH213652   1.261   0.141   2.057  0.2532 -0.4089  0.6999
 4549TIP3    H113653   1.337   0.193   2.028 -0.3405  0.3348  0.4511
 4549TIP3    H213654   1.282   0.051   2.032  2.3409 -0.7331  3.1284
 4550TIP3   OH213655   4.027   2.917   4.285 -0.4244 -0.0178  0.4657
 4550TIP3    H113656   3.998   2.912   4.376  1.1235 -2.8462  0.9281
 4550TIP3    H213657   4.090   2.989   4.284 -1.2050  0.7095  1.3701
 4551TIP3   OH213658   5.283   1.383   0.214  0.1080  0.4520  0.3470
 4551TIP3    H113659   5.347   1.348   0.276  0.3827  2.1537  1.0691
 4551TIP3    H213660   5.331   1.450   0.165 -0.2374 -0.5287 -1.4341
 4552TIP3   OH213661   0.641   3.447   1.364  0.2865 -0.1018 -0.0893
 4552TIP3    H113662   0.678   3.424   1.449  1.4138 -0.2891 -0.6135
 4552TIP3    H213663   0.675   3.535   1.346  0.4696 -0.2620 -0.5629
 4553TIP3   OH213664   4.212   1.402   3.588 -0.0533 -0.0049 -0.5868
 4553TIP3    H113665   4.229   1.496   3.601 -0.8052 -0.0936  1.4475
 4553TIP3    H213666   4.125   1.399   3.549  1.1609  0.1829 -3.5358
 4554TIP3   OH213667   5.819   0.915   1.672 -0.4153 -0.3516 -0.1127
 4554TIP3    H113668   5.804   1.009   1.670 -1.5895 -0.5200 -0.3428
 4554TIP3    H213669   5.780   0.883   1.590  1.1299 -0.8964 -0.6772
 4555TIP3   OH213670   1.862   1.525   1.530  0.4457  0.4222  0.3165
 4555TIP3    H113671   1.890   1.522   1.622  0.7312 -1.0348  0.2087
 4555TIP3    H213672   1.940   1.553   1.482  0.4803  0.5609  0.4546
 4556TIP3   OH213673   5.947   1.157   0.371 -0.3406 -0.4215 -0.0946
 4556TIP3    H113674   5.972   1.065   0.382 -0.7729 -0.9859 -3.1161
 4556TIP3    H213675   6.023   1.198   0.332 -0.7440  0.1280 -0.3143
 4557TIP3   OH213676   0.368   5.293   1.798 -0.3438 -0.0663 -0.4783
 4557TIP3    H113677   0.382   5.369   1.854 -2.3058  0.7016 -0.9208
 4557TIP3    H213678   0.355   5.220   1.858  0.3195  0.1871 -0.0182
 4558TIP3   OH213679   3.040   5.901   1.552 -0.3903  0.1958 -0.1723
 4558TIP3    H113680   3.062   5.926   1.641 -0.7585 -1.6666  0.4874
 4558TIP3    H213681   2.945   5.911   1.547 -0.4471 -0.3421 -0.1476
 4559TIP3   OH213682   4.400   0.373   0.113  0.4573 -0.3171 -0.4641
 4559TIP3    H113683   4.337   0.381   0.041 -0.1171  1.2059  0.1697
 4559TIP3    H213684   4.366   0.431   0.181  1.4593 -1.0547  0.7061
 4560TIP3   OH213685   0.388   3.599   3.435  0.0975 -0.3204  0.0308
 4560TIP3    H113686   0.431   3.546   3.502  1.3392  0.4827 -0.0828
 4560TIP3    H213687   0.391   3.545   3.356 -1.5365 -1.3460  0.6177
 4561TIP3   OH213688   6.378   0.628   2.368 -0.0404 -0.4347 -0.0840
 4561TIP3    H113689   6.309   0.694   2.371 -1.4921 -1.8841  2.7724
 4561TIP3    H213690   6.344   0.561   2.308  0.8875  0.7180 -2.0067
 4562TIP3   OH213691   3.794   4.332   2.489  0.0303 -0.4684 -0.2116
 4562TIP3    H113692   3.740   4.254   2.493 -1.0473  0.1140 -2.2685
 4562TIP3    H213693   3.733   4.404   2.474  1.2354  0.3957 -1.2373
 4563TIP3   OH213694   5.282   3.755   4.242 -0.5786  0.1553 -0.6321
 4563TIP3    H113695   5.233   3.824   4.196  0.9689  0.1835 -2.3879
 4563TIP3    H213696   5.301   3.690   4.173  0.0355 -0.8671  0.4685
 4564TIP3   OH213697   1.704   0.429   4.112 -0.6525 -0.3163 -0.2907
 4564TIP3    H113698   1.654   0.511   4.115 -1.4464 -0.8127  0.6839
 4564TIP3    H213699   1.655   0.369   4.167  0.3908 -1.1956 -0.2818
 4565TIP3   OH213700   2.414   4.988   4.244  0.4655  0.3894  0.2174
 4565TIP3    H113701   2.413   5.083   4.235  0.6876  0.2401 -2.0357
 4565TIP3    H213702   2.322   4.962   4.232  0.5973  0.2561 -0.5816
 4566TIP3   OH213703   4.070   3.940   3.332 -0.1785 -0.0402 -0.2655
 4566TIP3    H113704   4.159   3.975   3.322  0.1704 -1.3212 -2.3453
 4566TIP3    H213705   4.083   3.846   3.342 -1.2014  0.0418  2.9786
 4567TIP3   OH213706   6.105   1.384   0.451 -0.5274  0.0202 -0.2981
 4567TIP3    H113707   6.012   1.386   0.429 -0.6358 -1.0726  0.0014
 4567TIP3    H213708   6.115   1.449   0.520 -1.5433 -1.4371  1.3069
 4568TIP3   OH213709   5.753   1.878   1.294 -0.3148 -0.0653  0.2672
 4568TIP3    H113710   5.690   1.835   1.352 -1.3883 -2.0504 -2.1879
 4568TIP3    H213711   5.826   1.817   1.287 -0.5854 -0.2686 -1.0716
 4569TIP3   OH213712   5.735   4.103   0.523  0.2566 -0.6343  0.1875
 4569TIP3    H113713   5.717   4.191   0.555  3.8335 -0.6441  2.8085
 4569TIP3    H213714   5.666   4.049   0.563 -1.1365  0.6778 -0.3158
 4570TIP3   OH213715   2.281   3.743   2.600  0.8915 -0.2985  0.3014
 4570TIP3    H113716   2.245   3.782   2.520 -0.1966 -2.6745 -0.4632
 4570TIP3    H213717   2.207   3.696   2.639  1.5527  0.2990  2.4350
 4571TIP3   OH213718   2.608   0.579   2.420 -0.3188 -0.1846 -0.4468
 4571TIP3    H113719   2.670   0.551   2.353 -0.2230 -1.0907  0.0143
 4571TIP3    H213720   2.657   0.642   2.474 -0.1581 -0.0418 -0.7605
 4572TIP3   OH213721   1.293   4.564   0.243 -0.2648  0.4822 -0.0168
 4572TIP3    H113722   1.362   4.533   0.184  0.9333  2.4299  0.2800
 4572TIP3    H213723   1.216   4.572   0.187  0.4816  0.9430 -1.0237
 4573TIP3   OH213724   2.286   0.041   2.112  0.3670 -0.5678  0.1646
 4573TIP3    H113725   2.269   0.101   2.185  0.6215  0.6555 -0.7457
 4573TIP3    H213726   2.342  -0.027   2.149  0.8726  0.2872  1.0100
 4574TIP3   OH213727   1.374   1.661   1.535 -0.3378 -0.4498  0.4271
 4574TIP3    H113728   1.461   1.687   1.566  0.3181 -0.1481 -1.5350
 4574TIP3    H213729   1.363   1.709   1.452 -1.4909 -2.1073 -0.4235
 4575TIP3   OH213730   3.508   2.101   3.039 -0.1655  0.9453  0.2449
 4575TIP3    H113731   3.499   2.014   3.001  0.9697  1.4979 -1.3962
 4575TIP3    H213732   3.445   2.103   3.110 -0.6542 -0.9956 -0.0902
 4576TIP3   OH213733   6.021   4.906   4.689  0.6976 -0.2429  0.3874
 4576TIP3    H113734   6.111   4.877   4.670  1.2883  1.8302 -0.2524
 4576TIP3    H213735   5.996   4.856   4.767  1.9266 -1.7792 -0.1527
 4577TIP3   OH213736   3.776   0.056   4.574  0.3610 -0.3647  0.0943
 4577TIP3    H113737   3.799   0.114   4.502  0.7173 -0.0034  0.4880
 4577TIP3    H213738   3.681   0.056   4.576  0.3008 -1.4790 -1.2491
 4578TIP3   OH213739   5.361   4.475   1.482 -0.0904 -0.2192  0.2331
 4578TIP3    H113740   5.408   4.557   1.468 -0.6270  0.2618  1.1449
 4578TIP3    H213741   5.293   4.474   1.415 -0.7537  0.6172  0.8587
 4579TIP3   OH213742   2.006   3.263   4.246  0.0124  0.4739 -0.0642
 4579TIP3    H113743   1.919   3.251   4.283  0.9599 -0.8801  1.8737
 4579TIP3    H213744   2.055   3.185   4.273  1.6219  0.8221 -1.7594
 4580TIP3   OH213745   4.396   3.005   0.154 -0.2353  0.0507  0.4410
 4580TIP3    H113746   4.372   3.026   0.063  0.1487 -1.8510 -0.1426
 4580TIP3    H213747   4.320   2.960   0.189 -0.2154  0.3938  0.9300
 4581TIP3   OH213748   3.888   3.856   0.646  0.2432  0.5419 -0.2606
 4581TIP3    H113749   3.806   3.892   0.680 -2.3528 -2.3738 -2.7837
 4581TIP3    H213750   3.904   3.904   0.565  0.0327 -0.0510 -0.6589
 4582TIP3   OH213751   3.983   4.503   1.862 -0.0079 -0.3009  0.3826
 4582TIP3    H113752   3.898   4.477   1.826  0.3752  0.7993 -1.4390
 4582TIP3    H213753   4.046   4.486   1.791  1.4086 -1.5026  1.8295
 4583TIP3   OH213754   0.346   5.112   1.985 -0.0807 -0.5530  0.0814
 4583TIP3    H113755   0.269   5.063   2.014 -1.7633  1.5984 -0.4729
 4583TIP3    H213756   0.373   5.162   2.061 -2.0265  2.0237 -0.7801
 4584TIP3   OH213757   5.814   3.413   2.452  0.1242  0.1241 -0.2353
 4584TIP3    H113758   5.847   3.440   2.538 -0.3866 -1.3322  0.4623
 4584TIP3    H213759   5.890   3.375   2.408  0.0014 -0.7893  0.3129
 4585TIP3   OH213760   1.186   2.077   2.867 -0.1198  0.1195 -0.5829
 4585TIP3    H113761   1.095   2.048   2.869 -0.5007  1.3000 -0.2738
 4585TIP3    H213762   1.182   2.171   2.883  1.1595  0.1844 -0.5427
 4586TIP3   OH213763   0.369   0.901   1.044  0.2014  0.7675  0.1827
 4586TIP3    H113764   0.359   0.840   0.971 -0.7006  1.1577 -0.0298
 4586TIP3    H213765   0.464   0.905   1.059  0.4721  1.1952 -1.4053
 4587TIP3   OH213766   2.927   0.279   0.159 -0.1843  0.2220 -0.8645
 4587TIP3    H113767   2.913   0.272   0.064  0.6238 -0.7427 -0.9321
 4587TIP3    H213768   2.951   0.190   0.185  0.7034  0.7191  0.0634
 4588TIP3   OH213769   1.939   3.508   4.135  0.7659  0.3676  0.7443
 4588TIP3    H113770   1.848   3.494   4.106  0.9832 -2.0791  1.0068
 4588TIP3    H213771   1.955   3.437   4.197  2.5947  1.2984  1.3960
 4589TIP3   OH213772   2.579   3.171   4.794  0.0599  0.1993 -0.5607
 4589TIP3    H113773   2.618   3.120   4.723  0.4418 -0.0462 -0.1749
 4589TIP3    H213774   2.652   3.191   4.853 -0.4278 -0.5183  0.3233
 4590TIP3   OH213775   0.138   1.420   2.369 -0.2533 -0.3145  0.1228
 4590TIP3    H113776   0.145   1.443   2.277  0.6220 -1.0072 -0.0055
 4590TIP3    H213777   0.099   1.497   2.411 -0.4809  0.0747 -0.7931
 4591TIP3   OH213778   0.972   4.787   3.163 -0.1581  0.1567 -0.6729
 4591TIP3    H113779   0.888   4.799   3.206 -0.2971 -0.7709 -0.6712
 4591TIP3    H213780   1.025   4.737   3.225 -0.6113 -1.8715 -1.8050
 4592TIP3   OH213781   1.081   5.917   0.029  0.2289 -0.2627  0.3525
 4592TIP3    H113782   1.136   5.953   0.099 -0.6986  0.7982  0.5722
 4592TIP3    H213783   1.064   5.992  -0.029 -0.1373 -0.8081 -0.2540
 4593TIP3   OH213784   4.333   4.666   3.166  0.0782 -0.0271 -0.2063
 4593TIP3    H113785   4.313   4.576   3.142 -1.1489  0.1915 -0.0547
 4593TIP3    H213786   4.310   4.673   3.258  0.6965  0.2971 -0.0705
 4594TIP3   OH213787   0.633   2.505   3.030 -0.0660  0.0730  0.4111
 4594TIP3    H113788   0.662   2.590   2.998 -0.9833 -0.1351 -1.1090
 4594TIP3    H213789   0.695   2.482   3.099  0.1266  2.0013  0.9210
 4595TIP3   OH213790   0.436   2.527   4.572 -0.0563 -0.7523  0.3551
 4595TIP3    H113791   0.372   2.528   4.501  0.0877 -1.1367  0.2171
 4595TIP3    H213792   0.495   2.454   4.551 -0.5604 -1.4748  1.3583
 4596TIP3   OH213793   1.954   0.127   4.822 -0.1069  0.0980 -0.1858
 4596TIP3    H113794   1.922   0.150   4.909  1.5656  0.0959  0.4705
 4596TIP3    H213795   1.917   0.041   4.804  1.0761 -0.7889  1.4062
 4597TIP3   OH213796   4.295   0.528   4.379  0.1027  0.6715 -0.4266
 4597TIP3    H113797   4.242   0.511   4.302  0.4065 -0.2880 -0.4382
 4597TIP3    H213798   4.381   0.553   4.344  0.0156  1.0064 -0.4027
 4598TIP3   OH213799   1.534   1.810   4.917  0.6423  0.3103  0.7378
 4598TIP3    H113800   1.555   1.749   4.988  0.1870  1.3554  1.8169
 4598TIP3    H213801   1.488   1.882   4.961 -0.8258  0.3753 -0.8164
 4599TIP3   OH213802   3.254   1.664   4.714  0.0504  0.3550  0.2472
 4599TIP3    H113803   3.283   1.753   4.735 -0.7446  0.1345  2.5587
 4599TIP3    H213804   3.215   1.671   4.627 -0.6482  2.4629  0.6679
 4600TIP3   OH213805   0.016   4.901   3.756 -0.1678 -0.3913 -0.1869
 4600TIP3    H113806   0.039   4.813   3.726  2.5046 -0.2871  1.2508
 4600TIP3    H213807   0.086   4.924   3.817 -0.3455  3.0574 -1.0986
 4601TIP3   OH213808   4.468   4.059   4.928 -0.4583 -0.4089  0.1177
 4601TIP3    H113809   4.431   4.018   5.007 -1.7434  2.8388  1.3600
 4601TIP3    H213810   4.393   4.071   4.870  0.0809 -0.7246 -0.6565
 4602TIP3   OH213811   4.885   2.997   2.091  0.4750  0.5457 -0.1891
 4602TIP3    H113812   4.878   3.031   2.180 -0.7938  1.3409 -0.5640
 4602TIP3    H213813   4.943   2.921   2.098  2.3100  1.9878  0.8905
 4603TIP3   OH213814   5.635   4.913   1.107 -0.2752  0.1820 -0.1921
 4603TIP3    H113815   5.721   4.914   1.150 -0.8577  1.9409  1.0011
 4603TIP3    H213816   5.620   4.820   1.088  1.9306 -0.1747 -0.5639
 4604TIP3   OH213817   3.431   1.841   4.204  0.1830  0.2283  0.1158
 4604TIP3    H113818   3.461   1.771   4.262  1.4810  0.3839 -0.3319
 4604TIP3    H213819   3.342   1.860   4.233  1.3981  1.6915  3.4272
 4605TIP3   OH213820   0.408   2.481   2.876 -0.2072  0.2824 -0.8273
 4605TIP3    H113821   0.474   2.501   2.942  0.0046  0.0342 -0.9661
 4605TIP3    H213822   0.350   2.558   2.877 -0.6745 -0.0746  0.2158
 4606TIP3   OH213823   2.904   3.086   0.286  0.3635  0.1996 -0.2012
 4606TIP3    H113824   2.852   3.024   0.338  2.7605 -3.3670 -1.6440
 4606TIP3    H213825   2.886   3.171   0.326 -2.5040 -1.4561  2.5744
 4607TIP3   OH213826   5.172   1.299   1.816  0.1351  0.0957 -0.6902
 4607TIP3    H113827   5.200   1.208   1.817 -0.7107 -0.2089 -2.0614
 4607TIP3    H213828   5.119   1.309   1.895 -1.2018 -1.1042 -1.3944
 4608TIP3   OH213829   6.176   4.464   0.023 -0.0970  0.4177 -0.2902
 4608TIP3    H113830   6.200   4.375   0.046 -1.9988 -0.1179 -0.1686
 4608TIP3    H213831   6.196   4.517   0.100  0.9165  0.0814 -0.3193
 4609TIP3   OH213832   6.284   0.144   1.348 -0.1687  0.6631  0.8195
 4609TIP3    H113833   6.259   0.083   1.417  2.7682 -0.7861  0.7691
 4609TIP3    H213834   6.323   0.217   1.395  1.3166 -0.0676  0.7729
 4610TIP3   OH213835   2.373   2.663   5.006 -0.3605  0.0655 -0.0257
 4610TIP3    H113836   2.409   2.622   5.084 -0.2692 -1.8621 -1.0311
 4610TIP3    H213837   2.392   2.756   5.017  1.1098 -0.3722  1.4720
 4611TIP3   OH213838   1.964   3.115   1.856  0.4153 -0.6020  0.1482
 4611TIP3    H113839   2.018   3.123   1.777  0.3524 -2.4289 -0.1099
 4611TIP3    H213840   1.987   3.030   1.893 -1.4431 -0.9380  0.6554
 4612TIP3   OH213841   4.796   2.405   4.319  0.1786 -0.5522 -0.2660
 4612TIP3    H113842   4.857   2.460   4.370  1.8889  3.2832 -5.5281
 4612TIP3    H213843   4.716   2.458   4.313 -0.2503 -1.2573 -0.8672
 4613TIP3   OH213844   1.274   3.300   2.081  0.1187  0.4739  0.4827
 4613TIP3    H113845   1.363   3.332   2.071  0.0844  0.3728 -0.2025
 4613TIP3    H213846   1.219   3.379   2.077  0.1218  0.4568  0.0521
 4614TIP3   OH213847   4.449   5.241   2.814  0.1172  0.2693 -0.9305
 4614TIP3    H113848   4.424   5.152   2.791 -0.6488 -0.3438  1.8886
 4614TIP3    H213849   4.528   5.258   2.764  0.2888 -2.0008 -1.5308
 4615TIP3   OH213850   2.058   4.866   2.157 -0.4181 -0.0647  0.4047
 4615TIP3    H113851   2.023   4.906   2.077 -3.2537 -0.1597  1.4781
 4615TIP3    H213852   2.106   4.789   2.127  0.2268  0.9417 -1.2985
 4616TIP3   OH213853   4.577   4.320   1.522 -0.0891  0.2902  0.2754
 4616TIP3    H113854   4.485   4.306   1.547 -0.9531  2.2063 -1.4918
 4616TIP3    H213855   4.621   4.239   1.549 -2.5844 -1.3756 -0.1743
 4617TIP3   OH213856   0.845   5.983   0.190  0.1469 -0.3760 -0.3847
 4617TIP3    H113857   0.828   5.903   0.239 -2.1111  0.6476  0.6289
 4617TIP3    H213858   0.930   5.968   0.147  0.7727 -2.4483  1.4438
 4618TIP3   OH213859   2.184   2.841   3.327  0.3554 -0.0499  0.5466
 4618TIP3    H113860   2.152   2.784   3.257 -1.4438  1.7231 -0.1740
 4618TIP3    H213861   2.256   2.890   3.288  0.5011 -0.3101  0.4909
 4619TIP3   OH213862   2.329   0.286   4.795  0.2775  0.3818 -0.3958
 4619TIP3    H113863   2.400   0.341   4.763  0.5522  0.5903  0.5348
 4619TIP3    H213864   2.272   0.346   4.843 -0.3672  0.1619 -0.8772
 4620TIP3   OH213865   4.561   0.322   1.017  0.4909  0.0709  0.2997
 4620TIP3    H113866   4.629   0.380   1.051  0.0842 -0.8524  2.9656
 4620TIP3    H213867   4.608   0.241   0.995  0.8553  0.8729 -2.1768
 4621TIP3   OH213868   2.984   3.016   1.128  0.0182  0.3318  0.2884
 4621TIP3    H113869   3.072   3.054   1.133  0.0695  0.1204  1.0427
 4621TIP3    H213870   2.979   2.979   1.040  0.8346 -0.0137  0.3785
 4622TIP3   OH213871   0.732   5.649   2.949 -0.5649  0.0576  0.1441
 4622TIP3    H113872   0.769   5.563   2.969 -3.3229 -1.3614 -0.3433
 4622TIP3    H213873   0.807   5.702   2.921  1.3024 -1.9825  1.0490
 4623TIP3   OH213874   2.506   4.127   1.221  0.5143  0.4262  0.1162
 4623TIP3    H113875   2.580   4.081   1.182 -0.2045 -1.2197  0.6049
 4623TIP3    H213876   2.488   4.080   1.303 -1.1195  0.6979 -0.0376
 4624TIP3   OH213877   5.429   1.865   0.519  0.6129 -0.0392  0.2461
 4624TIP3    H113878   5.515   1.841   0.554  0.1773 -0.7189  0.8882
 4624TIP3    H213879   5.406   1.947   0.563  0.7750 -0.0462  0.3415
 4625TIP3   OH213880   1.235   1.600   1.225 -0.1844  0.4021  0.2170
 4625TIP3    H113881   1.307   1.556   1.270 -1.0971 -0.1767  1.1708
 4625TIP3    H213882   1.260   1.599   1.132  1.4815  1.1277  0.6253
 4626TIP3   OH213883   2.371   1.923   4.216 -0.1761  0.4549 -0.0200
 4626TIP3    H113884   2.365   2.003   4.164  2.8184  1.0182  0.3444
 4626TIP3    H213885   2.435   1.868   4.169 -0.1665 -0.5793  1.1515
 4627TIP3   OH213886   3.093   5.520   0.890  0.1576 -0.5407 -0.2403
 4627TIP3    H113887   3.113   5.497   0.800 -1.4011 -0.9307 -0.5037
 4627TIP3    H213888   3.058   5.609   0.886  1.6698  0.1273  0.2210
 4628TIP3   OH213889   2.984   5.605   2.566 -0.5077 -0.1526 -0.2257
 4628TIP3    H113890   2.984   5.676   2.502 -1.6418  0.6489  0.6340
 4628TIP3    H213891   3.041   5.635   2.636  1.4257 -1.3909 -1.1888
 4629TIP3   OH213892   4.166   0.678   3.858 -0.0971  0.4688  0.3624
 4629TIP3    H113893   4.211   0.619   3.798 -0.7838 -0.5048  0.7844
 4629TIP3    H213894   4.082   0.694   3.817 -0.8406 -0.7386  1.3491
 4630TIP3   OH213895   5.300   4.968   3.451 -0.2046  0.6965 -0.5807
 4630TIP3    H113896   5.359   4.976   3.376  1.3147  0.6707  0.5509
 4630TIP3    H213897   5.276   4.876   3.454 -2.1487  1.0693 -2.3319
 4631TIP3   OH213898   3.054   3.331   3.553  0.2775  0.4747  0.4549
 4631TIP3    H113899   2.967   3.302   3.582  1.1471 -0.3531  2.3451
 4631TIP3    H213900   3.086   3.260   3.497 -0.4996  1.0833 -0.8098
 4632TIP3   OH213901   5.456   0.838   5.051 -0.4579 -0.3059 -0.1802
 4632TIP3    H113902   5.433   0.786   4.975  0.2850 -1.4336  0.3472
 4632TIP3    H213903   5.373   0.856   5.094 -0.8923  0.4049 -1.2733
 4633TIP3   OH213904   0.740   5.352   2.151  0.1964  0.1513 -0.5088
 4633TIP3    H113905   0.813   5.357   2.212 -1.1341  1.5999  1.0788
 4633TIP3    H213906   0.763   5.412   2.081  1.1922 -0.5813 -0.8294
 4634TIP3   OH213907   3.869   4.466   3.644 -0.0002 -0.2705  0.3371
 4634TIP3    H113908   3.819   4.492   3.721  0.2503  0.0038  0.4047
 4634TIP3    H213909   3.806   4.472   3.572 -0.2371 -0.5391  0.5162
 4635TIP3   OH213910   0.322   1.025   2.493 -0.1281 -0.3727 -0.2671
 4635TIP3    H113911   0.351   0.938   2.522  0.0020 -0.5264 -0.8322
 4635TIP3    H213912   0.363   1.036   2.407  3.5965  2.1032  1.5459
 4636TIP3   OH213913   0.791   4.083   0.292 -0.1948  0.5692 -0.1895
 4636TIP3    H113914   0.824   4.060   0.378  1.8996 -1.0333 -1.3309
 4636TIP3    H213915   0.813   4.176   0.282  0.3772  0.5331  0.6390
 4637TIP3   OH213916   3.682   1.829   4.676  0.0306 -0.3543  0.4343
 4637TIP3    H113917   3.738   1.864   4.745 -0.2420  0.3275  0.3182
 4637TIP3    H213918   3.714   1.740   4.661 -0.7414 -0.9902  2.3390
 4638TIP3   OH213919   5.510   2.065   4.609  0.6276  0.0737  0.2051
 4638TIP3    H113920   5.472   2.098   4.527  0.7247 -0.7033 -0.1633
 4638TIP3    H213921   5.569   1.995   4.581  1.2848  0.3507  0.8838
 4639TIP3   OH213922   0.101   1.459   4.502  0.2177 -0.2915  0.1640
 4639TIP3    H113923   0.119   1.524   4.570  0.1387  0.3071 -0.3730
 4639TIP3    H213924   0.036   1.400   4.541  0.0593  0.1382  0.5553
 4640TIP3   OH213925   2.717   3.905   5.177  0.0841 -0.0275  0.7133
 4640TIP3    H113926   2.670   3.911   5.093 -0.6249  0.9380  1.1525
 4640TIP3    H213927   2.750   3.815   5.179  0.6364  0.1025 -0.8666
 4641TIP3   OH213928   2.227   0.573   1.901  0.0509 -0.8356 -0.7261
 4641TIP3    H113929   2.164   0.638   1.932 -0.8871 -2.3930  0.8346
 4641TIP3    H213930   2.243   0.518   1.977 -0.1405 -3.1653 -2.2860
 4642TIP3   OH213931   0.102   3.828   1.128  0.4252  0.4872  0.3909
 4642TIP3    H113932   0.148   3.864   1.052  2.2666  0.7899  1.5829
 4642TIP3    H213933   0.081   3.904   1.182  1.3804  0.1165  1.3409
 4643TIP3   OH213934   4.652   3.573   1.429  0.1385 -0.7368  0.5656
 4643TIP3    H113935   4.724   3.624   1.466  1.3208  0.7334 -3.1997
 4643TIP3    H213936   4.574   3.606   1.473  1.1769  2.3638  0.3253
 4644TIP3   OH213937   4.639   2.385   4.770 -0.0554  0.0718  0.4168
 4644TIP3    H113938   4.714   2.359   4.823 -0.2734 -2.0386 -0.1948
 4644TIP3    H213939   4.666   2.466   4.728  0.9953  0.5519  1.9376
 4645TIP3   OH213940   5.396   0.483   2.488  0.1023 -0.0848  0.1033
 4645TIP3    H113941   5.345   0.443   2.559  2.3475 -0.0413  1.8413
 4645TIP3    H213942   5.439   0.558   2.528  1.0039  0.2970 -1.4760
 4646TIP3   OH213943   1.771   2.028   5.156 -0.0882 -0.8305  0.1022
 4646TIP3    H113944   1.792   1.935   5.161  0.3423 -0.6994  0.9183
 4646TIP3    H213945   1.824   2.061   5.083 -0.4412 -1.2653 -0.3614
 4647TIP3   OH213946   6.191   2.522   1.747 -0.2419  0.0472 -0.0059
 4647TIP3    H113947   6.270   2.491   1.702  0.0415  1.1503 -0.3008
 4647TIP3    H213948   6.222   2.549   1.834 -0.4992 -0.5363  0.2756
 4648TIP3   OH213949   3.079   5.534   3.089  0.0426  0.4071  0.0000
 4648TIP3    H113950   3.060   5.445   3.118  0.7785 -0.0982 -1.0506
 4648TIP3    H213951   3.159   5.528   3.038 -0.8677  1.3492 -1.6632
 4649TIP3   OH213952   5.238   2.446   1.673 -0.3604 -0.3180  0.0930
 4649TIP3    H113953   5.317   2.394   1.658 -0.8285 -1.2648  0.8339
 4649TIP3    H213954   5.174   2.412   1.612  0.2427  1.5797 -1.7313
 4650TIP3   OH213955   1.575   5.229   3.413 -0.2166 -0.1939 -0.4290
 4650TIP3    H113956   1.486   5.226   3.448 -0.6217  0.9213 -1.2973
 4650TIP3    H213957   1.589   5.141   3.376 -0.8498 -0.4648 -0.0373
 4651TIP3   OH213958   5.114   1.558   5.100  0.2896 -0.2115 -0.2634
 4651TIP3    H113959   5.187   1.552   5.037 -0.3528  0.4828 -1.1116
 4651TIP3    H213960   5.149   1.610   5.172  0.7657 -0.2278 -0.4776
 4652TIP3   OH213961   3.758   2.145   1.735  1.4286 -0.4738 -0.3022
 4652TIP3    H113962   3.734   2.230   1.772  1.9202  0.2573 -1.6092
 4652TIP3    H213963   3.828   2.113   1.793  2.1623  0.6258 -0.5593
 4653TIP3   OH213964   2.749   2.574   3.035 -0.4548 -0.1702 -0.1220
 4653TIP3    H113965   2.727   2.628   3.111  0.0906  1.1740 -0.8927
 4653TIP3    H213966   2.788   2.635   2.972 -1.1191 -1.2064 -1.5875
 4654TIP3   OH213967   4.166   1.915   1.146  0.3731  0.4569  0.5787
 4654TIP3    H113968   4.247   1.895   1.099  0.3914  0.2875  0.6801
 4654TIP3    H213969   4.096   1.902   1.081  0.4833  1.4383  0.2474
 4655TIP3   OH213970   0.494   2.280   4.465  0.2475  0.1122  0.2310
 4655TIP3    H113971   0.533   2.279   4.377  1.0122  1.2725  0.5284
 4655TIP3    H213972   0.564   2.251   4.523  0.1768  0.6372  0.5926
 4656TIP3   OH213973   1.435   5.925   4.702 -0.3999 -0.7020 -0.3486
 4656TIP3    H113974   1.489   5.848   4.720 -0.7051 -0.9334 -0.4151
 4656TIP3    H213975   1.370   5.926   4.773  1.3877  1.1887  1.4441
 4657TIP3   OH213976   3.694   1.988   0.076 -0.0256 -0.1345  0.2155
 4657TIP3    H113977   3.730   1.989  -0.013 -0.7231 -1.7152 -0.1217
 4657TIP3    H213978   3.635   1.913   0.077  0.9840 -0.9817  2.4207
 4658TIP3   OH213979   3.334   1.615   2.896  0.1517 -0.0115 -0.0373
 4658TIP3    H113980   3.269   1.563   2.943 -0.0720 -0.2421 -0.5920
 4658TIP3    H213981   3.291   1.637   2.813  1.2107 -1.1715 -0.9161
 4659TIP3   OH213982   3.137   2.413   4.445 -0.4185 -0.4186  0.4420
 4659TIP3    H113983   3.060   2.365   4.413  0.6700 -1.8122 -0.2165
 4659TIP3    H213984   3.104   2.502   4.461 -1.8259 -0.5378 -1.3292
 4660TIP3   OH213985   6.298   5.413   1.818 -0.1894  0.2212 -0.0508
 4660TIP3    H113986   6.262   5.452   1.898  3.3149  3.4084  0.2227
 4660TIP3    H213987   6.271   5.473   1.748  0.5246 -0.0400 -0.5607
 4661TIP3   OH213988   3.702   3.530   3.516 -0.1007  0.3796 -0.4872
 4661TIP3    H113989   3.682   3.570   3.600 -0.3460 -0.4522 -0.1410
 4661TIP3    H213990   3.634   3.465   3.503  0.4238 -0.0975 -0.9288
 4662TIP3   OH213991   0.805   5.819   2.350 -0.7125 -0.1718  0.3197
 4662TIP3    H113992   0.818   5.813   2.255 -2.2533 -1.5476  0.1602
 4662TIP3    H213993   0.810   5.913   2.369  1.5762  0.0108 -0.7796
 4663TIP3   OH213994   5.841   1.524   4.715 -0.6003 -0.4201 -0.0388
 4663TIP3    H113995   5.896   1.522   4.637  0.6956 -2.5151  0.8474
 4663TIP3    H213996   5.897   1.560   4.784 -1.1874 -0.1647  0.3139
 4664TIP3   OH213997   5.120   3.429   1.858  0.2925  0.1895  0.5631
 4664TIP3    H113998   5.142   3.364   1.925 -1.2847  0.5593  1.5026
 4664TIP3    H213999   5.117   3.380   1.777 -1.8559 -1.1813  1.3992
 4665TIP3   OH214000   0.315   3.119   4.095 -0.2992  0.6240 -0.2206
 4665TIP3    H114001   0.261   3.146   4.170 -0.8375 -1.0692  0.0387
 4665TIP3    H214002   0.287   3.177   4.024 -0.5188  1.5655  0.6088
 4666TIP3   OH214003   3.200   1.561   3.319  0.2831 -0.1363  0.6723
 4666TIP3    H114004   3.258   1.619   3.271 -0.3373  3.3595  3.6955
 4666TIP3    H214005   3.257   1.491   3.352  1.7276  0.4868 -0.4099
 4667TIP3   OH214006   3.775   4.830   2.511 -0.0596 -0.3315 -0.2598
 4667TIP3    H114007   3.787   4.913   2.463  1.2711 -0.6617 -0.5461
 4667TIP3    H214008   3.750   4.767   2.443 -2.4905  0.0914  0.1609
 4668TIP3   OH214009   3.560   3.386   0.275  0.4172  0.5896 -0.5040
 4668TIP3    H114010   3.522   3.473   0.258 -1.3157 -0.1412 -0.5574
 4668TIP3    H214011   3.536   3.334   0.198  2.6581  0.4016 -1.1387
 4669TIP3   OH214012   0.350   1.378   3.843  0.4336 -0.2953  0.0911
 4669TIP3    H114013   0.339   1.293   3.801  1.1109 -0.7036  0.7123
 4669TIP3    H214014   0.392   1.432   3.776 -1.4597  0.0696 -0.8778
 4670TIP3   OH214015   0.472   3.942   4.154 -0.3995 -0.5292 -0.0451
 4670TIP3    H114016   0.477   3.956   4.059 -0.5919  0.5279  0.0903
 4670TIP3    H214017   0.562   3.943   4.184 -0.3906  0.2585 -0.0751
 4671TIP3   OH214018   0.912   5.813   3.567 -0.0989  0.2569 -0.0417
 4671TIP3    H114019   0.821   5.834   3.547 -0.4403 -0.1529  1.0281
 4671TIP3    H214020   0.942   5.885   3.623 -0.5268 -0.7908  1.6053
 4672TIP3   OH214021   4.553   1.521   1.991  0.1987  0.1932  0.4897
 4672TIP3    H114022   4.556   1.446   1.933  0.2552  1.8650 -1.8150
 4672TIP3    H214023   4.478   1.572   1.962 -0.4526  0.5772  2.6531
 4673TIP3   OH214024   1.589   4.434   1.474  0.0665 -0.1372 -0.4932
 4673TIP3    H114025   1.652   4.417   1.544 -1.3255 -1.0823  0.5828
 4673TIP3    H214026   1.545   4.514   1.500  0.9956  0.7014 -1.4081
 4674TIP3   OH214027   2.614   2.892   3.644 -0.2072  0.3058 -0.2606
 4674TIP3    H114028   2.602   2.828   3.574 -1.1881  0.1784  0.0156
 4674TIP3    H214029   2.614   2.977   3.599 -0.6132  0.2124 -0.4432
 4675TIP3   OH214030   4.764   3.794   2.306  0.1934  0.7125  0.1492
 4675TIP3    H114031   4.736   3.703   2.300 -0.1211  0.8381 -0.3042
 4675TIP3    H214032   4.763   3.826   2.216 -1.7979  1.8000  0.5139
 4676TIP3   OH214033   4.310   1.402   1.831 -0.3975  1.0015  0.0181
 4676TIP3    H114034   4.232   1.444   1.868 -3.3702 -0.5719 -3.7179
 4676TIP3    H214035   4.330   1.455   1.753 -0.5595 -1.0413 -1.4909
 4677TIP3   OH214036   5.580   2.742   2.518  0.6950 -0.4234 -0.9535
 4677TIP3    H114037   5.490   2.775   2.519 -0.5180 -3.3459  1.0965
 4677TIP3    H214038   5.617   2.777   2.437 -2.4091  0.5568 -2.1284
 4678TIP3   OH214039   3.821   0.297   4.912  0.4408 -0.3523 -0.1704
 4678TIP3    H114040   3.822   0.379   4.864  0.3345 -0.7200 -0.8096
 4678TIP3    H214041   3.860   0.318   4.997 -2.1268  1.0187  0.7705
 4679TIP3   OH214042   5.186   1.565   2.302  0.0069 -0.3147  0.5339
 4679TIP3    H114043   5.263   1.607   2.265  0.0883 -1.1708 -0.2996
 4679TIP3    H214044   5.116   1.630   2.295  0.1566 -0.2627 -0.6170
 4680TIP3   OH214045   6.363   1.298   0.915 -0.0910  0.1690  0.0068
 4680TIP3    H114046   6.306   1.234   0.958  0.4880 -0.8825 -0.7531
 4680TIP3    H214047   6.378   1.262   0.828  1.7538  0.4074  0.1889
 4681TIP3   OH214048   4.959   4.401   4.500 -0.1908 -0.0438  0.2064
 4681TIP3    H114049   4.960   4.397   4.596  0.3703  2.4963  0.3834
 4681TIP3    H214050   5.008   4.480   4.479 -0.8446 -0.1960 -2.1705
 4682TIP3   OH214051   4.831   3.726   1.274 -0.2660 -0.0727  0.1877
 4682TIP3    H114052   4.814   3.632   1.265  0.7361 -0.1063 -1.7602
 4682TIP3    H214053   4.750   3.767   1.244 -0.3211 -0.3025  0.0168
 4683TIP3   OH214054   5.055   2.466   4.993  0.5352  0.4643  0.9838
 4683TIP3    H114055   5.048   2.488   5.086  0.4455  2.3655  0.5707
 4683TIP3    H214056   4.975   2.417   4.974 -0.6802  2.1889  1.3965
 4684TIP3   OH214057   3.544   2.821   3.016 -0.5159  0.2405  0.1461
 4684TIP3    H114058   3.462   2.869   3.002 -1.0665 -0.3746  1.1211
 4684TIP3    H214059   3.597   2.879   3.070 -0.4632  0.4676 -0.1434
 4685TIP3   OH214060   0.062   3.288   2.870 -0.2190  0.4359 -0.1857
 4685TIP3    H114061   0.121   3.241   2.811 -1.3328  0.4532 -1.3566
 4685TIP3    H214062   0.093   3.267   2.958  0.8388 -0.4371 -0.7549
 4686TIP3   OH214063   3.927   1.810   1.772  0.4909 -0.3276 -0.3907
 4686TIP3    H114064   3.997   1.825   1.835  0.6034 -0.4192 -0.4927
 4686TIP3    H214065   3.884   1.730   1.801  1.3744 -1.1068 -1.1666
 4687TIP3   OH214066   2.830   3.604   1.748 -0.0318 -0.5268 -0.3696
 4687TIP3    H114067   2.812   3.666   1.819 -0.3470  0.7405 -1.5223
 4687TIP3    H214068   2.781   3.525   1.772 -1.0189  0.2600  0.2776
 4688TIP3   OH214069   1.690   1.224   3.971  0.5233  0.3440  0.1034
 4688TIP3    H114070   1.681   1.154   3.907  0.2478  1.5506 -1.2295
 4688TIP3    H214071   1.735   1.184   4.045  0.2597 -1.2556 -0.5710
 4689TIP3   OH214072   0.508   5.010   4.859  0.0420  0.1161 -0.0546
 4689TIP3    H114073   0.498   4.936   4.799  0.6872  0.3287 -0.4396
 4689TIP3    H214074   0.422   5.020   4.900 -0.4159 -0.0223 -0.9552
 4690TIP3   OH214075   0.745   2.968   4.555  0.2597  0.1566  0.2169
 4690TIP3    H114076   0.831   2.943   4.521  0.4418  1.7136 -0.5435
 4690TIP3    H214077   0.685   2.950   4.484 -0.3187 -2.2120  1.2022
 4691TIP3   OH214078   1.005   2.777   3.987  0.7936 -0.2241  0.0202
 4691TIP3    H114079   0.975   2.686   3.977  0.1657  0.1473 -2.1241
 4691TIP3    H214080   0.951   2.826   3.925  1.7993  1.4550  0.4207
 4692TIP3   OH214081   2.250   2.543   2.932 -0.3431 -0.5580  0.3374
 4692TIP3    H114082   2.248   2.504   2.845 -0.7339 -1.0396  0.5590
 4692TIP3    H214083   2.209   2.478   2.989 -0.9776  0.1540  0.7129
 4693TIP3   OH214084   2.788   5.247   0.276 -0.5228 -0.1324  0.3733
 4693TIP3    H114085   2.726   5.319   0.264  1.7776  1.9326  0.0372
 4693TIP3    H214086   2.787   5.231   0.371 -1.6384 -0.2246  0.3577
 4694TIP3   OH214087   3.804   2.553   2.042  0.3353 -0.5895 -0.0315
 4694TIP3    H114088   3.738   2.552   1.972  0.3474 -1.8341 -0.0614
 4694TIP3    H214089   3.788   2.634   2.090  1.0240  0.8452 -2.1073
 4695TIP3   OH214090   4.395   4.681   1.261 -0.3792  0.2175  0.4423
 4695TIP3    H114091   4.437   4.679   1.347  1.4219 -0.9656 -0.3821
 4695TIP3    H214092   4.383   4.588   1.238 -0.9959  0.5089 -0.5032
 4696TIP3   OH214093   0.657   1.184   2.569 -0.0904  0.1686  0.3301
 4696TIP3    H114094   0.566   1.188   2.599 -0.3042  0.1241 -0.3144
 4696TIP3    H214095   0.655   1.215   2.479  0.6725  1.0205  0.5927
 4697TIP3   OH214096   4.916   5.885   1.671 -0.1974 -0.3902  0.1582
 4697TIP3    H114097   4.981   5.946   1.706  0.9095 -1.0885 -0.5991
 4697TIP3    H214098   4.839   5.939   1.653  0.8558  0.8685 -0.7885
 4698TIP3   OH214099   3.792   3.754   3.355  0.0051  0.1103  0.4070
 4698TIP3    H114100   3.705   3.793   3.368  0.8108  1.7409  1.1855
 4698TIP3    H214101   3.777   3.660   3.368 -1.7554  0.2596 -0.1643
 4699TIP3   OH214102   1.047   3.251   3.160 -0.3163  0.8094  0.4484
 4699TIP3    H114103   1.044   3.163   3.196  3.4190  0.7622  1.0286
 4699TIP3    H214104   1.134   3.259   3.122 -2.0636  2.7159 -3.9171
 4700TIP3   OH214105   0.403   0.729   2.118 -0.2261  0.0077  0.0199
 4700TIP3    H114106   0.437   0.651   2.074  1.5544  1.3335 -1.1439
 4700TIP3    H214107   0.411   0.798   2.052 -2.9623  0.9687  0.5730
 4701TIP3   OH214108   3.780   0.856   2.764 -0.0501 -0.3662 -0.9440
 4701TIP3    H114109   3.821   0.780   2.722 -0.4012  0.0832 -2.1366
 4701TIP3    H214110   3.701   0.872   2.713 -0.1823  0.5695 -0.4646
 4702TIP3   OH214111   0.286   4.603   3.887 -0.4317  0.0023  0.3236
 4702TIP3    H114112   0.327   4.656   3.818  0.3789 -0.8999  0.0894
 4702TIP3    H214113   0.221   4.661   3.926 -0.7652  0.6201 -1.0602
 4703TIP3   OH214114   1.785   2.737   4.960  0.1542  0.1803 -0.3382
 4703TIP3    H114115   1.800   2.672   5.028 -1.5537 -0.2489 -0.3188
 4703TIP3    H214116   1.749   2.687   4.887 -1.4108  1.0816 -0.2424
 4704TIP3   OH214117   1.022   2.347   4.605  0.1376  0.0871  0.0572
 4704TIP3    H114118   1.080   2.359   4.681 -0.5761 -1.4241  0.8856
 4704TIP3    H214119   1.080   2.316   4.535  0.8484  1.7388 -0.1237
 4705TIP3   OH214120   5.810   3.005   0.419 -0.2510  0.2321  0.3898
 4705TIP3    H114121   5.806   3.045   0.332 -0.0517 -1.2242 -0.3118
 4705TIP3    H214122   5.813   2.911   0.403  0.5708 -0.0526  1.9432
 4706TIP3   OH214123   3.583   2.645   4.851 -0.0649  0.3156 -0.0435
 4706TIP3    H114124   3.641   2.587   4.802  0.6292  0.1678  0.9384
 4706TIP3    H214125   3.593   2.730   4.807  1.3137  0.4243  0.4270
 4707TIP3   OH214126   2.452   3.061   0.433 -0.3283  0.2255  0.1124
 4707TIP3    H114127   2.358   3.060   0.413 -0.8433  0.6967  2.2564
 4707TIP3    H214128   2.468   2.976   0.474 -0.2486  0.8472  1.4123
 4708TIP3   OH214129   2.446   1.942   0.373 -0.0346 -0.1303 -0.1506
 4708TIP3    H114130   2.532   1.901   0.373 -0.6368 -1.4467  0.3349
 4708TIP3    H214131   2.399   1.899   0.302 -0.5643 -0.0408  0.1397
 4709TIP3   OH214132   5.729   5.135   2.702 -0.1415  0.1411 -0.0603
 4709TIP3    H114133   5.776   5.150   2.620 -1.4901 -0.4855 -0.9848
 4709TIP3    H214134   5.653   5.194   2.698  0.4861  1.0963  1.3745
 4710TIP3   OH214135   5.524   0.667   1.580 -0.2439  0.5293 -0.1516
 4710TIP3    H114136   5.571   0.609   1.640  1.8686  0.8113 -1.4426
 4710TIP3    H214137   5.458   0.612   1.539 -0.4385 -0.1299  1.0108
 4711TIP3   OH214138   5.824   5.482   0.102 -0.5689  0.1718  0.4370
 4711TIP3    H114139   5.840   5.487   0.008 -1.4618  1.4865  0.3200
 4711TIP3    H214140   5.888   5.542   0.141 -1.3976  1.0455  0.4834
 4712TIP3   OH214141   5.038   1.394   3.125 -0.3947  0.4340 -0.2364
 4712TIP3    H114142   5.122   1.405   3.081 -1.2363 -0.7612 -2.2822
 4712TIP3    H214143   5.019   1.480   3.163  2.3522  0.3632  1.5178
 4713TIP3   OH214144   0.987   4.886   1.341 -0.2367 -0.4626  0.2945
 4713TIP3    H114145   1.014   4.963   1.391  0.3017 -0.2917 -0.2522
 4713TIP3    H214146   0.906   4.858   1.384  0.4052 -0.5485  1.4919
 4714TIP3   OH214147   4.929   4.444   2.005 -0.3739  0.6454 -0.1301
 4714TIP3    H114148   4.881   4.414   2.082  0.7010  1.9378  1.0885
 4714TIP3    H214149   4.889   4.528   1.983 -0.9929  0.0673 -1.3170
 4715TIP3   OH214150   1.668   0.018   4.451  0.3947  0.1786  0.3077
 4715TIP3    H114151   1.600   0.080   4.424  0.2212 -0.1775 -0.0890
 4715TIP3    H214152   1.653  -0.059   4.397 -0.3201 -0.8049  1.8595
 4716TIP3   OH214153   5.427   2.263   1.579 -0.4512  0.2806  0.0178
 4716TIP3    H114154   5.509   2.306   1.602 -0.1457  0.1560 -0.8130
 4716TIP3    H214155   5.446   2.169   1.586 -0.4774  0.2487 -0.3028
 4717TIP3   OH214156   3.271   2.800   2.693  0.2552  0.0689 -0.2409
 4717TIP3    H114157   3.366   2.803   2.700  0.2365 -1.4780  1.3739
 4717TIP3    H214158   3.247   2.716   2.732 -1.7704  0.3677 -0.7474
 4718TIP3   OH214159   2.196   4.745   0.280 -0.3903 -0.0888  0.2896
 4718TIP3    H114160   2.285   4.782   0.281  0.3230 -1.6398 -1.2118
 4718TIP3    H214161   2.172   4.739   0.373 -0.1113  2.9853  0.6616
 4719TIP3   OH214162   6.104   0.656   0.739 -0.9895  0.4582 -0.6519
 4719TIP3    H114163   6.107   0.750   0.759 -0.7263  0.5511 -1.1214
 4719TIP3    H214164   6.054   0.650   0.658 -0.6980  0.2191 -0.8126
 4720TIP3   OH214165   1.767   4.367   2.880 -0.3870 -0.7526  0.2579
 4720TIP3    H114166   1.784   4.275   2.898 -2.2529 -1.1517  0.2089
 4720TIP3    H214167   1.784   4.377   2.786  0.5112 -0.8537  0.4018
 4721TIP3   OH214168   3.352   5.506   2.940  0.8265 -0.3827 -0.1764
 4721TIP3    H114169   3.380   5.593   2.911  1.3799 -0.7334 -0.7180
 4721TIP3    H214170   3.301   5.472   2.866  0.8823 -0.6455 -0.0952
 4722TIP3   OH214171   6.379   5.763   0.351  0.0702  0.0519 -0.2199
 4722TIP3    H114172   6.285   5.770   0.333 -0.2617 -0.3924  1.2036
 4722TIP3    H214173   6.385   5.754   0.446  1.6334  1.3648 -0.1410
 4723TIP3   OH214174   1.708   4.197   0.587  0.0877  0.1217  0.2233
 4723TIP3    H114175   1.698   4.245   0.669  1.5515 -0.9452  1.0757
 4723TIP3    H214176   1.789   4.232   0.549  0.5602 -0.8820  0.2967
 4724TIP3   OH214177   5.738   1.300   0.284  0.3397 -0.1152  0.3767
 4724TIP3    H114178   5.817   1.355   0.281  0.6156 -0.4430  1.2453
 4724TIP3    H214179   5.770   1.211   0.270  0.1278 -0.2482  0.7122
 4725TIP3   OH214180   4.303   2.701   4.777 -0.6540 -0.2093 -0.5112
 4725TIP3    H114181   4.231   2.661   4.728 -0.7592 -1.5373  0.6465
 4725TIP3    H214182   4.365   2.629   4.791  0.1157  0.5211 -0.0833
 4726TIP3   OH214183   1.141   0.945   3.736 -0.1510 -0.2384 -0.5621
 4726TIP3    H114184   1.181   0.914   3.818  0.7064  0.6816 -0.6035
 4726TIP3    H214185   1.216   0.969   3.681 -0.7294  1.7903 -0.5461
 4727TIP3   OH214186   4.260   5.098   1.877  0.1382 -0.2681  0.1919
 4727TIP3    H114187   4.179   5.058   1.846 -0.1192 -0.9921  1.6972
 4727TIP3    H214188   4.232   5.171   1.933  0.5960  1.5209 -1.7651
 4728TIP3   OH214189   1.329   3.553   2.972 -0.1484  0.2383 -0.1249
 4728TIP3    H114190   1.371   3.475   3.008  0.6153  0.1318 -1.2094
 4728TIP3    H214191   1.236   3.543   2.995  0.1493 -0.3525  0.8435
 4729TIP3   OH214192   3.911   1.647   2.433  0.2301  0.1472  0.6016
 4729TIP3    H114193   3.850   1.587   2.389  1.5459 -1.7656  1.2726
 4729TIP3    H214194   3.914   1.616   2.523  0.4803  1.6469  1.1370
 4730TIP3   OH214195   5.360   1.193   4.175  0.1772  0.2084 -0.6455
 4730TIP3    H114196   5.437   1.156   4.218  0.1314  2.7817  1.9362
 4730TIP3    H214197   5.298   1.121   4.170  2.3083 -1.6834 -1.9278
 4731TIP3   OH214198   1.889   5.430   4.490 -0.4044  0.3533  0.3240
 4731TIP3    H114199   1.965   5.403   4.541 -0.0892 -0.9575 -0.7965
 4731TIP3    H214200   1.914   5.514   4.452  1.1608 -0.7897 -1.3245
 4732TIP3   OH214201   3.493   0.188   4.800  0.3817 -0.1545  0.1606
 4732TIP3    H114202   3.484   0.251   4.872 -0.2886 -0.4782  0.3695
 4732TIP3    H214203   3.445   0.227   4.728  2.1241  0.7773 -0.5431
 4733TIP3   OH214204   3.467   5.925   0.666 -0.5623 -0.2390 -0.1454
 4733TIP3    H114205   3.507   5.972   0.739 -0.4342 -1.8510  0.8770
 4733TIP3    H214206   3.374   5.945   0.673 -0.2690  1.7272 -1.1798
 4734TIP3   OH214207   2.976   1.124   0.047 -0.0988  0.8421 -0.3534
 4734TIP3    H114208   3.013   1.060  -0.014 -1.7307  0.1808 -0.6836
 4734TIP3    H214209   2.965   1.203  -0.006  1.5494  1.3217 -0.0436
 4735TIP3   OH214210   1.871   5.956   0.190 -0.5672 -0.0502  0.1325
 4735TIP3    H114211   1.802   5.989   0.248  0.1725  2.7784 -0.4449
 4735TIP3    H214212   1.952   5.991   0.228  0.1554 -0.1441 -1.2740
 4736TIP3   OH214213   4.421   3.204   5.109 -0.1268  0.2591 -0.4175
 4736TIP3    H114214   4.498   3.154   5.138  0.6099  1.5397 -0.1220
 4736TIP3    H214215   4.439   3.226   5.018  0.1098  0.9987 -0.2008
 4737TIP3   OH214216   4.435   1.765   1.310  0.2700 -0.4102 -0.1275
 4737TIP3    H114217   4.373   1.702   1.272 -0.4963 -0.7054  1.5024
 4737TIP3    H214218   4.379   1.829   1.355  1.1213 -0.5713  1.2178
 4738TIP3   OH214219   1.602   1.594   3.852 -0.2521 -0.0179 -0.4538
 4738TIP3    H114220   1.665   1.661   3.826  0.5889  0.0184  1.5216
 4738TIP3    H214221   1.643   1.511   3.828 -0.2818  0.0865 -0.8609
 4739TIP3   OH214222   2.608   5.170   2.801 -0.7591 -0.1590  0.0365
 4739TIP3    H114223   2.556   5.091   2.794 -1.3247  0.2666 -0.7848
 4739TIP3    H214224   2.593   5.216   2.718  0.6752  0.1267 -0.0926
 4740TIP3   OH214225   1.046   4.040   1.020 -0.0182 -0.5461  0.3016
 4740TIP3    H114226   1.076   4.131   1.023  0.9017 -0.8644  2.5015
 4740TIP3    H214227   0.954   4.045   1.044 -0.5784 -0.0326 -1.7510
 4741TIP3   OH214228   4.865   1.013   1.719 -0.4756 -0.1467 -0.3723
 4741TIP3    H114229   4.772   1.018   1.696 -0.4179  0.9029 -0.4276
 4741TIP3    H214230   4.909   0.998   1.635 -0.4643  1.2339 -0.6497
 4742TIP3   OH214231   4.804   1.992   1.158  0.5322 -0.1866 -0.4584
 4742TIP3    H114232   4.819   2.029   1.245 -0.4096  1.9672 -1.1473
 4742TIP3    H214233   4.790   1.899   1.174 -0.7893  0.3127  1.8396
 4743TIP3   OH214234   0.041   0.399   2.886 -0.2620 -0.5690  0.4480
 4743TIP3    H114235  -0.040   0.438   2.920 -0.2357 -0.1998  0.0944
 4743TIP3    H214236   0.047   0.314   2.930 -0.5671 -0.3760  0.8729
 4744TIP3   OH214237   2.730   1.131   1.780 -0.0835 -0.5912 -0.7473
 4744TIP3    H114238   2.639   1.145   1.807  0.2432  1.5890 -0.5745
 4744TIP3    H214239   2.753   1.046   1.817 -1.6722 -0.6154  0.2779
 4745TIP3   OH214240   2.216   2.420   2.274  0.7824  0.3446 -0.2494
 4745TIP3    H114241   2.205   2.451   2.184  2.6827 -1.9770 -1.3920
 4745TIP3    H214242   2.194   2.496   2.328 -2.1616  1.3431 -2.5304
 4746TIP3   OH214243   5.061   3.982   1.060 -0.3806 -0.4953  0.2995
 4746TIP3    H114244   5.014   4.032   1.126 -1.6198 -1.8602  0.4910
 4746TIP3    H214245   5.152   4.011   1.069 -0.7247  0.2295  1.7591
 4747TIP3   OH214246   0.188   1.785   1.161 -0.0564 -0.0334 -0.0135
 4747TIP3    H114247   0.210   1.791   1.068  1.2960 -0.1435  0.2765
 4747TIP3    H214248   0.253   1.724   1.197 -1.2038 -0.8206  0.8147
 4748TIP3   OH214249   0.851   0.289   5.133 -0.0670 -0.4751  0.5305
 4748TIP3    H114250   0.769   0.294   5.183  0.3852 -0.5973  1.3037
 4748TIP3    H214251   0.836   0.218   5.070 -0.4635 -0.6796  0.8465
 4749TIP3   OH214252   4.076   4.755   2.012  0.0292  0.1224  0.2180
 4749TIP3    H114253   4.014   4.825   1.990 -0.9898 -1.0175 -0.7069
 4749TIP3    H214254   4.042   4.678   1.965  0.9765 -1.0515  1.3962
 4750TIP3   OH214255   1.659   0.281   3.717  0.5477 -0.1501 -0.1608
 4750TIP3    H114256   1.714   0.358   3.729 -0.7172  0.6997  0.3874
 4750TIP3    H214257   1.632   0.285   3.625 -0.7952  0.9927  0.2415
 4751TIP3   OH214258   4.136   5.292   0.494  0.0177  0.4314  0.2969
 4751TIP3    H114259   4.221   5.335   0.493 -0.4667  1.4776  1.2012
 4751TIP3    H214260   4.113   5.287   0.587 -0.7208 -0.1953  0.0888
 4752TIP3   OH214261   3.393   5.393   1.472 -0.3807 -0.1904  0.1624
 4752TIP3    H114262   3.421   5.304   1.449  1.3019  0.8633 -2.3934
 4752TIP3    H214263   3.303   5.383   1.503 -0.3127 -2.7413 -0.2630
 4753TIP3   OH214264   0.376   2.009   0.935 -0.0576 -0.3790 -0.0792
 4753TIP3    H114265   0.333   2.094   0.931 -1.8250 -1.1506  1.1085
 4753TIP3    H214266   0.411   2.003   1.024 -1.3921 -1.4909  0.4152
 4754TIP3   OH214267   6.066   2.432   0.748  0.2935 -0.6144 -0.3638
 4754TIP3    H114268   6.043   2.464   0.835  2.6313  0.6996 -0.1341
 4754TIP3    H214269   5.982   2.420   0.703 -0.9118 -0.2398  1.6806
 4755TIP3   OH214270   0.159   4.067   1.740 -0.4231 -0.7724  0.1813
 4755TIP3    H114271   0.083   4.036   1.788  0.5168 -2.1769  0.8316
 4755TIP3    H214272   0.200   3.988   1.706  1.1356 -0.1218  0.4515
 4756TIP3   OH214273   5.570   1.435   4.909  0.0511 -0.1158 -0.0100
 4756TIP3    H114274   5.653   1.430   4.863  0.4604 -3.3815  0.8925
 4756TIP3    H214275   5.576   1.370   4.978 -2.6383  0.7517  1.1968
 4757TIP3   OH214276   0.077   1.651   2.477 -0.0366 -0.1395 -0.2100
 4757TIP3    H114277   0.007   1.715   2.488  1.0820  1.1608 -0.3537
 4757TIP3    H214278   0.156   1.704   2.465  0.8057 -1.5553 -1.2140
 4758TIP3   OH214279   4.756   4.700   1.359  0.0512 -0.1790 -0.3332
 4758TIP3    H114280   4.716   4.617   1.387 -1.2457  0.4693 -0.2091
 4758TIP3    H214281   4.705   4.767   1.404 -0.3053  0.7819 -2.0948
 4759TIP3   OH214282   5.463   5.974   4.462 -0.0382 -0.3884  0.2561
 4759TIP3    H114283   5.441   5.882   4.477  0.3167 -0.4248  0.5583
 4759TIP3    H214284   5.387   6.022   4.495 -0.4051 -0.5921 -0.2925
 4760TIP3   OH214285   2.842   5.324   2.410 -0.1702 -0.4373  0.2900
 4760TIP3    H114286   2.811   5.393   2.470 -1.8375 -0.8049 -0.1109
 4760TIP3    H214287   2.903   5.369   2.352 -0.8770  0.5973  0.3311
 4761TIP3   OH214288   0.259   5.694   4.559  0.6868  0.0105  0.4123
 4761TIP3    H114289   0.346   5.732   4.546  1.0490 -0.9151 -0.0237
 4761TIP3    H214290   0.251   5.629   4.488 -0.5573  0.4184  0.1706
 4762TIP3   OH214291   0.894   3.976   4.971 -0.3546  0.3998  0.0353
 4762TIP3    H114292   0.953   3.911   4.933  0.0212 -0.3108  1.7479
 4762TIP3    H214293   0.811   3.930   4.981 -0.6328  0.7790 -0.4990
 4763TIP3   OH214294   2.423   5.617   0.278  0.2869 -0.4815 -0.2858
 4763TIP3    H114295   2.417   5.708   0.250 -0.0629 -0.4076  0.0152
 4763TIP3    H214296   2.363   5.611   0.353 -2.1291 -1.6694 -2.1863
 4764TIP3   OH214297   0.706   1.295   0.234 -0.3481 -0.3146  0.4021
 4764TIP3    H114298   0.796   1.307   0.203  0.0377 -0.6663  1.3465
 4764TIP3    H214299   0.676   1.384   0.253 -0.3606 -0.1558 -0.3015
 4765TIP3   OH214300   2.502   3.566   4.288  0.1257  0.0292 -0.3601
 4765TIP3    H114301   2.562   3.492   4.284 -0.7333 -0.6760 -0.4700
 4765TIP3    H214302   2.417   3.531   4.260 -0.5543  0.7743  0.6762
 4766TIP3   OH214303   0.256   0.192   4.699  0.3237 -0.0298 -0.0804
 4766TIP3    H114304   0.173   0.237   4.681 -0.5721 -1.7965 -0.6664
 4766TIP3    H214305   0.253   0.115   4.642  0.2093 -2.6572  3.2133
 4767TIP3   OH214306   3.374   4.728   2.855  0.1680  0.7482  0.3287
 4767TIP3    H114307   3.401   4.658   2.914 -0.2059  1.4674  1.3599
 4767TIP3    H214308   3.289   4.700   2.821  0.9914 -0.3239 -0.9908
 4768TIP3   OH214309   4.352   4.781   4.470 -0.1068 -0.2172  0.2956
 4768TIP3    H114310   4.322   4.773   4.379 -3.1850  2.1162  0.9514
 4768TIP3    H214311   4.291   4.727   4.520 -0.4485  1.0404  1.2773
 4769TIP3   OH214312   5.023   2.756   1.803 -0.5819 -0.1923 -0.3225
 4769TIP3    H114313   5.062   2.776   1.888 -0.9696 -1.1199  0.0966
 4769TIP3    H214314   4.980   2.671   1.816 -2.6757  0.7387 -0.7617
 4770TIP3   OH214315   3.567   4.289   1.586 -0.2416  0.0389  0.3058
 4770TIP3    H114316   3.580   4.259   1.496  1.0317  0.2034  0.4133
 4770TIP3    H214317   3.479   4.258   1.609 -0.4220 -0.3670 -0.8411
 4771TIP3   OH214318   2.111   0.762   5.109  0.6132 -0.4469  0.1560
 4771TIP3    H114319   2.022   0.727   5.116 -1.0878  3.6089  1.7521
 4771TIP3    H214320   2.123   0.777   5.015 -0.8825 -0.0077  0.0127
 4772TIP3   OH214321   2.314   5.962   0.780 -0.0569  0.3625 -0.0965
 4772TIP3    H114322   2.355   6.019   0.845 -1.3866 -0.0184  1.1376
 4772TIP3    H214323   2.225   5.995   0.772 -0.1614 -0.1385 -1.0907
 4773TIP3   OH214324   5.731   5.889   2.286 -0.2475 -0.2410  0.6168
 4773TIP3    H114325   5.677   5.900   2.208  0.5031 -3.5206 -0.5377
 4773TIP3    H214326   5.797   5.958   2.280  1.3343 -1.8197 -3.1464
 4774TIP3   OH214327   2.984   0.384   4.875  0.0358 -0.2176  0.3897
 4774TIP3    H114328   2.948   0.424   4.796  0.4885  1.6898  1.0987
 4774TIP3    H214329   2.936   0.302   4.884  0.6801 -1.0402 -2.4144
 4775TIP3   OH214330   3.095   5.287   1.076  0.1545 -0.1242  0.2762
 4775TIP3    H114331   3.093   5.355   1.008  0.1739 -0.9094 -0.5346
 4775TIP3    H214332   3.039   5.217   1.041 -0.3944 -0.2615  1.3880
 4776TIP3   OH214333   5.309   4.102   0.945  0.7156  0.1770  0.8279
 4776TIP3    H114334   5.292   4.037   0.877 -0.0144  0.8593  0.3408
 4776TIP3    H214335   5.387   4.149   0.916  0.6093  0.2330  0.6307
 4777TIP3   OH214336   4.102   3.403   0.524 -0.2393 -0.0518 -0.9055
 4777TIP3    H114337   4.041   3.329   0.524 -1.4903  0.9191  0.3673
 4777TIP3    H214338   4.048   3.478   0.498  0.4156  0.8095  0.1542
 4778TIP3   OH214339   5.911   2.501   2.766 -0.1417  0.0572 -0.1702
 4778TIP3    H114340   5.842   2.561   2.791 -0.9622 -0.9129 -0.0303
 4778TIP3    H214341   5.972   2.501   2.840 -0.1989  0.6135 -0.1234
 4779TIP3   OH214342   2.418   4.833   1.854  0.2361  0.2110 -0.4232
 4779TIP3    H114343   2.428   4.926   1.874 -0.0928  0.2490 -0.4185
 4779TIP3    H214344   2.327   4.825   1.826 -0.9143 -0.7464  3.0749
 4780TIP3   OH214345   0.503   0.938   1.965  0.0169  0.3263  0.1463
 4780TIP3    H114346   0.480   0.956   1.874  1.0609  1.2654  0.0430
 4780TIP3    H214347   0.591   0.975   1.975  0.5642 -1.1513  1.1157
 4781TIP3   OH214348   0.168   2.023   3.624  0.2163  0.0448  0.3680
 4781TIP3    H114349   0.185   1.937   3.663  1.9305  0.2900  0.2288
 4781TIP3    H214350   0.073   2.026   3.614  0.0507 -1.4871  1.1640
 4782TIP3   OH214351   2.163   3.208   0.677 -0.0896  0.0782 -0.1655
 4782TIP3    H114352   2.254   3.206   0.705 -0.0607 -0.6063 -0.2994
 4782TIP3    H214353   2.128   3.123   0.704 -0.3295 -0.1900 -1.2993
 4783TIP3   OH214354   4.286   3.056   1.254 -0.1700 -0.0821 -0.5047
 4783TIP3    H114355   4.304   3.074   1.347 -1.2211 -0.5745 -0.1894
 4783TIP3    H214356   4.227   3.127   1.228  0.6023  0.3988 -0.9739
 4784TIP3   OH214357   3.268   1.334   2.132 -0.2630 -0.4451  0.2062
 4784TIP3    H114358   3.238   1.423   2.150 -1.0879 -0.6610 -0.0665
 4784TIP3    H214359   3.198   1.278   2.167  0.3491 -0.9945  0.5710
 4785TIP3   OH214360   2.829   0.210   3.935 -0.2504  0.5443  0.2705
 4785TIP3    H114361   2.747   0.254   3.958 -0.7447  0.2521 -0.8858
 4785TIP3    H214362   2.848   0.238   3.846  0.4515 -0.0860  0.2074
 4786TIP3   OH214363   0.756   1.950   1.852  0.1531  0.1703  0.0311
 4786TIP3    H114364   0.800   2.022   1.807  0.6750  0.2018  0.5778
 4786TIP3    H214365   0.826   1.904   1.898  0.0798 -1.5899 -1.4748
 4787TIP3   OH214366   0.906   3.684   0.370  0.1787  0.5696  0.2584
 4787TIP3    H114367   0.825   3.633   0.368  0.5373 -0.0593  1.3753
 4787TIP3    H214368   0.955   3.654   0.293 -0.6276  0.9342 -0.4079
 4788TIP3   OH214369   4.127   1.211   1.776 -0.3445  0.3055  0.6725
 4788TIP3    H114370   4.173   1.295   1.784  0.7669 -0.2615  0.5109
 4788TIP3    H214371   4.152   1.163   1.855  0.8906 -0.7275 -0.2990
 4789TIP3   OH214372   1.127   2.125   0.343 -0.0811  0.2486 -0.2594
 4789TIP3    H114373   1.109   2.031   0.346  0.4405  0.1686  0.9936
 4789TIP3    H214374   1.220   2.132   0.366 -0.2708  1.1048  0.3145
 4790TIP3   OH214375   1.423   3.240   5.113 -0.1619  0.0646 -0.4925
 4790TIP3    H114376   1.371   3.163   5.088 -0.9967  0.2962  0.4828
 4790TIP3    H214377   1.512   3.218   5.085 -0.1105 -1.8532  0.9352
 4791TIP3   OH214378   4.001   4.763  -0.004  0.4744  0.1362  0.0242
 4791TIP3    H114379   4.023   4.670  -0.012  0.2778  0.1592 -0.8650
 4791TIP3    H214380   4.059   4.796   0.065 -0.7197 -1.0321  1.6746
 4792TIP3   OH214381   0.979   4.718   1.665 -0.5151 -0.3977  0.3507
 4792TIP3    H114382   0.998   4.689   1.576 -1.5413 -1.0150  0.3215
 4792TIP3    H214383   0.977   4.813   1.659 -1.1986 -0.4521 -0.4233
 4793TIP3   OH214384   0.452   1.717   2.093 -0.7557 -0.6899  0.3885
 4793TIP3    H114385   0.410   1.652   2.037  1.6098 -1.0062 -1.1903
 4793TIP3    H214386   0.424   1.695   2.182 -1.9660 -2.3025 -0.3510
 4794TIP3   OH214387   4.238   4.321   4.480  0.0481  0.0261 -0.0421
 4794TIP3    H114388   4.240   4.226   4.490  0.0033  0.2227  2.5054
 4794TIP3    H214389   4.316   4.342   4.429 -0.9115 -1.4491 -2.3046
 4795TIP3   OH214390   2.752   5.545   2.021 -0.1286 -0.4332  0.0427
 4795TIP3    H114391   2.824   5.604   1.997 -0.1466  0.5520  2.1912
 4795TIP3    H214392   2.788   5.457   2.007  1.9123  0.0129  1.9664
 4796TIP3   OH214393   0.380   3.509   2.930 -0.1554 -0.0157  0.1305
 4796TIP3    H114394   0.384   3.421   2.891  2.0041 -0.3200  0.9356
 4796TIP3    H214395   0.463   3.550   2.906 -1.2496  1.9865 -0.5157
 4797TIP3   OH214396   4.950   0.842   2.170  0.2994 -0.5153 -0.2620
 4797TIP3    H114397   4.908   0.771   2.219 -0.4195  1.2573  1.8878
 4797TIP3    H214398   5.042   0.838   2.198  0.3374 -0.8164 -0.4265
 4798TIP3   OH214399   1.890   1.548   3.012 -0.2387 -0.2071 -0.3806
 4798TIP3    H114400   1.809   1.534   3.061  0.1083  0.0481  0.2857
 4798TIP3    H214401   1.944   1.602   3.070  1.3322 -2.2675  0.2049
 4799TIP3   OH214402   0.264   0.077   0.616 -1.1256 -0.2071 -0.0804
 4799TIP3    H114403   0.317   0.157   0.616  0.2546 -1.0834 -0.2326
 4799TIP3    H214404   0.261   0.050   0.707  1.7280 -2.0111 -0.3786
 4800TIP3   OH214405   1.610   2.240   2.066  0.8051 -0.2444  0.0694
 4800TIP3    H114406   1.613   2.314   2.006  1.1968 -0.0319  0.3489
 4800TIP3    H214407   1.689   2.248   2.120  1.1502 -1.1782 -0.2658
 4801TIP3   OH214408   4.473   5.942   3.313  0.5692  0.2610  0.1662
 4801TIP3    H114409   4.378   5.941   3.322  0.6503  0.6796  1.3072
 4801TIP3    H214410   4.502   5.859   3.350  0.7278  0.7423  1.1512
 4802TIP3   OH214411   1.317   3.034   0.957 -0.4082 -0.3051  0.2999
 4802TIP3    H114412   1.328   2.950   1.001 -1.6488 -1.4778 -1.4708
 4802TIP3    H214413   1.223   3.053   0.964 -0.3543  0.2731 -0.4259
 4803TIP3   OH214414   5.386   3.613   4.528  0.1074  0.1832  0.0719
 4803TIP3    H114415   5.434   3.550   4.474  0.5055  0.7719 -0.2815
 4803TIP3    H214416   5.307   3.632   4.478  0.4762  0.7289 -0.3199
 4804TIP3   OH214417   3.617   3.261   1.165  0.0601  0.9009 -0.5824
 4804TIP3    H114418   3.580   3.220   1.087  0.5452 -0.6589 -0.0452
 4804TIP3    H214419   3.567   3.224   1.238  0.8054  0.9087 -0.0459
 4805TIP3   OH214420   5.952   3.923   1.614  0.3272 -0.0269  0.1083
 4805TIP3    H114421   5.909   3.995   1.661 -0.1655  1.2736 -2.2256
 4805TIP3    H214422   6.043   3.925   1.645  0.7887  2.8156 -1.1736
 4806TIP3   OH214423   1.819   3.567   3.246  0.1208  0.3037 -0.2857
 4806TIP3    H114424   1.857   3.613   3.321  1.3626  0.7659 -1.1723
 4806TIP3    H214425   1.725   3.587   3.251  0.3668  1.3609  0.4329
 4807TIP3   OH214426   6.106   1.457   1.232  0.1971  0.3038  0.2713
 4807TIP3    H114427   6.049   1.389   1.198 -1.3874  1.0683  1.2826
 4807TIP3    H214428   6.055   1.500   1.301  1.4240  2.0011  0.2077
 4808TIP3   OH214429   1.102   1.450   3.405  0.2302 -0.0497 -0.8124
 4808TIP3    H114430   1.124   1.393   3.332  3.0427  0.3310 -0.3917
 4808TIP3    H214431   1.130   1.401   3.483 -0.4507  0.5304 -0.1813
 4809TIP3   OH214432   2.731  -0.005   2.134  0.3354 -0.1403  0.1702
 4809TIP3    H114433   2.706   0.048   2.209  2.2636 -1.8208  2.1279
 4809TIP3    H214434   2.682   0.032   2.061 -1.6924  1.5243  2.2350
 4810TIP3   OH214435   2.274   2.567   3.313 -0.0681  0.6294 -0.1648
 4810TIP3    H114436   2.286   2.620   3.391  1.3987 -0.7926  0.6472
 4810TIP3    H214437   2.350   2.508   3.313 -2.0213 -2.0539 -0.4964
 4811TIP3   OH214438   6.183   4.575   0.806 -0.6372 -0.0613 -0.4903
 4811TIP3    H114439   6.234   4.594   0.884 -1.0697 -0.2494 -0.1588
 4811TIP3    H214440   6.127   4.501   0.831 -0.7437 -0.1533 -0.9874
 4812TIP3   OH214441   5.846   4.413   1.529 -0.2744  0.2055  0.5027
 4812TIP3    H114442   5.882   4.325   1.522 -2.1986 -0.8000  2.2308
 4812TIP3    H214443   5.811   4.418   1.618 -0.1877  2.7578  0.4776
 4813TIP3   OH214444   3.767   5.475   4.178  0.3077  0.2260 -0.3992
 4813TIP3    H114445   3.761   5.403   4.116  1.8856  0.6458 -1.0849
 4813TIP3    H214446   3.676   5.495   4.201 -0.1810 -1.9171 -0.2203
 4814TIP3   OH214447   4.656   2.039   3.395 -0.1235  0.1230 -0.3060
 4814TIP3    H114448   4.597   2.002   3.329 -0.7207  0.1135  0.2325
 4814TIP3    H214449   4.605   2.109   3.436  0.6753  0.9598 -0.6894
 4815TIP3   OH214450   1.801   4.609   2.710  0.3613  0.2914  0.0409
 4815TIP3    H114451   1.877   4.661   2.685  0.7365 -0.4892 -0.4629
 4815TIP3    H214452   1.815   4.524   2.670  0.2350 -0.5211  1.6306
 4816TIP3   OH214453   5.025   2.843   0.180  0.2750 -0.4533  0.4479
 4816TIP3    H114454   4.947   2.883   0.140  0.7076 -0.3560 -0.3033
 4816TIP3    H214455   5.085   2.827   0.107  0.3292 -2.0196  0.8051
 4817TIP3   OH214456   0.284   1.176   3.074 -0.7214 -0.0513  0.3257
 4817TIP3    H114457   0.339   1.098   3.065 -1.2034 -0.4276  0.5804
 4817TIP3    H214458   0.346   1.248   3.081 -0.2581 -0.4711  0.6449
 4818TIP3   OH214459   1.674   1.137   0.623  0.2908 -0.0055  0.7002
 4818TIP3    H114460   1.702   1.175   0.706 -3.4830  0.2687  2.0700
 4818TIP3    H214461   1.580   1.156   0.619  0.2385 -0.2451 -3.5629
 4819TIP3   OH214462  -0.004   2.716  -0.003  0.0237  0.5426 -0.2800
 4819TIP3    H114463   0.079   2.690   0.036 -1.3446 -0.9292  1.8850
 4819TIP3    H214464  -0.004   2.811   0.001  1.5019  0.5553 -0.1393
 4820TIP3   OH214465   1.491   4.614   2.333 -0.1398 -0.2065  0.1088
 4820TIP3    H114466   1.487   4.678   2.404 -1.8567 -1.0601  0.8409
 4820TIP3    H214467   1.533   4.661   2.261  0.2273  1.1773  1.1856
 4821TIP3   OH214468   4.279   2.832   5.114  0.0873  0.5727 -0.7354
 4821TIP3    H114469   4.285   2.882   5.033  0.8896  1.5520 -0.1058
 4821TIP3    H214470   4.293   2.741   5.088  1.4577  0.9859 -1.5759
 4822TIP3   OH214471   5.963   1.849   4.396 -0.3311  0.1779  0.1467
 4822TIP3    H114472   5.891   1.902   4.363  0.0754 -0.1200 -1.3076
 4822TIP3    H214473   6.016   1.830   4.319  1.0139 -0.0646  1.0930
 4823TIP3   OH214474   0.056   0.121   2.259  0.4098  0.4345  0.0890
 4823TIP3    H114475   0.134   0.149   2.308  0.2199 -0.9743  1.2748
 4823TIP3    H214476  -0.017   0.160   2.306  0.2461 -0.6659  0.7827
 4824TIP3   OH214477   1.127   4.532   3.808 -0.2141 -0.2882  0.0508
 4824TIP3    H114478   1.150   4.574   3.725 -0.8216  0.6128  0.3209
 4824TIP3    H214479   1.058   4.587   3.844 -0.2791 -0.9315  0.9421
 4825TIP3   OH214480   2.920   0.736   0.847  0.2674 -0.3075  0.2406
 4825TIP3    H114481   2.988   0.674   0.871 -0.3830 -1.5478 -0.9583
 4825TIP3    H214482   2.838   0.691   0.870 -0.2482 -0.3318 -1.5139
 4826TIP3   OH214483   2.890   3.626   0.230  0.6626  0.2347  0.0803
 4826TIP3    H114484   2.824   3.571   0.271 -0.0584  1.1380  0.1634
 4826TIP3    H214485   2.841   3.684   0.171  1.2998  1.3128  0.5743
 4827TIP3   OH214486   4.140   0.586   1.893 -0.0469  0.6476  0.1314
 4827TIP3    H114487   4.189   0.630   1.823  1.1893 -2.1535 -0.8865
 4827TIP3    H214488   4.178   0.620   1.974 -0.4575  2.8092 -0.5204
 4828TIP3   OH214489   1.580   4.251   4.043  0.1541  0.4385  0.0384
 4828TIP3    H114490   1.615   4.337   4.069  2.0180 -0.7685  1.9049
 4828TIP3    H214491   1.501   4.241   4.096 -0.1698  1.0593 -0.3130
 4829TIP3   OH214492   1.182   0.542   0.244  0.0396 -0.3051  0.7551
 4829TIP3    H114493   1.134   0.486   0.304  1.7292 -0.7308  1.7788
 4829TIP3    H214494   1.255   0.577   0.296  0.5933  0.6513 -0.5955
 4830TIP3   OH214495   0.941   2.060   2.609  0.1704 -0.3041 -0.8088
 4830TIP3    H114496   1.030   2.031   2.594 -0.7413 -4.5911  0.7859
 4830TIP3    H214497   0.918   2.026   2.695 -2.4131  2.5084 -0.1961
 4831TIP3   OH214498   0.500   2.998   3.558 -0.0611 -0.5142 -0.1671
 4831TIP3    H114499   0.498   3.035   3.646 -0.5090 -1.6512  0.3177
 4831TIP3    H214500   0.433   2.930   3.559 -0.3478 -0.2880 -1.5123
 4832TIP3   OH214501   1.370   4.830   5.171  0.5603 -0.5280  0.1485
 4832TIP3    H114502   1.418   4.759   5.213 -0.8894 -1.1560  0.8374
 4832TIP3    H214503   1.346   4.795   5.085  0.8147 -0.4513  0.0477
 4833TIP3   OH214504   5.218   2.263   0.682 -0.3745 -0.0144  0.1960
 4833TIP3    H114505   5.247   2.201   0.615  1.6113  0.5287  0.4732
 4833TIP3    H214506   5.211   2.347   0.637 -0.4293  0.0726  0.3648
 4834TIP3   OH214507   1.092   0.383   3.794  0.3235  0.4231  0.1836
 4834TIP3    H114508   1.034   0.355   3.723 -0.1429  0.8745  0.3848
 4834TIP3    H214509   1.130   0.302   3.828 -1.9643 -0.1465  1.5866
 4835TIP3   OH214510   1.464   1.098   0.886 -0.9587  0.4560  0.3738
 4835TIP3    H114511   1.540   1.155   0.901  0.1244 -0.7150 -0.4326
 4835TIP3    H214512   1.411   1.108   0.965  0.1442  1.1350  1.0629
 4836TIP3   OH214513   2.354   3.873   1.125 -0.2770 -0.5287  0.1423
 4836TIP3    H114514   2.337   3.779   1.117 -0.3764 -0.3427 -2.5142
 4836TIP3    H214515   2.443   3.884   1.093  0.1526  0.2020  1.4857
 4837TIP3   OH214516   1.698   2.341   1.490 -0.0406  0.3802 -0.3909
 4837TIP3    H114517   1.623   2.392   1.461  0.2686  1.1249  0.0942
 4837TIP3    H214518   1.709   2.364   1.582 -0.7901 -1.6813  0.2626
 4838TIP3   OH214519   4.884   0.796   1.901  0.4766 -0.2217  0.3594
 4838TIP3    H114520   4.903   0.865   1.837 -0.6649 -1.0855 -0.9517
 4838TIP3    H214521   4.912   0.833   1.985  5.0457 -0.2210 -0.9080
 4839TIP3   OH214522   0.197   3.488   0.866  0.1284  0.0353 -0.1854
 4839TIP3    H114523   0.265   3.501   0.799 -0.2084  1.3974 -0.2929
 4839TIP3    H214524   0.181   3.393   0.866  2.2188 -0.3722  0.0404
 4840TIP3   OH214525   5.313   0.118   1.375  0.3398 -0.0624  0.3076
 4840TIP3    H114526   5.246   0.077   1.429  0.3697  0.0886  0.4594
 4840TIP3    H214527   5.265   0.163   1.306  0.1560  1.6493  1.4812
 4841TIP3   OH214528   3.248   0.366   3.738  0.5208  0.3410  0.5648
 4841TIP3    H114529   3.304   0.434   3.775  0.4339  0.4693  0.4616
 4841TIP3    H214530   3.229   0.308   3.812  2.1736 -0.6583  0.2616
 4842TIP3   OH214531   0.263   1.938   2.350 -0.1765 -0.0983 -0.2390
 4842TIP3    H114532   0.316   2.015   2.330 -1.1590  0.2541 -1.5998
 4842TIP3    H214533   0.324   1.878   2.393  0.6405  1.3686  0.7594
 4843TIP3   OH214534   1.768   1.902   3.902 -0.1373  0.5120 -0.0967
 4843TIP3    H114535   1.858   1.871   3.891  0.2094  1.6322 -0.5523
 4843TIP3    H214536   1.773   1.996   3.886 -0.9044  1.0717  2.5700
 4844TIP3   OH214537   6.236   1.501   4.345 -0.1889  0.2419  0.7083
 4844TIP3    H114538   6.324   1.505   4.383  0.4862  2.0259 -0.9018
 4844TIP3    H214539   6.248   1.455   4.262 -0.8720  0.0035  0.7432
 4845TIP3   OH214540   1.456   4.307   1.791 -0.4160  0.0326 -0.5803
 4845TIP3    H114541   1.448   4.370   1.864 -0.2616 -0.6212  0.0076
 4845TIP3    H214542   1.551   4.298   1.779 -0.4410 -0.0214 -0.7271
 4846TIP3   OH214543   4.231   1.213   0.573  0.2772 -0.0787  0.1963
 4846TIP3    H114544   4.289   1.289   0.564 -0.8107  1.0946  2.2787
 4846TIP3    H214545   4.279   1.155   0.632  1.0380 -1.0060 -1.2703
 4847TIP3   OH214546   2.128   1.457   0.223 -0.0143 -0.5595 -0.5446
 4847TIP3    H114547   2.106   1.538   0.176 -0.1266 -0.4016 -0.2224
 4847TIP3    H214548   2.045   1.411   0.233  0.1839 -1.1626 -1.5471
 4848TIP3   OH214549   4.467   0.897   3.235  0.1554  0.1596 -0.6370
 4848TIP3    H114550   4.374   0.873   3.238  0.4897 -1.1495  0.1176
 4848TIP3    H214551   4.487   0.923   3.325  0.5263  0.4701 -0.8069
 4849TIP3   OH214552   3.937   5.371   1.404 -0.1635 -0.5109  0.3586
 4849TIP3    H114553   4.003   5.302   1.416 -0.1150 -0.4407  0.4892
 4849TIP3    H214554   3.913   5.397   1.493 -1.0976 -1.2351  0.3433
 4850TIP3   OH214555   2.878   1.718   2.785  0.1545 -0.1835 -0.3344
 4850TIP3    H114556   2.835   1.672   2.713 -2.1375 -1.5155  1.7269
 4850TIP3    H214557   2.906   1.648   2.844  0.5125  0.9167  0.8405
 4851TIP3   OH214558   4.808   1.390   1.413  0.1663 -0.1952 -0.1577
 4851TIP3    H114559   4.775   1.472   1.375 -0.3864 -0.1537  0.3922
 4851TIP3    H214560   4.895   1.412   1.447 -1.3087  1.1963  3.2215
 4852TIP3   OH214561   2.406   0.873   0.942  0.1756 -0.1112  0.2589
 4852TIP3    H114562   2.313   0.862   0.961  0.5998 -0.3858  2.4473
 4852TIP3    H214563   2.450   0.860   1.026  2.1904  0.2233 -0.6675
 4853TIP3   OH214564   0.168   2.313   3.946  0.2661  0.0876 -0.0148
 4853TIP3    H114565   0.248   2.262   3.931 -1.1055 -1.5395 -2.6596
 4853TIP3    H214566   0.098   2.247   3.950 -1.0626  1.5022  1.5139
 4854TIP3   OH214567   5.222   4.207   2.331 -0.0257  0.2447  0.4193
 4854TIP3    H114568   5.281   4.149   2.379 -2.6351 -0.8676  2.5923
 4854TIP3    H214569   5.229   4.178   2.240  0.7307 -1.7023  1.0408
 4855TIP3   OH214570   3.946   3.560   2.559  0.2536 -0.4522 -0.1195
 4855TIP3    H114571   3.898   3.563   2.476  1.0747  1.2885 -0.5764
 4855TIP3    H214572   3.957   3.652   2.583  1.7458 -0.8719  0.9101
 4856TIP3   OH214573   1.070   0.492   0.888  0.2062 -0.3445  0.0687
 4856TIP3    H114574   1.072   0.552   0.814 -0.1651 -0.4203 -0.0083
 4856TIP3    H214575   1.160   0.489   0.920  0.4158 -0.4906 -0.5234
 4857TIP3   OH214576   2.084   1.899   4.224  0.1264  0.6463  0.3567
 4857TIP3    H114577   2.048   1.876   4.310  1.5428 -0.0784  0.7916
 4857TIP3    H214578   2.175   1.870   4.228  0.0444 -0.0113 -1.6374
 4858TIP3   OH214579   0.577   0.910   0.449 -0.1581 -0.1022 -0.1579
 4858TIP3    H114580   0.593   1.003   0.461 -0.4630 -0.0453 -0.1687
 4858TIP3    H214581   0.508   0.889   0.512  2.9592 -1.3078  3.1899
 4859TIP3   OH214582   3.258   5.725   3.766 -0.0358 -0.4680 -0.1759
 4859TIP3    H114583   3.172   5.752   3.735  0.7656  1.3578 -0.9383
 4859TIP3    H214584   3.276   5.643   3.720 -1.5229 -1.1185  0.3387
 4860TIP3   OH214585   1.286   1.559   4.358 -0.7771  0.2524  0.2876
 4860TIP3    H114586   1.317   1.627   4.297 -0.2450 -1.6033 -1.6301
 4860TIP3    H214587   1.327   1.581   4.442 -0.1386  1.9416 -0.4213
 4861TIP3   OH214588   2.720   3.033   3.386  0.4831 -0.2755 -0.4838
 4861TIP3    H114589   2.783   3.007   3.318 -0.3716 -1.6118 -0.8074
 4861TIP3    H214590   2.656   3.087   3.340  0.3958 -0.4273 -0.5390
 4862TIP3   OH214591   5.325   3.372   3.498 -0.6188 -0.2582 -0.6910
 4862TIP3    H114592   5.260   3.303   3.487 -0.6534  0.0317 -2.6668
 4862TIP3    H214593   5.283   3.437   3.554 -1.4587 -0.7930 -0.6954
 4863TIP3   OH214594   4.466   0.808   3.688  0.3124 -0.5378  0.4236
 4863TIP3    H114595   4.439   0.882   3.743 -0.3801 -1.0531  0.7991
 4863TIP3    H214596   4.554   0.787   3.718  1.2265  1.2214 -0.8636
 4864TIP3   OH214597   1.856   2.051   0.114 -0.0794 -0.5179  0.2376
 4864TIP3    H114598   1.886   2.012   0.031 -1.4756 -0.1705 -0.4645
 4864TIP3    H214599   1.914   2.014   0.180  0.7256 -1.2311 -0.8222
 4865TIP3   OH214600   0.476   0.046   2.877 -0.4586  0.2264  0.1842
 4865TIP3    H114601   0.471   0.058   2.972  0.1823  3.0188 -0.0302
 4865TIP3    H214602   0.570   0.053   2.857 -0.6566  0.4701 -0.7010
 4866TIP3   OH214603   6.167   1.996   1.990 -0.0154  0.1790 -0.5737
 4866TIP3    H114604   6.091   1.950   1.953  0.1030  0.0262 -0.6261
 4866TIP3    H214605   6.172   1.966   2.081 -0.2503  0.4837 -0.4595
 4867TIP3   OH214606   2.357   1.562   1.180  0.2135 -0.3001 -0.7180
 4867TIP3    H114607   2.403   1.637   1.143  1.1556 -1.7071 -2.5607
 4867TIP3    H214608   2.426   1.505   1.214 -0.5084 -0.2143  1.0189
 4868TIP3   OH214609   2.840   4.533   0.984 -0.2136 -0.0817 -0.1359
 4868TIP3    H114610   2.785   4.571   0.915 -0.7229  0.5130  0.5775
 4868TIP3    H214611   2.808   4.443   0.994 -1.2855  0.3457  0.4740
 4869TIP3   OH214612   5.247   0.358   0.433  0.1497  0.7151  0.3599
 4869TIP3    H114613   5.155   0.333   0.445 -0.0421  1.5758  0.7974
 4869TIP3    H214614   5.273   0.396   0.517  2.1968 -3.1672  1.7317
 4870TIP3   OH214615   4.296   5.908   4.395 -0.2964 -0.2622  0.3043
 4870TIP3    H114616   4.206   5.931   4.370 -0.1823 -0.3884 -0.2380
 4870TIP3    H214617   4.302   5.814   4.375  0.6251  0.1763 -1.7411
 4871TIP3   OH214618   5.183   0.236   2.836 -0.3704  0.1029  0.7991
 4871TIP3    H114619   5.116   0.216   2.901 -0.1958 -1.2140  0.6165
 4871TIP3    H214620   5.158   0.183   2.760 -0.7358  1.8206 -0.3310
 4872TIP3   OH214621   4.798   5.539   1.205  0.4895 -0.4561  0.5997
 4872TIP3    H114622   4.813   5.534   1.111 -1.4534  1.5849  0.0855
 4872TIP3    H214623   4.859   5.604   1.237 -0.1633  0.2806  0.3726
 4873TIP3   OH214624   3.555   5.915   2.300 -0.1371 -0.2209  0.1075
 4873TIP3    H114625   3.639   5.870   2.300 -0.3175 -0.5622  0.7557
 4873TIP3    H214626   3.577   6.006   2.318 -0.0704 -0.6800  2.8351
 4874TIP3   OH214627   5.745   0.390   1.093 -0.2098 -0.0287  0.1636
 4874TIP3    H114628   5.787   0.307   1.070 -0.0624 -0.1627  0.9045
 4874TIP3    H214629   5.787   0.417   1.174  0.5632  1.3740 -0.6585
 4875TIP3   OH214630   1.058   0.277   2.689 -0.0770 -0.2329  0.2663
 4875TIP3    H114631   0.972   0.320   2.688  0.3963  0.7501 -1.0871
 4875TIP3    H214632   1.098   0.306   2.771  0.0602  1.6509 -0.4168
 4876TIP3   OH214633   0.961   3.494   2.011  0.4554  0.2519 -0.0674
 4876TIP3    H114634   0.959   3.575   2.062 -0.3795  0.3324 -0.2032
 4876TIP3    H214635   1.008   3.517   1.931  0.0111  0.6817 -0.2138
 4877TIP3   OH214636   2.856   3.605   2.177 -0.2684  0.3819  0.2085
 4877TIP3    H114637   2.786   3.563   2.126  0.0797  0.3556 -0.2569
 4877TIP3    H214638   2.891   3.536   2.233 -0.1182  0.2099 -0.0977
 4878TIP3   OH214639   6.017   0.805   5.044 -0.3110 -0.0186  0.3265
 4878TIP3    H114640   5.975   0.890   5.054 -1.1281 -0.1203 -1.6152
 4878TIP3    H214641   5.944   0.742   5.047 -0.0940 -0.3762 -0.9607
 4879TIP3   OH214642   1.600   5.763   2.973  0.5409 -0.3093 -0.1940
 4879TIP3    H114643   1.682   5.773   2.925  0.5672 -0.0206 -0.0926
 4879TIP3    H214644   1.533   5.795   2.913  0.2259 -2.6310 -1.1473
 4880TIP3   OH214645   3.474   2.564   3.096 -0.5796 -0.2087  0.0006
 4880TIP3    H114646   3.506   2.654   3.093 -1.1570  0.0036  0.1110
 4880TIP3    H214647   3.535   2.515   3.040  1.1357 -0.2053  1.7812
 4881TIP3   OH214648   0.818   2.342   1.527  0.2436 -0.2431  0.8690
 4881TIP3    H114649   0.776   2.257   1.507 -0.9420  0.9549 -2.6065
 4881TIP3    H214650   0.745   2.403   1.534  1.1780  0.8660  1.1369
 4882TIP3   OH214651   5.111   2.915   3.797 -0.1066  0.2100  0.3858
 4882TIP3    H114652   5.116   2.827   3.834  0.3162 -0.0310 -0.2332
 4882TIP3    H214653   5.191   2.959   3.826  0.5451 -0.1898 -0.7510
 4883TIP3   OH214654   5.674   0.859   1.453  0.1253 -0.4251 -0.7201
 4883TIP3    H114655   5.713   0.811   1.380 -2.4522 -1.1503 -1.7343
 4883TIP3    H214656   5.595   0.809   1.474 -0.9902  1.6622  0.2975
 4884TIP3   OH214657   3.441   1.383   1.639  0.8927  0.1042  0.3917
 4884TIP3    H114658   3.429   1.452   1.704  0.1620 -0.0271  0.4096
 4884TIP3    H214659   3.449   1.430   1.556 -2.9709  0.2087 -0.1053
 4885TIP3   OH214660   5.388   5.309   1.382  0.4741 -0.4462  0.1175
 4885TIP3    H114661   5.322   5.372   1.353  0.2815 -0.6008  0.2118
 4885TIP3    H214662   5.356   5.278   1.466 -0.1649 -1.6954 -0.5491
 4886TIP3   OH214663   2.268   5.062   1.457  0.1002 -0.3648 -0.3646
 4886TIP3    H114664   2.323   5.099   1.525  0.8093  0.3986 -1.3252
 4886TIP3    H214665   2.201   5.128   1.441 -1.6491 -1.6302  1.3718
 4887TIP3   OH214666   6.201   3.458   2.773 -0.5307 -0.3890  0.0652
 4887TIP3    H114667   6.247   3.380   2.803  0.6641  0.4202  0.3865
 4887TIP3    H214668   6.250   3.486   2.696 -1.4992 -0.4546 -0.5989
 4888TIP3   OH214669   4.910   4.589   0.090 -0.0802 -0.3799 -0.2422
 4888TIP3    H114670   4.869   4.661   0.043 -2.1258 -0.6098  1.0441
 4888TIP3    H214671   4.867   4.589   0.176  0.7697 -2.3372  0.2458
 4889TIP3   OH214672   1.759   4.085   3.373  0.0732 -0.3088  0.2090
 4889TIP3    H114673   1.833   4.053   3.321  0.7180  0.7336  0.4550
 4889TIP3    H214674   1.772   4.044   3.459  2.6379  2.7916  1.5005
 4890TIP3   OH214675   2.471   4.843   1.381  0.3925 -0.6093 -0.2844
 4890TIP3    H114676   2.468   4.937   1.398 -0.0624 -0.7538  0.4935
 4890TIP3    H214677   2.469   4.836   1.286  2.1101  0.2177 -0.4365
 4891TIP3   OH214678   5.106   0.139   3.836  0.3796 -0.1011 -0.5147
 4891TIP3    H114679   5.200   0.156   3.846 -0.0227  1.7115  0.6674
 4891TIP3    H214680   5.086   0.076   3.905  0.6940 -0.4037 -0.6954
 4892TIP3   OH214681   5.596   3.115   2.051  0.4549  0.3376 -0.2677
 4892TIP3    H114682   5.568   3.077   2.134  0.1233  0.1115 -0.4786
 4892TIP3    H214683   5.514   3.143   2.009  0.7725  3.2524  0.7963
 4893TIP3   OH214684   0.678   5.114   2.104  0.1579  0.5778 -0.0147
 4893TIP3    H114685   0.702   5.204   2.124  0.8307  0.3086  0.4690
 4893TIP3    H214686   0.641   5.080   2.186  2.1781 -0.2945  0.6136
 4894TIP3   OH214687   3.721   1.916   3.620  0.1993 -0.4575  0.0941
 4894TIP3    H114688   3.680   1.841   3.577  1.7213 -0.5028 -1.3683
 4894TIP3    H214689   3.666   1.991   3.596 -0.0817 -0.7818 -0.2828
 4895TIP3   OH214690   0.846   4.337   0.177 -0.1533  0.0242 -0.3913
 4895TIP3    H114691   0.764   4.332   0.128  0.8049 -0.3368 -2.0362
 4895TIP3    H214692   0.852   4.429   0.205  0.3920  0.8963 -3.0804
 4896TIP3   OH214693   4.190   3.652   4.079 -0.7291  0.3320 -0.2936
 4896TIP3    H114694   4.162   3.607   3.998 -1.3699 -1.6706  0.9607
 4896TIP3    H214695   4.112   3.652   4.134 -0.5207  2.4034  0.0805
 4897TIP3   OH214696   2.621   2.550   1.183  0.1558  0.2769 -0.6465
 4897TIP3    H114697   2.596   2.643   1.186 -0.5661  0.0833 -0.5206
 4897TIP3    H214698   2.555   2.506   1.237  0.3567 -0.3445 -0.9039
 4898TIP3   OH214699   2.997   1.323   3.306  0.1622 -0.4750 -0.0306
 4898TIP3    H114700   3.026   1.414   3.307  3.3770 -1.3612 -1.6965
 4898TIP3    H214701   3.004   1.294   3.397  1.1368  0.3659  0.1718
 4899TIP3   OH214702   4.893   1.284   0.524  0.2055  0.3865  0.1433
 4899TIP3    H114703   4.939   1.327   0.452  0.3852 -1.4834 -0.9456
 4899TIP3    H214704   4.873   1.197   0.490  0.5362 -0.6729  2.4531
 4900TIP3   OH214705   4.723   2.725   3.629  0.4701  0.1606 -0.0079
 4900TIP3    H114706   4.777   2.746   3.553 -0.1192 -0.7021 -0.6884
 4900TIP3    H214707   4.751   2.787   3.697  1.9058  0.0958 -0.5140
 4901TIP3   OH214708   0.875   4.267   4.925 -0.1886  0.0502  0.1685
 4901TIP3    H114709   0.901   4.176   4.912  1.4814  0.4120  0.7366
 4901TIP3    H214710   0.942   4.318   4.880 -0.9008  1.0253  0.1684
 4902TIP3   OH214711   5.729   0.940   2.313 -0.2745  0.5154 -0.2009
 4902TIP3    H114712   5.794   0.889   2.361  1.2132  1.3664 -1.2262
 4902TIP3    H214713   5.648   0.929   2.363  1.0345  0.8780  2.1580
 4903TIP3   OH214714   0.118   2.355   1.926  0.1368  1.0731 -0.6837
 4903TIP3    H114715   0.029   2.347   1.960  0.3793  1.4731  0.0692
 4903TIP3    H214716   0.125   2.446   1.896 -0.0864  0.7168 -1.8689
 4904TIP3   OH214717   0.100   2.408   2.608 -0.0905  0.5328 -0.1627
 4904TIP3    H114718   0.036   2.449   2.550 -0.5167 -0.2132 -0.2257
 4904TIP3    H214719   0.052   2.340   2.654  0.7316 -0.2887 -0.4851
 4905TIP3   OH214720   1.983   5.926   4.915  0.4339  0.5728  0.3259
 4905TIP3    H114721   1.994   5.841   4.873  2.5780  0.8165  0.2935
 4905TIP3    H214722   1.889   5.942   4.913 -0.1305 -2.1231  0.9930
 4906TIP3   OH214723   3.778   5.681   2.242  0.5932  0.2957  0.0297
 4906TIP3    H114724   3.854   5.677   2.183  0.1161  0.0759 -0.5775
 4906TIP3    H214725   3.765   5.591   2.271 -0.0200  0.1647 -0.6279
 4907TIP3   OH214726   0.303   2.643   0.833 -0.1566  0.4569 -0.2679
 4907TIP3    H114727   0.211   2.640   0.860 -0.3096  2.0346 -0.5041
 4907TIP3    H214728   0.314   2.731   0.796  1.2208 -0.0308 -1.0839
 4908TIP3   OH214729   3.020   4.316   3.173  0.1431 -0.5930  0.1720
 4908TIP3    H114730   3.086   4.385   3.181 -0.2439 -0.3123  1.1239
 4908TIP3    H214731   2.970   4.322   3.255 -0.2055 -1.6848  0.0479
 4909TIP3   OH214732   1.554   2.428   2.813 -0.1655 -0.0116 -0.5079
 4909TIP3    H114733   1.626   2.426   2.750  1.1450 -1.2433  0.9322
 4909TIP3    H214734   1.558   2.515   2.852  1.2849 -0.4308  0.3344
 4910TIP3   OH214735   0.295   1.957   4.221 -0.3161 -0.0245  0.4341
 4910TIP3    H114736   0.230   2.010   4.266  1.1363 -0.0977  2.7917
 4910TIP3    H214737   0.300   1.876   4.272  0.7026 -0.5599 -0.4598
 4911TIP3   OH214738   5.329   4.693   2.496 -0.1693  0.2084 -0.8079
 4911TIP3    H114739   5.339   4.788   2.509  1.8840 -0.1923  1.1843
 4911TIP3    H214740   5.237   4.676   2.518  0.1310  1.4090  1.7230
 4912TIP3   OH214741   0.826   3.189   2.827  0.3935  0.1172  0.7307
 4912TIP3    H114742   0.807   3.184   2.734 -0.0700 -0.2524  0.8431
 4912TIP3    H214743   0.922   3.190   2.832  0.4499 -1.2758  0.3083
 4913TIP3   OH214744   3.591   4.239   2.147 -0.3113  0.1079  0.2497
 4913TIP3    H114745   3.675   4.231   2.102 -0.8758 -0.7309 -0.6852
 4913TIP3    H214746   3.564   4.329   2.133  0.8850  0.6973  1.4205
 4914TIP3   OH214747   1.447   2.049   4.726  0.0865  0.1048  0.1253
 4914TIP3    H114748   1.538   2.020   4.733 -0.3417 -1.5930 -0.6156
 4914TIP3    H214749   1.397   1.980   4.769 -0.8913  0.6527 -0.1147
 4915TIP3   OH214750   5.124   3.281   3.775 -0.2058 -0.1240 -0.4436
 4915TIP3    H114751   5.175   3.200   3.777 -0.1571 -0.0990 -0.6504
 4915TIP3    H214752   5.112   3.300   3.682  0.4333  0.5096 -0.4085
 4916TIP3   OH214753   6.101   3.473   4.843 -0.4527  0.0623  0.0929
 4916TIP3    H114754   6.145   3.391   4.819  0.7624  0.5009  0.7349
 4916TIP3    H214755   6.057   3.501   4.763 -0.6586 -1.0782 -0.2069
 4917TIP3   OH214756   1.731   5.158   3.778  0.7990  0.1033 -0.1320
 4917TIP3    H114757   1.703   5.249   3.779  1.7471  0.4074  0.6657
 4917TIP3    H214758   1.655   5.109   3.747  0.0606  1.0907  0.0914
 4918TIP3   OH214759   5.562   5.910   3.776  0.2708 -0.4625 -0.3532
 4918TIP3    H114760   5.540   6.002   3.792 -0.5622 -0.8399  0.8201
 4918TIP3    H214761   5.590   5.877   3.861  1.5759 -1.0564 -0.9832
 4919TIP3   OH214762   4.358   1.748   3.086  0.1308  0.3437  0.1569
 4919TIP3    H114763   4.278   1.801   3.081 -0.9664 -1.2089  0.4815
 4919TIP3    H214764   4.366   1.709   2.999  0.0265 -0.2154  0.3983
 4920TIP3   OH214765   3.181   2.824   1.693 -0.3059 -0.3394  0.7306
 4920TIP3    H114766   3.275   2.806   1.695 -0.1309  0.6021  1.5439
 4920TIP3    H214767   3.144   2.750   1.644  0.8897 -0.5386  0.0813
 4921TIP3   OH214768   2.333   4.658   4.990 -0.3951 -0.5773 -0.7098
 4921TIP3    H114769   2.237   4.662   4.994 -0.3742  0.5463 -0.9478
 4921TIP3    H214770   2.354   4.566   5.005 -1.5229 -0.8776 -0.8900
 4922TIP3   OH214771   4.645   4.761   0.904 -0.0263 -0.4549  0.7995
 4922TIP3    H114772   4.561   4.754   0.859  0.1460 -1.2314  0.5735
 4922TIP3    H214773   4.624   4.753   0.997 -0.3451  0.7819  0.8442
 4923TIP3   OH214774   5.706   3.595   3.119  0.2620  0.1718  0.2046
 4923TIP3    H114775   5.692   3.659   3.189 -1.6401  2.6053 -2.1888
 4923TIP3    H214776   5.649   3.522   3.141  0.4548  0.4375  1.6616
 4924TIP3   OH214777   3.124   2.959   5.014 -0.1682  0.1499  0.2624
 4924TIP3    H114778   3.044   2.941   4.963  1.1151 -0.0341 -1.8215
 4924TIP3    H214779   3.162   3.036   4.971  1.5786 -0.7146  0.2075
 4925TIP3   OH214780   1.034   5.865   1.655 -0.6099 -0.6660  0.1288
 4925TIP3    H114781   1.028   5.927   1.582 -0.3507  0.2224  0.8373
 4925TIP3    H214782   1.127   5.844   1.660 -0.5139 -0.1488  0.6534
 4926TIP3   OH214783   2.558   0.242   3.200  0.3859 -0.1065 -0.4710
 4926TIP3    H114784   2.646   0.214   3.225 -0.0091 -0.3141  0.7606
 4926TIP3    H214785   2.569   0.334   3.175  0.9382 -0.1031 -0.2352
 4927TIP3   OH214786   1.192   2.439   1.786 -0.2940 -0.1912  0.1068
 4927TIP3    H114787   1.277   2.396   1.793 -0.1071  0.3394  1.2232
 4927TIP3    H214788   1.202   2.521   1.834 -1.0149  0.5443 -0.9590
 4928TIP3   OH214789   4.498   1.969   1.700  0.2349  0.0951 -0.8149
 4928TIP3    H114790   4.433   2.039   1.694  0.4191  0.3418 -0.1157
 4928TIP3    H214791   4.579   2.014   1.726  0.4857 -0.3086 -0.8817
 4929TIP3   OH214792   3.183   0.939   0.591 -0.6039  0.2088 -0.0877
 4929TIP3    H114793   3.182   0.973   0.501 -0.5376  0.5122  0.0238
 4929TIP3    H214794   3.275   0.926   0.611 -0.7062 -2.1780 -0.9113
 4930TIP3   OH214795   1.390   1.737   3.136 -0.6138  0.2016  0.1583
 4930TIP3    H114796   1.392   1.817   3.083 -0.6347 -0.1932 -0.4569
 4930TIP3    H214797   1.420   1.669   3.076 -1.8093 -0.4637  0.2949
 4931TIP3   OH214798   4.487   3.082   3.166  0.5808 -0.0788 -0.4444
 4931TIP3    H114799   4.392   3.088   3.155  0.6108  0.0133 -0.6605
 4931TIP3    H214800   4.503   3.108   3.256  0.4564  0.5345 -0.5968
 4932TIP3   OH214801   6.245   2.266   2.761 -0.6917  0.1483 -0.3997
 4932TIP3    H114802   6.219   2.331   2.826 -0.4878 -0.8799  0.7388
 4932TIP3    H214803   6.195   2.289   2.683  0.5995  2.6616 -0.5789
 4933TIP3   OH214804   1.000   4.065   0.106  0.0087 -0.1052 -0.6239
 4933TIP3    H114805   0.932   4.076   0.173 -0.0063 -1.2653 -0.4363
 4933TIP3    H214806   0.970   3.992   0.052  0.9261 -0.4086 -0.7493
 4934TIP3   OH214807   0.247   2.866   3.986 -0.1341 -0.0757 -0.6019
 4934TIP3    H114808   0.278   2.943   4.034 -0.6377 -0.3086  0.1151
 4934TIP3    H214809   0.273   2.882   3.895  0.3546  0.6275 -0.3445
 4935TIP3   OH214810   6.194   1.990   2.270 -0.6076  0.0330 -0.6510
 4935TIP3    H114811   6.124   2.049   2.298 -0.8708  0.1046 -1.4222
 4935TIP3    H214812   6.214   1.938   2.347 -0.1071  1.3915  0.1715
 4936TIP3   OH214813   0.179   3.033   4.429  0.4783  0.2365 -0.3129
 4936TIP3    H114814   0.135   3.001   4.508 -1.2807  1.7235 -0.6170
 4936TIP3    H214815   0.269   3.051   4.456  0.4556 -1.1629  0.8112
 4937TIP3   OH214816   6.105   0.383   1.001  0.0874  1.1804  0.7969
 4937TIP3    H114817   6.193   0.380   0.963  0.8063  1.8267  2.3179
 4937TIP3    H214818   6.101   0.306   1.057 -0.4622  0.9490  0.4375
 4938TIP3   OH214819   6.140   0.941   4.374 -0.0390 -0.8485  0.0360
 4938TIP3    H114820   6.127   1.018   4.319  0.3967 -1.6069 -1.1671
 4938TIP3    H214821   6.194   0.973   4.447  0.5838 -0.1130 -0.7180
 4939TIP3   OH214822   6.044   0.538   4.238 -0.3729  0.1249 -0.0098
 4939TIP3    H114823   6.042   0.603   4.168  0.4875  1.1957  0.9068
 4939TIP3    H214824   6.137   0.534   4.263 -0.5370 -0.8956  0.4679
 4940TIP3   OH214825   1.467   5.601   2.011  0.5153  0.5236  0.1576
 4940TIP3    H114826   1.538   5.549   2.049 -0.9266  0.1243  2.5641
 4940TIP3    H214827   1.442   5.553   1.932  2.3814  0.2561 -0.3059
 4941TIP3   OH214828   3.145   3.596   3.551 -0.3054  0.3219 -0.2064
 4941TIP3    H114829   3.079   3.643   3.500 -2.1494 -0.7124  1.0589
 4941TIP3    H214830   3.108   3.508   3.561  0.6207  0.0944  1.6766
 4942TIP3   OH214831   4.912   5.114   4.940 -0.5466  0.1512 -0.2228
 4942TIP3    H114832   4.871   5.093   4.856 -1.2134  1.0802 -0.1514
 4942TIP3    H214833   4.987   5.169   4.916 -0.8430  0.5680 -0.2103
 4943TIP3   OH214834   5.198   5.971   1.351 -0.7207 -0.1955 -0.0915
 4943TIP3    H114835   5.220   5.933   1.436 -0.7870  0.2621  0.1387
 4943TIP3    H214836   5.125   6.031   1.371  0.7367  1.6653 -0.0405
 4944TIP3   OH214837   1.062   0.948   0.937 -0.3137 -0.0382 -0.0098
 4944TIP3    H114838   1.116   0.943   1.015 -0.6350 -1.1613  0.1534
 4944TIP3    H214839   1.073   1.038   0.906 -0.1066  0.3877  1.2570
 4945TIP3   OH214840   1.311   2.379   3.565  0.2716 -0.4602 -0.5613
 4945TIP3    H114841   1.360   2.413   3.490  0.9321 -0.4515 -0.1279
 4945TIP3    H214842   1.225   2.420   3.557  1.3233  2.1623  0.4784
 4946TIP3   OH214843   1.160   3.886   0.257  0.0789  0.1184 -0.0319
 4946TIP3    H114844   1.159   3.930   0.342  1.6490  0.6525 -0.2535
 4946TIP3    H214845   1.120   3.949   0.197  0.4481  0.4206  0.0322
 4947TIP3   OH214846   3.654   5.727   1.650 -0.5968  0.2141  0.1652
 4947TIP3    H114847   3.686   5.812   1.679 -0.4614  0.6362 -1.1466
 4947TIP3    H214848   3.618   5.743   1.563 -2.5558 -0.6519  0.7378
 4948TIP3   OH214849   3.991   1.107   0.272 -0.0233  0.2506 -0.0611
 4948TIP3    H114850   3.980   1.198   0.244  1.6025  0.1252 -1.1985
 4948TIP3    H214851   4.084   1.090   0.263 -0.3317 -1.6222 -0.1018
 4949TIP3   OH214852   4.082   5.734   0.713 -0.0500 -0.4551  0.3043
 4949TIP3    H114853   4.093   5.733   0.618 -0.3266  1.9944  0.1676
 4949TIP3    H214854   4.132   5.658   0.744 -0.2335 -1.5090 -1.7907
 4950TIP3   OH214855   0.907   4.676   3.906  0.1119 -0.0380  0.1049
 4950TIP3    H114856   0.826   4.628   3.890 -0.2855  0.9066 -0.8545
 4950TIP3    H214857   0.903   4.701   3.998 -0.1431 -0.9578  0.3535
 4951TIP3   OH214858   1.191   1.856   0.523  0.3688  0.2580  0.4122
 4951TIP3    H114859   1.262   1.876   0.461 -0.6104  1.7311 -0.2872
 4951TIP3    H214860   1.192   1.760   0.529  2.5251  0.2305  0.5849
 4952TIP3   OH214861   1.608   4.452   1.176  0.0708  0.0136 -0.1921
 4952TIP3    H114862   1.521   4.465   1.139 -0.4961  0.0740  1.0900
 4952TIP3    H214863   1.593   4.450   1.271  1.5027  0.2979  0.0590
 4953TIP3   OH214864   4.622   1.305   4.224 -0.2338 -0.2549 -0.1640
 4953TIP3    H114865   4.666   1.249   4.288 -0.6706 -2.0917 -1.3859
 4953TIP3    H214866   4.693   1.350   4.179  0.4869 -2.6251 -1.6057
 4954TIP3   OH214867   1.972   4.200   3.199  0.0036  0.1326 -0.1707
 4954TIP3    H114868   1.940   4.176   3.112 -0.3003 -1.8574  0.4355
 4954TIP3    H214869   2.061   4.232   3.184 -0.8792  2.2252 -1.4585
 4955TIP3   OH214870   2.835   4.560   2.979  0.5289  0.7028  0.4513
 4955TIP3    H114871   2.872   4.570   3.067 -1.2882  0.4176  1.2977
 4955TIP3    H214872   2.742   4.578   2.990 -0.0396 -1.0037 -1.0937
 4956TIP3   OH214873   3.619   4.095   2.419  0.2020  0.1133 -0.4006
 4956TIP3    H114874   3.652   4.092   2.329 -1.3307 -1.4190 -0.9515
 4956TIP3    H214875   3.632   4.006   2.452  0.7060  0.6483  0.9049
 4957TIP3   OH214876   2.796   5.745   3.334 -0.1341  1.3736 -0.1852
 4957TIP3    H114877   2.862   5.761   3.266 -0.6558  1.8060 -0.5979
 4957TIP3    H214878   2.715   5.730   3.286 -0.5361  1.8118  0.3419
 4958TIP3   OH214879   3.823   5.713   0.654  0.4881  0.4615 -0.3043
 4958TIP3    H114880   3.850   5.632   0.611  0.2384 -0.5286  1.3096
 4958TIP3    H214881   3.890   5.728   0.722 -1.3210 -0.4069  1.7793
 4959TIP3   OH214882   4.599   3.567   4.288 -0.0650  0.1522 -0.4209
 4959TIP3    H114883   4.540   3.642   4.295  0.4055  0.5519 -0.6842
 4959TIP3    H214884   4.561   3.501   4.346 -0.7537  0.4130 -0.5606
 4960TIP3   OH214885   1.097   5.426   5.110 -0.3363  0.4588  0.9709
 4960TIP3    H114886   1.078   5.442   5.202  0.7738  2.4052  0.9093
 4960TIP3    H214887   1.192   5.411   5.106 -0.5616 -1.0571  0.2892
 4961TIP3   OH214888   3.910   0.952   2.490  0.1591  0.4297  0.1660
 4961TIP3    H114889   3.916   0.861   2.461  1.9027  0.9160 -1.1005
 4961TIP3    H214890   3.833   0.987   2.444  0.2763 -0.0395 -0.3962
 4962TIP3   OH214891   3.861   4.143   2.138 -0.7922 -0.2675  0.3246
 4962TIP3    H114892   3.884   4.096   2.218  0.9921  0.3125  0.1944
 4962TIP3    H214893   3.905   4.228   2.146  0.2331 -0.5466 -1.6541
 4963TIP3   OH214894   5.654   4.069   0.020  0.0491  0.2109  0.0180
 4963TIP3    H114895   5.702   4.050   0.101  0.8611 -1.7561 -0.8643
 4963TIP3    H214896   5.689   4.007  -0.044 -1.7413  0.5984 -1.4218
 4964TIP3   OH214897   3.909   4.201   3.620  0.4062  0.0192 -0.1952
 4964TIP3    H114898   3.907   4.296   3.628 -0.9842  0.1520 -1.6291
 4964TIP3    H214899   3.937   4.185   3.529  0.1778 -0.9214 -0.1184
 4965TIP3   OH214900   3.756   1.276   0.166  0.1668 -0.3829 -0.7100
 4965TIP3    H114901   3.801   1.315   0.091 -0.5220  0.5084 -0.6728
 4965TIP3    H214902   3.797   1.317   0.242 -0.3564  0.0445 -0.6596
 4966TIP3   OH214903   2.629   1.729   4.427  0.3664 -0.7044  0.0914
 4966TIP3    H114904   2.706   1.694   4.472  1.4831  0.0614 -1.1802
 4966TIP3    H214905   2.584   1.652   4.393  1.2089 -1.0810 -0.1757
 4967TIP3   OH214906  -0.026   1.115   2.410 -0.0491  0.5073  0.1532
 4967TIP3    H114907   0.047   1.122   2.349 -0.1142  0.2586  0.0468
 4967TIP3    H214908  -0.005   1.176   2.480  0.3957  0.2265  0.2657
 4968TIP3   OH214909   1.126   1.253   2.757  0.3826 -0.0543  0.0778
 4968TIP3    H114910   1.083   1.205   2.686  0.0395  0.4143 -0.0324
 4968TIP3    H214911   1.215   1.267   2.726  0.0671  0.6734 -0.5189
 4969TIP3   OH214912   3.423   3.078   3.837  0.2781  0.2740 -0.2124
 4969TIP3    H114913   3.438   3.165   3.875 -1.4439 -0.3150  2.0856
 4969TIP3    H214914   3.333   3.080   3.805  0.1114 -0.7026  0.1269
 4970TIP3   OH214915   3.349   1.559   1.854  0.0090 -0.5090 -0.0965
 4970TIP3    H114916   3.256   1.543   1.870 -0.4289  0.0852 -1.8071
 4970TIP3    H214917   3.375   1.622   1.921 -1.9333  2.5339 -1.9597
 4971TIP3   OH214918   3.904   1.078   3.616 -0.1971 -0.2950 -0.1515
 4971TIP3    H114919   3.880   0.993   3.653 -2.9897  0.8516  0.9429
 4971TIP3    H214920   3.983   1.103   3.662  0.3508 -2.0300 -0.0806
 4972TIP3   OH214921   2.802   5.231   2.062  0.6031  0.3759  0.2926
 4972TIP3    H114922   2.881   5.187   2.093  0.0499 -0.6719  0.2646
 4972TIP3    H214923   2.781   5.186   1.980 -1.7752 -1.5332  1.8287
 4973TIP3   OH214924   1.206   3.372   1.320 -0.2760  0.8219  0.3283
 4973TIP3    H114925   1.233   3.423   1.244  1.8400  0.0200  0.4651
 4973TIP3    H214926   1.282   3.317   1.340 -1.4505 -0.3315  1.8951
 4974TIP3   OH214927   2.636   2.161   3.610 -0.2603  0.0294 -0.4241
 4974TIP3    H114928   2.703   2.093   3.615  0.2661  0.6332  1.2260
 4974TIP3    H214929   2.618   2.184   3.701  0.5788  3.0599 -0.9246
 4975TIP3   OH214930   3.126   3.357   4.696 -0.1689 -0.1807 -0.2296
 4975TIP3    H114931   3.169   3.282   4.737 -2.2539 -1.1096  0.3894
 4975TIP3    H214932   3.142   3.430   4.756  0.8542 -0.3950 -0.2267
 4976TIP3   OH214933   2.875   5.793   1.941  0.5901  0.2194  0.1415
 4976TIP3    H114934   2.935   5.858   1.905  0.5124 -0.5456 -1.4430
 4976TIP3    H214935   2.845   5.831   2.024  2.1607  1.2296  0.2743
 4977TIP3   OH214936   2.931   2.549   1.357 -0.2009  0.1837  0.1881
 4977TIP3    H114937   2.956   2.478   1.298 -1.6729  0.5353 -0.9109
 4977TIP3    H214938   2.895   2.616   1.300  2.0636  2.3200  1.0802
 4978TIP3   OH214939   0.253   5.764   0.088 -0.6169 -0.7490 -0.0616
 4978TIP3    H114940   0.187   5.827   0.061  0.0748 -0.7796 -1.9675
 4978TIP3    H214941   0.234   5.685   0.037  1.0467 -0.6456 -0.9198
 4979TIP3   OH214942   4.907   1.675   0.202 -0.4160  0.2233  0.9337
 4979TIP3    H114943   4.863   1.748   0.245 -0.3443  2.0978 -1.8872
 4979TIP3    H214944   4.982   1.715   0.158 -0.1059 -1.6163 -0.3454
 4980TIP3   OH214945   5.502   3.466   2.022 -0.7575 -0.9193 -0.3983
 4980TIP3    H114946   5.441   3.395   1.997 -0.2905 -0.9203 -1.6033
 4980TIP3    H214947   5.557   3.478   1.945 -0.2460  0.1621  0.1203
 4981TIP3   OH214948   2.057   2.112   1.609 -0.1172 -0.2653 -0.5571
 4981TIP3    H114949   2.099   2.139   1.691  2.4470 -2.8146 -0.8758
 4981TIP3    H214950   2.033   2.195   1.567 -0.5415  1.1501  2.2206
 4982TIP3   OH214951   1.787   2.358   1.185  0.7450 -0.7286 -0.2483
 4982TIP3    H114952   1.698   2.342   1.154  1.7424 -1.6228 -2.9095
 4982TIP3    H214953   1.786   2.332   1.277 -2.0087  0.4471  0.1352
 4983TIP3   OH214954   3.872   1.267   2.850  0.3443 -0.3691 -0.6733
 4983TIP3    H114955   3.843   1.191   2.900  1.6383 -0.7797 -0.4901
 4983TIP3    H214956   3.857   1.342   2.907 -0.9929 -0.4713 -0.8733
 4984TIP3   OH214957   1.949   2.534   4.454  0.4039  0.2370 -0.7836
 4984TIP3    H114958   2.035   2.532   4.411 -0.5802  1.0353 -2.9543
 4984TIP3    H214959   1.894   2.478   4.399 -0.3106 -0.9556  1.0515
 4985TIP3   OH214960   6.135   3.974   5.017 -0.4348 -0.1361 -0.6960
 4985TIP3    H114961   6.192   3.914   5.065 -1.7001  0.9190  2.3581
 4985TIP3    H214962   6.058   3.921   4.995  0.0870 -0.5843 -1.5179
 4986TIP3   OH214963   3.628   0.155   4.128  0.0144  0.3182 -0.1000
 4986TIP3    H114964   3.563   0.183   4.192  0.8085  0.5824  0.6221
 4986TIP3    H214965   3.711   0.155   4.177  0.5029 -0.3312 -0.9013
 4987TIP3   OH214966   2.084   4.610   2.433 -0.0570 -0.1729 -0.2469
 4987TIP3    H114967   2.114   4.650   2.515 -0.8038 -0.1084  0.0016
 4987TIP3    H214968   1.991   4.632   2.429 -0.3093 -1.2382 -0.4889
 4988TIP3   OH214969   1.787   5.753   1.589 -0.3705 -0.1493 -0.0019
 4988TIP3    H114970   1.879   5.778   1.585 -0.6214  0.6945 -0.6698
 4988TIP3    H214971   1.783   5.668   1.546 -0.2648  0.9217 -2.2687
 4989TIP3   OH214972   5.553   2.718   4.290 -0.2792  0.1103  0.9562
 4989TIP3    H114973   5.460   2.713   4.269 -0.1271 -0.6763  0.3965
 4989TIP3    H214974   5.596   2.666   4.220  0.5078 -0.1460  1.6096
 4990TIP3   OH214975   4.092   4.800   0.702 -0.1719  0.9092 -0.4734
 4990TIP3    H114976   4.112   4.836   0.789 -0.4912 -2.6582  1.2699
 4990TIP3    H214977   3.998   4.782   0.705  0.2495 -1.5659 -0.5141
 4991TIP3   OH214978   4.530   1.692   1.627  0.3076 -0.3438 -0.3635
 4991TIP3    H114979   4.444   1.650   1.622  0.4527 -0.5119 -2.0385
 4991TIP3    H214980   4.511   1.784   1.641 -0.0778 -0.6250  1.1114
 4992TIP3   OH214981   1.003   5.761   2.985  0.4593 -0.2461  0.1515
 4992TIP3    H114982   1.045   5.846   2.969  2.2857 -1.0428  0.4487
 4992TIP3    H214983   1.033   5.736   3.072 -1.1011 -0.6368  0.6057
 4993TIP3   OH214984   5.653   4.497   1.308 -0.2823 -0.5812 -0.7213
 4993TIP3    H114985   5.697   4.478   1.390 -0.6873  0.5292 -0.2227
 4993TIP3    H214986   5.719   4.544   1.256 -0.9810  1.6108  0.2533
 4994TIP3   OH214987   4.835   4.459   0.559  0.0058 -0.8029  0.4013
 4994TIP3    H114988   4.879   4.487   0.639 -0.1101  0.8670 -0.0909
 4994TIP3    H214989   4.762   4.406   0.589  0.3614 -0.7646  1.3710
 4995TIP3   OH214990   4.175   2.922   1.736 -0.0944 -0.0515  0.1799
 4995TIP3    H114991   4.112   2.921   1.809 -0.8104 -0.0359 -0.4221
 4995TIP3    H214992   4.231   2.998   1.754 -1.9041  1.5671 -0.6098
 4996TIP3   OH214993   5.648   5.889   4.698  0.1984  0.1758  0.0135
 4996TIP3    H114994   5.613   5.801   4.681  2.0319 -0.4059 -1.1338
 4996TIP3    H214995   5.622   5.940   4.622  0.5490  0.1338 -0.1411
 4997TIP3   OH214996   0.197   4.451   4.972  0.1303  0.7268  0.5499
 4997TIP3    H114997   0.285   4.467   5.006  0.0451  1.4857  0.4349
 4997TIP3    H214998   0.145   4.427   5.049  0.9470 -2.1565  0.3138
 4998TIP3   OH214999   5.166   4.264   0.050  0.2052 -0.4118  0.8215
 4998TIP3    H115000   5.156   4.353   0.016  2.7369 -0.1653  0.5061
 4998TIP3    H215001   5.253   4.264   0.090 -0.3485 -2.3504  2.1709
 4999TIP3   OH215002   4.582   4.598   3.415 -0.0209 -0.0238  0.3191
 4999TIP3    H115003   4.557   4.505   3.411  0.8251 -0.3499  1.7940
 4999TIP3    H215004   4.539   4.630   3.494 -0.1962  0.8201 -0.1135
 5000TIP3   OH215005   5.451   3.053   1.510  0.0404  0.1071 -0.2028
 5000TIP3    H115006   5.461   2.960   1.531 -1.1276 -0.2264 -0.9806
 5000TIP3    H215007   5.411   3.053   1.423  1.3291  1.3667 -0.8267
 5001TIP3   OH215008   0.781   1.345   3.439 -0.4423  0.3719  0.2301
 5001TIP3    H115009   0.768   1.313   3.528 -0.1413  0.1850  0.2097
 5001TIP3    H215010   0.847   1.414   3.448  0.2155 -0.2207  0.0483
 5002TIP3   OH215011   2.472   5.519   4.672  0.5060 -0.8586 -0.0794
 5002TIP3    H115012   2.543   5.495   4.613  1.2325 -1.1199  0.8721
 5002TIP3    H215013   2.514   5.531   4.757 -0.3916  0.3227  0.2248
 5003TIP3   OH215014   6.098   0.804   1.570  0.3059 -0.2654 -0.4998
 5003TIP3    H115015   6.047   0.729   1.539  0.6265 -0.2751 -1.0224
 5003TIP3    H215016   6.185   0.790   1.533  0.6819 -0.2332  0.3549
 5004TIP3   OH215017   3.645   2.755   1.133  0.5033 -0.5659 -0.7131
 5004TIP3    H115018   3.702   2.755   1.209  2.3930  0.8484 -2.0322
 5004TIP3    H215019   3.565   2.712   1.162  0.1745  2.0029  2.8039
 5005TIP3   OH215020   1.579   3.511   1.106 -0.3723  0.4895 -0.1160
 5005TIP3    H115021   1.579   3.502   1.202 -1.4952  0.7135 -0.0865
 5005TIP3    H215022   1.561   3.604   1.091  1.7674  0.8945 -0.5452
 5006TIP3   OH215023   5.925   0.065   2.269 -0.5635  0.3063  0.4600
 5006TIP3    H115024   5.975   0.147   2.270  0.8210 -0.4640 -1.0578
 5006TIP3    H215025   5.941   0.028   2.182 -2.1602 -0.9910  0.6742
 5007TIP3   OH215026   6.139   4.618   2.694 -0.2581 -0.6140 -0.8701
 5007TIP3    H115027   6.048   4.640   2.678  0.1967  0.5726 -2.0394
 5007TIP3    H215028   6.177   4.697   2.732  0.2817 -1.1129 -0.3414
 5008TIP3   OH215029   2.429   0.772   2.302  0.0333 -0.3127 -0.3052
 5008TIP3    H115030   2.467   0.699   2.351 -1.0425 -1.7793 -1.5694
 5008TIP3    H215031   2.502   0.810   2.254  0.9399  0.6082  1.6867
 5009TIP3   OH215032   0.335   2.756   2.701  0.6072  0.1624 -0.3742
 5009TIP3    H115033   0.376   2.837   2.672  0.4418  0.2295 -0.4190
 5009TIP3    H215034   0.407   2.693   2.706  0.4451 -0.2508 -2.3178
 5010TIP3   OH215035   5.800   1.142   3.016  0.4497 -0.5119  0.1260
 5010TIP3    H115036   5.808   1.233   2.988  0.5755 -0.9149 -1.2088
 5010TIP3    H215037   5.874   1.098   2.976 -1.7067 -1.9792 -2.5848
 5011TIP3   OH215038   3.214   1.900   2.152 -0.4454  0.0666  0.1734
 5011TIP3    H115039   3.128   1.923   2.120 -0.1975  1.5801  0.5324
 5011TIP3    H215040   3.238   1.971   2.211  1.6866  0.4801 -1.0837
 5012TIP3   OH215041   0.192   0.364   4.067  0.2801  0.0551 -0.8508
 5012TIP3    H115042   0.258   0.295   4.063 -0.3490 -0.6307  0.2650
 5012TIP3    H215043   0.166   0.368   4.159 -1.4358  0.1281 -1.3070
 5013TIP3   OH215044   3.404   2.356   2.455 -0.4240  0.6815 -0.3651
 5013TIP3    H115045   3.418   2.408   2.534  1.9084 -2.0136  1.1533
 5013TIP3    H215046   3.488   2.313   2.439 -1.4743 -0.5874 -3.0563
 5014TIP3   OH215047   1.372   3.870   1.097 -0.2466  0.9065  0.1113
 5014TIP3    H115048   1.325   3.848   1.017 -0.0641 -1.4425  0.5829
 5014TIP3    H215049   1.303   3.888   1.161 -0.3955  2.3958 -0.4269
 5015TIP3   OH215050   5.082   1.398   2.687  0.9671  0.3698 -0.5308
 5015TIP3    H115051   5.054   1.476   2.639  1.8776 -0.4555 -2.4744
 5015TIP3    H215052   5.027   1.398   2.766  1.5752  3.4514  0.0299
 5016TIP3   OH215053   2.898   3.888   2.961  0.0389 -0.0517 -0.3703
 5016TIP3    H115054   2.915   3.898   2.867 -0.3996 -0.7193 -0.5265
 5016TIP3    H215055   2.967   3.940   3.003  0.2381  0.2566 -1.0573
 5017TIP3   OH215056   3.632   0.152   1.837  0.2923  0.3309 -0.1986
 5017TIP3    H115057   3.662   0.061   1.845  1.4729  0.8567  2.3595
 5017TIP3    H215058   3.597   0.173   1.924 -1.9246  1.7307 -1.3227
 5018TIP3   OH215059   4.451   1.442   0.615 -0.3960  0.5305  0.2908
 5018TIP3    H115060   4.528   1.438   0.672  0.0937  0.2385 -0.3810
 5018TIP3    H215061   4.486   1.466   0.529 -0.5156 -2.9959 -0.9134
 5019TIP3   OH215062   2.282   5.418   3.734 -0.0335 -0.0180 -0.1123
 5019TIP3    H115063   2.289   5.371   3.652  0.7160 -0.3502  0.1323
 5019TIP3    H215064   2.322   5.504   3.717 -1.6891  0.6731 -0.6484
 5020TIP3   OH215065   1.115   2.228   0.714 -0.0131 -0.1654 -0.0602
 5020TIP3    H115066   1.061   2.268   0.781 -0.5043 -2.1106  0.7599
 5020TIP3    H215067   1.173   2.299   0.685  2.4556  0.1245  4.6423
 5021TIP3   OH215068   5.036   1.347   2.053 -0.2220  0.4492  0.3424
 5021TIP3    H115069   4.946   1.319   2.037  0.0733 -0.0708 -0.4399
 5021TIP3    H215070   5.081   1.269   2.084  0.2321  0.4139 -0.3686
 5022TIP3   OH215071   4.899   3.941   1.469  0.1856  0.0463 -0.3768
 5022TIP3    H115072   4.865   3.931   1.380  1.3432 -0.7926 -0.7531
 5022TIP3    H215073   4.920   3.851   1.497  1.0420  0.4247  0.2459
 5023TIP3   OH215074   2.544   2.172   0.604 -0.1703  0.6036 -0.2017
 5023TIP3    H115075   2.610   2.102   0.606  0.6056  1.2384 -1.8211
 5023TIP3    H215076   2.460   2.126   0.609  0.3042 -0.5467 -1.9495
 5024TIP3   OH215077   1.778   5.477   0.218  0.1280  0.1615 -0.1074
 5024TIP3    H115078   1.812   5.545   0.159  1.9198 -1.4984 -1.0901
 5024TIP3    H215079   1.727   5.420   0.161  2.6757 -2.0126 -0.3770
 5025TIP3   OH215080   0.864   0.931   3.649  0.5348 -0.1891  0.2515
 5025TIP3    H115081   0.894   0.986   3.577 -0.8750  0.8632  0.4199
 5025TIP3    H215082   0.934   0.936   3.714  2.1923 -1.7577 -1.2665
 5026TIP3   OH215083   5.648   3.120   3.379 -0.5464 -0.3417 -0.3510
 5026TIP3    H115084   5.614   3.208   3.361 -2.4054 -0.5299  1.7244
 5026TIP3    H215085   5.608   3.065   3.311  0.3031  0.3300 -1.4172
 5027TIP3   OH215086   0.204   3.937   2.385  0.0343  0.3499 -0.5966
 5027TIP3    H115087   0.195   4.009   2.446 -1.3982 -0.3358  0.0408
 5027TIP3    H215088   0.170   3.971   2.302  0.9050  0.9097 -0.7382
 5028TIP3   OH215089   4.988   1.763   4.811 -0.6329 -0.3440  0.2684
 5028TIP3    H115090   4.909   1.715   4.787  0.5341 -1.9687 -0.5166
 5028TIP3    H215091   5.058   1.721   4.761  0.7045  1.2038  0.7443
 5029TIP3   OH215092   0.924   1.199   0.857  1.1395  0.1186 -0.1306
 5029TIP3    H115093   0.843   1.223   0.902  1.0646  0.7237 -0.5851
 5029TIP3    H215094   0.902   1.121   0.807  0.8551  0.2395 -0.1948
 5030TIP3   OH215095   0.288   5.401   3.005  0.6903  0.5698  0.0413
 5030TIP3    H115096   0.354   5.332   2.996  0.3236  0.2796 -0.4978
 5030TIP3    H215097   0.214   5.370   2.953 -0.8238 -0.2350  2.5481
 5031TIP3   OH215098   3.803   3.086   1.737  0.0856  0.6222 -0.1935
 5031TIP3    H115099   3.895   3.109   1.754  0.2929  0.3163 -0.8772
 5031TIP3    H215100   3.802   2.990   1.737 -0.6670  0.5772  2.0555
 5032TIP3   OH215101   0.741   3.908   4.004 -0.5372 -0.3314  0.3796
 5032TIP3    H115102   0.665   3.947   3.962 -0.2302  0.9514  0.9539
 5032TIP3    H215103   0.772   3.975   4.065  0.9182 -0.9017  0.3171
 5033TIP3   OH215104   2.714   1.031   1.267  0.1537  0.2256 -0.3060
 5033TIP3    H115105   2.719   1.013   1.361 -1.6984 -1.8785 -0.5513
 5033TIP3    H215106   2.805   1.022   1.236  0.5012 -0.9419  0.9747
 5034TIP3   OH215107   0.942   0.043   1.699 -0.1610 -0.2263  0.4071
 5034TIP3    H115108   0.969   0.034   1.790 -1.9683 -0.3428  0.9537
 5034TIP3    H215109   0.926   0.137   1.688 -0.0629 -0.2286  0.2274
 5035TIP3   OH215110   4.475   4.386   4.774  0.0758 -0.2510 -0.2516
 5035TIP3    H115111   4.519   4.409   4.693  0.0425 -2.5126 -0.9718
 5035TIP3    H215112   4.541   4.338   4.824 -0.4210 -0.3436  0.3281
 5036TIP3   OH215113   1.259   4.725   2.958 -0.1571  0.1301 -0.0834
 5036TIP3    H115114   1.322   4.754   3.023  0.3442 -0.4776 -0.2922
 5036TIP3    H215115   1.310   4.675   2.895 -0.7840 -0.0597 -0.4548
 5037TIP3   OH215116   6.318   5.915   1.364  0.3802  0.5121  0.1713
 5037TIP3    H115117   6.257   5.847   1.392  0.5007  0.6480  0.7986
 5037TIP3    H215118   6.395   5.868   1.332  0.5253  0.3482  0.7490
 5038TIP3   OH215119   3.975   5.431   0.764  0.2284  0.0394  0.5209
 5038TIP3    H115120   4.064   5.446   0.796 -0.2907  0.3381  1.9135
 5038TIP3    H215121   3.983   5.432   0.669  1.8850 -1.0230  0.5966
 5039TIP3   OH215122   4.591   2.816   3.091  0.0137 -0.2196  0.7143
 5039TIP3    H115123   4.589   2.795   2.997  0.4805 -0.9985  0.8673
 5039TIP3    H215124   4.594   2.911   3.094  2.5606 -0.2106 -0.1389
 5040TIP3   OH215125   4.329   2.229   2.745 -0.5955  0.1877 -0.9399
 5040TIP3    H115126   4.252   2.271   2.708  0.5154  2.4974 -0.8476
 5040TIP3    H215127   4.362   2.292   2.810  0.3045 -1.5695  0.4171
 5041TIP3   OH215128   5.055   2.438   3.502 -0.3055  0.3094 -0.1158
 5041TIP3    H115129   5.078   2.498   3.431 -1.2419 -0.1218 -0.8104
 5041TIP3    H215130   5.086   2.481   3.581 -0.1307  1.2726 -0.6912
 5042TIP3   OH215131   1.798   3.865   0.374 -0.1733  0.1408  0.1854
 5042TIP3    H115132   1.711   3.890   0.405 -0.6760  1.0634 -1.7827
 5042TIP3    H215133   1.784   3.780   0.332  0.3099 -0.6552  1.5759
 5043TIP3   OH215134   5.377   5.398   4.611 -0.3837 -0.3240 -0.3580
 5043TIP3    H115135   5.387   5.469   4.675  0.4887 -0.6469 -0.1248
 5043TIP3    H215136   5.466   5.365   4.597 -0.8156 -1.6378 -0.1530
 5044TIP3   OH215137   6.030   2.594   2.520 -0.0263  0.9204  0.1995
 5044TIP3    H115138   6.121   2.587   2.545  0.2413  3.0443 -0.0043
 5044TIP3    H215139   5.981   2.594   2.602  0.4456  2.9173  0.5216
 5045TIP3   OH215140   6.040   1.802   0.389  0.3667 -0.5216 -0.5707
 5045TIP3    H115141   6.116   1.769   0.341  0.2557 -0.9825 -0.4360
 5045TIP3    H215142   6.068   1.803   0.480 -0.6548 -3.3923 -0.1045
 5046TIP3   OH215143   1.265   1.572   0.517  0.0105  0.1489  0.3316
 5046TIP3    H115144   1.296   1.562   0.427  1.6106  0.2095  0.8468
 5046TIP3    H215145   1.215   1.493   0.534  0.8455 -0.5014 -0.1713
 5047TIP3   OH215146   1.593   3.870   2.490 -0.5875  0.1494 -0.5386
 5047TIP3    H115147   1.634   3.911   2.566 -1.0301  3.1584 -1.7921
 5047TIP3    H215148   1.499   3.885   2.502 -0.7489 -0.3650 -1.1129
 5048TIP3   OH215149   1.605   1.175   1.442  0.2569  0.0989 -0.0794
 5048TIP3    H115150   1.642   1.096   1.481  1.8770  1.0988  0.5561
 5048TIP3    H215151   1.519   1.149   1.409  0.4778 -1.7413  0.7004
 5049TIP3   OH215152   4.339   2.209   1.702  0.1108  0.3585 -0.1328
 5049TIP3    H115153   4.401   2.281   1.692  0.9708 -0.2510  0.5674
 5049TIP3    H215154   4.268   2.229   1.642  0.7827  1.3096 -0.6309
 5050TIP3   OH215155   0.101   1.613   2.052 -0.2859 -0.2601 -0.0915
 5050TIP3    H115156   0.104   1.692   2.106 -0.5375 -0.4153  0.1458
 5050TIP3    H215157   0.034   1.631   1.986 -0.4605 -0.3438  0.0646
 5051TIP3   OH215158   4.453   3.952   4.452 -0.5019  0.2087 -0.2982
 5051TIP3    H115159   4.432   3.870   4.406  0.0764  0.2488 -0.6590
 5051TIP3    H215160   4.388   3.959   4.521 -0.6433 -0.4913 -0.3525
 5052TIP3   OH215161   2.203   5.613   2.030 -0.5973 -0.4355 -0.3331
 5052TIP3    H115162   2.157   5.660   2.100 -1.9919 -0.8706 -0.9288
 5052TIP3    H215163   2.281   5.666   2.013 -0.8410  0.3030  0.7284
 5053TIP3   OH215164   5.354   1.334   4.638 -0.2054  0.4573  0.1308
 5053TIP3    H115165   5.338   1.395   4.710 -0.1423  1.3154 -0.5704
 5053TIP3    H215166   5.361   1.389   4.560 -0.9111 -0.4937 -0.6455
 5054TIP3   OH215167   5.626   4.428   1.761 -0.3330 -0.0237 -0.1652
 5054TIP3    H115168   5.543   4.430   1.809 -0.4030  2.1141 -0.2594
 5054TIP3    H215169   5.603   4.398   1.674 -1.1219  0.9862 -0.3233
 5055TIP3   OH215170   4.453   0.723   0.908  0.2494  0.7538  0.5203
 5055TIP3    H115171   4.419   0.633   0.910 -0.2528  0.8877 -0.7895
 5055TIP3    H215172   4.439   0.756   0.996  0.3597 -0.4214  1.0014
 5056TIP3   OH215173   5.637   0.161   4.884  0.1569  0.1533  0.3508
 5056TIP3    H115174   5.701   0.090   4.888 -0.8704 -0.7488  2.7499
 5056TIP3    H215175   5.644   0.204   4.969 -0.9634  1.3892 -0.1461
 5057TIP3   OH215176   0.989   5.957   0.993  0.3451 -0.4616 -0.2262
 5057TIP3    H115177   1.074   5.991   1.020  0.6461 -0.4955 -1.0845
 5057TIP3    H215178   0.954   5.913   1.070  1.7885 -1.8096 -0.2925
 5058TIP3   OH215179   2.231   0.043   0.166  0.1372 -0.2711  0.4707
 5058TIP3    H115180   2.262   0.114   0.109 -0.6993  0.0859  0.4553
 5058TIP3    H215181   2.161   0.001   0.117  1.4088 -1.9171 -0.0493
 5059TIP3   OH215182   2.874   1.673   2.341  0.2103 -0.2328 -0.3867
 5059TIP3    H115183   2.798   1.691   2.286 -0.4632  2.0518  1.1864
 5059TIP3    H215184   2.843   1.608   2.404  0.6389 -1.9449 -1.8639
 5060TIP3   OH215185   2.734   3.716   4.295  0.9745 -0.4051  0.2493
 5060TIP3    H115186   2.700   3.793   4.250  0.8857  0.4416  1.7028
 5060TIP3    H215187   2.660   3.655   4.297  0.6313  0.0047  0.2620
 5061TIP3   OH215188   5.046   0.519   2.994  0.5301 -0.7417  0.0200
 5061TIP3    H115189   4.950   0.521   2.993  0.5250  0.3885  0.7707
 5061TIP3    H215190   5.072   0.611   2.986  1.5680 -1.0782 -0.6738
 5062TIP3   OH215191   3.613   1.624   4.981  0.2751  0.8173  0.4833
 5062TIP3    H115192   3.568   1.563   4.923 -0.8744  1.3509  0.7843
 5062TIP3    H215193   3.700   1.586   4.994 -0.3433 -0.6362  0.5016
 5063TIP3   OH215194   3.382   1.327   3.933  0.4204  0.4599 -0.3635
 5063TIP3    H115195   3.369   1.233   3.915  0.7643  0.0730  1.2351
 5063TIP3    H215196   3.318   1.371   3.877  0.2581 -0.7234 -1.1514
 5064TIP3   OH215197   4.164   2.453   1.988  0.5485 -0.1748  0.5294
 5064TIP3    H115198   4.130   2.388   2.050  0.9357 -1.9641 -1.0381
 5064TIP3    H215199   4.108   2.443   1.911  1.1140  0.8189 -0.0231
 5065TIP3   OH215200   5.109   3.690   4.437 -0.9412  0.0294  0.1372
 5065TIP3    H115201   5.144   3.747   4.369 -0.5913  0.0979  0.3735
 5065TIP3    H215202   5.023   3.664   4.404 -0.3582 -0.7556 -0.7980
 5066TIP3   OH215203   2.936   3.611   2.971  0.2701  0.1915 -0.1743
 5066TIP3    H115204   2.917   3.606   2.878  1.4631  0.2659 -0.4388
 5066TIP3    H215205   2.944   3.704   2.989  0.4135  0.1638 -0.0875
 5067TIP3   OH215206   3.192   3.906   1.660  0.0906 -0.1851  0.1504
 5067TIP3    H115207   3.106   3.866   1.652 -0.3529  0.7039  0.3916
 5067TIP3    H215208   3.237   3.883   1.578 -0.2842 -0.8371  0.1203
 5068TIP3   OH215209   3.162   4.820   5.050  0.2190 -0.1140 -0.1929
 5068TIP3    H115210   3.190   4.879   5.120 -1.8081  1.6857 -0.7948
 5068TIP3    H215211   3.098   4.762   5.091  2.0017 -1.8350  0.3289
 5069TIP3   OH215212   3.359   5.248   3.520 -0.1906  0.2612  0.0124
 5069TIP3    H115213   3.287   5.210   3.570 -0.2495 -0.0046 -0.2731
 5069TIP3    H215214   3.344   5.219   3.430 -0.9242  1.9649 -0.4400
 5070TIP3   OH215215   2.889   2.908   0.897  0.0829  0.0128 -0.3147
 5070TIP3    H115216   2.974   2.903   0.854 -0.3940  0.2023 -1.2966
 5070TIP3    H215217   2.839   2.835   0.859 -0.6832  0.8025 -0.8637
 5071TIP3   OH215218   3.761   2.060   4.491 -0.3223 -0.8703 -0.0740
 5071TIP3    H115219   3.731   1.985   4.542 -0.0574 -1.1980 -0.3895
 5071TIP3    H215220   3.761   2.029   4.400 -1.3509 -0.1190 -0.3620
 5072TIP3   OH215221   0.076   1.864   2.175 -0.2685 -0.0453  0.4378
 5072TIP3    H115222   0.004   1.912   2.216 -0.4126 -0.4528  0.6709
 5072TIP3    H215223   0.155   1.902   2.212 -0.3946 -0.4038  1.1019
 5073TIP3   OH215224   3.094   3.011   3.491 -0.0426 -0.0918 -0.0454
 5073TIP3    H115225   3.027   2.972   3.546  1.4700 -1.7289  0.7465
 5073TIP3    H215226   3.063   2.997   3.401 -0.1751 -2.0482  0.2620
 5074TIP3   OH215227   5.695   4.358   5.098  0.2838  0.2495 -0.1700
 5074TIP3    H115228   5.652   4.307   5.029 -1.7805  0.5368  0.8412
 5074TIP3    H215229   5.740   4.292   5.151 -1.1679 -0.4275  0.2841
 5075TIP3   OH215230   2.762   0.026   4.613  0.4574  0.3610 -0.1143
 5075TIP3    H115231   2.742   0.077   4.535  1.3472  0.0570 -0.5582
 5075TIP3    H215232   2.700  -0.047   4.610  0.1454  0.6297 -0.2563
 5076TIP3   OH215233   3.522   3.900   2.063  0.5517 -0.1828 -0.4573
 5076TIP3    H115234   3.589   3.884   2.129  0.4016 -2.2714 -0.7433
 5076TIP3    H215235   3.451   3.838   2.085 -0.4984  0.7053 -1.2253
 5077TIP3   OH215236   1.888   0.648   3.306  0.2136  0.1797 -0.6659
 5077TIP3    H115237   1.844   0.591   3.243  0.4510  0.6149 -1.2383
 5077TIP3    H215238   1.863   0.737   3.279 -1.0545  0.3456  0.8647
 5078TIP3   OH215239   4.278   0.146   4.908  0.3082  0.6436  0.1690
 5078TIP3    H115240   4.207   0.083   4.922  0.2397  0.7411  0.2602
 5078TIP3    H215241   4.355   0.104   4.945  1.0786 -1.0308 -2.9893
 5079TIP3   OH215242   4.005   4.467   0.526  0.3717  0.3857 -0.3855
 5079TIP3    H115243   3.998   4.538   0.462 -1.1140 -0.7885 -1.5716
 5079TIP3    H215244   3.920   4.424   0.525  1.3859 -1.7738 -0.0999
 5080TIP3   OH215245   0.655   4.190   1.916 -0.3343  0.2798  0.9945
 5080TIP3    H115246   0.669   4.100   1.945  1.2450 -0.4093 -1.6455
 5080TIP3    H215247   0.738   4.234   1.934 -0.7472  0.9396  1.3086
 5081TIP3   OH215248   0.330   0.169   5.129  0.1363 -0.1908  0.3831
 5081TIP3    H115249   0.358   0.247   5.177 -0.2666 -0.2548  0.7338
 5081TIP3    H215250   0.326   0.197   5.038 -0.2041  0.2662  0.5306
 5082TIP3   OH215251   2.741   2.792   4.690  0.3752 -0.2234 -0.1107
 5082TIP3    H115252   2.810   2.726   4.691  0.1781 -0.5644 -2.6711
 5082TIP3    H215253   2.660   2.743   4.679  0.0594  0.3357 -0.3456
 5083TIP3   OH215254   2.205   5.053   3.971 -0.2821  0.1307 -0.1711
 5083TIP3    H115255   2.197   4.989   3.900  0.0939  0.2395 -0.3169
 5083TIP3    H215256   2.186   5.003   4.050 -0.8501  0.0400 -0.3582
 5084TIP3   OH215257   4.717   4.996   0.500 -0.0368  0.1008  0.5674
 5084TIP3    H115258   4.763   4.925   0.546 -1.2649  0.0484  1.7808
 5084TIP3    H215259   4.784   5.063   0.487  0.7533 -0.6076  0.8847
 5085TIP3   OH215260   2.646   5.229   0.549  0.3125  0.3545  0.1575
 5085TIP3    H115261   2.638   5.324   0.558 -1.0525  0.1422  1.6485
 5085TIP3    H215262   2.646   5.197   0.639  0.2765 -1.1033 -0.3457
 5086TIP3   OH215263   2.098   4.444   3.372  0.3718  0.5552 -0.0728
 5086TIP3    H115264   2.044   4.367   3.387  1.7616 -0.2760  0.8925
 5086TIP3    H215265   2.060   4.512   3.428  0.3752 -0.0372  0.6564
 5087TIP3   OH215266   4.460   3.571   3.673  0.1184  0.3370 -0.6757
 5087TIP3    H115267   4.395   3.605   3.612  1.6499  0.7320 -2.1571
 5087TIP3    H215268   4.440   3.615   3.756 -1.3390  0.6024 -1.1289
 5088TIP3   OH215269   1.634   2.492   4.903  0.3593 -0.3356  0.1601
 5088TIP3    H115270   1.546   2.530   4.902  1.4112  2.3889  0.9840
 5088TIP3    H215271   1.637   2.435   4.826 -1.7554  0.3885 -0.5301
 5089TIP3   OH215272   5.038   4.791   0.974 -0.2037 -0.2007 -0.2833
 5089TIP3    H115273   5.101   4.820   1.040  0.6088 -1.7432 -0.3295
 5089TIP3    H215274   4.974   4.740   1.024 -0.7133  0.2929 -0.4220
 5090TIP3   OH215275   2.416   0.180   2.672 -0.5294 -0.2534  0.7236
 5090TIP3    H115276   2.461   0.116   2.728  0.9909  1.0575  1.0658
 5090TIP3    H215277   2.441   0.156   2.583  0.1197 -0.0843  0.8563
 5091TIP3   OH215278   4.628   2.217   2.900 -0.2575 -0.4426  0.3983
 5091TIP3    H115279   4.687   2.200   2.974  0.7184  1.3523  0.0888
 5091TIP3    H215280   4.592   2.304   2.918 -2.2038 -1.1496  0.1428
 5092TIP3   OH215281   2.740   3.923   2.285  0.3527 -0.4902 -0.2048
 5092TIP3    H115282   2.776   3.959   2.204  0.4791  1.0280  0.4745
 5092TIP3    H215283   2.656   3.885   2.259  1.1966 -1.6349 -1.3353
 5093TIP3   OH215284   3.692   2.010   0.771 -0.5272 -0.0908  0.4559
 5093TIP3    H115285   3.717   2.001   0.679  2.7232 -1.1805  1.3206
 5093TIP3    H215286   3.765   2.057   0.812 -0.8343 -1.5067  2.8457
 5094TIP3   OH215287   0.551   2.607   0.979  0.3571  0.0855 -0.3507
 5094TIP3    H115288   0.471   2.618   0.929  0.4877 -0.8267 -0.7803
 5094TIP3    H215289   0.596   2.692   0.974 -0.2464  0.3834 -0.6807
 5095TIP3   OH215290   1.147   2.399   2.511 -0.1707 -0.1268 -0.0777
 5095TIP3    H115291   1.054   2.376   2.524 -0.5756  1.0956 -0.6408
 5095TIP3    H215292   1.171   2.353   2.430 -0.3372 -0.3181 -0.0207
 5096TIP3   OH215293   4.347   0.816   0.242 -0.0780 -0.8088  0.1919
 5096TIP3    H115294   4.419   0.838   0.183  1.2301 -0.1110  1.9553
 5096TIP3    H215295   4.318   0.901   0.276  0.0957 -1.2748  1.5476
 5097TIP3   OH215296   0.105   5.664   3.954  0.2548 -0.1054 -0.2051
 5097TIP3    H115297   0.050   5.606   3.903  0.0278  0.0135 -0.0980
 5097TIP3    H215298   0.194   5.637   3.934  0.1440 -1.1317  0.5823
 5098TIP3   OH215299   1.129   2.219   4.143  0.0574  0.2565 -0.4935
 5098TIP3    H115300   1.065   2.174   4.089 -0.5987 -0.1720  0.6094
 5098TIP3    H215301   1.196   2.153   4.162  0.3295  0.4290 -0.8327
 5099TIP3   OH215302   2.002   1.550   3.396  0.2511 -0.3296 -0.3671
 5099TIP3    H115303   1.992   1.461   3.362  0.1490  0.3357 -2.1825
 5099TIP3    H215304   2.041   1.599   3.324  1.7343  0.7808  1.1207
 5100TIP3   OH215305   3.815   5.060   2.356  0.2363  0.5141  0.7015
 5100TIP3    H115306   3.792   5.045   2.264 -0.8284  0.9935  0.8724
 5100TIP3    H215307   3.769   5.141   2.379 -1.9960 -1.1298  2.4795
 5101TIP3   OH215308   0.047   5.688   5.129 -0.5472 -0.1233  0.0619
 5101TIP3    H115309   0.064   5.777   5.098 -0.0768 -0.6908 -1.3742
 5101TIP3    H215310  -0.036   5.664   5.088 -0.5875 -0.4165  0.3088
 5102TIP3   OH215311   0.336   5.466   0.132 -0.1682 -0.1151  0.0598
 5102TIP3    H115312   0.248   5.493   0.156  0.2321  0.3916  0.9791
 5102TIP3    H215313   0.335   5.370   0.139 -0.3298 -0.0396  1.1887
 5103TIP3   OH215314   2.093   0.532   0.165  0.1663 -0.2321  0.0362
 5103TIP3    H115315   2.105   0.522   0.259 -0.0911  0.1183  0.1085
 5103TIP3    H215316   2.008   0.576   0.156  0.1797 -0.2843 -0.3579
 5104TIP3   OH215317   5.841   5.201   2.452 -0.0902  0.1620 -0.1802
 5104TIP3    H115318   5.906   5.246   2.506  0.1246 -0.4896  0.1179
 5104TIP3    H215319   5.878   5.204   2.364  0.4382 -0.3499  0.0142
 5105TIP3   OH215320   4.135   3.272   0.267  0.0507 -0.2254  0.1926
 5105TIP3    H115321   4.158   3.319   0.348 -1.0672  0.3658  0.1811
 5105TIP3    H215322   4.078   3.332   0.220 -1.0043 -1.4002 -0.0637
 5106TIP3   OH215323   6.025   3.090   4.645  0.2730 -0.8262  0.0631
 5106TIP3    H115324   6.015   2.998   4.622 -0.0492 -0.9203  0.5545
 5106TIP3    H215325   5.981   3.138   4.574 -1.3137 -1.1324  0.7923
 5107TIP3   OH215326   5.891   4.313   2.019 -0.2897 -0.1630 -0.5269
 5107TIP3    H115327   5.925   4.394   1.981 -0.3725 -0.3301 -0.9651
 5107TIP3    H215328   5.900   4.325   2.113 -1.4448  0.8836 -0.5136
 5108TIP3   OH215329   5.723   0.190   3.089 -0.0794  0.4917  0.7450
 5108TIP3    H115330   5.709   0.203   2.995 -2.4015  2.4843  1.2654
 5108TIP3    H215331   5.691   0.101   3.106 -2.1608  1.0559  0.0337
 5109TIP3   OH215332   5.836   3.569   3.828 -0.2055  0.9221  0.0769
 5109TIP3    H115333   5.791   3.544   3.748  0.9871  0.5138 -0.4779
 5109TIP3    H215334   5.925   3.592   3.801  0.2833  0.5801  1.2998
 5110TIP3   OH215335   5.905   1.431   1.854  0.6281 -0.0668 -0.6341
 5110TIP3    H115336   5.841   1.498   1.878  0.9697  0.7036 -1.7754
 5110TIP3    H215337   5.988   1.478   1.845  1.5936 -1.1816  1.6120
 5111TIP3   OH215338   2.568   3.972   4.219  0.3659  0.2882  0.2502
 5111TIP3    H115339   2.589   4.040   4.283  0.1069  1.8647 -1.2496
 5111TIP3    H215340   2.581   4.015   4.134  0.7898 -1.7462 -0.7750
 5112TIP3   OH215341   0.878   3.804   1.786  0.3429  0.3893  0.1078
 5112TIP3    H115342   0.819   3.760   1.847  1.6793 -0.0593  1.1269
 5112TIP3    H215343   0.962   3.760   1.798  0.9486  1.1457 -1.1558
 5113TIP3   OH215344   0.619   2.648   2.668 -0.2898  0.1498 -0.3139
 5113TIP3    H115345   0.604   2.657   2.574 -2.4139  0.0065 -0.0311
 5113TIP3    H215346   0.705   2.689   2.682 -0.0114  0.3460 -2.2606
 5114TIP3   OH215347   1.299   0.588   3.770  0.3497 -0.3373  0.1290
 5114TIP3    H115348   1.392   0.581   3.792  0.5471 -1.0921 -0.8706
 5114TIP3    H215349   1.276   0.502   3.735 -0.0166  0.6153 -2.1839
 5115TIP3   OH215350   0.348   1.771   2.548 -0.5337 -0.9307  0.0556
 5115TIP3    H115351   0.315   1.716   2.620 -1.8503  0.7199  0.7982
 5115TIP3    H215352   0.364   1.856   2.589 -0.0346 -0.3228 -1.3568
 5116TIP3   OH215353   0.668   0.230   4.090  0.2659 -0.1109  0.2304
 5116TIP3    H115354   0.674   0.306   4.032 -0.0168  1.3583  2.0598
 5116TIP3    H215355   0.704   0.158   4.037 -0.8514  0.9239 -2.1069
 5117TIP3   OH215356   4.779   0.493   2.975  0.3432  0.2087 -0.1972
 5117TIP3    H115357   4.756   0.427   2.910 -2.7384  0.2686  0.6428
 5117TIP3    H215358   4.694   0.524   3.008  1.7157  0.6604  3.3489
 5118TIP3   OH215359   4.197   4.372   4.735 -0.1248 -0.3276 -0.1937
 5118TIP3    H115360   4.192   4.372   4.639  1.9091  2.2702 -0.3895
 5118TIP3    H215361   4.283   4.336   4.755 -0.2336 -0.1452  0.6323
 5119TIP3   OH215362   5.200   5.704   1.762 -0.5194 -0.4877 -0.0897
 5119TIP3    H115363   5.257   5.681   1.689 -1.6515 -1.1247 -0.7953
 5119TIP3    H215364   5.128   5.754   1.722 -1.8833 -2.0212  0.3456
 5120TIP3   OH215365   2.257   3.363   1.854  0.2012  0.0199 -0.0863
 5120TIP3    H115366   2.239   3.280   1.898 -0.6397 -0.3295 -1.0322
 5120TIP3    H215367   2.171   3.393   1.825  0.4075  1.5858  0.8278
 5121TIP3   OH215368   4.289   5.670   2.738 -0.9501 -0.3620 -0.4506
 5121TIP3    H115369   4.344   5.684   2.816 -1.9739 -1.2593  0.4599
 5121TIP3    H215370   4.352   5.661   2.666  0.0053  0.9763  0.1646
 5122TIP3   OH215371   3.973   3.437   0.108  0.1969 -0.3968 -0.0751
 5122TIP3    H115372   3.980   3.452   0.014  0.1191 -0.2839 -0.0629
 5122TIP3    H215373   3.965   3.525   0.146  1.1341 -0.3914  0.1147
 5123TIP3   OH215374   3.695   4.782   0.613  0.0817  0.1671 -0.4236
 5123TIP3    H115375   3.768   4.779   0.675 -0.0364 -1.5511 -0.3169
 5123TIP3    H215376   3.675   4.875   0.604  1.3797  0.5805  0.6017
 5124TIP3   OH215377   4.860   4.965   5.176 -0.4244  0.0537 -0.0420
 5124TIP3    H115378   4.767   4.984   5.179 -0.5713 -0.6176 -0.3299
 5124TIP3    H215379   4.891   5.008   5.096 -0.6366 -0.3987 -0.3664
 5125TIP3   OH215380   4.252   2.359   0.409 -0.1648 -0.4779  0.1338
 5125TIP3    H115381   4.248   2.455   0.404  1.4101 -0.4271 -1.0657
 5125TIP3    H215382   4.164   2.333   0.435  0.2100  1.4668  4.1045
 5126TIP3   OH215383   2.366   1.647   3.690  0.6691  0.2093  0.0664
 5126TIP3    H115384   2.292   1.588   3.673  1.1871  0.1683 -2.2944
 5126TIP3    H215385   2.442   1.589   3.688  0.9429  0.5555  0.5070
 5127TIP3   OH215386   2.471   5.942   3.552  0.1442  0.1482 -0.0576
 5127TIP3    H115387   2.388   5.944   3.505 -0.1009 -3.3543 -0.0609
 5127TIP3    H215388   2.522   5.874   3.507  0.8059 -1.6869  3.1332
 5128TIP3   OH215389   3.436   0.221   0.463 -0.0872  0.6164 -0.2003
 5128TIP3    H115390   3.401   0.184   0.544 -0.1860  0.5675 -0.2651
 5128TIP3    H215391   3.526   0.191   0.459  0.9437  3.1311  1.4767
 5129TIP3   OH215392   0.273   0.863   2.843 -0.1214 -0.4774 -0.4891
 5129TIP3    H115393   0.214   0.875   2.769 -0.7469 -0.1763  0.0388
 5129TIP3    H215394   0.271   0.769   2.861  1.3363 -0.7984 -1.8853
 5130TIP3   OH215395   2.045   2.328   5.151 -0.1838 -0.1508  0.3303
 5130TIP3    H115396   2.004   2.319   5.237  0.4938  1.4619  0.8739
 5130TIP3    H215397   1.979   2.297   5.089  0.2066 -3.6968  1.5136
 5131TIP3   OH215398   1.353   0.882   2.132 -0.1344 -0.0710 -0.1223
 5131TIP3    H115399   1.317   0.970   2.121 -0.6737 -0.0985  1.1576
 5131TIP3    H215400   1.412   0.890   2.208  1.4784 -0.3525 -1.2972
 5132TIP3   OH215401   1.415   2.872   4.797  0.1551 -0.3820  0.2587
 5132TIP3    H115402   1.420   2.837   4.708 -0.2729 -0.4323  0.2535
 5132TIP3    H215403   1.470   2.950   4.795 -0.2456 -0.1030 -0.1852
 5133TIP3   OH215404   2.708   1.865   2.594  0.1416  0.3129  0.0675
 5133TIP3    H115405   2.659   1.783   2.594  0.0038  0.3957 -0.1084
 5133TIP3    H215406   2.688   1.905   2.679  3.2859 -1.6737  1.9613
 5134TIP3   OH215407   0.479   4.591   0.871  0.6871 -0.0145  0.2981
 5134TIP3    H115408   0.496   4.685   0.883 -1.1894  0.4776 -0.5906
 5134TIP3    H215409   0.480   4.579   0.777  1.0195 -0.9354  0.4153
 5135TIP3   OH215410   2.504   2.404   3.287  0.6316 -0.3209 -0.0007
 5135TIP3    H115411   2.547   2.436   3.208  0.1591  1.6466  0.4855
 5135TIP3    H215412   2.575   2.376   3.345  1.0046 -1.1518 -0.8462
 5136TIP3   OH215413   5.790   4.421   3.148  0.1085 -0.0746  0.4207
 5136TIP3    H115414   5.710   4.370   3.135 -0.0111 -0.2803  1.8098
 5136TIP3    H215415   5.831   4.424   3.062 -1.9447  0.9882 -0.6066
 5137TIP3   OH215416   5.043   0.221   0.919  0.4986 -0.4229  0.6272
 5137TIP3    H115417   4.954   0.252   0.907  0.4805 -0.1243  1.4479
 5137TIP3    H215418   5.095   0.300   0.935  1.1950 -0.4405 -1.3055
 5138TIP3   OH215419   5.610   3.630   2.558 -0.0037 -0.1551 -0.0291
 5138TIP3    H115420   5.627   3.715   2.599 -0.6225 -0.6079  1.2299
 5138TIP3    H215421   5.632   3.566   2.626 -0.2489 -0.9757 -0.7038
 5139TIP3   OH215422   6.042   5.272   4.805  0.1499 -0.1961 -0.0360
 5139TIP3    H115423   6.020   5.297   4.715 -0.3896 -1.0078 -0.1347
 5139TIP3    H215424   6.031   5.177   4.807  1.0608 -0.2964  0.6448
 5140TIP3   OH215425   0.852   5.576   0.065 -0.3389 -0.5171  0.3346
 5140TIP3    H115426   0.931   5.532   0.096 -0.9036 -1.1837  0.8519
 5140TIP3    H215427   0.809   5.607   0.144 -0.5294 -0.0347  0.0465
 5141TIP3   OH215428   0.812   3.193   4.717  0.2033 -0.8011  0.0760
 5141TIP3    H115429   0.765   3.129   4.664 -0.8409 -0.1909  0.2382
 5141TIP3    H215430   0.806   3.275   4.668 -1.6567  0.0194  1.5427
 5142TIP3   OH215431   1.089   2.427   1.535  0.1994 -0.0101  0.3352
 5142TIP3    H115432   1.005   2.381   1.539 -0.9998  1.7566 -1.6631
 5142TIP3    H215433   1.105   2.456   1.624 -0.2347 -2.1044  1.1537
 5143TIP3   OH215434   5.410   2.218   3.224 -0.0236 -0.0601 -0.0832
 5143TIP3    H115435   5.436   2.292   3.279  0.0939  1.0722 -1.5697
 5143TIP3    H215436   5.317   2.207   3.241 -0.0021  0.3059  0.2912
 5144TIP3   OH215437   4.068   3.276   4.918  0.6550  0.2510  0.0437
 5144TIP3    H115438   4.054   3.277   5.013 -1.7973 -2.8205 -0.1230
 5144TIP3    H215439   3.981   3.289   4.881  1.4458  0.5168 -1.7943
 5145TIP3   OH215440   2.747   0.245   3.454  0.6703  0.0942  0.1312
 5145TIP3    H115441   2.782   0.277   3.371  0.2190  1.3494  0.4067
 5145TIP3    H215442   2.744   0.322   3.510 -2.5081  0.0954  0.1414
 5146TIP3   OH215443   4.029   5.991   4.374  0.3176  0.2405 -0.1927
 5146TIP3    H115444   3.960   6.056   4.382 -0.3807 -0.4560 -0.3839
 5146TIP3    H215445   3.983   5.908   4.366  1.1827 -0.2530 -0.2373
 5147TIP3   OH215446   3.604   3.563   4.249 -0.3550 -0.2314 -0.2880
 5147TIP3    H115447   3.614   3.637   4.190 -3.3219  0.6685  0.1736
 5147TIP3    H215448   3.637   3.488   4.200  3.1316  1.3359 -0.6175
 5148TIP3   OH215449   5.783   5.541   5.148  0.4508 -0.1887 -0.7903
 5148TIP3    H115450   5.758   5.468   5.091  0.1299  0.1430 -1.0766
 5148TIP3    H215451   5.875   5.524   5.169  0.1267 -1.1817 -0.0840
 5149TIP3   OH215452   6.230   2.274   2.026  0.1596  0.1701  0.7686
 5149TIP3    H115453   6.204   2.182   2.032  0.0487  0.0830 -0.5591
 5149TIP3    H215454   6.149   2.321   2.009  0.4987  0.1684 -1.1245
 5150TIP3   OH215455   1.347   5.952   2.852 -0.1718  0.0128 -0.1787
 5150TIP3    H115456   1.358   5.877   2.793  2.3798  0.0924  0.1051
 5150TIP3    H215457   1.390   6.025   2.807  1.3672  0.2007  1.4884
 5151TIP3   OH215458   2.749   2.656   0.297  0.3327  0.1142  0.2506
 5151TIP3    H115459   2.820   2.604   0.261  0.6046  0.2823  0.5424
 5151TIP3    H215460   2.710   2.600   0.364  1.2153  0.6374  1.2116
 5152TIP3   OH215461   2.454   4.249   3.599  0.6343  0.5301 -0.6349
 5152TIP3    H115462   2.420   4.336   3.619 -0.1853  0.1624 -0.3884
 5152TIP3    H215463   2.376   4.194   3.592  1.2004 -0.5320  0.8662
 5153TIP3   OH215464   3.646   1.824   1.429 -0.1643 -0.2883  0.1580
 5153TIP3    H115465   3.574   1.882   1.455 -0.7251  0.5080 -2.7909
 5153TIP3    H215466   3.725   1.866   1.464 -0.7200  1.3535 -0.4671
 5154TIP3   OH215467   3.979   4.085   2.678  0.6899 -0.1931  0.1688
 5154TIP3    H115468   3.996   4.003   2.724  0.9465 -0.9085 -1.1398
 5154TIP3    H215469   4.056   4.097   2.622  0.2437  0.4711 -0.3179
 5155TIP3   OH215470   4.826   5.151   4.663 -0.5411  0.0085  0.4336
 5155TIP3    H115471   4.886   5.177   4.593  0.0973  0.4305  1.1227
 5155TIP3    H215472   4.786   5.233   4.692  3.1837  0.8158  4.1970
 5156TIP3   OH215473   2.894   5.260   2.822 -0.2281  0.0352  0.2643
 5156TIP3    H115474   2.863   5.348   2.843 -0.2664  0.2713 -0.7011
 5156TIP3    H215475   2.814   5.207   2.822 -0.4138  0.2941 -0.5178
 5157TIP3   OH215476   5.985   3.294   2.711 -0.3653 -0.1084 -0.0323
 5157TIP3    H115477   6.012   3.267   2.624 -1.0359  0.5658 -0.4639
 5157TIP3    H215478   6.034   3.374   2.729 -1.1109  0.4301 -0.3101
 5158TIP3   OH215479   1.457   0.232   3.931 -0.0581  0.2195  0.3258
 5158TIP3    H115480   1.384   0.189   3.888 -0.0318 -0.2628  0.7498
 5158TIP3    H215481   1.512   0.264   3.860 -0.6845  0.6010  0.0043
 5159TIP3   OH215482   3.752   2.450   3.755 -0.0404  0.1663  0.7096
 5159TIP3    H115483   3.792   2.536   3.769 -1.3100  1.2349 -1.6117
 5159TIP3    H215484   3.790   2.418   3.673 -2.0417  0.1276 -0.2801
 5160TIP3   OH215485   0.940   1.806   2.042  0.4445 -0.0608 -0.4741
 5160TIP3    H115486   0.985   1.885   2.014  0.0004  0.2431 -0.3365
 5160TIP3    H215487   0.959   1.799   2.136  2.2961 -1.3161 -0.8919
 5161TIP3   OH215488   2.674   2.426   3.525 -0.1755  0.1711  0.0613
 5161TIP3    H115489   2.663   2.340   3.564 -1.3360 -0.1162 -0.8260
 5161TIP3    H215490   2.768   2.441   3.524  0.1022 -1.4530 -0.5537
 5162TIP3   OH215491   3.216   0.826   3.075  0.4722  0.2579 -0.0438
 5162TIP3    H115492   3.121   0.812   3.079  0.5793 -0.2403  1.0569
 5162TIP3    H215493   3.230   0.907   3.125  0.4604  1.3116 -1.6759
 5163TIP3   OH215494   1.488   2.173   4.482 -0.0878 -0.4401 -0.1597
 5163TIP3    H115495   1.570   2.127   4.464  0.9467  0.6461  1.4218
 5163TIP3    H215496   1.451   2.128   4.558  0.1735  0.3801  0.4723
 5164TIP3   OH215497   3.505   2.658   3.618 -0.1040  0.3655 -0.2639
 5164TIP3    H115498   3.516   2.750   3.642  0.1464  0.4743 -0.7693
 5164TIP3    H215499   3.587   2.635   3.575  0.4396 -0.5357  1.1945
 5165TIP3   OH215500   5.425   5.370   0.893  0.6864  0.2176  0.3084
 5165TIP3    H115501   5.431   5.465   0.901  0.9581  0.1829  0.5264
 5165TIP3    H215502   5.349   5.356   0.837  2.3894  0.6456 -2.2386
 5166TIP3   OH215503   6.047   2.901   3.789  0.1162  0.1030  0.3476
 5166TIP3    H115504   6.105   2.827   3.767  2.7220  1.6333  1.5076
 5166TIP3    H215505   5.970   2.888   3.735  3.0619 -0.0789 -4.3799
 5167TIP3   OH215506   5.171   5.441   4.359 -0.4989 -0.2654 -0.1254
 5167TIP3    H115507   5.166   5.521   4.306  4.1411 -1.6542 -3.2946
 5167TIP3    H215508   5.213   5.469   4.440 -0.1196  0.7648 -0.6489
 5168TIP3   OH215509   1.175   3.900   2.806  0.0218  0.3054 -0.3990
 5168TIP3    H115510   1.081   3.886   2.818 -0.1482  0.5639 -1.3438
 5168TIP3    H215511   1.181   3.956   2.729  0.9166  1.0604  0.2019
 5169TIP3   OH215512   6.315   0.541   1.510 -0.2000 -0.1194  0.2505
 5169TIP3    H115513   6.257   0.541   1.585 -1.2012 -1.7467 -0.4650
 5169TIP3    H215514   6.319   0.449   1.483  0.1503  0.4127 -1.6592
 5170TIP3   OH215515   6.022   1.959  -0.017  0.0535 -0.7434  0.0894
 5170TIP3    H115516   6.017   2.018   0.058  2.6227  0.3221 -0.4523
 5170TIP3    H215517   5.968   1.884   0.007 -1.0628  0.5902  1.9961
 5171TIP3   OH215518   4.726   2.044   4.688 -0.5271  0.4436 -0.3144
 5171TIP3    H115519   4.804   2.046   4.632 -1.7410 -0.2242 -2.1257
 5171TIP3    H215520   4.701   2.136   4.699  0.8935  0.7229  0.9155
 5172TIP3   OH215521   3.561   2.678   1.734 -0.0836 -0.0490 -0.3864
 5172TIP3    H115522   3.540   2.760   1.778  2.9647  0.3245  0.6449
 5172TIP3    H215523   3.552   2.611   1.802 -2.4187 -0.6264 -1.1865
 5173TIP3   OH215524   0.735   3.314   0.039 -0.3128 -0.5193  0.1540
 5173TIP3    H115525   0.657   3.339   0.088 -0.4469  1.3451 -0.9202
 5173TIP3    H215526   0.726   3.219   0.027 -0.8427 -0.8740  2.6519
 5174TIP3   OH215527   2.829   4.356   2.004  0.4437  0.2541 -0.1880
 5174TIP3    H115528   2.913   4.401   1.991 -0.3819  1.2590 -2.5326
 5174TIP3    H215529   2.817   4.356   2.099  1.7168  2.7331  0.0575
 5175TIP3   OH215530   5.844   5.585   3.403  0.2205 -0.5909 -0.0928
 5175TIP3    H115531   5.809   5.674   3.404  0.9830 -0.2745 -0.7205
 5175TIP3    H215532   5.932   5.594   3.367  0.3305 -1.5954 -0.1091
 5176TIP3   OH215533   0.721   3.026   4.055 -0.2449 -0.6265 -0.5525
 5176TIP3    H115534   0.771   3.080   4.116 -0.6635  1.2422 -1.7645
 5176TIP3    H215535   0.715   2.940   4.097  0.3231  0.3011  1.5283
 5177TIP3   OH215536   6.211   4.512   5.080  0.6406  0.3154  0.0134
 5177TIP3    H115537   6.151   4.438   5.086  0.1133  0.6279 -1.0862
 5177TIP3    H215538   6.296   4.477   5.106 -0.0910 -0.0133  2.1164
 5178TIP3   OH215539   2.246   1.086   3.278  0.4714 -0.0781 -0.6836
 5178TIP3    H115540   2.253   1.054   3.368  0.7854  0.9267 -0.3416
 5178TIP3    H215541   2.322   1.050   3.234  0.0538 -0.9835 -0.6804
 5179TIP3   OH215542   4.744   0.174   0.400 -0.5399 -0.1229  0.6240
 5179TIP3    H115543   4.734   0.080   0.412 -0.3251 -0.3193 -0.6403
 5179TIP3    H215544   4.663   0.202   0.358 -0.2068  0.0840  0.1125
 5180TIP3   OH215545   3.128   3.473   4.008  0.5528  0.2088  0.7759
 5180TIP3    H115546   3.147   3.539   3.941  2.6439 -0.8485  0.2463
 5180TIP3    H215547   3.172   3.506   4.087 -0.0638  0.3770  1.0591
 5181TIP3   OH215548   0.494   1.342   0.640 -0.1503 -0.0876  0.2513
 5181TIP3    H115549   0.539   1.412   0.686 -0.0160 -1.0937  1.7074
 5181TIP3    H215550   0.437   1.302   0.706 -1.8804  0.0276 -1.0966
 5182TIP3   OH215551   3.667   4.993   3.519 -0.1524  0.3943  0.1745
 5182TIP3    H115552   3.729   5.065   3.515 -0.1508  0.3601 -1.0775
 5182TIP3    H215553   3.608   5.009   3.445  0.5672 -1.5068 -0.8909
 5183TIP3   OH215554   2.206   0.191   3.633  0.3036 -0.1856 -0.5499
 5183TIP3    H115555   2.141   0.122   3.621 -0.3021  0.3891 -0.6849
 5183TIP3    H215556   2.287   0.145   3.655  0.6055 -1.1097 -3.2651
 5184TIP3   OH215557   2.567   4.600   0.874  0.1985  0.0846  0.2625
 5184TIP3    H115558   2.483   4.635   0.843  0.7047  1.7888  0.7101
 5184TIP3    H215559   2.543   4.531   0.936 -0.9202  1.2864  1.2268
 5185TIP3   OH215560   1.893   1.831   1.453  0.4678  0.0778 -0.2059
 5185TIP3    H115561   1.934   1.744   1.447 -0.2745 -0.1868 -2.4654
 5185TIP3    H215562   1.966   1.891   1.466  1.4017 -0.5958 -1.9701
 5186TIP3   OH215563   5.791   1.386   2.158 -0.4639 -0.4215 -0.3325
 5186TIP3    H115564   5.808   1.409   2.067 -1.0069  0.4355 -0.2253
 5186TIP3    H215565   5.697   1.365   2.160 -0.7009  0.6513  0.2463
 5187TIP3   OH215566   6.313   1.720   0.322 -0.3191 -0.0534 -0.4467
 5187TIP3    H115567   6.408   1.732   0.323 -0.2402 -0.4746  1.4022
 5187TIP3    H215568   6.300   1.626   0.308 -0.4178 -0.1241  0.0764
 5188TIP3   OH215569   3.627   1.108   3.537 -0.3582  0.4667  0.3290
 5188TIP3    H115570   3.618   1.201   3.555  0.5971  0.6859 -0.2962
 5188TIP3    H215571   3.715   1.085   3.568 -0.0494  0.0841 -0.7815
 5189TIP3   OH215572   2.737   2.898   5.056 -0.0335  0.3773 -0.1589
 5189TIP3    H115573   2.716   2.805   5.058  0.0151  0.2902 -2.2968
 5189TIP3    H215574   2.675   2.938   5.117 -1.7580 -0.7343 -1.1160
 5190TIP3   OH215575   4.983   4.384   0.960 -0.0111 -0.1831  0.5143
 5190TIP3    H115576   4.964   4.445   0.888  0.1767 -1.5119 -0.6986
 5190TIP3    H215577   5.032   4.436   1.023  2.2377  0.3867 -1.5567
 5191TIP3   OH215578   0.922   2.003   2.893 -0.6832  0.4849  0.6126
 5191TIP3    H115579   0.881   2.083   2.926  0.7820  0.7695  1.8364
 5191TIP3    H215580   0.895   1.935   2.955 -3.3832 -0.4437 -1.3763
 5192TIP3   OH215581   5.886   0.716   2.920 -0.5211  0.5564 -0.2939
 5192TIP3    H115582   5.807   0.729   2.973 -0.2761  1.2500 -0.0939
 5192TIP3    H215583   5.884   0.787   2.856 -0.1668  0.4541 -0.4187
 5193TIP3   OH215584   2.780   4.341   2.262 -0.1502  0.0639  0.0614
 5193TIP3    H115585   2.705   4.282   2.257  0.6442 -0.8450 -2.0443
 5193TIP3    H215586   2.839   4.300   2.326  0.3677 -1.4565 -1.3288
 5194TIP3   OH215587   4.173   4.798   1.159  0.1810  0.8779  0.4371
 5194TIP3    H115588   4.114   4.766   1.227 -1.2758 -0.0941 -1.1997
 5194TIP3    H215589   4.260   4.769   1.187 -0.1897  1.5511  2.4438
 5195TIP3   OH215590   4.231   4.041   4.593  0.7875 -0.1154  0.4647
 5195TIP3    H115591   4.214   4.067   4.684  1.5640 -1.5864  1.0426
 5195TIP3    H215592   4.165   3.974   4.575  2.1483 -1.5712  0.7626
 5196TIP3   OH215593   4.683   2.814   4.887  0.1936 -0.1810  0.1162
 5196TIP3    H115594   4.739   2.829   4.964 -2.7676 -0.8236  2.5730
 5196TIP3    H215595   4.600   2.855   4.909 -1.4714 -2.2143 -1.8472
 5197TIP3   OH215596   3.017   5.480   3.762 -0.1076  0.2983 -0.3461
 5197TIP3    H115597   3.108   5.510   3.756  0.0905 -0.0201  0.9081
 5197TIP3    H215598   2.986   5.512   3.847 -1.1768  0.3956 -0.7542
 5198TIP3   OH215599   5.133   0.800   3.271 -0.3540 -0.3461  0.4745
 5198TIP3    H115600   5.041   0.818   3.249  0.0118 -0.5962 -1.3849
 5198TIP3    H215601   5.131   0.712   3.310 -0.5955 -1.6984 -2.3611
 5199TIP3   OH215602   0.634   3.815   0.906 -0.0004  0.9037  0.3114
 5199TIP3    H115603   0.628   3.747   0.838  0.2050  1.5922 -0.4148
 5199TIP3    H215604   0.725   3.812   0.936 -0.2625  0.1314  1.0669
 5200TIP3   OH215605   6.136   3.938   3.439  0.1392  0.0274 -0.6522
 5200TIP3    H115606   6.169   3.848   3.429  0.7599  0.1375  0.3145
 5200TIP3    H215607   6.062   3.930   3.499 -0.2086  0.0907 -1.0620
 5201TIP3   OH215608   0.098   0.195   1.129 -0.8388 -0.0589  0.2632
 5201TIP3    H115609   0.037   0.213   1.058  0.3437 -0.6941 -0.9693
 5201TIP3    H215610   0.043   0.164   1.201 -2.3252  2.9830  0.5552
 5202TIP3   OH215611   1.175   2.150   3.637 -0.3858 -0.2386 -0.4712
 5202TIP3    H115612   1.245   2.193   3.587  0.7488 -0.2433  1.0333
 5202TIP3    H215613   1.132   2.221   3.684  1.6204 -0.5992  2.1763
 5203TIP3   OH215614   5.688   3.800   3.308 -0.3337  0.4785  0.3233
 5203TIP3    H115615   5.642   3.820   3.390 -0.8490 -0.6065  0.3295
 5203TIP3    H215616   5.688   3.882   3.259 -0.3228  1.0540  1.2626
 5204TIP3   OH215617   5.941   0.912   2.715  0.2373 -0.1398  0.0091
 5204TIP3    H115618   6.007   0.897   2.783  0.9442 -2.9462 -1.1251
 5204TIP3    H215619   5.955   1.002   2.688  2.3936 -0.0731  1.0733
 5205TIP3   OH215620   3.143   2.040   5.208  0.5517 -0.9419 -0.1832
 5205TIP3    H115621   3.173   2.024   5.118 -1.7611  0.3617 -1.2709
 5205TIP3    H215622   3.114   1.955   5.239 -0.7431 -1.0379 -1.5548
 5206TIP3   OH215623   0.215   0.073   2.732  0.2770  0.0299  0.2777
 5206TIP3    H115624   0.305   0.056   2.760  0.6074  0.2597 -0.6044
 5206TIP3    H215625   0.173   0.114   2.808  0.5180 -1.2902  1.1630
 5207TIP3   OH215626   2.084   1.944   3.159 -0.9137 -0.2559  0.3303
 5207TIP3    H115627   2.133   1.973   3.237 -3.3482  2.1485  1.1147
 5207TIP3    H215628   2.014   1.889   3.194 -0.9037 -0.7255 -0.3815
 5208TIP3   OH215629   1.375   4.950   0.570  0.3791  0.3473  0.0268
 5208TIP3    H115630   1.413   4.903   0.644  1.1979  0.0094 -0.5955
 5208TIP3    H215631   1.391   4.894   0.495  2.8190  2.2294 -1.0204
 5209TIP3   OH215632   0.130   3.149   0.543 -0.1986  0.0600 -0.4968
 5209TIP3    H115633   0.210   3.192   0.513  0.8141 -1.5532 -0.2474
 5209TIP3    H215634   0.149   3.125   0.634 -0.6843 -0.9318 -0.6429
 5210TIP3   OH215635   2.851   5.111   4.324  0.6748  0.2352 -0.0846
 5210TIP3    H115636   2.926   5.051   4.324 -0.6058 -1.5797  2.8057
 5210TIP3    H215637   2.775   5.054   4.317 -0.5299  1.7480  0.3764
 5211TIP3   OH215638   0.964   3.250   1.348 -0.3058 -0.4812 -0.0483
 5211TIP3    H115639   0.981   3.200   1.427  1.9978 -0.2511 -0.3272
 5211TIP3    H215640   1.049   3.287   1.324 -0.8558 -0.7618 -2.7710
 5212TIP3   OH215641   1.935   4.429   0.993 -0.0958 -0.2726 -0.1344
 5212TIP3    H115642   1.959   4.515   1.027  0.0635  0.2565 -1.4927
 5212TIP3    H215643   1.892   4.384   1.066  0.9241  0.4900  0.9652
 5213TIP3   OH215644   3.848   3.175   2.591  0.2068 -0.7008 -0.7860
 5213TIP3    H115645   3.827   3.096   2.640 -1.3654  1.6693  2.7226
 5213TIP3    H215646   3.774   3.187   2.531  0.8342 -2.2001 -1.9173
 5214TIP3   OH215647   1.294   0.645   1.995 -0.2533 -0.3257 -0.3981
 5214TIP3    H115648   1.306   0.722   2.052 -1.6150 -0.3598 -0.0208
 5214TIP3    H215649   1.332   0.573   2.044 -1.0228 -0.2754  0.2901
 5215TIP3   OH215650   2.495   0.760   4.550 -0.0885 -0.0721 -0.2528
 5215TIP3    H115651   2.414   0.720   4.581  0.3764  0.2423  1.4678
 5215TIP3    H215652   2.563   0.697   4.575  0.3199  0.2518 -0.5392
 5216TIP3   OH215653   1.312   2.907   1.905 -0.2848  0.4176  0.2335
 5216TIP3    H115654   1.372   2.848   1.860  0.4156  0.9381  0.4620
 5216TIP3    H215655   1.318   2.881   1.997 -0.2041  0.6519  0.2944
 5217TIP3   OH215656   0.505   5.372   0.483  0.0492 -0.3508 -0.4864
 5217TIP3    H115657   0.412   5.392   0.495 -0.2006 -1.7672  0.0737
 5217TIP3    H215658   0.508   5.277   0.469  1.3491 -0.2323 -1.1940
 5218TIP3   OH215659   2.719   3.407   2.042  0.1759 -0.1610  0.3864
 5218TIP3    H115660   2.743   3.326   2.087 -0.8213 -1.7117 -1.6808
 5218TIP3    H215661   2.625   3.397   2.024  0.3167  0.8354 -1.0827
 5219TIP3   OH215662   0.622   0.314   0.886  0.1076 -0.7401 -0.2029
 5219TIP3    H115663   0.716   0.306   0.903 -0.2459 -1.0716  1.9501
 5219TIP3    H215664   0.596   0.394   0.932 -0.4819  0.0656 -1.8504
 5220TIP3   OH215665   3.678   0.562   4.928 -0.3717  0.2107  0.4649
 5220TIP3    H115666   3.701   0.628   4.863 -1.6639 -0.5395 -0.8018
 5220TIP3    H215667   3.751   0.563   4.990  0.3500  1.7433 -0.3572
 5221TIP3   OH215668   1.821   1.186   1.836 -0.2853  0.2777  0.3056
 5221TIP3    H115669   1.785   1.213   1.751 -1.1372  0.9415  0.8613
 5221TIP3    H215670   1.745   1.181   1.894  0.3560  0.4225  1.1838
 5222TIP3   OH215671   6.014   0.257   4.168 -0.4138  0.5880 -0.3350
 5222TIP3    H115672   6.013   0.351   4.188 -1.0165  0.1984  1.7381
 5222TIP3    H215673   6.107   0.233   4.175 -0.2071  1.0764 -1.2364
 5223TIP3   OH215674   2.399   0.287   2.923  0.6675 -0.3247  0.5230
 5223TIP3    H115675   2.494   0.298   2.926  1.0073 -2.8444  0.9106
 5223TIP3    H215676   2.379   0.275   2.831  0.8409 -0.7072  0.5368
 5224TIP3   OH215677   1.569   3.996   2.871  0.6761 -0.5826  0.2263
 5224TIP3    H115678   1.520   3.913   2.875 -0.1479 -0.1346 -0.4463
 5224TIP3    H215679   1.638   3.985   2.937 -1.0805 -0.7458  2.1446
 5225TIP3   OH215680   2.659   0.723   0.550  0.3067 -0.1446 -0.3907
 5225TIP3    H115681   2.722   0.793   0.565 -1.2552  1.0237  1.1172
 5225TIP3    H215682   2.639   0.729   0.456  1.1209  0.6049 -0.5316
 5226TIP3   OH215683   1.567   5.078   1.957 -0.3403  0.5577 -0.0917
 5226TIP3    H115684   1.640   5.087   1.895  0.0180  2.3747  0.5460
 5226TIP3    H215685   1.510   5.013   1.916  1.1447 -0.1951 -1.0754
 5227TIP3   OH215686   3.479   2.642   0.685 -0.4422  0.0179  0.4145
 5227TIP3    H115687   3.575   2.638   0.686 -0.3955  0.6689 -0.2930
 5227TIP3    H215688   3.454   2.592   0.607 -0.6491  0.2117  0.3554
 5228TIP3   OH215689   1.432   4.077   4.394  0.6435  0.1160 -0.6339
 5228TIP3    H115690   1.370   4.068   4.321 -0.1426  0.2273  0.0094
 5228TIP3    H215691   1.410   4.162   4.433  0.3367 -0.4166  0.3818
 5229TIP3   OH215692   2.790   3.816   3.827 -0.2810  0.0070 -0.3389
 5229TIP3    H115693   2.852   3.864   3.772 -1.6808  2.2382 -0.0886
 5229TIP3    H215694   2.706   3.859   3.812 -1.1626 -0.8508  1.7358
 5230TIP3   OH215695   0.299   2.472   4.141  0.0476  0.6528  0.1964
 5230TIP3    H115696   0.367   2.405   4.153 -1.0219 -0.3094  1.2773
 5230TIP3    H215697   0.229   2.426   4.094  0.4489  1.8570 -1.6343
 5231TIP3   OH215698   5.646   5.511   2.926  0.4970  0.3599 -0.1701
 5231TIP3    H115699   5.714   5.549   2.982  1.5484 -0.1003 -1.0923
 5231TIP3    H215700   5.638   5.420   2.956  0.0563  0.4931  0.1328
 5232TIP3   OH215701   3.001   1.380   2.460  0.3230 -0.2149 -0.7237
 5232TIP3    H115702   2.983   1.360   2.551  0.9782  1.6869 -0.1224
 5232TIP3    H215703   2.915   1.402   2.423  0.2303  0.3388 -0.1917
 5233TIP3   OH215704   1.983   5.654   4.359  0.0036 -0.1459  0.2879
 5233TIP3    H115705   1.983   5.727   4.297 -0.9999 -1.2271 -1.0486
 5233TIP3    H215706   2.063   5.606   4.340 -0.1530 -0.3046  0.0160
 5234TIP3   OH215707   4.694   0.463   0.178 -0.2590  0.0522  0.2454
 5234TIP3    H115708   4.621   0.492   0.233 -0.1557  1.6742 -0.3978
 5234TIP3    H215709   4.660   0.470   0.088  0.0388 -1.1747  0.0189
 5235TIP3   OH215710   1.603   3.510   5.142 -0.4716  0.0628 -0.0425
 5235TIP3    H115711   1.508   3.512   5.158 -0.8966 -0.6852 -2.1871
 5235TIP3    H215712   1.616   3.434   5.086  1.3545  0.3975 -0.1169
 5236TIP3   OH215713   0.834   3.833   1.522 -0.1513 -0.0822  0.0661
 5236TIP3    H115714   0.842   3.845   1.617  1.2444 -0.6808  0.0439
 5236TIP3    H215715   0.913   3.785   1.497 -1.4135 -1.6322 -1.1341
 5237TIP3   OH215716   2.022   1.207   0.745  0.3765 -0.1855  0.2996
 5237TIP3    H115717   1.965   1.130   0.747  0.6355 -0.3643  1.3350
 5237TIP3    H215718   1.962   1.281   0.738  0.1063 -0.4466 -0.2461
 5238TIP3   OH215719   3.588   4.158   3.540  0.1094 -0.4310 -0.4835
 5238TIP3    H115720   3.616   4.160   3.631  1.2741 -0.1411 -0.8307
 5238TIP3    H215721   3.576   4.065   3.520 -1.1086 -0.4353  0.2378
 5239TIP3   OH215722   1.185   0.771   3.957  0.0899 -0.4987  0.0106
 5239TIP3    H115723   1.104   0.724   3.976 -1.5754  1.1741 -2.4017
 5239TIP3    H215724   1.225   0.723   3.885  0.7464 -0.7436  0.5285
 5240TIP3   OH215725   1.835   0.491   0.752  0.2036  0.7270  0.3737
 5240TIP3    H115726   1.809   0.401   0.733  1.5349 -0.0335  1.9299
 5240TIP3    H215727   1.849   0.530   0.666 -0.8824 -0.3958 -0.3446
 5241TIP3   OH215728   4.992   4.595   0.790 -0.6780  0.4601  0.1718
 5241TIP3    H115729   5.070   4.603   0.735 -0.1184  0.3692  0.9430
 5241TIP3    H215730   4.988   4.678   0.838 -0.5872  0.1434  0.7359
 5242TIP3   OH215731   0.352   1.539   2.997  0.1562  0.0181 -0.0871
 5242TIP3    H115732   0.288   1.518   3.065  1.6625 -0.5155  1.2331
 5242TIP3    H215733   0.395   1.618   3.030  0.7492 -0.1154 -0.5364
 5243TIP3   OH215734   4.315   4.579   4.913 -0.3574  0.1465 -0.1824
 5243TIP3    H115735   4.389   4.638   4.898  0.7397 -1.2188 -0.3696
 5243TIP3    H215736   4.334   4.503   4.858 -1.3796 -0.6854  0.5745
 5244TIP3   OH215737   1.128   1.548   0.151  0.1703  0.5967  0.3085
 5244TIP3    H115738   1.065   1.602   0.103 -0.5668  0.6957  1.3653
 5244TIP3    H215739   1.184   1.611   0.197  0.2498  0.4860  0.3637
 5245TIP3   OH215740   0.411   5.742   0.638 -0.7730  0.5350  0.5271
 5245TIP3    H115741   0.424   5.761   0.545 -1.3435 -0.3665  0.2505
 5245TIP3    H215742   0.326   5.781   0.659 -1.5066 -0.8385  0.1937
 5246TIP3   OH215743   5.493   1.499   2.058 -0.0777  0.0241 -1.1691
 5246TIP3    H115744   5.460   1.576   2.104  0.7060  0.4338 -1.2797
 5246TIP3    H215745   5.496   1.430   2.125 -0.7870  0.0802 -1.0733
 5247TIP3   OH215746   0.969   1.769   0.352  0.3471 -0.8103  0.2910
 5247TIP3    H115747   0.908   1.793   0.283 -0.5743 -1.3179  0.9118
 5247TIP3    H215748   1.054   1.800   0.320 -0.6654  3.3101  1.0112
 5248TIP3   OH215749   0.037   3.435   1.269  0.3208  0.4519  0.0419
 5248TIP3    H115750   0.073   3.520   1.295 -0.7235  0.7542  0.5631
 5248TIP3    H215751   0.042   3.381   1.348  1.9540 -0.3395 -0.5606
 5249TIP3   OH215752   0.361   3.780   1.908 -0.2539  0.5982 -0.2285
 5249TIP3    H115753   0.402   3.700   1.940 -0.3459 -0.1539 -1.9145
 5249TIP3    H215754   0.345   3.832   1.987  1.7596 -0.1065  0.6890
 5250TIP3   OH215755   2.510   1.149   0.887  0.2526  0.0630  0.3577
 5250TIP3    H115756   2.496   1.055   0.903  0.7679 -0.1772 -0.5104
 5250TIP3    H215757   2.567   1.177   0.959 -0.4879 -0.1198  1.0233
 5251TIP3   OH215758   5.261   1.984   2.153 -0.0385 -0.4306  0.9000
 5251TIP3    H115759   5.279   1.988   2.059 -1.8678  0.1186  0.5405
 5251TIP3    H215760   5.310   2.058   2.189  0.8605 -0.7734  0.4432
 5252TIP3   OH215761   1.983   4.241   5.143 -0.0582  0.2234 -0.4768
 5252TIP3    H115762   1.972   4.231   5.049  0.7590 -2.0817 -0.4043
 5252TIP3    H215763   2.077   4.254   5.155 -0.2045  0.8727 -0.0009
 5253TIP3   OH215764   2.694   5.899   0.642  0.4577 -0.6664 -0.0667
 5253TIP3    H115765   2.722   5.865   0.557 -2.2434  1.0771 -1.7976
 5253TIP3    H215766   2.615   5.849   0.663  0.0498  0.1800  0.4691
 5254TIP3   OH215767   6.032   2.274   3.395  0.5386 -0.4198 -0.3772
 5254TIP3    H115768   6.046   2.285   3.301  0.4233  2.6271 -0.1601
 5254TIP3    H215769   5.964   2.208   3.402 -0.2307  0.0579 -2.5065
 5255TIP3   OH215770   2.142   5.464   4.682  0.4719  0.0084  0.0344
 5255TIP3    H115771   2.106   5.487   4.768 -0.9441 -1.2526 -0.1820
 5255TIP3    H215772   2.121   5.371   4.671 -1.0024  0.5603 -2.4447
 5256TIP3   OH215773   4.486   0.027   5.016 -0.3324 -0.2246  0.3368
 5256TIP3    H115774   4.455  -0.009   5.099  0.7134  0.5643  1.0917
 5256TIP3    H215775   4.581   0.023   5.021 -0.2518 -1.0664 -1.2508
 5257TIP3   OH215776   5.876   3.247   3.793  0.3752 -0.0384  0.1715
 5257TIP3    H115777   5.833   3.162   3.781  0.7755 -0.4562  1.5525
 5257TIP3    H215778   5.804   3.310   3.788  0.4139 -0.0793 -3.9756
 5258TIP3   OH215779   5.709   2.833   2.299 -0.0368 -0.4979 -0.3734
 5258TIP3    H115780   5.770   2.882   2.355  0.9461  0.8295 -2.4608
 5258TIP3    H215781   5.765   2.780   2.243 -1.0246 -2.2464  0.2218
 5259TIP3   OH215782   5.787   5.660   1.373 -0.1717 -0.0158 -0.1372
 5259TIP3    H115783   5.823   5.641   1.459  2.8603 -0.8215 -1.4303
 5259TIP3    H215784   5.720   5.593   1.360  1.6748 -2.0674  0.3483
 5260TIP3   OH215785   2.855   0.626   5.012 -0.5036 -0.4495 -0.2712
 5260TIP3    H115786   2.897   0.669   5.087  1.0741 -0.7979 -0.9205
 5260TIP3    H215787   2.791   0.566   5.051 -0.1619 -0.1533  0.7608
 5261TIP3   OH215788   2.446   4.328   4.315 -0.5138  0.0150  0.0760
 5261TIP3    H115789   2.511   4.258   4.328 -0.7267 -0.2208 -0.1190
 5261TIP3    H215790   2.368   4.297   4.361 -0.4271  0.3966  0.4942
 5262TIP3   OH215791   5.130   1.128   2.678  0.2454 -0.1868  0.1569
 5262TIP3    H115792   5.128   1.224   2.672 -0.5494 -0.2579 -1.0749
 5262TIP3    H215793   5.062   1.107   2.743  0.3772  0.0746  0.3817
 5263TIP3   OH215794   4.034   0.270   0.697 -0.4614 -0.0090 -0.3485
 5263TIP3    H115795   4.058   0.359   0.724 -1.0518 -0.4024  1.6631
 5263TIP3    H215796   4.118   0.225   0.688 -0.2124  0.2487  0.5579
 5264TIP3   OH215797   3.551   1.297   5.038 -0.2353  0.2280 -0.0041
 5264TIP3    H115798   3.534   1.216   5.085  1.6731 -0.5345 -0.5262
 5264TIP3    H215799   3.579   1.268   4.951 -0.7982  1.4966 -0.6236
 5265TIP3   OH215800   2.914   1.061   3.960  0.0302 -0.1256  0.2664
 5265TIP3    H115801   2.836   1.059   3.905  0.1417 -3.4451  0.0147
 5265TIP3    H215802   2.987   1.075   3.899 -0.0527 -1.4260 -0.1647
 5266TIP3   OH215803   5.340   1.094   4.472  0.1516  0.1054 -0.2138
 5266TIP3    H115804   5.435   1.095   4.462  0.0807  0.7874 -0.8994
 5266TIP3    H215805   5.321   1.169   4.528  0.1768 -1.2563  1.7302
 5267TIP3   OH215806   2.788   0.035   1.379 -0.7390 -0.1971 -0.0677
 5267TIP3    H115807   2.752   0.048   1.466  0.4430  0.1554  0.3965
 5267TIP3    H215808   2.842   0.113   1.363  0.1119 -0.8679 -0.5557
 5268TIP3   OH215809   5.933   4.905   4.179 -0.1084 -0.6164 -0.1258
 5268TIP3    H115810   5.849   4.894   4.225 -0.0903  4.0029  1.5303
 5268TIP3    H215811   5.992   4.843   4.221 -1.4806 -0.3704  2.3278
 5269TIP3   OH215812   1.884   4.878   3.804 -0.1389 -0.4161 -0.4411
 5269TIP3    H115813   1.864   4.957   3.854 -0.4578 -1.0601  0.4802
 5269TIP3    H215814   1.800   4.834   3.793 -0.2413  0.2062 -2.4552
 5270TIP3   OH215815   3.413   4.954   0.646  0.4109  0.1332  0.1240
 5270TIP3    H115816   3.507   4.955   0.665  0.2481  1.5305  0.9824
 5270TIP3    H215817   3.378   5.028   0.695 -1.1491 -0.3577 -0.2028
 5271TIP3   OH215818   1.762   1.886   1.843 -0.2367  0.5051  0.1594
 5271TIP3    H115819   1.713   1.907   1.922  1.4863 -0.4034  1.5565
 5271TIP3    H215820   1.778   1.970   1.801 -0.0508  1.1729  1.5193
 5272TIP3   OH215821   5.633   2.911   1.864 -0.0686  0.7781  0.6374
 5272TIP3    H115822   5.589   2.854   1.927 -0.8684  1.8720  1.1143
 5272TIP3    H215823   5.639   2.996   1.909  2.2751  0.7753  0.4675
 5273TIP3   OH215824   2.433   2.656   4.486  0.1088 -0.2101  0.4614
 5273TIP3    H115825   2.447   2.623   4.574  2.4463 -2.3071 -0.5889
 5273TIP3    H215826   2.486   2.600   4.430  0.1786  2.1943 -2.1002
 5274TIP3   OH215827   0.273   3.552   2.596 -0.3055  0.1219 -0.0572
 5274TIP3    H115828   0.240   3.543   2.685 -2.0770 -0.2237 -0.7184
 5274TIP3    H215829   0.362   3.518   2.601  0.2495  1.6291  1.9164
 5275TIP3   OH215830   1.597   2.952   5.067 -0.1421  0.7353  0.0574
 5275TIP3    H115831   1.650   2.981   5.141 -0.1650  0.3948  0.2043
 5275TIP3    H215832   1.659   2.906   5.010  0.2753  2.4877 -1.0015
 5276TIP3   OH215833   2.986   0.425   1.988  0.2682  0.3665 -0.0335
 5276TIP3    H115834   2.942   0.385   1.913  0.7991 -4.2403  1.7741
 5276TIP3    H215835   2.915   0.454   2.045 -0.3810 -1.2466  0.0515
 5277TIP3   OH215836   1.715   2.537   3.275 -0.5426 -0.3952 -0.2049
 5277TIP3    H115837   1.756   2.471   3.219  0.3328 -0.0280 -0.0149
 5277TIP3    H215838   1.753   2.620   3.246  1.2265 -0.3366  1.9875
 5278TIP3   OH215839   0.246   0.551   0.664 -0.1629 -0.2510  0.4061
 5278TIP3    H115840   0.253   0.515   0.752 -0.9472  2.4732  1.7137
 5278TIP3    H215841   0.152   0.551   0.645 -0.1026  0.2359  0.0702
 5279TIP3   OH215842   5.557   1.700   2.845  0.3289 -0.3881  0.3429
 5279TIP3    H115843   5.471   1.719   2.809  0.8687 -0.2498 -0.9324
 5279TIP3    H215844   5.618   1.745   2.787  1.2711 -0.4927  1.2181
 5280TIP3   OH215845   0.635   2.368   0.043 -0.0016 -0.3591 -0.0668
 5280TIP3    H115846   0.705   2.389   0.105  1.5859 -0.7429 -1.6438
 5280TIP3    H215847   0.637   2.273   0.037  0.8477 -0.2667 -1.7300
 5281TIP3   OH215848   4.235   1.843   0.267 -0.0717  0.1438  0.3801
 5281TIP3    H115849   4.297   1.913   0.246  0.7188  0.0375  2.2320
 5281TIP3    H215850   4.178   1.839   0.190 -0.4067  3.0802  0.3720
 5282TIP3   OH215851   4.530   4.843   3.829 -0.0439 -0.4818  0.4036
 5282TIP3    H115852   4.499   4.907   3.765  0.7278  0.6872  1.1452
 5282TIP3    H215853   4.451   4.800   3.862 -0.4922 -0.6367 -0.8445
 5283TIP3   OH215854   2.937   1.373   1.167 -0.4200 -0.1414  0.5228
 5283TIP3    H115855   2.937   1.280   1.143 -1.8474  0.0591 -0.3629
 5283TIP3    H215856   3.030   1.397   1.168  0.1591 -2.0445  2.7806
 5284TIP3   OH215857   1.605   4.459   3.077 -0.2838  0.6562 -0.1790
 5284TIP3    H115858   1.548   4.382   3.086  0.3581 -0.1187 -2.2112
 5284TIP3    H215859   1.672   4.431   3.015  1.7349  1.8966  1.3612
 5285TIP3   OH215860   5.295   1.536   3.788  0.4406 -0.1721  0.1035
 5285TIP3    H115861   5.299   1.497   3.701  0.9091  0.2165 -0.0551
 5285TIP3    H215862   5.232   1.608   3.779  1.6526  0.8972 -0.3574
 5286TIP3   OH215863   4.800   0.179   1.606  0.5602  0.1678  0.0521
 5286TIP3    H115864   4.823   0.103   1.553  1.6707  1.2344 -1.0653
 5286TIP3    H215865   4.706   0.171   1.620  0.7659 -1.8345  0.6939
 5287TIP3   OH215866   5.331   5.836   1.550 -0.2340  0.3880  0.1099
 5287TIP3    H115867   5.263   5.893   1.586  0.3362  1.0791  0.1375
 5287TIP3    H215868   5.413   5.881   1.572  0.2044 -0.1345 -0.4174
 5288TIP3   OH215869   4.534   0.970   3.484 -0.3431  0.1422  0.6788
 5288TIP3    H115870   4.538   1.055   3.527 -0.6568 -0.4853  1.9798
 5288TIP3    H215871   4.522   0.907   3.555  0.6012 -1.0713 -0.1902
 5289TIP3   OH215872   0.870   0.358   1.565 -0.3541 -0.6153 -0.3096
 5289TIP3    H115873   0.916   0.349   1.648 -1.8387 -2.6445  0.3733
 5289TIP3    H215874   0.939   0.357   1.499  0.7552 -0.3835  0.8136
 5290TIP3   OH215875   3.725   5.188   4.733  0.3623 -0.1405 -0.1794
 5290TIP3    H115876   3.730   5.283   4.725  1.3218 -0.3338 -2.6616
 5290TIP3    H215877   3.632   5.170   4.746 -0.1067  1.0699 -1.5260
 5291TIP3   OH215878   4.853   2.930   2.903  0.2208  0.3458  0.1717
 5291TIP3    H115879   4.781   2.992   2.917 -0.4831 -0.4983  0.3514
 5291TIP3    H215880   4.829   2.881   2.824 -0.7728 -1.7908  1.7071
 5292TIP3   OH215881   5.178   3.904   5.099  0.6312  0.2552 -0.1205
 5292TIP3    H115882   5.273   3.890   5.100  0.5279 -0.5670  1.0306
 5292TIP3    H215883   5.141   3.817   5.114 -0.2845  0.6414 -0.0845
 5293TIP3   OH215884   5.691   5.466   4.019  0.2165  0.3370 -0.8876
 5293TIP3    H115885   5.620   5.441   4.078 -0.9487  2.4931 -1.2755
 5293TIP3    H215886   5.665   5.433   3.933  0.2546  0.1142 -0.8131
 5294TIP3   OH215887   3.125   2.419   2.567  0.4930  0.1197  0.5069
 5294TIP3    H115888   3.088   2.479   2.502 -0.8006  0.2461  1.3404
 5294TIP3    H215889   3.142   2.474   2.644  0.6353 -0.3193  0.7914
 5295TIP3   OH215890   3.445   3.302   2.643  0.8683 -0.5229 -0.1283
 5295TIP3    H115891   3.518   3.360   2.661  2.1226 -1.6139 -1.4452
 5295TIP3    H215892   3.424   3.318   2.551  1.4381 -2.3082 -0.6067
 5296TIP3   OH215893   5.147   3.107   4.753  0.3850 -0.3974 -0.3144
 5296TIP3    H115894   5.126   3.014   4.762 -0.6145 -0.1673 -0.1779
 5296TIP3    H215895   5.159   3.120   4.659  0.8571 -0.7246 -0.3042
 5297TIP3   OH215896   3.531   0.022   0.777  0.0862 -0.0692 -0.2854
 5297TIP3    H115897   3.445   0.045   0.741  0.5027 -0.7504 -1.7936
 5297TIP3    H215898   3.558   0.099   0.827 -1.4574  0.0957  0.3656
 5298TIP3   OH215899   0.396   3.316   1.283 -0.1228  0.1590 -0.3910
 5298TIP3    H115900   0.482   3.352   1.308 -0.2225 -0.3036  0.6820
 5298TIP3    H215901   0.352   3.300   1.366 -1.3195  0.5085 -0.9296
 5299TIP3   OH215902   5.021   1.620   2.565 -0.2398  0.1770 -0.3133
 5299TIP3    H115903   5.080   1.676   2.615 -0.0897 -0.3208  0.0710
 5299TIP3    H215904   4.998   1.672   2.488  0.8087  0.3257 -0.5410
 5300TIP3   OH215905   3.450   2.890   1.840  0.4161  0.5607 -0.1501
 5300TIP3    H115906   3.423   2.860   1.927  0.3251  1.0606 -0.0024
 5300TIP3    H215907   3.414   2.979   1.833 -0.2872  0.2284 -1.0215
 5301TIP3   OH215908   5.391   2.073   0.152  0.1281  0.0215  0.0823
 5301TIP3    H115909   5.418   1.983   0.170  2.6430  0.6030 -0.5079
 5301TIP3    H215910   5.424   2.123   0.227 -0.6200  0.5814  0.0496
 5302TIP3   OH215911   0.883  -0.011   4.265 -0.6180 -0.6134  0.0682
 5302TIP3    H115912   0.835   0.039   4.199 -0.2802 -1.0074 -0.4820
 5302TIP3    H215913   0.824  -0.012   4.341 -0.5051  0.8944  0.2182
 5303TIP3   OH215914   2.257   2.827   4.413 -0.3721  0.3312 -0.0766
 5303TIP3    H115915   2.327   2.766   4.435  0.2179  0.9369 -0.2056
 5303TIP3    H215916   2.191   2.815   4.481 -0.2632 -0.4275 -0.0959
 5304TIP3   OH215917   4.743   1.840   3.821 -0.2857  0.5291 -0.0168
 5304TIP3    H115918   4.673   1.830   3.757  0.6260  1.1627 -1.1411
 5304TIP3    H215919   4.808   1.895   3.778  0.7930  0.1804  1.1033
 5305TIP3   OH215920   0.329   2.263   3.587 -0.2837 -0.0384  0.3947
 5305TIP3    H115921   0.417   2.229   3.604  1.0089  2.2296 -1.2870
 5305TIP3    H215922   0.274   2.185   3.586  2.1072 -1.8554 -0.9950
 5306TIP3   OH215923   5.433   2.850   2.823 -0.3744  0.1858 -0.4179
 5306TIP3    H115924   5.406   2.941   2.813 -0.7576  0.3458  1.7149
 5306TIP3    H215925   5.496   2.850   2.895  0.4079 -1.1139 -1.0472
 5307TIP3   OH215926   2.829   1.122   4.918 -0.2612 -0.7384 -0.1514
 5307TIP3    H115927   2.749   1.082   4.952 -0.5016 -0.0507  0.1023
 5307TIP3    H215928   2.899   1.070   4.957 -0.5648 -0.7738  0.3542
 5308TIP3   OH215929   0.220   4.252   3.215 -0.3394  0.0993  0.4459
 5308TIP3    H115930   0.250   4.299   3.137 -0.0049  2.4312  1.9004
 5308TIP3    H215931   0.266   4.168   3.211  0.9950  0.8374 -0.9749
 5309TIP3   OH215932   2.339   4.475   3.720  0.0785 -0.1456  0.1820
 5309TIP3    H115933   2.374   4.486   3.808 -0.7834 -0.4194  0.5768
 5309TIP3    H215934   2.349   4.560   3.678 -0.9542  0.4503  1.0958
 5310TIP3   OH215935   6.274   0.240  -0.027  0.2672 -0.2271  0.4532
 5310TIP3    H115936   6.235   0.181   0.037 -1.5480  0.1552 -0.2431
 5310TIP3    H215937   6.342   0.287   0.022 -1.3156  0.3277  2.2394
 5311TIP3   OH215938   1.262   4.516   4.064  0.5128 -0.2859  0.0790
 5311TIP3    H115939   1.232   4.493   3.976 -0.0374 -1.9036  0.6560
 5311TIP3    H215940   1.258   4.612   4.067  0.2347 -0.2261 -1.5330
 5312TIP3   OH215941   4.805   3.516   4.096 -0.1200 -0.2198 -0.2115
 5312TIP3    H115942   4.775   3.425   4.084 -0.8383  0.3336 -3.5183
 5312TIP3    H215943   4.736   3.557   4.147 -0.7798 -1.0426 -0.4136
 5313TIP3   OH215944   0.058   2.129   4.270  0.1252  0.5542 -0.0233
 5313TIP3    H115945   0.006   2.088   4.339  0.8561 -0.6702 -0.1855
 5313TIP3    H215946   0.082   2.215   4.306 -2.3094  1.3639 -0.0856
 5314TIP3   OH215947   2.925   4.025   4.882  0.6160  0.4337 -0.0661
 5314TIP3    H115948   2.923   3.929   4.892 -0.6109  0.6138  2.0364
 5314TIP3    H215949   2.875   4.057   4.957 -1.4798  2.6642 -2.2896
 5315TIP3   OH215950   1.171   4.027   0.509 -0.2013 -0.3194  0.2193
 5315TIP3    H115951   1.098   4.086   0.528 -1.1772 -1.9048  1.8154
 5315TIP3    H215952   1.249   4.078   0.527 -0.9221  1.1383 -0.6111
 5316TIP3   OH215953   5.601   5.919   1.880  0.3018 -0.3439  0.2084
 5316TIP3    H115954   5.556   5.930   1.796  0.7142  1.2946  0.1699
 5316TIP3    H215955   5.666   5.989   1.882  0.7150 -0.7319  1.6401
 5317TIP3   OH215956   3.689   1.792   2.716  0.4964  0.2764  0.5659
 5317TIP3    H115957   3.669   1.828   2.629  0.2719  0.6308  0.7614
 5317TIP3    H215958   3.782   1.809   2.728  0.7288 -0.5631  0.0303
 5318TIP3   OH215959   6.329   0.513   0.686  0.3170 -0.4196  0.3308
 5318TIP3    H115960   6.247   0.546   0.721  0.0617  0.0539 -0.6940
 5318TIP3    H215961   6.335   0.550   0.598  1.5480 -0.5793  0.3287
 5319TIP3   OH215962   1.446   3.401   0.333 -0.1175  0.2627  0.4037
 5319TIP3    H115963   1.518   3.409   0.396  0.1532 -0.7046  0.2372
 5319TIP3    H215964   1.394   3.480   0.345  0.1594  0.2783  1.5535
 5320TIP3   OH215965   6.171   4.176   0.069 -0.0868  0.5633  0.2898
 5320TIP3    H115966   6.236   4.141   0.130  1.3755  0.5049 -1.2235
 5320TIP3    H215967   6.102   4.109   0.067  1.9538 -1.6919 -1.4209
 5321TIP3   OH215968   6.337   2.970   0.074 -0.5592  0.1688 -0.8337
 5321TIP3    H115969   6.241   2.973   0.073 -0.5921 -0.5797 -1.3439
 5321TIP3    H215970   6.360   2.966   0.167 -1.1197 -1.4769 -0.7349
 5322TIP3   OH215971   3.367   4.903   4.414  0.1694  0.3728 -0.0172
 5322TIP3    H115972   3.441   4.960   4.437 -0.7306  1.4688  0.2669
 5322TIP3    H215973   3.296   4.931   4.472 -0.1263 -1.5020  0.5853
 5323TIP3   OH215974   0.916   4.694   0.989 -0.3488  0.0385  0.0427
 5323TIP3    H115975   0.997   4.661   1.030 -0.6208  1.6486  2.0493
 5323TIP3    H215976   0.867   4.615   0.967  1.8764 -1.0036 -1.5606
 5324TIP3   OH215977   6.180   5.065   1.203  0.1398 -0.1588 -0.1421
 5324TIP3    H115978   6.203   4.972   1.211 -2.5174 -1.0052 -1.3888
 5324TIP3    H215979   6.145   5.074   1.114 -0.2482  1.9073  0.1709
 5325TIP3   OH215980   2.774   0.734   2.581  0.0171  0.0103 -0.0458
 5325TIP3    H115981   2.772   0.818   2.535  0.4224  0.3847  0.5975
 5325TIP3    H215982   2.867   0.719   2.599  0.0016 -0.8654 -0.6674
 5326TIP3   OH215983   1.536   0.362   4.885  0.4982  0.4805  0.0930
 5326TIP3    H115984   1.577   0.295   4.829  0.5341  0.3830  0.2358
 5326TIP3    H215985   1.553   0.332   4.974  2.4469  1.8138  0.2217
 5327TIP3   OH215986   1.114   3.438   0.924  0.5123  0.3532  0.3179
 5327TIP3    H115987   1.118   3.509   0.861  2.4069 -1.3364 -1.6159
 5327TIP3    H215988   1.037   3.387   0.898  1.6505 -0.7026 -1.1474
 5328TIP3   OH215989   3.421   5.855   3.932 -0.0337  0.4988  0.0805
 5328TIP3    H115990   3.381   5.796   3.868 -0.8031 -0.2712  1.2295
 5328TIP3    H215991   3.505   5.880   3.893  0.5868 -1.8050 -0.2241
 5329TIP3   OH215992   6.125   3.967   4.633  0.0288 -0.1219  0.5190
 5329TIP3    H115993   6.120   3.984   4.539 -0.2878  1.2109  0.7578
 5329TIP3    H215994   6.204   4.013   4.662  1.2113 -2.0875  0.6284
 5330TIP3   OH215995   0.795   5.457   1.916 -0.1165  0.0677 -0.5795
 5330TIP3    H115996   0.719   5.470   1.860  0.3723  0.2114 -1.2343
 5330TIP3    H215997   0.870   5.478   1.859  0.4129 -0.1833  0.0107
 5331TIP3   OH215998   0.042   5.144   1.780 -0.1122 -0.1457  0.3632
 5331TIP3    H115999   0.090   5.120   1.859  2.6535 -0.8127 -1.3827
 5331TIP3    H216000   0.034   5.239   1.785  1.2749 -0.0294  0.8047
 5332TIP3   OH216001   0.071   4.808   0.603 -0.3303  0.1597  0.3001
 5332TIP3    H116002   0.088   4.714   0.594  0.6014  0.1966  1.4900
 5332TIP3    H216003   0.108   4.831   0.688 -2.1883  1.2378  0.8833
 5333TIP3   OH216004   4.320   4.445   2.256 -0.6331  0.0244  0.1236
 5333TIP3    H116005   4.278   4.523   2.217 -1.7802 -1.0200 -0.8131
 5333TIP3    H216006   4.323   4.464   2.349 -0.1125  1.5518 -0.1747
 5334TIP3   OH216007   4.797   4.191   0.309  0.5814  0.5317  0.8792
 5334TIP3    H116008   4.762   4.162   0.393 -1.0945 -2.3398 -0.6343
 5334TIP3    H216009   4.884   4.151   0.304  0.6231  0.5859  1.1733
 5335TIP3   OH216010   1.381   4.281   1.040 -0.3047  0.0877 -0.1553
 5335TIP3    H116011   1.297   4.259   1.079 -0.4767  0.4544 -0.3241
 5335TIP3    H216012   1.438   4.207   1.064 -0.0736  0.8312  1.7821
 5336TIP3   OH216013   0.044   5.692   1.562  0.2925  0.1313 -0.2526
 5336TIP3    H116014   0.072   5.617   1.509  1.5340 -1.0977  1.9909
 5336TIP3    H216015  -0.038   5.664   1.602 -0.7069  1.1008 -1.5596
 5337TIP3   OH216016   3.272   1.178   3.699 -0.1418 -0.3099 -0.5723
 5337TIP3    H116017   3.189   1.137   3.675  0.1445 -0.9460 -0.4897
 5337TIP3    H216018   3.322   1.109   3.741 -0.5176  0.6866  1.6752
 5338TIP3   OH216019   5.598   3.191   5.124  0.0868 -0.0727  0.2709
 5338TIP3    H116020   5.628   3.193   5.215  0.3555 -0.1181  0.1835
 5338TIP3    H216021   5.674   3.218   5.073 -0.0581 -0.0655  0.0571
 5339TIP3   OH216022   4.324   4.160   2.331  0.3633  0.1936  0.0021
 5339TIP3    H116023   4.296   4.251   2.318 -0.5690 -0.3157 -1.8810
 5339TIP3    H216024   4.419   4.164   2.329  0.3602  1.2330  0.8776
 5340TIP3   OH216025   6.387   3.392   4.622  0.3841 -0.1139 -0.1290
 5340TIP3    H116026   6.341   3.412   4.540  0.1619 -0.4817 -0.0913
 5340TIP3    H216027   6.328   3.335   4.670  1.2068 -1.2511 -0.4247
 5341TIP3   OH216028   0.878   1.546   0.963  0.5787  0.0643 -0.1304
 5341TIP3    H116029   0.786   1.556   0.940  0.6187  0.2499 -0.2102
 5341TIP3    H216030   0.926   1.577   0.886  0.7080 -0.3372 -0.2193
 5342TIP3   OH216031   2.728   1.206   0.676 -0.4277  0.3636  0.1703
 5342TIP3    H116032   2.702   1.164   0.758 -2.6436  1.6848  0.2381
 5342TIP3    H216033   2.744   1.298   0.700  1.4037  0.2550 -0.4793
 5343TIP3   OH216034   4.617   1.772   0.346  0.3413  0.2590 -0.2332
 5343TIP3    H116035   4.649   1.693   0.388 -2.0428 -1.1760 -0.9406
 5343TIP3    H216036   4.629   1.841   0.411  2.2778 -0.6743  0.4744
 5344TIP3   OH216037   0.451   4.125   2.673  0.2377  0.1610 -0.2789
 5344TIP3    H116038   0.433   4.032   2.687 -3.2310  0.8112  0.6418
 5344TIP3    H216039   0.504   4.150   2.749 -0.0410 -0.7732  0.2445
 5345TIP3   OH216040   0.119   3.596   2.851  0.5706  1.0418 -0.1442
 5345TIP3    H116041   0.081   3.509   2.842  0.2942  1.1122  0.2752
 5345TIP3    H216042   0.173   3.591   2.930  0.7974  1.1681 -0.2873
 5346TIP3   OH216043   2.159   1.877   2.899  0.1634  0.3488  0.4780
 5346TIP3    H116044   2.122   1.792   2.874 -2.4914  1.7345 -0.6535
 5346TIP3    H216045   2.132   1.889   2.990 -0.5241  0.5067  0.2555
 5347TIP3   OH216046   5.710   3.106   1.425 -0.1651 -0.3664  0.5414
 5347TIP3    H116047   5.622   3.099   1.461  0.4452  0.2850  2.2818
 5347TIP3    H216048   5.752   3.173   1.478  0.8635  0.5794 -1.3813
 5348TIP3   OH216049   6.293   0.092   0.582 -0.1202 -0.3438 -0.8277
 5348TIP3    H116050   6.308   0.064   0.673  0.4916 -0.8446 -1.0763
 5348TIP3    H216051   6.198   0.081   0.570  0.1605 -3.1913 -1.1600
 5349TIP3   OH216052   5.336   0.830   1.281  0.2222 -0.2253  0.2628
 5349TIP3    H116053   5.338   0.795   1.192 -2.0449 -0.7293  0.3699
 5349TIP3    H216054   5.400   0.902   1.279 -1.2057  1.1024 -2.3599
 5350TIP3   OH216055   2.204   5.709   1.282 -0.3376 -0.7077  0.7275
 5350TIP3    H116056   2.120   5.672   1.253  0.2006 -1.7338  0.4121
 5350TIP3    H216057   2.257   5.632   1.303  1.1585 -0.1683 -0.8363
 5351TIP3   OH216058   6.258   4.510   0.544 -0.0186  0.2690  0.2078
 5351TIP3    H116059   6.246   4.532   0.637 -0.5285  0.0511  0.1984
 5351TIP3    H216060   6.348   4.537   0.524  0.5378 -0.8389  1.0972
 5352TIP3   OH216061   4.933   0.914   4.728 -0.1642 -0.1438 -0.1103
 5352TIP3    H116062   4.982   0.935   4.648 -0.1410 -0.6141 -0.2231
 5352TIP3    H216063   4.910   0.999   4.765 -0.2974  0.0806 -0.6952
 5353TIP3   OH216064   4.589   4.268   3.451  0.2225  0.2232 -0.6831
 5353TIP3    H116065   4.494   4.263   3.464 -0.0113 -1.1832 -2.5720
 5353TIP3    H216066   4.619   4.327   3.520 -1.7717 -0.7602  1.1399
 5354TIP3   OH216067   4.358   0.827   2.930 -0.9266  0.3435  0.0881
 5354TIP3    H116068   4.388   0.874   2.853 -1.2035 -0.2036 -0.3565
 5354TIP3    H216069   4.322   0.895   2.987 -1.4210  0.6690 -0.5968
 5355TIP3   OH216070   3.391   5.586   2.478  0.3300 -0.3099 -0.5166
 5355TIP3    H116071   3.476   5.620   2.505  0.0871 -0.0728 -0.0195
 5355TIP3    H216072   3.366   5.641   2.402 -0.1054  0.7326  0.3450
 5356TIP3   OH216073   0.720   4.434   3.275  0.4437 -0.0653 -0.1161
 5356TIP3    H116074   0.790   4.397   3.221  0.4418 -0.0716 -0.1141
 5356TIP3    H216075   0.747   4.415   3.365  0.7622  0.4931 -0.0885
 5357TIP3   OH216076   3.200   1.930   4.329 -0.1101 -0.3562  0.4056
 5357TIP3    H116077   3.119   1.879   4.335 -2.4972  2.9938 -0.4150
 5357TIP3    H216078   3.217   1.959   4.419  0.1093 -0.9413  0.5559
 5358TIP3   OH216079   0.094   0.784   4.172  0.5445  0.0485 -0.4709
 5358TIP3    H116080   0.186   0.758   4.172  0.9688  1.3444 -1.8210
 5358TIP3    H216081   0.093   0.868   4.219  0.0198 -0.0623 -0.2781
 5359TIP3   OH216082   5.205   2.126   0.421  0.0295 -0.0097 -0.4270
 5359TIP3    H116083   5.141   2.197   0.408 -1.5323 -1.0003  1.2921
 5359TIP3    H216084   5.242   2.111   0.335 -0.1519  2.3688 -0.9985
 5360TIP3   OH216085   0.678   3.663   1.896  0.1858 -0.7472  0.1070
 5360TIP3    H116086   0.644   3.615   1.972  0.2113  0.5780  1.0073
 5360TIP3    H216087   0.616   3.644   1.826 -0.0477 -1.7199  0.5492
 5361TIP3   OH216088   5.870   4.791   0.940 -0.4870 -0.0342 -0.3204
 5361TIP3    H116089   5.850   4.758   0.852 -0.7279 -0.3098 -0.1628
 5361TIP3    H216090   5.884   4.885   0.928 -1.3994  0.0855 -0.5126
 5362TIP3   OH216091   3.798   1.064   3.308 -0.3197  0.4061 -0.4150
 5362TIP3    H116092   3.771   0.973   3.318 -0.2932  0.3667 -0.7022
 5362TIP3    H216093   3.739   1.113   3.366  0.0629  0.1427  0.2013
 5363TIP3   OH216094   3.723   3.752   3.979  0.2889  0.2541  0.1052
 5363TIP3    H116095   3.690   3.841   3.971  0.2999  0.1706 -0.9835
 5363TIP3    H216096   3.813   3.757   3.946  0.1018 -0.2602 -0.5044
 5364TIP3   OH216097   5.340   5.008   0.606 -0.1929  0.1794 -0.2347
 5364TIP3    H116098   5.378   5.047   0.684 -0.3307 -0.6048  0.2358
 5364TIP3    H216099   5.408   5.015   0.539 -0.0176  0.7110 -0.0026
 5365TIP3   OH216100   5.920   3.899   2.430  0.1385  0.1523  0.5694
 5365TIP3    H116101   5.904   3.889   2.336  1.0226  3.3963 -0.0828
 5365TIP3    H216102   5.835   3.887   2.471 -0.2861 -1.2231 -0.6216
 5366TIP3   OH216103   0.525   2.845   0.515  0.2803  0.1330  0.4197
 5366TIP3    H116104   0.579   2.896   0.574  0.3078  0.7303 -0.1071
 5366TIP3    H216105   0.587   2.789   0.467  0.3322  0.1509  0.4667
 5367TIP3   OH216106   4.879   0.781   3.130  0.0866 -0.1840 -0.0386
 5367TIP3    H116107   4.799   0.805   3.082 -0.2927  0.6997  0.9841
 5367TIP3    H216108   4.950   0.793   3.067 -0.3955  0.9450 -0.3921
 5368TIP3   OH216109   4.905   3.176   1.264  0.3645  0.1052 -0.0073
 5368TIP3    H116110   4.957   3.233   1.207  2.2482  0.6568  2.1178
 5368TIP3    H216111   4.819   3.218   1.269  0.6184  0.8072 -1.2751
 5369TIP3   OH216112   3.230   3.699   1.280 -0.2104 -0.4650  0.0330
 5369TIP3    H116113   3.234   3.719   1.186 -0.1076  1.5905  0.4312
 5369TIP3    H216114   3.320   3.675   1.303  0.3605  1.5229  0.0639
 5370TIP3   OH216115   0.677   1.719   4.898  0.2775  0.2385 -0.0321
 5370TIP3    H116116   0.766   1.722   4.864 -0.1302 -0.6981 -1.2724
 5370TIP3    H216117   0.622   1.715   4.820 -0.8530  0.6293  0.7120
 5371TIP3   OH216118   2.770   5.894   2.177  0.1544 -0.0954 -0.1705
 5371TIP3    H116119   2.764   5.980   2.218 -1.2069  0.4641 -1.4607
 5371TIP3    H216120   2.698   5.845   2.216  0.6928 -0.5457  0.2785
 5372TIP3   OH216121   4.454   5.056   0.604 -0.1770 -0.1655  0.3121
 5372TIP3    H116122   4.545   5.040   0.581 -0.0939  0.4354  0.2100
 5372TIP3    H216123   4.447   5.151   0.612 -1.3716  0.0455 -2.1876
 5373TIP3   OH216124   0.234   2.802   3.353  0.1831  0.0560 -0.0012
 5373TIP3    H116125   0.235   2.735   3.422 -1.5091 -0.4703 -0.4332
 5373TIP3    H216126   0.178   2.872   3.388  1.0685  0.7724  0.0135
 5374TIP3   OH216127   1.111   1.019   2.219  0.2589  0.3505 -0.1969
 5374TIP3    H116128   1.171   1.028   2.293  0.8730 -3.4465 -0.0654
 5374TIP3    H216129   1.025   1.044   2.254  0.3041 -2.4228  2.2869
 5375TIP3   OH216130   0.089   5.003   1.534  0.1579  0.8365  0.3667
 5375TIP3    H116131   0.071   5.060   1.459 -1.0421  0.3053  0.2392
 5375TIP3    H216132   0.064   5.056   1.610 -1.6943  0.2442  0.2105
 5376TIP3   OH216133   2.410   1.374   2.699 -0.3314  0.4903 -0.2858
 5376TIP3    H116134   2.399   1.455   2.749 -0.9917 -0.4744  1.2269
 5376TIP3    H216135   2.461   1.399   2.622 -0.4651  2.3126  0.1833
 5377TIP3   OH216136   4.689   5.592   2.647  0.2130 -0.4594  0.1627
 5377TIP3    H116137   4.637   5.586   2.728 -1.0594 -2.7795 -0.7333
 5377TIP3    H216138   4.635   5.646   2.589 -0.2941 -1.2231 -0.0943
 5378TIP3   OH216139   3.944   5.728   2.805 -0.5822  0.0540  0.2141
 5378TIP3    H116140   3.877   5.660   2.813  0.1458 -0.5411  1.4828
 5378TIP3    H216141   3.911   5.801   2.859 -0.6259  0.0996  0.1253
 5379TIP3   OH216142   1.528   1.243   2.443 -0.0032 -0.0283 -0.0733
 5379TIP3    H116143   1.605   1.198   2.477  0.1048  0.6842  0.6752
 5379TIP3    H216144   1.547   1.336   2.456 -1.7036  0.1428  1.8402
 5380TIP3   OH216145   1.678   2.018   3.290  0.8109 -0.8268  0.1635
 5380TIP3    H116146   1.637   2.099   3.320 -0.3858 -0.9541 -1.0193
 5380TIP3    H216147   1.658   1.954   3.357 -0.0599 -0.6333  0.0903
 5381TIP3   OH216148   2.063   5.268   1.158  0.1528 -0.0487  0.0767
 5381TIP3    H116149   2.135   5.206   1.146  0.5565  0.3029  0.6484
 5381TIP3    H216150   1.991   5.231   1.106  0.3485 -1.0531  0.5016
 5382TIP3   OH216151   0.839   2.196   1.786  0.2779  0.3746  0.1611
 5382TIP3    H116152   0.846   2.277   1.837 -2.1763  1.5739 -1.1860
 5382TIP3    H216153   0.856   2.223   1.696 -0.3115 -0.6475 -0.2704
 5383TIP3   OH216154   1.568   3.400   3.758 -0.5136  0.7796 -0.1798
 5383TIP3    H116155   1.495   3.460   3.745 -0.8746  0.4052  0.0919
 5383TIP3    H216156   1.556   3.366   3.847 -0.5904 -0.0637 -0.5095
 5384TIP3   OH216157   0.743   3.482   3.723 -0.3316  0.6963 -0.9912
 5384TIP3    H116158   0.809   3.511   3.786 -1.5969 -0.4843  0.9845
 5384TIP3    H216159   0.764   3.391   3.705 -2.6484 -0.4909  1.5525
 5385TIP3   OH216160   1.581   3.457   0.744 -0.6667  0.0843 -0.1060
 5385TIP3    H116161   1.506   3.437   0.801 -0.1269 -1.2227  0.1825
 5385TIP3    H216162   1.596   3.550   0.757 -1.3952  0.0864  0.8869
 5386TIP3   OH216163   5.927   4.795   0.232  0.4249  0.0520  0.2388
 5386TIP3    H116164   6.006   4.778   0.282  0.7395  0.8647  0.0340
 5386TIP3    H216165   5.873   4.848   0.290  0.8100  1.0382 -0.2703
 5387TIP3   OH216166   0.858   5.681   2.603 -0.1957 -0.3361 -0.2441
 5387TIP3    H116167   0.904   5.747   2.654  0.1127 -0.6432 -0.1212
 5387TIP3    H216168   0.853   5.718   2.515  3.2870 -1.6557 -1.1570
 5388TIP3   OH216169   1.685   0.695   1.425 -0.3716  0.1163  0.2684
 5388TIP3    H116170   1.774   0.676   1.452 -0.8345 -0.9992  1.1030
 5388TIP3    H216171   1.675   0.790   1.436  1.5730  0.7858 -2.6038
 5389TIP3   OH216172   2.015   0.138   2.590 -0.3170  0.3777 -0.0965
 5389TIP3    H116173   2.094   0.187   2.566  0.5539 -0.5514  0.8187
 5389TIP3    H216174   2.024   0.122   2.684 -1.0109 -0.7900 -0.2200
 5390TIP3   OH216175   2.731   2.965   3.879 -0.0758  0.1359 -0.5507
 5390TIP3    H116176   2.816   2.988   3.839 -0.7210  1.6025 -1.1456
 5390TIP3    H216177   2.689   2.909   3.813 -0.3119  0.9097 -1.0687
 5391TIP3   OH216178   5.473   3.292   0.611 -0.0485  0.5748  0.1737
 5391TIP3    H116179   5.451   3.308   0.519  0.2417  0.6002  0.1070
 5391TIP3    H216180   5.552   3.239   0.607 -0.0903  0.4958  0.4095
 5392TIP3   OH216181   4.543   2.946   2.063 -0.2101 -0.3032  0.8769
 5392TIP3    H116182   4.635   2.954   2.039 -0.1214  0.6664  1.4775
 5392TIP3    H216183   4.496   2.936   1.980  0.2732  0.9708  0.4433
 5393TIP3   OH216184   0.106   3.792   2.657 -0.0527 -0.4264 -0.3523
 5393TIP3    H116185   0.017   3.781   2.624 -0.5804 -0.2409  0.9349
 5393TIP3    H216186   0.104   3.750   2.744  0.0933  2.6160  1.2515
 5394TIP3   OH216187   1.361   1.170   4.380 -0.1278 -0.5796 -0.3352
 5394TIP3    H116188   1.392   1.242   4.324 -0.9805 -0.4745 -0.6829
 5394TIP3    H216189   1.282   1.139   4.336  1.1390 -2.8703 -1.1532
 5395TIP3   OH216190   3.790   4.616   3.893 -0.5126  0.4436 -0.1072
 5395TIP3    H116191   3.750   4.693   3.935 -1.9940 -0.2561 -0.1880
 5395TIP3    H216192   3.802   4.554   3.965 -0.0010  0.4640 -0.1720
 5396TIP3   OH216193   1.564   5.876   4.147  0.5455  0.3886  0.0993
 5396TIP3    H116194   1.529   5.952   4.101 -0.9607 -0.4353 -0.1669
 5396TIP3    H216195   1.658   5.878   4.128  0.2809  1.2464 -1.2672
 5397TIP3   OH216196   3.632   0.796   3.884  0.0644 -0.8690 -0.1007
 5397TIP3    H116197   3.719   0.798   3.844  0.5522  2.3018  0.8055
 5397TIP3    H216198   3.574   0.832   3.818  0.6127  2.8750  1.2020
 5398TIP3   OH216199   5.764   5.762   1.038 -0.7046 -0.1152 -0.2698
 5398TIP3    H116200   5.809   5.841   1.068 -1.6451  0.9995 -1.6549
 5398TIP3    H216201   5.684   5.759   1.090  0.2312 -1.3041  1.1816
 5399TIP3   OH216202   0.504   0.462   1.602  0.1407 -0.1773 -0.1662
 5399TIP3    H116203   0.487   0.547   1.642  0.9466  0.6499 -1.5064
 5399TIP3    H216204   0.572   0.423   1.656 -0.5255 -0.1652  0.6981
 5400TIP3   OH216205   4.297   1.834   5.061  0.0253  0.5111 -0.1194
 5400TIP3    H116206   4.272   1.852   5.151 -0.1016  0.2249 -0.0951
 5400TIP3    H216207   4.337   1.915   5.030 -0.6014  0.8569 -0.0413
 5401TIP3   OH216208   4.248   3.775   0.474  0.3631 -0.4044  0.0368
 5401TIP3    H116209   4.166   3.733   0.448  1.0072 -1.7912  0.1460
 5401TIP3    H216210   4.237   3.791   0.568 -1.9305  4.5363 -0.7600
 5402TIP3   OH216211   2.634   5.436   4.088 -0.4197 -0.5229  0.2662
 5402TIP3    H116212   2.564   5.386   4.046  0.1249 -2.7038  1.7285
 5402TIP3    H216213   2.714   5.406   4.044 -0.0044 -1.6747  1.7048
 5403TIP3   OH216214   4.469   2.520   0.643 -0.2026  0.3953  0.4127
 5403TIP3    H116215   4.559   2.491   0.627 -0.3538  1.3306 -3.0630
 5403TIP3    H216216   4.436   2.460   0.709  1.8613 -2.4134 -0.8892
 5404TIP3   OH216217   6.051   1.236   0.679 -0.3315  0.1555 -1.0344
 5404TIP3    H116218   6.085   1.271   0.597  1.9225 -0.8341 -0.6044
 5404TIP3    H216219   6.052   1.141   0.667 -0.3895  0.0127 -0.0263
 5405TIP3   OH216220   2.104   0.848   3.540 -0.5822 -0.5244  0.1194
 5405TIP3    H116221   2.142   0.827   3.455 -1.0885 -0.2772 -0.1769
 5405TIP3    H216222   2.009   0.839   3.526 -0.7211  0.3402  0.4182
 5406TIP3   OH216223   2.375   1.297   3.634 -0.2960  1.0298  0.6817
 5406TIP3    H116224   2.287   1.302   3.669  0.2368  2.1676  1.9392
 5406TIP3    H216225   2.417   1.225   3.682 -0.0143  1.6414  1.3720
 5407TIP3   OH216226   5.047   2.212   2.009  0.6515 -0.0085  0.5294
 5407TIP3    H116227   5.111   2.278   1.981  1.0205 -0.8920 -0.8378
 5407TIP3    H216228   5.064   2.137   1.952  0.0220 -1.1738  1.8134
 5408TIP3   OH216229   0.131   0.900   2.017 -0.2214 -1.0625 -0.2376
 5408TIP3    H116230   0.072   0.912   1.942 -1.5624 -1.8673  0.6323
 5408TIP3    H216231   0.122   0.807   2.039  1.3035 -1.1651  0.0125
 5409TIP3   OH216232   2.940   1.367   2.740  0.2983 -0.1931  0.1985
 5409TIP3    H116233   3.023   1.321   2.749  0.3754  0.1214  1.1058
 5409TIP3    H216234   2.907   1.377   2.829  0.2048  1.3573  0.0187
 5410TIP3   OH216235   1.943   0.950   1.688  0.5424  0.0521  0.0866
 5410TIP3    H116236   2.009   0.975   1.624 -0.2373 -0.9690 -1.1646
 5410TIP3    H216237   1.930   1.028   1.741  0.5104  1.2472 -1.6128
 5411TIP3   OH216238   2.031   5.109   4.337  0.6169  0.4306 -0.6584
 5411TIP3    H116239   1.972   5.172   4.294  0.1827 -0.0314 -0.7531
 5411TIP3    H216240   2.119   5.140   4.317  0.4065  1.2419 -0.3578
 5412TIP3   OH216241   1.939   5.840   2.481  0.3247  0.2704  0.0435
 5412TIP3    H116242   1.932   5.912   2.418  1.8830  0.7877  0.4270
 5412TIP3    H216243   1.969   5.765   2.429 -0.9773 -0.0427 -0.2937
 5413TIP3   OH216244   5.462   3.800   4.723  0.1600 -0.2793  0.3961
 5413TIP3    H116245   5.396   3.821   4.790 -1.4665  1.6731 -1.6651
 5413TIP3    H216246   5.423   3.728   4.673 -0.0134  0.2480 -0.2457
 5414TIP3   OH216247   3.660   4.283   4.079  0.2092 -0.4288  0.2707
 5414TIP3    H116248   3.739   4.250   4.036  0.3089  0.2819 -0.1019
 5414TIP3    H216249   3.671   4.378   4.080 -0.6567 -0.3209  0.1938
 5415TIP3   OH216250   4.300   1.905   4.671 -0.2049 -0.0382  0.6657
 5415TIP3    H116251   4.367   1.973   4.677 -0.4604  0.0806  3.0089
 5415TIP3    H216252   4.227   1.939   4.722 -1.1886 -1.1562  0.0456
 5416TIP3   OH216253   2.202   3.949   1.677  0.0358 -0.5394  0.1211
 5416TIP3    H116254   2.226   4.030   1.722  0.1799 -0.4553 -0.1054
 5416TIP3    H216255   2.269   3.886   1.704  0.5769 -0.2817 -0.5790
 5417TIP3   OH216256   2.803   1.071   1.524  0.0218 -0.0430  0.0331
 5417TIP3    H116257   2.868   1.140   1.508  1.4722 -1.1687  0.8224
 5417TIP3    H216258   2.764   1.093   1.608 -1.5274  1.2727 -0.9695
 5418TIP3   OH216259   5.059   1.519   4.003  0.0585 -0.3567 -0.0694
 5418TIP3    H116260   5.111   1.517   4.084  1.7655 -1.6752 -1.1383
 5418TIP3    H216261   5.002   1.443   4.011  0.2959 -0.5436 -0.1498
 5419TIP3   OH216262   5.326   2.828   0.821 -0.4697 -0.0890  0.2788
 5419TIP3    H116263   5.338   2.889   0.894 -0.2228 -0.5822  0.6565
 5419TIP3    H216264   5.407   2.778   0.818  0.0235  0.7393 -1.1243
 5420TIP3   OH216265   4.135   5.331   5.146  0.1996  0.1675 -0.2320
 5420TIP3    H116266   4.046   5.310   5.118  0.1997  1.5825 -1.3605
 5420TIP3    H216267   4.161   5.405   5.092  2.6697 -1.1995 -1.0798
 5421TIP3   OH216268   3.219   3.353   3.759 -0.2327 -0.1388  0.2086
 5421TIP3    H116269   3.163   3.312   3.693 -0.0210  0.0599 -0.0970
 5421TIP3    H216270   3.160   3.374   3.831 -0.2298 -1.6176  0.6794
 5422TIP3   OH216271   2.931   5.157   3.298 -0.3572 -0.0190 -0.6587
 5422TIP3    H116272   2.950   5.064   3.287  0.9669 -0.0286  1.3158
 5422TIP3    H216273   3.002   5.201   3.251  0.5640 -0.0537  0.6385
 5423TIP3   OH216274   1.380   2.633   4.987 -0.0024  0.0647  0.3654
 5423TIP3    H116275   1.289   2.615   5.009 -0.2184  1.4909  0.7003
 5423TIP3    H216276   1.377   2.705   4.925  0.9497  1.2902  1.6925
 5424TIP3   OH216277   3.629   1.870   2.433  0.3056 -0.0272 -0.2673
 5424TIP3    H116278   3.671   1.890   2.349 -0.0879  0.2564 -0.3974
 5424TIP3    H216279   3.595   1.781   2.422 -0.2738  0.2317 -0.6254
 5425TIP3   OH216280   1.406   2.822   2.393 -0.2154 -0.3236  0.0226
 5425TIP3    H116281   1.458   2.764   2.448  1.2693  0.4853 -0.4620
 5425TIP3    H216282   1.463   2.898   2.378 -0.5723 -0.4791 -2.5478
 5426TIP3   OH216283   1.167   3.833   1.262 -0.6229  0.0263  0.0855
 5426TIP3    H116284   1.087   3.885   1.258 -0.2822  0.7032  1.3625
 5426TIP3    H216285   1.210   3.862   1.343  0.9192 -0.3167 -0.5753
 5427TIP3   OH216286   0.442   0.739   2.387 -0.0804  0.1297  0.1994
 5427TIP3    H116287   0.357   0.696   2.398 -0.2690  0.2054 -0.8883
 5427TIP3    H216288   0.453   0.746   2.293  0.1766  2.0412  0.3337
 5428TIP3   OH216289   3.961   0.082   1.415  0.8415  0.2033 -0.1050
 5428TIP3    H116290   3.986   0.067   1.506  0.4754  1.4426  0.2190
 5428TIP3    H216291   4.040   0.115   1.372  0.8611  0.1764 -0.0891
 5429TIP3   OH216292   5.706   1.279   3.891  0.1032 -0.1548 -0.0058
 5429TIP3    H116293   5.620   1.288   3.932 -0.8893  1.4590 -2.2247
 5429TIP3    H216294   5.737   1.369   3.880  0.4743 -0.5115 -2.3117
 5430TIP3   OH216295   5.738   3.563   2.206 -0.4476 -0.2618  0.0104
 5430TIP3    H116296   5.762   3.519   2.288 -1.7838  0.7485  0.9824
 5430TIP3    H216297   5.645   3.543   2.195 -0.7769  1.2866 -0.1547
 5431TIP3   OH216298   0.214   0.462   4.612 -0.2299 -0.0112  0.3102
 5431TIP3    H116299   0.296   0.442   4.657 -0.8068 -1.9581  0.5732
 5431TIP3    H216300   0.194   0.552   4.638  2.5035  1.0581 -0.8836
 5432TIP3   OH216301   3.159   3.214   2.094 -0.0648  0.7462 -0.3802
 5432TIP3    H116302   3.236   3.269   2.082 -0.3664  1.0945 -0.7411
 5432TIP3    H216303   3.088   3.261   2.050 -0.5801  0.6431  0.3227
 5433TIP3   OH216304   3.933   0.375   2.001  0.5231 -0.0472  0.4450
 5433TIP3    H116305   4.004   0.432   1.971  0.0574 -0.2711 -1.1613
 5433TIP3    H216306   3.903   0.329   1.922  0.1913 -1.7586  1.5187
 5434TIP3   OH216307   3.542   2.604   2.242  0.0333 -0.1637  0.9888
 5434TIP3    H116308   3.580   2.569   2.323 -1.0703 -1.1419  1.1014
 5434TIP3    H216309   3.534   2.698   2.259  2.6751  0.1892  0.8174
 5435TIP3   OH216310   2.162   5.344   2.280 -0.1009 -0.6747  0.1371
 5435TIP3    H116311   2.098   5.304   2.221 -0.5755 -2.7603  1.9067
 5435TIP3    H216312   2.243   5.295   2.265  0.9523  1.4082 -1.4972
 5436TIP3   OH216313   1.244   3.676   4.054  0.3728  0.7571  0.0216
 5436TIP3    H116314   1.165   3.707   4.009 -1.0341 -0.3393  1.6228
 5436TIP3    H216315   1.289   3.623   3.988 -0.9150  0.3239 -0.5496
 5437TIP3   OH216316   2.455   3.586   1.593 -0.0382 -0.4473  0.0701
 5437TIP3    H116317   2.536   3.627   1.624 -0.7530 -0.1715  1.6302
 5437TIP3    H216318   2.462   3.495   1.620 -0.4315 -0.3291  0.5717
 5438TIP3   OH216319   6.304   4.781   2.166  0.2581  0.1252 -0.1865
 5438TIP3    H116320   6.388   4.736   2.154  0.4114 -0.2609  1.9742
 5438TIP3    H216321   6.276   4.757   2.254 -0.7247  2.5293  0.2401
 5439TIP3   OH216322   3.637   5.365   0.962  0.5241  0.4118  0.0904
 5439TIP3    H116323   3.570   5.344   0.896 -0.7203  0.7266  1.2152
 5439TIP3    H216324   3.595   5.345   1.046  1.8974  0.5156  0.8234
 5440TIP3   OH216325   2.954   2.487   5.090  0.0128  0.6650  0.0444
 5440TIP3    H116326   2.922   2.532   5.012  0.8653  1.7098  0.2713
 5440TIP3    H216327   3.044   2.464   5.069 -0.4873 -1.2459 -0.1681
 5441TIP3   OH216328   0.464   1.528   3.631  0.2661  0.4170  0.3777
 5441TIP3    H116329   0.525   1.481   3.574  1.8869  0.8906  1.6326
 5441TIP3    H216330   0.477   1.621   3.609  0.8245  0.5962  1.3811
 5442TIP3   OH216331   3.916   3.866   0.968  0.1146  0.4983  0.0684
 5442TIP3    H116332   3.924   3.788   0.913 -0.8215 -0.7789  1.6626
 5442TIP3    H216333   3.999   3.913   0.955  0.3785 -0.3530 -1.5050
 5443TIP3   OH216334   0.899   1.757   2.699  0.4407  0.1383 -0.6015
 5443TIP3    H116335   0.902   1.819   2.772  1.4432  1.0532 -1.3899
 5443TIP3    H216336   0.849   1.683   2.733  2.1424 -0.1189  1.5131
 5444TIP3   OH216337   3.106   2.986   0.109  0.1439 -0.3868  0.0276
 5444TIP3    H116338   3.109   2.992   0.014  0.0260  0.1272  0.0529
 5444TIP3    H216339   3.064   3.067   0.137  0.5158 -0.3675  0.5388
 5445TIP3   OH216340   2.927   5.979   4.085 -0.3481  0.2085  0.6799
 5445TIP3    H116341   2.889   5.988   4.172  1.1282  0.2943  1.3333
 5445TIP3    H216342   2.904   5.890   4.058 -1.2782  0.3689  0.9151
 5446TIP3   OH216343   3.675   3.483   2.635 -0.9284  0.2828  0.5263
 5446TIP3    H116344   3.751   3.471   2.577 -0.8550  1.4319  0.3659
 5446TIP3    H216345   3.712   3.490   2.723 -0.7477  1.6492  0.3673
 5447TIP3   OH216346   0.552   0.023   0.791  0.0718 -0.1080 -0.1490
 5447TIP3    H116347   0.597   0.003   0.709  0.5108  0.8417 -0.1501
 5447TIP3    H216348   0.590   0.105   0.820 -1.9994  1.0201 -0.4063
 5448TIP3   OH216349   0.859   0.695   3.465  0.6554 -0.4278 -0.0451
 5448TIP3    H116350   0.829   0.774   3.509  2.7534  0.8632 -0.7828
 5448TIP3    H216351   0.825   0.702   3.376 -1.0476 -1.5466  0.4578
 5449TIP3   OH216352   5.084   0.258   1.273 -0.2728 -0.4076  0.6326
 5449TIP3    H116353   5.069   0.349   1.300  0.6357 -0.1114  0.1872
 5449TIP3    H216354   4.996   0.223   1.257 -0.6010  0.7251 -0.2241
 5450TIP3   OH216355   3.898   1.849   3.379  0.2182 -0.5669 -0.2084
 5450TIP3    H116356   3.912   1.914   3.449 -3.6216 -2.1005  2.3168
 5450TIP3    H216357   3.815   1.873   3.340  0.5260 -1.8859 -1.7803
 5451TIP3   OH216358   6.294   1.955   4.457 -0.4891  0.0536  0.3162
 5451TIP3    H116359   6.305   1.872   4.503 -0.7624  0.6148  1.4346
 5451TIP3    H216360   6.248   1.932   4.376  0.4581 -1.0258  0.0508
 5452TIP3   OH216361   2.277   5.126   3.241 -0.5475 -0.1852  0.4345
 5452TIP3    H116362   2.229   5.195   3.194 -0.7685 -0.3999  0.3448
 5452TIP3    H216363   2.297   5.166   3.326  1.6454  0.9526 -0.5454
 5453TIP3   OH216364   5.461   5.513   0.411 -0.3644  0.1446  0.2528
 5453TIP3    H116365   5.424   5.578   0.351 -2.4418 -1.6599 -0.5664
 5453TIP3    H216366   5.387   5.488   0.467  0.4977 -1.1704  0.8449
 5454TIP3   OH216367   0.454   5.213   3.981  0.1503  0.3199  1.0002
 5454TIP3    H116368   0.411   5.216   4.066  1.3970 -2.3686  1.8340
 5454TIP3    H216369   0.519   5.283   3.985 -1.0591  1.4516  1.4715
 5455TIP3   OH216370   2.228   4.423   0.817 -0.4029 -0.1205 -0.6249
 5455TIP3    H116371   2.171   4.499   0.814  0.5863  0.6069 -1.9228
 5455TIP3    H216372   2.176   4.355   0.861 -0.4489  1.9549  2.8692
 5456TIP3   OH216373   5.226   1.749   2.995 -0.0491 -0.0961  0.5113
 5456TIP3    H116374   5.157   1.784   3.051  1.5718  0.8759  2.0131
 5456TIP3    H216375   5.308   1.777   3.037  1.3258 -2.8916 -0.0564
 5457TIP3   OH216376   2.110   3.822   5.081  0.8092 -0.0299 -0.1467
 5457TIP3    H116377   2.085   3.732   5.101  2.9271 -1.0025 -1.4870
 5457TIP3    H216378   2.051   3.849   5.011  0.6957 -0.6877 -0.3100
 5458TIP3   OH216379   1.930   3.704   3.448 -0.1359 -0.2108 -0.0870
 5458TIP3    H116380   1.998   3.666   3.504  0.7053  1.6702  0.2627
 5458TIP3    H216381   1.861   3.731   3.509  0.7841  1.8454  0.1040
 5459TIP3   OH216382   3.616   4.580   3.471 -0.1372 -0.1273 -0.5560
 5459TIP3    H116383   3.609   4.640   3.397 -0.2022  0.5686  0.0031
 5459TIP3    H216384   3.654   4.633   3.541 -0.3587 -0.6952  0.0001
 5460TIP3   OH216385   3.746   2.177   3.252 -0.1846 -0.5947  0.5568
 5460TIP3    H116386   3.705   2.262   3.237  1.2064 -0.0081 -0.1174
 5460TIP3    H216387   3.778   2.182   3.342  0.1078 -0.2919  0.4406
 5461TIP3   OH216388   3.674   2.315   1.974 -0.0223 -0.0853  0.5581
 5461TIP3    H116389   3.751   2.364   2.003  0.0068  0.5048 -0.4439
 5461TIP3    H216390   3.604   2.380   1.972 -0.4415 -0.5171  1.0307
 5462TIP3   OH216391   1.600   3.397   0.094 -0.2757 -0.2895  0.0327
 5462TIP3    H116392   1.604   3.489   0.070 -1.7612 -0.4142 -0.7374
 5462TIP3    H216393   1.549   3.395   0.175 -4.0440 -0.7422 -2.1456
 5463TIP3   OH216394   0.214   0.184   2.461  0.4039 -0.4330 -0.0845
 5463TIP3    H116395   0.206   0.179   2.557  1.6591  2.0466  0.2226
 5463TIP3    H216396   0.246   0.097   2.436 -2.3296 -2.0006  1.3918
 5464TIP3   OH216397   4.812   3.786   2.038  0.0480 -0.4322  0.1531
 5464TIP3    H116398   4.840   3.728   1.967 -1.3108  1.1453 -1.7768
 5464TIP3    H216399   4.863   3.866   2.024  0.5453 -0.4603  1.6468
 5465TIP3   OH216400   1.554   4.715   2.751  0.0209  1.1407 -0.4847
 5465TIP3    H116401   1.571   4.773   2.825 -1.1491 -0.5495  1.2139
 5465TIP3    H216402   1.639   4.679   2.728  0.1572 -0.0142  1.5931
 5466TIP3   OH216403   3.526   2.123   1.347  0.5774 -0.0183 -0.5565
 5466TIP3    H116404   3.532   2.126   1.251  0.6588  1.8798 -0.5413
 5466TIP3    H216405   3.615   2.108   1.376  0.4689 -1.1388 -0.7751
 5467TIP3   OH216406   3.841   1.247   0.715  0.6340 -0.2553  0.2978
 5467TIP3    H116407   3.912   1.188   0.691  2.0128  1.3324  0.2474
 5467TIP3    H216408   3.863   1.276   0.804  1.4550  2.0969 -0.5765
 5468TIP3   OH216409   4.700   0.245   2.839 -0.2743 -0.4135  0.2507
 5468TIP3    H116410   4.623   0.188   2.845 -1.6057  1.4695  3.5309
 5468TIP3    H216411   4.762   0.209   2.903  0.0958  0.0996  0.1876
 5469TIP3   OH216412   2.152   0.988   4.496 -0.3392  0.4264 -0.1448
 5469TIP3    H116413   2.209   1.015   4.568 -0.2407 -0.3089  0.0559
 5469TIP3    H216414   2.160   0.893   4.493 -0.9645  0.3836 -0.6130
 5470TIP3   OH216415   1.901   0.975   4.274  0.5347 -0.1484 -0.1323
 5470TIP3    H116416   1.900   0.967   4.370 -0.1079  0.4075 -0.0800
 5470TIP3    H216417   1.859   1.060   4.257 -0.3662 -0.7332 -0.9478
 5471TIP3   OH216418   5.837   2.658   2.147 -0.0801 -0.0368 -0.0449
 5471TIP3    H116419   5.865   2.638   2.058 -0.6683  2.4130 -0.8549
 5471TIP3    H216420   5.843   2.574   2.193  1.0606 -1.1991 -2.1368
 5472TIP3   OH216421   1.527   2.514   4.126  0.2049 -0.3021 -0.1196
 5472TIP3    H116422   1.465   2.493   4.057  1.1739 -0.9401 -0.8291
 5472TIP3    H216423   1.503   2.602   4.153  0.3143  0.3174 -1.8763
 5473TIP3   OH216424   0.157   1.690   4.992 -0.0941  0.4165 -0.1254
 5473TIP3    H116425   0.229   1.723   5.045 -0.2012  0.6940 -0.1525
 5473TIP3    H216426   0.166   1.595   4.995 -0.5639  0.3911  1.0453
 5474TIP3   OH216427   1.697   2.712   4.384  0.3064 -0.0062 -0.6143
 5474TIP3    H116428   1.702   2.617   4.382  3.1019  0.0713 -0.2673
 5474TIP3    H216429   1.744   2.740   4.306  3.4133  1.0737  1.4628
 5475TIP3   OH216430   1.381   3.707   0.819 -0.1422  0.0527 -0.0138
 5475TIP3    H116431   1.408   3.616   0.829 -1.0176 -0.1934  0.2011
 5475TIP3    H216432   1.428   3.738   0.741  1.4861 -0.0575  0.8764
 5476TIP3   OH216433   2.727   2.193   5.033 -0.0671 -0.3452 -0.4225
 5476TIP3    H116434   2.737   2.269   4.976 -0.6179  0.6756  0.7896
 5476TIP3    H216435   2.799   2.201   5.096  0.5673 -1.4871 -0.9679
 5477TIP3   OH216436   3.224   2.197   0.466 -0.4630  0.4819  0.5205
 5477TIP3    H116437   3.185   2.114   0.495 -0.2865  0.1482 -0.1813
 5477TIP3    H216438   3.264   2.233   0.545  1.0067 -0.9715  0.5100
 5478TIP3   OH216439   2.521   3.726   0.064  0.1504  0.2328  0.5986
 5478TIP3    H116440   2.464   3.799   0.043  0.5685  0.6456  0.8708
 5478TIP3    H216441   2.606   3.750   0.026  0.9408  1.0208  2.7040
 5479TIP3   OH216442   5.618   5.342   0.289  0.3139  0.1649  0.1863
 5479TIP3    H116443   5.639   5.390   0.209 -0.7417 -0.7957 -0.7156
 5479TIP3    H216444   5.552   5.395   0.333 -1.0891 -0.5329 -0.9682
 5480TIP3   OH216445   6.151   0.104   0.167  0.0765  0.0930 -0.3407
 5480TIP3    H116446   6.097   0.164   0.219 -1.7392  0.1128 -2.1178
 5480TIP3    H216447   6.153   0.023   0.218  0.9138  1.0271  1.1641
 5481TIP3   OH216448   5.854   2.333   4.183 -0.2098  0.0787 -0.2846
 5481TIP3    H116449   5.861   2.281   4.262 -0.6385  1.7169  0.8942
 5481TIP3    H216450   5.906   2.286   4.118  1.5848 -0.4663  1.4325
 5482TIP3   OH216451   5.933   0.860   2.136 -0.0959 -0.1568  0.2814
 5482TIP3    H116452   5.863   0.905   2.184  0.2506 -0.2342  0.8671
 5482TIP3    H216453   5.999   0.927   2.121  0.5152 -0.4955  1.3373
 5483TIP3   OH216454   2.358   5.522   2.352  0.2603  0.2321  0.9642
 5483TIP3    H116455   2.411   5.495   2.277 -0.4977 -1.2357  0.9295
 5483TIP3    H216456   2.271   5.487   2.335 -0.1407  0.6013  2.1294
 5484TIP3   OH216457   2.757   0.724   2.841  0.0489 -0.2172 -0.1996
 5484TIP3    H116458   2.674   0.762   2.872  0.8495  1.6492 -0.2341
 5484TIP3    H216459   2.741   0.706   2.748 -0.6744 -0.9695  0.0532
 5485TIP3   OH216460   0.656   4.146   2.442 -0.4285 -0.5943  0.4837
 5485TIP3    H116461   0.709   4.106   2.374  0.1859  2.0203 -0.7064
 5485TIP3    H216462   0.574   4.169   2.399 -0.5058  0.0005  0.9288
 5486TIP3   OH216463   5.056   4.184   1.668 -0.2031  0.2484 -0.7053
 5486TIP3    H116464   5.059   4.160   1.575  1.5878  0.9433 -0.8758
 5486TIP3    H216465   5.099   4.269   1.672 -0.6426  0.4298  0.7133
 5487TIP3   OH216466   3.737   4.349   1.093 -0.5057 -0.0425 -1.1078
 5487TIP3    H116467   3.798   4.290   1.048  1.0381  0.4310  0.2846
 5487TIP3    H216468   3.694   4.294   1.158 -0.7596 -0.1183 -1.3347
 5488TIP3   OH216469   5.069   4.672   2.534  0.3441  0.2129 -0.0851
 5488TIP3    H116470   5.011   4.599   2.555  0.7445 -0.1890 -0.3435
 5488TIP3    H216471   5.012   4.749   2.533  0.2254  0.1980  1.9970
 5489TIP3   OH216472   1.871   1.555   0.315 -0.3871  0.6807  0.0980
 5489TIP3    H116473   1.919   1.613   0.257  1.2899 -1.6043 -0.9412
 5489TIP3    H216474   1.811   1.507   0.258  1.6402 -1.9615  0.0113
 5490TIP3   OH216475   3.246   3.139   4.830  0.3527 -0.3321 -0.0446
 5490TIP3    H116476   3.243   3.094   4.746  2.2028 -1.7463  0.5805
 5490TIP3    H216477   3.338   3.138   4.856 -0.1941 -0.2994  2.1691
 5491TIP3   OH216478   0.354   1.607   2.318 -0.0085 -0.0695  0.2428
 5491TIP3    H116479   0.352   1.653   2.402 -0.0392 -1.3784  0.9901
 5491TIP3    H216480   0.335   1.516   2.340 -0.4637 -0.3704 -1.2499
 5492TIP3   OH216481   4.335   4.398   1.228  0.5418 -0.1444  0.2676
 5492TIP3    H116482   4.364   4.332   1.291  1.0457 -0.6094 -0.4264
 5492TIP3    H216483   4.241   4.381   1.217  0.6312 -0.6472  0.2232
 5493TIP3   OH216484   4.200   3.910   2.157  0.3841 -0.6390 -0.1206
 5493TIP3    H116485   4.282   3.960   2.160 -1.3174  2.5571 -1.7420
 5493TIP3    H216486   4.157   3.939   2.077 -2.8763 -1.2924  1.2334
 5494TIP3   OH216487   5.234   5.702   0.775  0.2118  0.3258  0.2838
 5494TIP3    H116488   5.192   5.781   0.809 -0.8227 -0.5576  1.1463
 5494TIP3    H216489   5.224   5.709   0.680 -0.9077  0.6839  0.4096
 5495TIP3   OH216490   2.680   4.739   0.478  0.1109 -0.7679  0.1860
 5495TIP3    H116491   2.646   4.827   0.461  0.2414 -0.4197  1.6131
 5495TIP3    H216492   2.669   4.692   0.395 -1.1155  0.2147 -0.2325
 5496TIP3   OH216493   4.967   3.979   3.194 -0.8160  0.2263  0.1607
 5496TIP3    H116494   5.060   3.995   3.212 -1.0725  0.9140  0.9225
 5496TIP3    H216495   4.962   3.885   3.175 -0.2055 -0.1568  1.7356
 5497TIP3   OH216496   2.343   3.702   1.382 -0.1837 -0.4399 -0.2946
 5497TIP3    H116497   2.254   3.727   1.406  0.3458  0.9613  0.3663
 5497TIP3    H216498   2.381   3.666   1.462  0.0669 -0.3474 -0.3685
 5498TIP3   OH216499   1.886   3.372   4.753  0.2695 -0.3976  0.0750
 5498TIP3    H116500   1.920   3.430   4.821  0.2912  1.2494 -1.2800
 5498TIP3    H216501   1.933   3.289   4.766  1.6322  0.4638  0.9016
 5499TIP3   OH216502   3.583   0.522   3.715 -0.1109  0.2452 -0.0026
 5499TIP3    H116503   3.607   0.599   3.664 -0.9085  0.5819  0.1225
 5499TIP3    H216504   3.632   0.450   3.675  0.0256  0.6771 -0.6154
 5500TIP3   OH216505   2.787   3.584   0.520 -1.1467 -0.8245 -0.2153
 5500TIP3    H116506   2.757   3.565   0.609 -1.6609  0.9967  0.0504
 5500TIP3    H216507   2.711   3.625   0.478 -0.2267  0.3623 -0.7693
 5501TIP3   OH216508   0.297   2.361   2.144  1.0144 -0.5975 -0.2126
 5501TIP3    H116509   0.239   2.392   2.074  1.9774 -0.0253 -0.7902
 5501TIP3    H216510   0.385   2.369   2.107  1.7019  1.1948  1.5710
 5502TIP3   OH216511   5.078   2.809   4.258 -0.0373 -0.3686 -0.7336
 5502TIP3    H116512   5.036   2.736   4.213 -1.0022 -0.4384  0.2709
 5502TIP3    H216513   5.117   2.770   4.336 -0.6405  0.2018 -0.1408
 5503TIP3   OH216514   4.168   2.140   0.839 -0.1252  0.3322  0.1885
 5503TIP3    H116515   4.138   2.056   0.874 -2.4374  0.2637 -1.6390
 5503TIP3    H216516   4.214   2.117   0.758 -1.7912  0.7617 -0.9623
 5504TIP3   OH216517   5.482   2.681   0.066 -0.0952  0.0529  0.6516
 5504TIP3    H116518   5.435   2.618   0.120 -0.4143  0.7401  1.1933
 5504TIP3    H216519   5.533   2.733   0.128 -1.5610  1.7937  0.4915
 5505TIP3   OH216520   1.034   0.600   2.390 -0.4294 -0.1794 -0.3546
 5505TIP3    H116521   1.004   0.585   2.301 -0.7456 -1.0547 -0.1159
 5505TIP3    H216522   1.120   0.558   2.394  0.3845  1.3721 -0.7251
 5506TIP3   OH216523   4.028   1.030   3.922  0.5455  0.4023 -0.1906
 5506TIP3    H116524   4.037   0.966   3.851 -0.3727  0.7946 -0.6798
 5506TIP3    H216525   4.111   1.076   3.924  0.9133 -0.2357 -0.3964
 5507TIP3   OH216526   4.746   4.445   1.798  0.4078  0.0094 -0.7388
 5507TIP3    H116527   4.761   4.359   1.838  0.7065  0.3858 -0.0176
 5507TIP3    H216528   4.710   4.498   1.869  1.9528  1.0044 -0.6547
 5508TIP3   OH216529   2.560   1.856   3.743 -0.1749 -0.3317  0.0966
 5508TIP3    H116530   2.504   1.782   3.720 -0.4656 -0.2643  0.5752
 5508TIP3    H216531   2.603   1.829   3.824  0.9611 -0.6344 -0.5762
 5509TIP3   OH216532   4.192   0.854  -0.006 -0.3004 -0.1825  0.3318
 5509TIP3    H116533   4.279   0.823  -0.032  0.3659  0.3744  1.7937
 5509TIP3    H216534   4.180   0.822   0.083 -3.2149 -3.4297 -0.9980
 5510TIP3   OH216535   5.755   5.289   1.492 -0.4387 -0.1784 -0.0763
 5510TIP3    H116536   5.714   5.367   1.456  0.2416  1.2038  1.9327
 5510TIP3    H216537   5.789   5.242   1.416 -1.1626  1.2953 -1.3748
 5511TIP3   OH216538   4.285   5.205   1.019  0.0234 -0.3150  0.1648
 5511TIP3    H116539   4.377   5.183   1.036  0.3136  1.0320  0.4736
 5511TIP3    H216540   4.271   5.287   1.066 -1.1688 -0.1814 -0.3927
 5512TIP3   OH216541   0.309   2.528   2.443  0.2756 -0.7142  0.3743
 5512TIP3    H116542   0.245   2.526   2.513  0.0014  1.1332  0.2125
 5512TIP3    H216543   0.339   2.437   2.436 -2.2753 -1.6489  0.4755
 5513TIP3   OH216544   4.317   3.325   0.666  0.0506  0.0858  0.7657
 5513TIP3    H116545   4.368   3.391   0.713  0.9860 -0.2049  0.1798
 5513TIP3    H216546   4.230   3.365   0.657 -0.0226  0.3539  2.2855
 5514TIP3   OH216547   2.625   0.103   0.694 -0.5899  0.1541 -0.0329
 5514TIP3    H116548   2.701   0.047   0.678 -0.8724 -0.3256  0.3042
 5514TIP3    H216549   2.640   0.179   0.638 -1.1651 -1.1050 -1.9931
 5515TIP3   OH216550   4.444   5.379   1.774  0.1349  0.2299  0.0454
 5515TIP3    H116551   4.521   5.430   1.747  0.2866  0.9290  1.6787
 5515TIP3    H216552   4.456   5.366   1.868 -0.5005 -1.8476 -0.1262
 5516TIP3   OH216553   2.908   2.159   0.464 -0.0655  0.4949  0.6165
 5516TIP3    H116554   2.962   2.079   0.463 -1.3143 -0.4095 -1.1196
 5516TIP3    H216555   2.944   2.211   0.535  0.9198 -1.5463  1.7207
 5517TIP3   OH216556   0.935   1.649   4.826  0.1070 -0.8446 -0.2814
 5517TIP3    H116557   0.974   1.714   4.769 -0.3692  0.6847  1.0698
 5517TIP3    H216558   0.893   1.587   4.767  0.0533  0.3996 -1.5909
 5518TIP3   OH216559   4.810   3.161   1.859  0.4651  0.4339  0.0930
 5518TIP3    H116560   4.854   3.123   1.935 -2.4749 -2.0562  0.7423
 5518TIP3    H216561   4.754   3.230   1.896  0.2170  0.2927 -0.0158
 5519TIP3   OH216562   3.577   3.761   0.819  0.4129  0.2876 -0.4046
 5519TIP3    H116563   3.617   3.703   0.755  1.9632  0.1932  0.5865
 5519TIP3    H216564   3.489   3.777   0.786  0.0398 -2.3172 -0.9154
 5520TIP3   OH216565   2.510   2.008   2.327 -0.2260  0.0577  0.4280
 5520TIP3    H116566   2.503   1.971   2.414  0.2962  4.2091  2.4767
 5520TIP3    H216567   2.432   2.062   2.317  0.2019  0.4456 -1.3049
 5521TIP3   OH216568   4.249   1.124   2.788 -0.2620  0.0901  0.2225
 5521TIP3    H116569   4.193   1.059   2.746  0.2051 -0.8153  0.9854
 5521TIP3    H216570   4.200   1.150   2.866 -0.6656  1.0284 -0.3220
 5522TIP3   OH216571   5.081   3.060   4.496  0.2972  0.2820  0.2229
 5522TIP3    H116572   5.102   3.122   4.426 -0.5888  0.2845 -0.0563
 5522TIP3    H216573   5.125   2.979   4.471 -0.0381  0.2757 -0.3586
 5523TIP3   OH216574   2.549   5.589   3.319 -0.4567  0.2280  0.3039
 5523TIP3    H116575   2.486   5.571   3.389  1.2180  0.5362  1.9895
 5523TIP3    H216576   2.613   5.518   3.327 -0.2853  0.2201 -1.0048
 5524TIP3   OH216577   3.487   1.016   4.161  0.6225 -0.2479  0.8916
 5524TIP3    H116578   3.504   1.088   4.222  1.7232 -0.3786  0.7568
 5524TIP3    H216579   3.399   0.986   4.183 -0.4061  1.9434  0.1494
 5525TIP3   OH216580   4.695   5.534   3.156 -0.1275  0.1706 -0.4485
 5525TIP3    H116581   4.743   5.612   3.128 -0.9700 -0.0345 -2.6663
 5525TIP3    H216582   4.761   5.464   3.157  0.0778  0.3478 -1.2390
 5526TIP3   OH216583   4.785   4.162   1.125  0.0174  0.1895 -0.2680
 5526TIP3    H116584   4.767   4.238   1.070  0.3860  0.0962 -0.5225
 5526TIP3    H216585   4.834   4.197   1.200  1.2409  0.0484 -0.9705
 5527TIP3   OH216586   2.685   3.563   0.767  0.0753 -0.1120  0.4174
 5527TIP3    H116587   2.715   3.625   0.833 -0.8085  2.0924 -1.1007
 5527TIP3    H216588   2.594   3.545   0.790  0.7679 -2.2458  1.7718
 5528TIP3   OH216589   3.533   3.635   2.430  0.0615  0.2323 -0.3532
 5528TIP3    H116590   3.500   3.661   2.344 -1.4216 -1.6718 -0.4386
 5528TIP3    H216591   3.616   3.593   2.412  1.1444  2.2947 -0.4941
 5529TIP3   OH216592   4.514   1.081   2.870 -0.7544  0.6885 -0.2619
 5529TIP3    H116593   4.486   1.103   2.959 -1.7337  1.0598 -0.6499
 5529TIP3    H216594   4.441   1.108   2.815 -0.7276 -0.7857 -1.0517
 5530TIP3   OH216595   5.292   3.124   4.979  0.0283 -0.1679  0.0633
 5530TIP3    H116596   5.369   3.153   4.930  0.6385 -0.2457  0.9324
 5530TIP3    H216597   5.220   3.126   4.916  0.6928  0.1585 -0.7012
 5531TIP3   OH216598   6.254   4.469   3.123  0.4713 -0.3034  0.2993
 5531TIP3    H116599   6.170   4.491   3.164  0.3071 -0.6871  0.1760
 5531TIP3    H216600   6.230   4.438   3.035  0.8931  1.5973 -0.5417
 5532TIP3   OH216601   5.549   4.271   2.844 -0.8083  0.1558  0.3813
 5532TIP3    H116602   5.539   4.237   2.933  0.3478 -0.7295  0.1928
 5532TIP3    H216603   5.476   4.332   2.833 -0.1390  1.4098  2.4596
 5533TIP3   OH216604   1.393   0.165   2.641 -0.2380  0.2508 -0.2967
 5533TIP3    H116605   1.393   0.242   2.698 -0.2888  0.9053 -1.1582
 5533TIP3    H216606   1.475   0.120   2.661 -0.1499  0.5960  0.1351
 5534TIP3   OH216607   5.626   2.197   5.072 -0.4455  0.4949 -0.4930
 5534TIP3    H116608   5.556   2.133   5.085  0.0149 -0.1191 -0.9572
 5534TIP3    H216609   5.664   2.174   4.987 -0.7267  1.8347 -1.0103
 5535TIP3   OH216610   3.716   3.028   4.411 -0.2903  0.5038 -0.6222
 5535TIP3    H116611   3.731   3.062   4.322 -0.6604  2.4010  0.0024
 5535TIP3    H216612   3.653   3.089   4.450 -0.4178 -0.5110  0.8335
 5536TIP3   OH216613   4.103   2.293   0.085 -0.3316  0.0746  0.3281
 5536TIP3    H116614   4.192   2.320   0.108 -0.6225 -1.4779  4.0570
 5536TIP3    H216615   4.113   2.204   0.051 -0.4414 -0.1315  0.8273
 5537TIP3   OH216616   4.483   5.042   0.130 -0.4014 -0.3508 -0.5639
 5537TIP3    H116617   4.474   4.964   0.076  0.5690  0.0664 -1.3536
 5537TIP3    H216618   4.422   5.105   0.092  0.1052 -0.1378 -1.0229
 5538TIP3   OH216619   3.652   0.868   5.085 -0.4407 -0.2783  0.2546
 5538TIP3    H116620   3.562   0.837   5.097 -0.8027 -0.1311 -1.7253
 5538TIP3    H216621   3.701   0.789   5.062 -0.3679 -0.1355 -0.0824
 5539TIP3   OH216622   6.247   2.622   0.727 -0.1738  0.2013 -0.1462
 5539TIP3    H116623   6.299   2.626   0.807 -0.6126  1.7173  0.0856
 5539TIP3    H216624   6.201   2.538   0.733  0.3085 -0.0135  0.8521
 5540TIP3   OH216625   1.683   5.380   4.317  0.1953  0.4160  0.6526
 5540TIP3    H116626   1.754   5.374   4.382  1.7247 -0.6535 -1.0353
 5540TIP3    H216627   1.722   5.424   4.242 -0.2492 -1.9605 -1.1062
 5541TIP3   OH216628  -0.010   2.426   2.237  0.0268 -0.2522  0.4864
 5541TIP3    H116629   0.074   2.394   2.270  0.2497  0.2356  0.4075
 5541TIP3    H216630  -0.032   2.369   2.164  1.1490  0.6856 -0.6105
 5542TIP3   OH216631   4.467   0.787   4.695 -0.0861  0.2161 -0.2789
 5542TIP3    H116632   4.516   0.866   4.673  0.5269 -0.2343 -0.5436
 5542TIP3    H216633   4.491   0.769   4.786  2.1200 -1.3173 -1.0769
 5543TIP3   OH216634   1.498   5.856   0.095  0.2505  0.3850 -0.5868
 5543TIP3    H116635   1.582   5.853   0.139  0.9097  0.4514 -1.7868
 5543TIP3    H216636   1.518   5.831   0.004 -1.3380 -1.7506 -0.4465
 5544TIP3   OH216637   0.575   3.175   4.894  0.1955 -0.1558  0.5949
 5544TIP3    H116638   0.633   3.177   4.818  1.2122 -0.4201  1.3297
 5544TIP3    H216639   0.491   3.147   4.860  0.3589  0.7258 -0.5961
 5545TIP3   OH216640   1.293   1.008   1.566  0.3471  0.4677  0.0998
 5545TIP3    H116641   1.324   0.978   1.651 -0.3005 -1.8671 -0.4131
 5545TIP3    H216642   1.214   1.058   1.586  0.8654  0.9797  0.9280
 5546TIP3   OH216643   4.669   4.161   4.762  0.2670  0.6313 -0.7751
 5546TIP3    H116644   4.688   4.117   4.679  1.2296 -1.4524  0.4555
 5546TIP3    H216645   4.601   4.108   4.803  1.7188 -0.0637  0.9234
 5547TIP3   OH216646   2.244   5.944   3.407 -0.4907 -0.0938 -0.0225
 5547TIP3    H116647   2.215   5.988   3.328  0.8830  0.0479 -0.4678
 5547TIP3    H216648   2.165   5.937   3.461 -1.1382  1.1527 -0.7605
 5548TIP3   OH216649   1.386   1.250   0.090  0.1480  0.6080 -0.3412
 5548TIP3    H116650   1.464   1.197   0.101 -0.5934 -0.9875 -2.2130
 5548TIP3    H216651   1.313   1.192   0.112 -0.5980  1.5025 -0.3602
 5549TIP3   OH216652   5.630   1.081   1.907 -0.2163  0.5477  0.5880
 5549TIP3    H116653   5.641   0.993   1.944 -0.1002  0.1885 -0.2969
 5549TIP3    H216654   5.585   1.130   1.976  1.0138  0.2114  1.6669
 5550TIP3   OH216655   0.178   1.880   2.795  0.4472 -0.4144 -0.1110
 5550TIP3    H116656   0.259   1.919   2.827  0.0064  0.3025  0.1566
 5550TIP3    H216657   0.200   1.788   2.780  1.4334 -0.1349 -0.4762
 5551TIP3   OH216658   2.309   4.636   1.483  0.5873 -0.5633 -0.2756
 5551TIP3    H116659   2.365   4.712   1.470  0.9489 -0.9495 -1.0772
 5551TIP3    H216660   2.263   4.626   1.399 -0.7993 -0.1595  0.4198
 5552TIP3   OH216661   2.647   3.615   3.995  0.2658 -0.8102 -0.0370
 5552TIP3    H116662   2.713   3.669   3.951 -0.8359  0.1133 -0.5964
 5552TIP3    H216663   2.563   3.655   3.971 -0.4357 -0.9181  2.0543
 5553TIP3   OH216664   1.231   5.216   2.914  0.0422 -0.3447  0.1507
 5553TIP3    H116665   1.197   5.288   2.968  2.4857  0.2279  1.0741
 5553TIP3    H216666   1.227   5.140   2.971 -3.4087 -1.3059 -1.1252
 5554TIP3   OH216667   3.326   1.354   2.428  0.4712 -0.6121 -0.2132
 5554TIP3    H116668   3.278   1.279   2.392  0.3344 -0.1997 -0.9144
 5554TIP3    H216669   3.417   1.324   2.431  0.1616 -1.4980  1.3866
 5555TIP3   OH216670   5.359   5.934   5.020  0.3466  0.8040 -0.1303
 5555TIP3    H116671   5.411   5.984   4.956 -0.6954  0.1492 -1.5436
 5555TIP3    H216672   5.405   5.851   5.029  1.4141  1.5111  1.2968
 5556TIP3   OH216673   1.552   2.696   2.879  0.3138  0.1397  0.1149
 5556TIP3    H116674   1.584   2.786   2.874  0.3915  0.0951 -0.1864
 5556TIP3    H216675   1.557   2.675   2.973  1.7490 -0.0600  0.0248
 5557TIP3   OH216676   5.353   5.781   2.232 -0.0318  0.4395  0.0579
 5557TIP3    H116677   5.433   5.745   2.195 -1.8730 -1.8476 -2.1240
 5557TIP3    H216678   5.306   5.705   2.268 -1.5345  1.5685  0.6184
 5558TIP3   OH216679   0.452   4.180   2.282 -0.0752 -0.5987 -0.2546
 5558TIP3    H116680   0.496   4.261   2.257 -0.6279 -0.4482 -0.7532
 5558TIP3    H216681   0.418   4.144   2.200 -1.4332 -0.3765  0.1767
 5559TIP3   OH216682   2.672   4.893   4.329  0.3973  0.5358  0.5955
 5559TIP3    H116683   2.580   4.906   4.304  0.3338 -1.2688 -0.2637
 5559TIP3    H216684   2.718   4.884   4.245  1.2089  0.5211  1.0364
 5560TIP3   OH216685   5.348   1.732   1.762  0.2924  0.4995 -0.5730
 5560TIP3    H116686   5.289   1.692   1.827  0.8869  0.9834  0.2804
 5560TIP3    H216687   5.341   1.674   1.686  0.3938 -0.7094  0.2954
 5561TIP3   OH216688   3.478   1.950   3.429  0.4386 -0.4911  0.1416
 5561TIP3    H116689   3.508   2.033   3.466  1.2667 -0.7930  0.1497
 5561TIP3    H216690   3.395   1.933   3.474  0.2646  0.3277  0.1420
 5562TIP3   OH216691   1.754   3.249   3.637 -0.2588  0.1628  0.0312
 5562TIP3    H116692   1.779   3.274   3.548  0.4669  1.7814  0.6527
 5562TIP3    H216693   1.679   3.305   3.657  0.7672  1.1854  1.1046
 5563TIP3   OH216694   2.985   5.819   2.378 -0.0232 -0.4966 -0.3894
 5563TIP3    H116695   3.049   5.877   2.336  0.0202 -0.3287 -0.0972
 5563TIP3    H216696   2.910   5.876   2.396 -0.0438 -0.5676 -0.2511
 5564TIP3   OH216697   0.035   4.195   3.700 -0.1556  0.0028 -0.3079
 5564TIP3    H116698   0.104   4.208   3.636  1.1265 -0.4314  0.9445
 5564TIP3    H216699   0.054   4.256   3.771 -0.4732 -0.8013  0.5029
 5565TIP3   OH216700   1.110   4.044   2.443 -0.2850  0.1140  0.3443
 5565TIP3    H116701   1.138   4.128   2.478 -0.0849  0.3820 -0.4312
 5565TIP3    H216702   1.181   4.018   2.384  0.3145 -1.2822  1.6290
 5566TIP3   OH216703   0.149   1.256   1.287 -0.0217  0.3470 -1.0082
 5566TIP3    H116704   0.119   1.325   1.345  0.7405  1.4229 -1.8385
 5566TIP3    H216705   0.232   1.228   1.325 -0.8346 -0.8848 -0.0845
 5567TIP3   OH216706   3.041   1.394   4.540 -0.4303 -0.1538  0.5295
 5567TIP3    H116707   3.014   1.302   4.537 -0.0728 -0.2540  0.3890
 5567TIP3    H216708   2.993   1.436   4.469  0.5881 -0.5470 -0.4101
 5568TIP3   OH216709   1.780   0.445   2.170  0.1359  0.2183 -0.0738
 5568TIP3    H116710   1.810   0.393   2.244  0.1734  1.3151  0.6963
 5568TIP3    H216711   1.844   0.515   2.162  0.6612 -0.3921 -1.7480
 5569TIP3   OH216712   1.788   2.152   3.780  0.1326 -0.3162  0.4848
 5569TIP3    H116713   1.747   2.234   3.805  1.5002  0.6708 -0.3519
 5569TIP3    H216714   1.758   2.135   3.691  1.5268  0.4634 -0.1711
 5570TIP3   OH216715   0.889   0.527   4.971  0.5389  0.1045  0.2891
 5570TIP3    H116716   0.912   0.609   5.015 -0.8303  0.5300  0.2798
 5570TIP3    H216717   0.863   0.469   5.042  1.8715 -0.4743  0.3282
 5571TIP3   OH216718   4.600   0.660   3.998 -0.0728  0.4257 -0.2055
 5571TIP3    H116719   4.639   0.743   3.969  0.6102 -0.0515 -0.6919
 5571TIP3    H216720   4.513   0.684   4.030  0.2420  1.3757 -0.0376
 5572TIP3   OH216721   1.213   0.359   2.484  0.6247 -0.1443 -0.0243
 5572TIP3    H116722   1.292   0.311   2.509  0.0242 -1.6757 -0.9101
 5572TIP3    H216723   1.160   0.362   2.564  0.4443 -1.4634 -0.0741
 5573TIP3   OH216724   0.225   3.427   0.244 -0.1694  0.7483  0.4370
 5573TIP3    H116725   0.132   3.452   0.237 -0.1075  1.0546  0.6860
 5573TIP3    H216726   0.223   3.341   0.287 -0.3926  0.2334 -0.5819
 5574TIP3   OH216727   2.022   5.743   1.812 -0.1074 -0.3653  0.3019
 5574TIP3    H116728   2.082   5.669   1.817  0.1881 -0.2245 -0.8820
 5574TIP3    H216729   1.980   5.746   1.898  3.0755  0.8157  1.9709
 5575TIP3   OH216730   2.508   2.408   2.918 -0.0801  0.2241 -0.2248
 5575TIP3    H116731   2.553   2.479   2.964 -1.4176  1.1032 -0.1884
 5575TIP3    H216732   2.471   2.450   2.840 -0.5896 -0.5102 -0.3869
 5576TIP3   OH216733   0.437   3.036   2.570  0.0675 -0.1140 -0.1518
 5576TIP3    H116734   0.446   3.056   2.477 -0.1316  1.3823  0.1160
 5576TIP3    H216735   0.513   2.982   2.591 -0.4086 -1.3042 -1.3732
 5577TIP3   OH216736   6.218   2.413   4.176  0.3302 -0.0796  0.2138
 5577TIP3    H116737   6.263   2.493   4.151  1.1194  0.0595  1.9281
 5577TIP3    H216738   6.200   2.423   4.270 -0.5271 -1.4408  0.2314
 5578TIP3   OH216739   4.607   3.202   1.342 -0.1717 -0.0482  0.0098
 5578TIP3    H116740   4.528   3.212   1.289 -0.9426 -0.5776  1.0266
 5578TIP3    H216741   4.575   3.191   1.431  1.1053  1.1338  0.6509
 5579TIP3   OH216742   4.004   2.596   1.019  0.5422  0.1665  0.2195
 5579TIP3    H116743   3.928   2.548   0.986  0.2143  1.4521 -1.0150
 5579TIP3    H216744   3.978   2.625   1.106  0.4212 -1.1052  0.6337
 5580TIP3   OH216745   1.173   4.166   3.308 -0.0510 -0.2226  0.5142
 5580TIP3    H116746   1.241   4.099   3.316 -1.3428 -1.5432  0.8426
 5580TIP3    H216747   1.180   4.216   3.390  0.3471 -0.5127  0.6661
 5581TIP3   OH216748   0.807   2.141   4.351 -0.4879  0.5557  0.5807
 5581TIP3    H116749   0.825   2.220   4.300 -1.0323 -0.6564 -1.5742
 5581TIP3    H216750   0.739   2.095   4.302  0.2089 -1.5501  1.4777
 5582TIP3   OH216751   2.982   3.404   1.220 -0.3326 -0.5843 -0.8617
 5582TIP3    H116752   2.994   3.463   1.145 -2.6002  0.8859 -0.1753
 5582TIP3    H216753   3.069   3.398   1.260  0.5835 -0.1335 -2.6760
 5583TIP3   OH216754   0.665   1.214   4.736 -0.3194 -0.1749 -0.2943
 5583TIP3    H116755   0.650   1.307   4.752 -2.0639 -0.5103  0.1916
 5583TIP3    H216756   0.757   1.209   4.710  0.1672  1.5047  0.9596
 5584TIP3   OH216757   5.107   4.180   4.354 -0.0353  0.0056  0.2012
 5584TIP3    H116758   5.074   4.099   4.393  0.6646 -0.6182 -0.4611
 5584TIP3    H216759   5.073   4.249   4.410 -0.5550 -0.7523  0.8483
 5585TIP3   OH216760   1.176   1.436   2.968  0.0682  0.6955 -0.3211
 5585TIP3    H116761   1.112   1.399   2.907 -0.6140  1.5064 -0.1050
 5585TIP3    H216762   1.218   1.506   2.919 -1.7115  2.5336  0.6608
 5586TIP3   OH216763   4.495   5.426   4.553  0.4126  0.9270 -0.3843
 5586TIP3    H116764   4.554   5.502   4.551  1.1439  0.3706 -2.3636
 5586TIP3    H216765   4.434   5.442   4.482 -0.9851  0.7917  0.7397
 5587TIP3   OH216766   2.155   2.983   5.070 -0.2104  0.0155  0.0147
 5587TIP3    H116767   2.251   2.989   5.065 -0.1912 -0.7242 -0.7716
 5587TIP3    H216768   2.127   3.071   5.094  0.7546 -0.0815  1.6584
 5588TIP3   OH216769   0.969   2.911   2.956  0.1786 -0.2495  0.1396
 5588TIP3    H116770   1.064   2.895   2.962  0.2274  0.1729  0.4915
 5588TIP3    H216771   0.962   2.994   2.908  0.0471  0.5446  1.4806
 5589TIP3   OH216772   3.012   5.497   2.283 -0.2410  0.5078  0.1464
 5589TIP3    H116773   2.972   5.583   2.272 -1.3613  0.0029  0.1489
 5589TIP3    H216774   3.100   5.507   2.247 -0.1833  1.7755  0.5788
 5590TIP3   OH216775   1.656   3.036   4.214  0.5122 -0.3726  0.5867
 5590TIP3    H116776   1.661   2.941   4.221  1.5690 -0.2024  3.9978
 5590TIP3    H216777   1.599   3.052   4.138 -0.8236 -3.6917  0.7409
 5591TIP3   OH216778   4.114   5.201   4.581  0.5013 -0.3398 -0.1683
 5591TIP3    H116779   4.163   5.278   4.609  1.1690  0.1701 -2.4851
 5591TIP3    H216780   4.174   5.155   4.522 -0.5648 -1.6380 -0.2896
 5592TIP3   OH216781   2.716   2.629   5.120  0.2391 -0.6689 -0.2326
 5592TIP3    H116782   2.786   2.583   5.167  1.6077  0.5389 -1.0097
 5592TIP3    H216783   2.637   2.577   5.137  1.0439 -1.3275  1.7812
 5593TIP3   OH216784   5.429   3.542   4.026 -0.1249 -0.3585 -0.1290
 5593TIP3    H116785   5.343   3.536   3.985 -0.3374 -0.0535  0.2655
 5593TIP3    H216786   5.467   3.455   4.015  0.2202 -0.0204 -1.8208
 5594TIP3   OH216787   5.685   2.893   2.942 -0.1778  0.3649  0.1564
 5594TIP3    H116788   5.691   2.887   3.038 -0.4996  0.2634  0.1709
 5594TIP3    H216789   5.733   2.973   2.920  0.4621  0.0453  0.3399
 5595TIP3   OH216790   3.107   2.580   3.973 -0.2185  0.0897  0.1083
 5595TIP3    H116791   3.164   2.546   3.905  1.6303  4.2374 -0.7199
 5595TIP3    H216792   3.143   2.546   4.054 -0.1510 -1.9316 -0.7241
 5596TIP3   OH216793   1.647   3.894   1.943  0.0396 -0.0621 -0.5363
 5596TIP3    H116794   1.692   3.820   1.902  0.9357  0.6846 -0.9173
 5596TIP3    H216795   1.716   3.954   1.967 -0.7920  1.6550 -2.1703
 5597TIP3   OH216796   1.361   2.709   4.216  0.6410  0.2180  0.1842
 5597TIP3    H116797   1.288   2.677   4.268  0.1661  0.2862 -0.4340
 5597TIP3    H216798   1.394   2.785   4.264  1.6000 -1.0065  1.5140
 5598TIP3   OH216799   6.326   3.781   2.395 -0.1918  0.4441 -0.0829
 5598TIP3    H116800   6.296   3.789   2.304 -1.9194  1.6708  0.5314
 5598TIP3    H216801   6.410   3.827   2.396  0.8686 -1.3388 -1.4494
 5599TIP3   OH216802   4.549   1.642   0.108 -0.4182 -0.4264  0.3148
 5599TIP3    H116803   4.597   1.559   0.113  0.1627 -0.0951  0.2911
 5599TIP3    H216804   4.555   1.678   0.197 -1.5410 -0.8787  0.6008
 5600TIP3   OH216805   4.968   5.204   2.497  0.1810 -0.2462 -0.3403
 5600TIP3    H116806   4.989   5.223   2.405 -1.1258  0.7509 -0.4526
 5600TIP3    H216807   5.019   5.268   2.547  0.6591 -0.5953 -0.3668
 5601TIP3   OH216808   4.141   4.747   4.279 -0.3966 -0.2101 -0.0520
 5601TIP3    H116809   4.079   4.797   4.332  0.6470  1.4823 -0.3512
 5601TIP3    H216810   4.107   4.754   4.190 -0.2054  0.0423 -0.1057
 5602TIP3   OH216811   0.677   3.626   2.949 -0.2190 -0.1101  0.1162
 5602TIP3    H116812   0.634   3.620   3.034  1.7210 -1.1352  1.0980
 5602TIP3    H216813   0.715   3.714   2.948 -0.3630 -0.0459  0.2635
 5603TIP3   OH216814   3.772   3.493   2.342  0.0329 -0.1152  0.0937
 5603TIP3    H116815   3.826   3.415   2.335 -0.4398 -0.5495  1.0954
 5603TIP3    H216816   3.725   3.498   2.259 -1.2630 -1.9251  0.6472
 5604TIP3   OH216817   4.805   0.962   3.313 -0.1252  0.6564 -0.2413
 5604TIP3    H116818   4.716   0.952   3.345  0.1532 -1.6378 -0.0026
 5604TIP3    H216819   4.815   0.894   3.246  1.6884  0.2716  0.3508
 5605TIP3   OH216820   0.747   3.402   4.550 -0.4059  0.3174  0.0744
 5605TIP3    H116821   0.777   3.491   4.565 -0.6190  0.2279  1.1560
 5605TIP3    H216822   0.656   3.411   4.523 -0.5446  0.4212  0.5595
 5606TIP3   OH216823   2.102   2.537   0.579 -0.5548 -0.4869  0.5089
 5606TIP3    H116824   2.154   2.458   0.570  0.9235  0.1414  2.7254
 5606TIP3    H216825   2.026   2.511   0.631 -2.1018 -1.2060 -1.9696
 5607TIP3   OH216826   2.004   1.065   4.724  0.3116  0.5628 -0.1592
 5607TIP3    H116827   2.024   1.012   4.646 -1.2964  0.7905 -0.7699
 5607TIP3    H216828   1.928   1.118   4.698 -0.0933  0.8465  1.4878
 5608TIP3   OH216829   1.793   4.621   3.324 -0.7556 -0.5890 -0.5921
 5608TIP3    H116830   1.834   4.539   3.351 -0.5707 -0.4487 -0.4422
 5608TIP3    H216831   1.761   4.604   3.235  0.5139 -0.3921 -1.1192
 5609TIP3   OH216832   1.790   1.776   2.638  0.2309 -0.6035 -0.4723
 5609TIP3    H116833   1.843   1.821   2.705  1.9942  0.8030 -2.6645
 5609TIP3    H216834   1.846   1.705   2.607 -0.3861 -0.9631 -0.7794
 5610TIP3   OH216835   2.152   4.443   2.681 -0.0397 -0.1918 -0.3988
 5610TIP3    H116836   2.070   4.419   2.638 -0.8283 -1.1056  1.5210
 5610TIP3    H216837   2.201   4.361   2.687  0.6220  0.1695 -0.6682
 5611TIP3   OH216838   0.761   5.028   3.967 -1.2482  0.5514  0.1275
 5611TIP3    H116839   0.842   5.053   3.924  0.0289 -1.6459  1.1437
 5611TIP3    H216840   0.715   5.111   3.980  0.3198  1.7289 -1.4296
 5612TIP3   OH216841   5.123   4.507   3.368 -0.6354 -0.2530 -0.0003
 5612TIP3    H116842   5.168   4.424   3.353 -0.4529  0.0499 -1.2012
 5612TIP3    H216843   5.081   4.496   3.453  1.5706 -0.6078  1.1183
 5613TIP3   OH216844   0.324   0.980   1.751  0.5892 -1.0033  0.4808
 5613TIP3    H116845   0.231   0.957   1.760  0.0179  0.6097 -0.7630
 5613TIP3    H216846   0.331   1.020   1.664  2.2409 -0.1800  0.9409
 5614TIP3   OH216847   3.015   2.006   1.461  0.0309 -0.6367 -0.2903
 5614TIP3    H116848   3.105   2.021   1.434  0.1571 -0.0895  0.3995
 5614TIP3    H216849   3.010   2.042   1.550 -0.9709 -0.3121 -0.4612
 5615TIP3   OH216850   3.220   0.617   4.490  0.3229 -0.2004  0.1650
 5615TIP3    H116851   3.264   0.629   4.406  0.1574  2.7286  0.3874
 5615TIP3    H216852   3.278   0.658   4.554 -0.2286 -1.0943  1.2660
 5616TIP3   OH216853   5.469   4.830   2.892  0.5300  0.2721  0.0196
 5616TIP3    H116854   5.381   4.803   2.867  0.5943  1.9137 -2.2586
 5616TIP3    H216855   5.458   4.915   2.934  1.0106  0.3875 -0.0767
 5617TIP3   OH216856   3.291   0.374   4.709 -0.5326  0.1507 -0.0945
 5617TIP3    H116857   3.254   0.307   4.653 -2.6172  0.6824  0.5584
 5617TIP3    H216858   3.223   0.392   4.774  0.7001  1.5472  0.8980
 5618TIP3   OH216859   0.550   0.026   2.375 -0.4596  0.0477 -0.3164
 5618TIP3    H116860   0.595  -0.011   2.300 -0.1324 -0.5072  0.1501
 5618TIP3    H216861   0.616   0.030   2.444 -1.1061 -0.7929  0.3878
 5619TIP3   OH216862   4.261   1.602   3.358 -0.0642 -0.0320  0.2084
 5619TIP3    H116863   4.242   1.573   3.268  0.9763  0.0874 -0.0587
 5619TIP3    H216864   4.175   1.612   3.398 -0.6247  1.3508 -1.2322
 5620TIP3   OH216865   0.118   2.650   0.303 -0.1732 -0.1859  0.2358
 5620TIP3    H116866   0.128   2.563   0.265  0.1973  0.1580 -0.4540
 5620TIP3    H216867   0.025   2.671   0.290  0.5284  1.3180 -3.5837
 5621TIP3   OH216868   2.861   1.707   0.997 -0.0507  0.1838  0.0452
 5621TIP3    H116869   2.871   1.715   1.092  0.8195 -3.2226  0.3687
 5621TIP3    H216870   2.768   1.689   0.984  0.0077 -0.3477  0.3626
 5622TIP3   OH216871   5.842   5.418   3.630 -0.2231  0.7003  0.7565
 5622TIP3    H116872   5.926   5.372   3.635  1.6330  3.5735 -0.8249
 5622TIP3    H216873   5.846   5.467   3.548 -4.0659  0.0264 -0.0239
 5623TIP3   OH216874   6.296   3.821   1.528  0.2905  0.6013  0.0134
 5623TIP3    H116875   6.330   3.773   1.452  2.0416 -0.1869  1.2359
 5623TIP3    H216876   6.325   3.911   1.513  0.8016  0.4138 -0.1608
 5624TIP3   OH216877   3.176   5.421   4.538  0.0283 -0.3534 -0.4097
 5624TIP3    H116878   3.111   5.351   4.547 -1.0848  0.8431  1.4975
 5624TIP3    H216879   3.148   5.488   4.601  1.7813  1.2543 -1.2503
 5625TIP3   OH216880   4.153   1.748   0.921 -0.2936 -0.0442  1.4311
 5625TIP3    H116881   4.075   1.779   0.874  0.4111 -0.6254 -0.1737
 5625TIP3    H216882   4.216   1.728   0.852  0.8050 -0.8950  2.6489
 5626TIP3   OH216883   3.744   4.727   0.349  0.0968 -0.2743  0.0382
 5626TIP3    H116884   3.729   4.735   0.443  0.1013  0.5452 -0.0242
 5626TIP3    H216885   3.658   4.740   0.309  0.6215  3.3108 -0.2563
 5627TIP3   OH216886   1.363   3.824   2.969  0.5193  0.0218 -0.1135
 5627TIP3    H116887   1.287   3.857   2.920  0.3882  0.0166  0.0813
 5627TIP3    H216888   1.358   3.729   2.960 -0.3425 -0.0768  1.1037
 5628TIP3   OH216889   4.281   4.927   4.836 -0.1034 -0.8525  0.5520
 5628TIP3    H116890   4.331   5.007   4.817 -1.4111 -0.4329 -1.3839
 5628TIP3    H216891   4.342   4.856   4.817 -0.0453 -0.3473 -1.4438
 5629TIP3   OH216892   5.419   5.086   3.023 -0.3612 -0.6847  0.3745
 5629TIP3    H116893   5.454   5.174   3.012 -3.8533  0.6110 -2.7255
 5629TIP3    H216894   5.431   5.066   3.116  1.9514  2.3515  0.8730
 5630TIP3   OH216895   0.974   5.186   3.120  0.1093  0.6901  0.6256
 5630TIP3    H116896   1.051   5.165   3.173 -0.1951  3.4259  2.3061
 5630TIP3    H216897   1.006   5.180   3.030  2.0713  0.9130  1.2549
 5631TIP3   OH216898   4.907   0.936   0.858 -0.3231  0.0425 -0.1917
 5631TIP3    H116899   4.827   0.949   0.910 -0.7460 -0.9507 -0.5722
 5631TIP3    H216900   4.948   1.023   0.856 -0.2678  0.1209  1.8130
 5632TIP3   OH216901   3.678   4.606   1.593 -0.1220  0.1191  0.2974
 5632TIP3    H116902   3.710   4.544   1.528 -1.2881 -1.6406  1.3000
 5632TIP3    H216903   3.728   4.686   1.578  1.1970 -0.9520 -1.2823
 5633TIP3   OH216904   2.992   4.011   0.998  0.2800  0.0847  0.0635
 5633TIP3    H116905   2.980   4.004   1.093  1.3649  0.6085  0.2525
 5633TIP3    H216906   3.063   3.950   0.979 -1.4042 -1.7237 -0.7769
 5634TIP3   OH216907   2.069   3.686   3.007 -0.3550  0.1461  0.2514
 5634TIP3    H116908   2.041   3.728   3.089 -0.7216  0.8921 -0.2446
 5634TIP3    H216909   2.095   3.759   2.951 -3.7564  0.0433 -1.7156
 5635TIP3   OH216910   0.916   2.718   0.278  0.4436 -0.1194 -0.2259
 5635TIP3    H116911   0.952   2.711   0.366  0.0456 -0.7558 -0.1072
 5635TIP3    H216912   0.821   2.713   0.290  0.3901 -0.3454 -0.7002
 5636TIP3   OH216913   5.581   5.117   0.450 -0.1333 -0.3854  0.3034
 5636TIP3    H116914   5.594   5.182   0.381 -0.1976 -1.3565 -0.6475
 5636TIP3    H216915   5.606   5.163   0.530  2.1331  0.0817 -0.5865
 5637TIP3   OH216916   5.218   1.912   4.923 -0.0325  0.1499  0.4366
 5637TIP3    H116917   5.275   1.927   4.847  0.4074 -0.1474  0.7032
 5637TIP3    H216918   5.176   1.828   4.905 -0.4573  0.4046  0.2039
 5638TIP3   OH216919   2.995   4.329   1.764 -0.2324  0.0290 -0.0971
 5638TIP3    H116920   3.024   4.353   1.852 -1.5719  1.0885  0.1089
 5638TIP3    H216921   3.055   4.375   1.706 -0.3398  0.6704  0.2858
 5639TIP3   OH216922   1.587   3.655   3.158  0.2218 -0.0584  0.5474
 5639TIP3    H116923   1.538   3.664   3.239  1.3849  0.7431  1.1832
 5639TIP3    H216924   1.548   3.580   3.114 -0.1795 -0.7321  2.0259
 5640TIP3   OH216925   1.102   2.741   1.588 -0.2915  0.0412  0.6095
 5640TIP3    H116926   1.183   2.703   1.625  0.1184  0.4709  0.1656
 5640TIP3    H216927   1.122   2.754   1.496 -0.5995  0.8869  0.6590
 5641TIP3   OH216928   6.061   4.281   4.811 -0.1790  0.4204 -0.0947
 5641TIP3    H116929   5.994   4.239   4.865 -1.2384  3.0103  0.7481
 5641TIP3    H216930   6.068   4.225   4.734 -0.7021 -1.8380  1.4053
 5642TIP3   OH216931   0.897   0.131   3.408 -0.4318  0.9630 -0.6346
 5642TIP3    H116932   0.934   0.198   3.466 -0.1212  1.0680 -0.9476
 5642TIP3    H216933   0.903   0.169   3.320 -1.7680  1.1882 -0.6413
 5643TIP3   OH216934   2.728   0.533   3.040  0.1646  0.4152  0.2433
 5643TIP3    H116935   2.745   0.613   2.991 -0.1623  0.6561  0.5152
 5643TIP3    H216936   2.790   0.535   3.112  0.3521  0.2786  0.0855
 5644TIP3   OH216937   2.362   1.857   0.134 -0.1478 -0.1152 -0.0832
 5644TIP3    H116938   2.294   1.827   0.073 -1.8951 -0.5806  1.9790
 5644TIP3    H216939   2.433   1.794   0.122 -1.3853 -1.5840 -0.0333
 5645TIP3   OH216940   6.249   2.620   4.939  0.1331  0.2566 -0.7066
 5645TIP3    H116941   6.161   2.650   4.918 -0.1287  1.3062  1.6179
 5645TIP3    H216942   6.237   2.554   5.007  1.1344  0.0856 -0.6739
 5646TIP3   OH216943   3.057   4.027   3.130  0.2287  0.1939  0.1369
 5646TIP3    H116944   3.037   3.972   3.206 -2.3733  1.4527  0.4834
 5646TIP3    H216945   3.054   4.117   3.164  0.4194  0.7146 -1.1793
 5647TIP3   OH216946   2.586   1.999   4.716  0.2822  0.3467 -0.4102
 5647TIP3    H116947   2.575   1.906   4.739 -1.8513  0.3898 -1.0637
 5647TIP3    H216948   2.542   2.007   4.631  0.5604  1.9341 -0.4174
 5648TIP3   OH216949   4.013   1.608   3.442  0.3761  0.1541 -0.3744
 5648TIP3    H116950   3.970   1.682   3.397 -0.9392 -0.8806 -0.8796
 5648TIP3    H216951   3.949   1.537   3.439  1.9170 -1.2926 -0.6456
 5649TIP3   OH216952   0.838   5.815   1.329 -0.4951 -0.0967  0.1453
 5649TIP3    H116953   0.860   5.818   1.235 -0.2671 -0.2416  0.1922
 5649TIP3    H216954   0.776   5.887   1.341  0.0415  0.3950  0.0269
 5650TIP3   OH216955   2.794   3.331   0.386  0.0497 -0.0315 -0.0168
 5650TIP3    H116956   2.822   3.404   0.441 -0.5695 -0.9714  1.6005
 5650TIP3    H216957   2.702   3.318   0.407  0.2382 -1.4905 -0.0350
 5651TIP3   OH216958   5.939   4.997   3.314 -0.4034  0.3319  0.1391
 5651TIP3    H116959   5.844   4.986   3.319 -0.2516 -1.3796 -0.1124
 5651TIP3    H216960   5.968   4.925   3.259  1.0910  0.6264  0.5073
 5652TIP3   OH216961   5.516   3.292   1.250 -0.2995  0.2277 -0.6765
 5652TIP3    H116962   5.542   3.384   1.256  0.4311 -0.0384  0.5949
 5652TIP3    H216963   5.598   3.243   1.252 -0.7358 -0.5095  0.2086
 5653TIP3   OH216964   6.273   1.588   3.203  0.3436  0.0155 -0.3548
 5653TIP3    H116965   6.275   1.661   3.141 -1.3552 -1.3022 -2.0676
 5653TIP3    H216966   6.341   1.528   3.173 -0.4310 -0.5880 -0.9580
 5654TIP3   OH216967   0.275   3.143   3.331 -0.3339  0.1126  0.0718
 5654TIP3    H116968   0.325   3.061   3.330  0.2242  0.4218 -1.5496
 5654TIP3    H216969   0.332   3.206   3.376  0.1620  0.1185 -0.5522
 5655TIP3   OH216970   2.673   2.044   3.980 -0.3139 -0.3381  0.5836
 5655TIP3    H116971   2.725   2.057   4.059  0.4915  0.3490 -0.0384
 5655TIP3    H216972   2.627   2.126   3.968 -2.2497 -1.2225  1.5943
 5656TIP3   OH216973   3.585   2.162   3.552  0.0383  0.3286  0.7170
 5656TIP3    H116974   3.588   2.155   3.647 -2.5101 -1.3029  0.7510
 5656TIP3    H216975   3.512   2.222   3.535 -2.1461 -2.4173 -0.1774
 5657TIP3   OH216976   4.234   1.650   2.155  0.3162 -0.4447 -0.0085
 5657TIP3    H116977   4.285   1.640   2.075  2.1228  0.3434  0.9775
 5657TIP3    H216978   4.217   1.561   2.184  3.0228 -0.8057  0.7228
 5658TIP3   OH216979   4.604   4.011   1.800  0.2435  0.1955 -0.3531
 5658TIP3    H116980   4.624   4.058   1.881 -0.7205  1.0220 -0.5750
 5658TIP3    H216981   4.660   4.051   1.734  1.3056 -0.7309 -0.0454
 5659TIP3   OH216982   0.679   1.280   3.153  0.4404  0.9908 -0.1882
 5659TIP3    H116983   0.724   1.282   3.238  0.1149  1.7082 -0.0298
 5659TIP3    H216984   0.634   1.364   3.147 -1.3177  0.0945 -0.1106
 5660TIP3   OH216985   2.599   4.933   5.042 -0.1363  0.3029 -0.6441
 5660TIP3    H116986   2.652   4.985   5.102  0.2286 -0.5411 -0.2177
 5660TIP3    H216987   2.553   4.998   4.989 -1.3619  1.0804  1.2869
 5661TIP3   OH216988   4.439   4.986   3.065 -0.5414  0.7223 -0.1709
 5661TIP3    H116989   4.358   4.952   3.104 -0.3353 -0.2649 -0.5710
 5661TIP3    H216990   4.433   4.962   2.973  0.8109 -0.5822  0.0468
 5662TIP3   OH216991   5.328   2.789   4.000  0.0074  0.2013  0.2160
 5662TIP3    H116992   5.278   2.868   3.981 -1.5002 -0.9101 -0.6610
 5662TIP3    H216993   5.411   2.821   4.037  0.2488  2.2692 -1.8638
 5663TIP3   OH216994   1.575   5.368   4.937  0.1995 -0.4445 -0.2855
 5663TIP3    H116995   1.593   5.379   4.843  2.3701  0.2944  0.1734
 5663TIP3    H216996   1.605   5.279   4.957 -0.3712 -0.6448 -0.2987
 5664TIP3   OH216997   1.458   0.429   2.359 -0.4683  0.6175  0.7375
 5664TIP3    H116998   1.477   0.464   2.271  0.2403  0.6596  0.9049
 5664TIP3    H216999   1.414   0.346   2.342 -1.2636  1.1051  0.3401
 5665TIP3   OH217000   2.838   0.879   1.858 -0.0682 -0.1049 -0.2990
 5665TIP3    H117001   2.815   0.795   1.898  2.3866 -0.2164  1.0581
 5665TIP3    H217002   2.911   0.859   1.800  0.6588  1.0776  0.1562
 5666TIP3   OH217003   4.650   1.687   3.071 -0.5454 -0.2957 -0.2825
 5666TIP3    H117004   4.624   1.601   3.039 -1.7362  0.5537 -1.7453
 5666TIP3    H217005   4.673   1.672   3.163  1.4565 -2.5356 -1.0376
 5667TIP3   OH217006   0.639   0.902   2.692  0.1753  0.5517  0.7174
 5667TIP3    H117007   0.596   0.986   2.677 -0.4810  0.5395  2.3084
 5667TIP3    H217008   0.650   0.865   2.605 -1.4586  1.3457  0.1252
 5668TIP3   OH217009   4.002   4.605   0.293  0.2220 -0.5475  0.8884
 5668TIP3    H117010   3.957   4.689   0.300  2.3959  0.9676 -1.4758
 5668TIP3    H217011   3.955   4.558   0.224  1.4032  0.5118 -0.6974
 5669TIP3   OH217012   4.928   5.847   2.173  0.0158  0.2453 -0.0637
 5669TIP3    H117013   4.934   5.792   2.252  0.4208 -1.5632 -1.2980
 5669TIP3    H217014   5.012   5.893   2.171  1.6508 -2.5267 -1.3429
 5670TIP3   OH217015   4.962   4.094   2.111 -0.3578  0.0275  0.8220
 5670TIP3    H117016   4.993   4.020   2.164  0.8847  0.6846  1.0358
 5670TIP3    H217017   4.988   4.072   2.021  2.0839  1.1976  1.1659
 5671TIP3   OH217018   2.449   0.756   4.244 -0.6727  0.6548  0.1660
 5671TIP3    H117019   2.481   0.747   4.334  0.3191 -2.3097 -0.3712
 5671TIP3    H217020   2.373   0.813   4.251 -0.4521  0.7483  2.8385
 5672TIP3   OH217021   2.745   3.250   0.077 -0.2489  0.0357  0.2366
 5672TIP3    H117022   2.712   3.165   0.106 -1.0079  0.3792  0.3975
 5672TIP3    H217023   2.749   3.303   0.157 -0.9311  0.5251 -0.0472
 5673TIP3   OH217024   6.255   1.770   4.643  0.5093  0.5347  0.2400
 5673TIP3    H117025   6.190   1.702   4.624  0.0856 -0.7139  5.0244
 5673TIP3    H217026   6.203   1.848   4.665  0.7532  0.5171  0.8897
 5674TIP3   OH217027   2.679   5.095   0.783  0.3786  0.4602 -0.5450
 5674TIP3    H117028   2.767   5.134   0.775  0.5515 -0.2471 -2.7019
 5674TIP3    H217029   2.696   5.002   0.797 -0.0163  0.3021 -1.1069
 5675TIP3   OH217030   1.928   5.730   0.392  0.1026 -0.6748 -0.3254
 5675TIP3    H117031   1.925   5.826   0.394  3.1586 -0.4586  2.2390
 5675TIP3    H217032   1.842   5.702   0.423 -1.4596  1.0686 -2.6933
 5676TIP3   OH217033   5.500   2.733   4.826 -0.7393  0.0515 -0.1212
 5676TIP3    H117034   5.575   2.792   4.829 -0.2505 -0.5662  0.0046
 5676TIP3    H217035   5.505   2.690   4.741  1.3689 -2.8905  1.2794
 5677TIP3   OH217036   4.203   4.914   0.172 -0.4029 -0.3657  0.5497
 5677TIP3    H117037   4.180   4.970   0.247  0.5059  0.4986  0.1929
 5677TIP3    H217038   4.238   4.974   0.107 -0.9332 -1.1521 -0.4808
 5678TIP3   OH217039   2.278   4.409   3.996 -0.4237 -0.3974 -0.0742
 5678TIP3    H117040   2.248   4.320   4.014  1.3323 -0.3971  3.6205
 5678TIP3    H217041   2.227   4.465   4.055  0.3544  0.7105 -0.4081
 5679TIP3   OH217042   4.610   0.461   3.785  0.3957 -0.0662 -0.3789
 5679TIP3    H117043   4.622   0.518   3.860  1.4748 -0.7030 -0.0460
 5679TIP3    H217044   4.692   0.467   3.736  0.6124 -1.4413 -0.2428
 5680TIP3   OH217045   5.693   2.445   1.991  0.7235 -0.6761 -0.1354
 5680TIP3    H117046   5.677   2.531   2.031 -0.9200 -1.3109  0.6415
 5680TIP3    H217047   5.745   2.398   2.056  1.6152 -0.3012 -0.5567
 5681TIP3   OH217048   2.881   2.125   4.688 -0.3003  0.3063  0.5549
 5681TIP3    H117049   2.799   2.076   4.681  0.4825 -1.0413  0.5543
 5681TIP3    H217050   2.872   2.174   4.770 -0.7659 -0.4890  0.9957
 5682TIP3   OH217051   4.468   2.721   2.835 -0.5341 -0.1477 -0.0733
 5682TIP3    H117052   4.454   2.691   2.745 -1.5063  1.0126 -0.3359
 5682TIP3    H217053   4.387   2.768   2.857  0.6204  1.6356  0.5562
 5683TIP3   OH217054   4.787   1.473   0.726  0.2837 -0.4160  0.7535
 5683TIP3    H117055   4.858   1.456   0.788  0.3714 -1.4804  0.3882
 5683TIP3    H217056   4.808   1.419   0.650  0.5172  1.3513 -0.5013
 5684TIP3   OH217057   1.227   2.764   1.327  0.3462 -0.0107 -0.1963
 5684TIP3    H117058   1.300   2.806   1.372  1.2927  0.0756 -1.7386
 5684TIP3    H217059   1.198   2.830   1.263 -0.4940 -0.3779 -0.2030
 5685TIP3   OH217060   0.121   0.421   3.547  0.2770  0.1650 -0.0254
 5685TIP3    H117061   0.104   0.479   3.474  0.8043  2.0132  1.2629
 5685TIP3    H217062   0.179   0.354   3.512 -0.5411  0.2463 -1.6029
 5686TIP3   OH217063   5.614   0.734   2.992  0.4660 -0.1524  0.3462
 5686TIP3    H117064   5.568   0.650   2.998  2.1642 -1.0946  0.8958
 5686TIP3    H217065   5.590   0.779   3.073  1.7845 -1.3667  1.4840
 5687TIP3   OH217066   1.340   3.397   1.727  0.1455 -0.0032 -0.4075
 5687TIP3    H117067   1.407   3.413   1.660  1.2810 -1.2232  0.3749
 5687TIP3    H217068   1.360   3.458   1.797 -0.7773  0.9700 -0.9586
 5688TIP3   OH217069   1.403   1.413   1.964  0.1467  0.0194  0.5149
 5688TIP3    H117070   1.336   1.379   2.024  0.7282 -1.6053  0.3004
 5688TIP3    H217071   1.368   1.497   1.934 -0.9310  0.0839  1.8246
 5689TIP3   OH217072   1.075   1.071   2.577 -0.2461  0.1439 -0.0652
 5689TIP3    H117073   1.146   1.013   2.549 -0.9257 -0.1631 -1.2495
 5689TIP3    H217074   1.016   1.074   2.502 -2.7857 -1.6200  1.6975
 5690TIP3   OH217075   5.585   5.105   1.319 -0.1729  0.0847  0.5025
 5690TIP3    H117076   5.525   5.177   1.336  1.6052  2.0160 -0.8873
 5690TIP3    H217077   5.596   5.104   1.224  0.6103 -1.4195  0.5643
 5691TIP3   OH217078   1.161   5.001   4.897  0.5224 -0.0004 -0.0141
 5691TIP3    H117079   1.138   5.047   4.977 -1.0991 -0.8002  0.0293
 5691TIP3    H217080   1.087   4.942   4.881  0.1128  1.0969 -2.8262
 5692TIP3   OH217081   5.835   2.761   0.308  0.4487  0.5110  0.2499
 5692TIP3    H117082   5.887   2.719   0.239  0.6223  1.0510  0.0388
 5692TIP3    H217083   5.753   2.712   0.311  0.4382  0.4848 -0.3508
 5693TIP3   OH217084   0.572   5.108   3.732  0.5290 -0.0404  0.0317
 5693TIP3    H117085   0.554   5.137   3.822 -1.1950 -0.8587 -0.0067
 5693TIP3    H217086   0.526   5.171   3.677  0.7841 -0.0948 -0.2448
 5694TIP3   OH217087   1.867   5.659   4.852 -0.4025 -0.0680  0.5770
 5694TIP3    H117088   1.865   5.710   4.772  0.0734  1.7867  1.6834
 5694TIP3    H217089   1.792   5.692   4.903 -1.4175 -2.0435  0.4398
 5695TIP3   OH217090   0.655   5.508   1.677 -0.5574 -0.1846  0.1301
 5695TIP3    H117091   0.593   5.486   1.608 -0.3614  0.8912 -0.4116
 5695TIP3    H217092   0.672   5.602   1.665  1.3666 -0.4936  0.1073
 5696TIP3   OH217093   2.531   1.805   4.031 -0.7942  0.2193  0.2551
 5696TIP3    H117094   2.596   1.735   4.033  0.0501  0.9868  0.1676
 5696TIP3    H217095   2.582   1.885   4.020 -1.5862  1.0232  2.0359
 5697TIP3   OH217096   2.962   1.740   4.127 -0.2965  0.2057 -0.1923
 5697TIP3    H117097   2.888   1.792   4.155 -0.5134 -0.1358 -0.1297
 5697TIP3    H217098   2.926   1.680   4.061 -0.2347 -0.4679  0.3731
 5698TIP3   OH217099   3.635   0.600   1.596  0.0692  0.2327 -0.4398
 5698TIP3    H117100   3.705   0.665   1.605 -0.7907  1.0448  0.6631
 5698TIP3    H217101   3.580   0.633   1.525 -1.4506  1.8109  1.3738
 5699TIP3   OH217102   0.623   3.196   0.377 -0.1887 -0.1564  0.1399
 5699TIP3    H117103   0.690   3.132   0.401  1.8715  2.4088  1.8464
 5699TIP3    H217104   0.545   3.167   0.423  1.1909 -0.5704  2.4329
 5700TIP3   OH217105   0.221   3.671   3.653 -0.7424  0.0265 -0.7476
 5700TIP3    H117106   0.287   3.642   3.589 -0.2104 -1.7082  0.5025
 5700TIP3    H217107   0.216   3.765   3.641  0.8832  0.0116 -1.9174
 5701TIP3   OH217108   3.229   5.938   2.952  0.0392  0.1692  0.2000
 5701TIP3    H117109   3.267   5.902   2.872  1.0957  0.2509  0.6414
 5701TIP3    H217110   3.135   5.941   2.936 -0.0366 -2.2743 -0.0495
 5702TIP3   OH217111   2.192   1.535   1.678 -0.1563  0.8132 -0.8365
 5702TIP3    H117112   2.151   1.569   1.598  0.2907  0.4680 -1.2239
 5702TIP3    H217113   2.120   1.522   1.739 -0.3471  2.3761 -0.6928
 5703TIP3   OH217114   3.999   2.875   1.941  0.1755 -0.2560 -0.3961
 5703TIP3    H117115   3.940   2.859   1.867 -0.4782  1.0747 -0.1988
 5703TIP3    H217116   4.001   2.792   1.988 -1.2861 -0.4342 -0.6011
 5704TIP3   OH217117   2.524   3.317   0.426 -0.4594  0.1739  0.2530
 5704TIP3    H117118   2.508   3.222   0.433 -2.3846  0.5204  1.3492
 5704TIP3    H217119   2.436   3.355   0.417  0.3707  1.7932 -1.3883
 5705TIP3   OH217120   0.567   5.140   1.632  0.2460  0.1307 -0.2207
 5705TIP3    H117121   0.600   5.083   1.701  0.1767 -1.1830 -1.2471
 5705TIP3    H217122   0.506   5.199   1.677  0.4728 -0.4580  0.8874
 5706TIP3   OH217123   4.929   1.092   3.863  0.3609 -0.2631  0.3657
 5706TIP3    H117124   4.995   1.026   3.841 -0.3569 -0.5314 -1.1027
 5706TIP3    H217125   4.942   1.162   3.800 -0.8333 -0.3907 -0.0525
 5707TIP3   OH217126   5.705   4.931   3.434 -0.2546 -0.0096  0.2056
 5707TIP3    H117127   5.657   5.012   3.447 -2.4259 -1.0394 -0.7498
 5707TIP3    H217128   5.722   4.898   3.522 -1.7645  0.1830  0.5985
 5708TIP3   OH217129   5.270   1.053   2.464 -0.2021 -0.6481  0.0809
 5708TIP3    H117130   5.256   1.121   2.398 -0.6173  0.8144  1.6110
 5708TIP3    H217131   5.233   1.089   2.544  1.3606 -1.8722  1.4226
 5709TIP3   OH217132   2.566   3.896   4.939  1.0828 -0.4266  0.2582
 5709TIP3    H117133   2.603   3.972   4.894  0.5556 -0.9774 -1.1508
 5709TIP3    H217134   2.536   3.839   4.869  0.1742 -1.2969  1.3261
 5710TIP3   OH217135   5.298   3.662   1.791  0.4927  0.2928  0.2592
 5710TIP3    H117136   5.359   3.686   1.860 -0.6924  0.8605  1.1456
 5710TIP3    H217137   5.244   3.592   1.829  0.8223 -0.4831 -0.6441
 5711TIP3   OH217138   5.222   1.025   1.786  0.6712 -0.1401 -0.5680
 5711TIP3    H117139   5.300   0.973   1.766  1.4000  1.5215 -2.3246
 5711TIP3    H217140   5.149   0.969   1.760  1.3597 -0.9467 -0.8220
 5712TIP3   OH217141   4.665   4.375   4.153 -0.0269 -0.1065 -0.1616
 5712TIP3    H117142   4.753   4.412   4.146 -0.3078  0.4804 -0.6169
 5712TIP3    H217143   4.672   4.312   4.225  0.1033  1.8451  1.6392
 5713TIP3   OH217144   0.427   4.654   1.312 -0.2515  0.2921 -0.0076
 5713TIP3    H117145   0.435   4.727   1.373  0.4616  0.7188 -0.5902
 5713TIP3    H217146   0.384   4.584   1.362  1.7814  0.0406  1.5126
 5714TIP3   OH217147   2.250   3.169   3.870  0.3287 -0.2323  0.1155
 5714TIP3    H117148   2.197   3.137   3.943  0.8809 -0.4836  0.4121
 5714TIP3    H217149   2.336   3.187   3.909  0.7672 -0.8108 -0.5611
 5715TIP3   OH217150   3.186   3.887   2.362 -0.1844  0.3963 -0.2394
 5715TIP3    H117151   3.199   3.798   2.330 -0.7965  0.0829  0.3544
 5715TIP3    H217152   3.222   3.943   2.293  0.4058 -0.3101 -0.5168
 5716TIP3   OH217153   2.890   1.955   2.405  0.0118  0.7305  0.2512
 5716TIP3    H117154   2.805   1.938   2.445  0.6852 -1.4300  0.8637
 5716TIP3    H217155   2.917   1.871   2.368  2.6480  0.8812  1.5812
 5717TIP3   OH217156   5.095   0.261   4.606 -0.1828  0.0822 -0.1025
 5717TIP3    H117157   5.073   0.234   4.695 -0.2428  0.0795 -0.1188
 5717TIP3    H217158   5.045   0.342   4.593  2.6563  2.2635  1.2708
 5718TIP3   OH217159   1.050   1.714   1.747  0.4107  0.0446 -0.1567
 5718TIP3    H117160   0.965   1.715   1.792  0.3237  0.6288 -0.3272
 5718TIP3    H217161   1.030   1.686   1.658  0.6792 -1.8439  0.3279
 5719TIP3   OH217162   3.285   1.147   1.925 -0.3912 -0.3685 -0.1877
 5719TIP3    H117163   3.289   1.227   1.977 -0.4884  0.1411 -0.9350
 5719TIP3    H217164   3.195   1.145   1.891 -0.4581 -0.9191  0.0063
 5720TIP3   OH217165   6.033   0.389   4.840  0.2292 -0.8230  0.3423
 5720TIP3    H117166   5.988   0.473   4.848 -0.7311 -1.3882  1.1456
 5720TIP3    H217167   5.976   0.337   4.783  0.5803 -1.0822  0.2235
 5721TIP3   OH217168   1.620   1.956  -0.011 -0.1162 -0.5479 -0.5082
 5721TIP3    H117169   1.686   1.983   0.053 -0.0104 -0.5244 -0.6251
 5721TIP3    H217170   1.636   1.863  -0.024 -0.8963 -0.8267  0.3783
 5722TIP3   OH217171   4.026   3.141   0.847 -0.0278 -0.4997  0.6444
 5722TIP3    H117172   3.966   3.143   0.772  1.5936  1.2793 -0.7267
 5722TIP3    H217173   3.981   3.089   0.913 -2.1945 -0.8712 -1.0152
 5723TIP3   OH217174   5.355   3.123   2.867  0.2578 -0.2096  0.3575
 5723TIP3    H117175   5.426   3.162   2.817  0.7341 -1.0122  0.3813
 5723TIP3    H217176   5.282   3.184   2.858  1.4160  1.4793  1.6675
 5724TIP3   OH217177   0.913   0.961   2.792 -0.7035 -0.1561  0.6240
 5724TIP3    H117178   0.932   0.916   2.710 -0.5051  1.4128 -0.2317
 5724TIP3    H217179   0.822   0.989   2.785 -0.4833  0.5991  0.6137
 5725TIP3   OH217180   4.107   1.878   3.187 -0.3186 -0.1804  0.2465
 5725TIP3    H117181   4.093   1.973   3.185 -0.3407 -0.1894 -0.0107
 5725TIP3    H217182   4.058   1.849   3.264 -0.4037  0.0018  0.2626
 5726TIP3   OH217183   1.237   5.402   3.609  0.1969 -0.5303  0.5297
 5726TIP3    H117184   1.275   5.490   3.612  1.0254 -0.8090 -0.8329
 5726TIP3    H217185   1.146   5.414   3.638  0.0307  0.9457 -0.4642
 5727TIP3   OH217186   3.711   0.634   4.313  0.0548 -0.1121  0.1354
 5727TIP3    H117187   3.717   0.587   4.396 -3.1853 -1.6516 -0.3562
 5727TIP3    H217188   3.657   0.711   4.332  0.2000  0.1118 -0.3303
 5728TIP3   OH217189   1.036   1.873   1.402 -0.2205 -0.1626  0.0894
 5728TIP3    H117190   1.073   1.850   1.317  0.1356  2.3586 -0.5424
 5728TIP3    H217191   1.046   1.795   1.455  0.7682 -1.3903 -1.7953
 5729TIP3   OH217192   3.590   2.389   1.496  0.3065 -0.1157 -0.7286
 5729TIP3    H117193   3.548   2.343   1.569 -1.9844  1.2534 -1.0613
 5729TIP3    H217194   3.568   2.337   1.419  0.8402 -0.3994 -0.6881
 5730TIP3   OH217195   3.874   2.344   1.527  0.2439  0.0255  0.0411
 5730TIP3    H117196   3.899   2.362   1.437  1.7224 -0.1077  0.4060
 5730TIP3    H217197   3.782   2.372   1.532  1.2172  3.8876 -0.4194
 5731TIP3   OH217198   0.735   4.026   4.253 -0.7506  0.6738 -0.3311
 5731TIP3    H117199   0.799   4.095   4.274  1.2671 -0.6811 -1.7311
 5731TIP3    H217200   0.730   3.974   4.333  1.5526 -0.3957 -0.7986
 5732TIP3   OH217201   2.778   3.972   1.514 -0.2671 -0.3372  0.0593
 5732TIP3    H117202   2.765   4.023   1.594  0.1042 -2.2626  1.4272
 5732TIP3    H217203   2.690   3.956   1.481 -0.3847  1.2139 -0.4528
 5733TIP3   OH217204   0.452   4.112   3.383 -0.5411  0.2526  0.1234
 5733TIP3    H117205   0.491   4.158   3.309 -0.1903  0.5057  0.4703
 5733TIP3    H217206   0.488   4.023   3.377 -1.8063 -0.2271 -1.0004
 5734TIP3   OH217207   5.960   1.706   0.128  0.2108 -0.3247 -0.2026
 5734TIP3    H117208   5.987   1.750   0.209 -0.7510  0.1552 -0.1297
 5734TIP3    H217209   6.028   1.640   0.113  0.8356  0.1255  0.5497
 5735TIP3   OH217210   5.495   1.014   0.159  0.2562  0.1058 -0.0169
 5735TIP3    H117211   5.588   1.001   0.178  0.0686 -1.4116 -0.0189
 5735TIP3    H217212   5.492   1.039   0.066  0.7826  2.2439  0.4965
 5736TIP3   OH217213   2.262   0.371   2.098 -0.0399 -0.0582 -0.2309
 5736TIP3    H117214   2.278   0.317   2.176  0.0367 -1.3357 -1.0956
 5736TIP3    H217215   2.213   0.313   2.039  0.5052  0.6433 -1.4125
 5737TIP3   OH217216   5.211   2.706   4.481 -0.1055  0.4031  0.0783
 5737TIP3    H117217   5.268   2.630   4.472  0.1023  0.7828 -2.8826
 5737TIP3    H217218   5.255   2.761   4.546  2.2464  0.0366 -1.0604
 5738TIP3   OH217219   2.038   4.632   3.595 -0.1269 -0.0005  0.5493
 5738TIP3    H117220   2.043   4.710   3.540 -0.1213 -0.1175  0.3817
 5738TIP3    H217221   1.953   4.637   3.638  0.0263  0.2875  0.8259
 5739TIP3   OH217222   0.585   2.038   0.749 -0.4425 -0.0700  0.1840
 5739TIP3    H117223   0.647   2.019   0.820 -0.3095 -1.6678 -0.3409
 5739TIP3    H217224   0.500   2.013   0.784 -0.4204 -0.5331 -0.0843
 5740TIP3   OH217225   0.377   3.830   4.652  0.0846 -0.0971 -0.0567
 5740TIP3    H117226   0.295   3.840   4.701  0.3684 -0.8558  0.5900
 5740TIP3    H217227   0.412   3.919   4.646 -0.3487  0.1109  0.4234
 5741TIP3   OH217228   3.701   4.330   4.925 -0.1510 -0.1132  0.1378
 5741TIP3    H117229   3.631   4.364   4.980 -0.3871  0.7885 -0.6834
 5741TIP3    H217230   3.685   4.236   4.920 -0.4302 -0.1301  1.1485
 5742TIP3   OH217231   2.028   2.733   5.171 -0.0517  0.1907  0.4494
 5742TIP3    H117232   2.112   2.694   5.146 -0.1056  0.6287 -0.4697
 5742TIP3    H217233   2.028   2.818   5.128 -1.7073 -0.5080 -1.1059
 5743TIP3   OH217234   0.058   0.895   4.764  0.1592 -0.1876 -0.5173
 5743TIP3    H117235   0.030   0.912   4.674 -0.7135 -0.7830 -0.3682
 5743TIP3    H217236   0.110   0.815   4.759  0.5251  0.0537 -0.5658
 5744TIP3   OH217237   2.214   2.213   4.815  0.3371 -0.0371 -0.2468
 5744TIP3    H117238   2.176   2.262   4.742 -0.6118 -0.6960 -0.2053
 5744TIP3    H217239   2.217   2.277   4.887  1.1417  0.5726 -0.7933
 5745TIP3   OH217240   0.192   2.964   2.896  0.1543  0.2202 -0.6895
 5745TIP3    H117241   0.114   2.912   2.916  0.4614  0.2510  0.6095
 5745TIP3    H217242   0.212   3.010   2.977  0.6657  1.3620 -1.4458
 5746TIP3   OH217243   5.172   0.799   0.298 -0.1248  0.5992 -0.2495
 5746TIP3    H117244   5.117   0.795   0.219 -1.8970  2.1736  0.8153
 5746TIP3    H217245   5.210   0.887   0.296  1.0150  0.1294 -0.0694
 5747TIP3   OH217246   3.311   0.850   0.975 -0.0001  0.1580  0.5194
 5747TIP3    H117247   3.279   0.813   1.057 -0.0435  1.1343  0.9472
 5747TIP3    H217248   3.233   0.884   0.931  0.0329 -0.2906  0.0946
 5748TIP3   OH217249   0.699   4.918   0.554 -0.1676  0.2361  0.2193
 5748TIP3    H117250   0.731   4.882   0.636 -0.5961  0.9641  0.7169
 5748TIP3    H217251   0.764   4.984   0.530 -0.3203  0.3970  0.2495
 5749TIP3   OH217252   5.927   2.497   4.561 -0.1537 -0.2388  0.4203
 5749TIP3    H117253   5.897   2.584   4.588  2.4664  1.0304 -0.4345
 5749TIP3    H217254   5.903   2.440   4.634  0.7144  1.7795  2.4027
 5750TIP3   OH217255   2.483   2.715   2.856 -0.2716  0.1080  0.0102
 5750TIP3    H117256   2.526   2.711   2.771 -0.7519 -0.2442 -0.2192
 5750TIP3    H217257   2.414   2.649   2.852 -0.5664  0.3724  0.5261
 5751TIP3   OH217258   0.395   3.362   0.643  0.2483 -0.1998  0.3054
 5751TIP3    H117259   0.486   3.380   0.622 -0.6799  1.0788 -3.4360
 5751TIP3    H217260   0.348   3.440   0.612 -2.3025 -1.6329  0.3093
 5752TIP3   OH217261   0.622   0.985   4.188  0.0039 -0.0366  0.4711
 5752TIP3    H117262   0.690   0.980   4.255 -1.3565  2.3285  2.2093
 5752TIP3    H217263   0.669   1.007   4.107  1.3702  1.1183  1.5236
 5753TIP3   OH217264   1.319   3.088   3.535  0.6655  0.0942 -0.6820
 5753TIP3    H117265   1.243   3.051   3.580 -0.0871  1.8773 -0.4061
 5753TIP3    H217266   1.391   3.077   3.597 -0.3697  2.5924  1.1605
 5754TIP3   OH217267   5.302   3.262   4.034  0.4846  0.3277  0.8037
 5754TIP3    H117268   5.364   3.270   4.107  2.6927 -0.7085 -0.8474
 5754TIP3    H217269   5.239   3.196   4.064  0.5801  0.8416  2.2360
 5755TIP3   OH217270   5.269   5.183   4.719  0.6644  0.0100  0.0600
 5755TIP3    H117271   5.206   5.219   4.782  1.5993  0.3954  0.8168
 5755TIP3    H217272   5.284   5.255   4.657 -2.1505 -1.1737 -2.1850
 5756TIP3   OH217273   2.718   5.618   1.510 -0.0419  0.6295 -0.3938
 5756TIP3    H117274   2.797   5.619   1.564  0.7988  1.3950 -1.5937
 5756TIP3    H217275   2.664   5.549   1.548  1.0797  0.2807  0.6246
 5757TIP3   OH217276   2.397   3.041   3.458 -0.7389 -0.5837  0.1738
 5757TIP3    H117277   2.403   3.136   3.455 -2.9867 -0.2981  1.7569
 5757TIP3    H217278   2.388   3.014   3.367 -3.1540  1.0695 -0.1951
 5758TIP3   OH217279   1.379   5.645   4.549  0.8143 -0.4570  0.1451
 5758TIP3    H117280   1.461   5.597   4.538  0.1212 -1.3444 -1.6763
 5758TIP3    H217281   1.380   5.710   4.479  0.1594 -0.1993  0.3627
 5759TIP3   OH217282   4.077   0.269   2.336  0.2730  0.1519 -0.1273
 5759TIP3    H117283   4.022   0.308   2.268  1.2546 -0.0838 -1.0826
 5759TIP3    H217284   4.042   0.303   2.418 -0.9711  0.3987 -0.7436
 5760TIP3   OH217285   0.326   5.846   2.208 -0.6923  0.2028 -0.4082
 5760TIP3    H117286   0.386   5.910   2.246 -0.4102  0.8503 -1.8806
 5760TIP3    H217287   0.345   5.765   2.256  1.4248  0.3618 -0.8679
 5761TIP3   OH217288   3.320   1.192   1.105 -0.4846  0.9095  0.5027
 5761TIP3    H117289   3.346   1.189   1.013 -2.3034  0.0211 -0.0188
 5761TIP3    H217290   3.394   1.152   1.152  0.0746  0.5288 -0.6571
 5762TIP3   OH217291   1.328   3.358   4.127  0.6060  0.2182 -0.4909
 5762TIP3    H117292   1.342   3.326   4.216 -0.0188 -0.5014 -0.6462
 5762TIP3    H217293   1.303   3.450   4.138  1.5260  0.4207  0.0107
 5763TIP3   OH217294   5.819   1.840   3.723  0.2468 -0.5291  0.4003
 5763TIP3    H117295   5.753   1.781   3.685 -0.9174  1.3870 -0.6861
 5763TIP3    H217296   5.900   1.819   3.676 -0.3799 -0.6147 -0.6743
 5764TIP3   OH217297   5.784   2.123   2.803 -0.1705  0.0156 -0.5132
 5764TIP3    H117298   5.856   2.080   2.757 -0.9549 -2.8908  0.7250
 5764TIP3    H217299   5.810   2.121   2.895 -0.7267  1.3322 -0.3078
 5765TIP3   OH217300   3.229   5.257   2.212 -0.0204 -0.1191 -0.3565
 5765TIP3    H117301   3.216   5.342   2.170  2.4390  0.7424  0.4636
 5765TIP3    H217302   3.320   5.234   2.193  0.0035 -1.5370  1.2386
 5766TIP3   OH217303   0.651   2.998   0.717 -0.5336 -0.4032  0.1529
 5766TIP3    H117304   0.732   3.050   0.714 -0.7516 -0.0423 -2.6990
 5766TIP3    H217305   0.590   3.052   0.767 -0.6669  2.1512 -2.4837
 5767TIP3   OH217306   4.970   2.270   3.742 -0.5725 -0.2904  0.2531
 5767TIP3    H117307   5.023   2.350   3.736  0.4312 -0.9541  0.0530
 5767TIP3    H217308   4.881   2.302   3.755 -0.5020  0.9365 -1.7561
 5768TIP3   OH217309   0.698   2.028   4.780  0.5775  0.2375 -0.6759
 5768TIP3    H117310   0.765   2.064   4.839 -0.0978 -1.5349  1.3045
 5768TIP3    H217311   0.632   2.097   4.775  2.5731  2.1586 -2.9313
 5769TIP3   OH217312   0.502   5.471   1.106 -0.0514  0.1405 -0.8593
 5769TIP3    H117313   0.517   5.560   1.138 -0.2788  0.1436 -0.7638
 5769TIP3    H217314   0.483   5.483   1.012  2.3554 -0.0112 -1.4237
 5770TIP3   OH217315   0.085   3.803   1.954 -0.5310  0.4849  0.1944
 5770TIP3    H117316   0.048   3.746   2.022  0.3888  1.2714  1.4022
 5770TIP3    H217317   0.166   3.759   1.928 -0.0972  0.9472  0.7362
 5771TIP3   OH217318   0.864   2.975   4.903 -0.8043 -0.0308  0.0894
 5771TIP3    H117319   0.832   3.045   4.846 -0.5723  0.1117  0.1340
 5771TIP3    H217320   0.959   2.981   4.897 -0.7817 -0.4927 -0.0897
 5772TIP3   OH217321   5.402   0.144   0.390 -0.0693 -0.3058  0.3315
 5772TIP3    H117322   5.489   0.166   0.357 -0.8039  0.2686 -1.3458
 5772TIP3    H217323   5.353   0.225   0.384 -0.9507 -0.8171  0.4860
 5773TIP3   OH217324   2.186   1.374   2.983 -0.0953 -0.7354 -0.0109
 5773TIP3    H117325   2.243   1.433   2.935 -0.9113 -0.0089 -0.1056
 5773TIP3    H217326   2.131   1.334   2.916 -1.0481  0.0732  0.2732
 5774TIP3   OH217327   1.811   5.577   3.986 -0.4527  0.3639 -0.0952
 5774TIP3    H117328   1.851   5.661   4.006  0.0648  0.6943 -2.2249
 5774TIP3    H217329   1.718   5.597   3.974 -0.2991  0.6952 -0.7990
 5775TIP3   OH217330   3.566   5.308   1.708  0.1275 -0.1435 -0.4261
 5775TIP3    H117331   3.552   5.231   1.762  1.0136  0.5511  0.8577
 5775TIP3    H217332   3.479   5.331   1.674 -0.6527 -0.0421  1.5166
 5776TIP3   OH217333   4.721   3.258   4.045 -0.0657 -0.0988  0.2256
 5776TIP3    H117334   4.800   3.222   4.006 -0.7829 -0.7649 -0.6658
 5776TIP3    H217335   4.722   3.229   4.136  0.8684  0.1869  0.3120
 5777TIP3   OH217336   4.859   1.737   1.316  0.2640  0.3610 -0.0795
 5777TIP3    H117337   4.773   1.699   1.338  0.9586 -0.7817  0.7834
 5777TIP3    H217338   4.889   1.777   1.398  1.2299 -0.6300  0.0689
 5778TIP3   OH217339   4.565   3.895   1.301 -0.2616  0.4661  0.1323
 5778TIP3    H117340   4.569   3.917   1.395  2.2271  2.6407 -0.3569
 5778TIP3    H217341   4.475   3.915   1.276 -1.3960 -1.5047  2.2815
 5779TIP3   OH217342   5.821   4.534   0.788  0.0557 -0.2083  0.5242
 5779TIP3    H117343   5.915   4.519   0.778 -0.1810 -2.2089  0.8481
 5779TIP3    H217344   5.804   4.516   0.881 -0.5087  1.1070  0.6918
 5780TIP3   OH217345   2.868   2.222   1.982 -0.1231 -0.6986  0.0189
 5780TIP3    H117346   2.809   2.191   1.914 -0.8197 -0.3132  0.4283
 5780TIP3    H217347   2.816   2.218   2.062  0.6600 -1.0733  0.5169
 5781TIP3   OH217348   0.807   2.402   4.204  0.9400 -0.1862  0.8170
 5781TIP3    H117349   0.816   2.321   4.154 -1.3000 -0.9362  1.5277
 5781TIP3    H217350   0.733   2.447   4.163  1.8011  1.2790  0.7825
 5782TIP3   OH217351   1.154   3.088   2.277 -0.2124 -0.0841  0.1320
 5782TIP3    H117352   1.147   3.155   2.345 -1.0243  0.2892 -0.3090
 5782TIP3    H217353   1.233   3.112   2.228 -0.7720  0.8541 -0.3334
 5783TIP3   OH217354   3.172   1.074   3.232 -0.2589  0.2484 -0.1443
 5783TIP3    H117355   3.164   1.041   3.322 -2.7300 -0.4720 -0.5428
 5783TIP3    H217356   3.134   1.161   3.235  0.4787  0.5799 -0.3276
 5784TIP3   OH217357   6.285   2.127   5.159 -0.1599 -0.1670  0.5971
 5784TIP3    H117358   6.306   2.123   5.066  3.2727 -3.1338  1.2681
 5784TIP3    H217359   6.194   2.100   5.164 -0.5706  0.5054 -1.9054
 5785TIP3   OH217360   1.825   0.549   1.021 -0.3478  0.3059  0.0632
 5785TIP3    H117361   1.811   0.558   0.927  0.3439 -0.7786 -0.1609
 5785TIP3    H217362   1.915   0.519   1.029 -0.7995 -0.9027  0.9814
 5786TIP3   OH217363   3.092   4.716   4.640  0.3118  0.0997  0.3483
 5786TIP3    H117364   3.043   4.797   4.656 -1.9739 -1.4065  1.6764
 5786TIP3    H217365   3.046   4.673   4.568  1.4171 -0.1165 -0.2558
 5787TIP3   OH217366   0.462   1.032   3.334 -0.2268  0.1357  0.0940
 5787TIP3    H117367   0.392   0.994   3.388  0.4519 -1.5350 -0.1490
 5787TIP3    H217368   0.441   1.004   3.245 -1.4719  3.0613 -0.6680
 5788TIP3   OH217369   0.406   0.603   0.055 -0.1794  0.3774  0.3968
 5788TIP3    H117370   0.477   0.621  -0.007  0.1467 -0.9777  0.3426
 5788TIP3    H217371   0.414   0.672   0.121  2.3664 -0.7479  1.3874
 5789TIP3   OH217372   6.016   3.644   1.390 -0.4933 -0.7083 -0.4274
 5789TIP3    H117373   6.081   3.691   1.338  0.3961 -0.5507  0.7744
 5789TIP3    H217374   5.957   3.712   1.423  0.5626 -0.4386  0.9890
 5790TIP3   OH217375   5.387   1.793   3.804 -0.0304 -0.0999  0.5319
 5790TIP3    H117376   5.373   1.847   3.726 -0.3293 -0.5966  0.2348
 5790TIP3    H217377   5.364   1.704   3.776  4.2697 -1.2169 -0.2144
 5791TIP3   OH217378   2.093   1.576   1.144  0.6242  0.0644  0.2270
 5791TIP3    H117379   2.188   1.563   1.146  0.7840  1.2454  0.9545
 5791TIP3    H217380   2.080   1.647   1.081  0.2631  0.1538  0.3995
 5792TIP3   OH217381   0.916   3.693   2.200  0.6514 -0.5331  0.5393
 5792TIP3    H117382   0.965   3.758   2.149 -0.4838  0.5567  0.7794
 5792TIP3    H217383   0.935   3.714   2.291 -0.1942 -0.1188  0.6367
 5793TIP3   OH217384   4.641   2.610   0.360 -0.2690  0.4047  0.3907
 5793TIP3    H117385   4.615   2.531   0.407  0.1434 -0.1267 -0.2524
 5793TIP3    H217386   4.592   2.606   0.278  1.4454 -0.3929 -0.6561
 5794TIP3   OH217387   1.322   5.665   3.653 -0.5513 -0.4255 -0.0641
 5794TIP3    H117388   1.407   5.664   3.697 -0.4393 -0.1153 -0.2652
 5794TIP3    H217389   1.334   5.727   3.581 -1.2350  0.3782  0.4935
 5795TIP3   OH217390   0.473   4.313   0.371 -0.7037  0.4334 -0.3217
 5795TIP3    H117391   0.526   4.315   0.292 -1.0167 -1.3053 -0.6135
 5795TIP3    H217392   0.405   4.249   0.353 -0.1344 -0.8557  1.7443
 5796TIP3   OH217393   5.303   4.635   3.771 -0.4775  0.2333 -0.0193
 5796TIP3    H117394   5.363   4.709   3.774 -0.6666  0.3610  1.9920
 5796TIP3    H217395   5.283   4.617   3.863 -0.8423 -1.9882 -0.4842
 5797TIP3   OH217396   4.854   2.246   3.366 -0.3024  0.0783  0.4837
 5797TIP3    H117397   4.889   2.328   3.401 -0.2221  0.4532 -0.4328
 5797TIP3    H217398   4.816   2.202   3.442  0.8530  0.3323  1.2337
 5798TIP3   OH217399   3.118   5.879   0.231 -0.1053 -0.4006 -0.1807
 5798TIP3    H117400   3.050   5.936   0.267  0.6529 -0.7558  1.9385
 5798TIP3    H217401   3.180   5.938   0.189 -0.7019  0.0886 -0.3845
 5799TIP3   OH217402   5.026   3.885   2.258  0.0208  0.2024  0.4112
 5799TIP3    H117403   4.946   3.832   2.256  0.4857 -0.5183  0.4171
 5799TIP3    H217404   5.084   3.843   2.195  1.6387 -1.3532  2.7294
 5800TIP3   OH217405   3.892   0.439   0.136 -0.6152 -0.1450 -0.0242
 5800TIP3    H117406   3.858   0.470   0.053 -0.0988 -0.0079 -0.1850
 5800TIP3    H217407   3.844   0.489   0.202 -0.6496  0.1239 -0.2519
 5801TIP3   OH217408   6.064   2.992   0.083  0.4083  0.0226 -0.1102
 5801TIP3    H117409   5.999   3.021   0.146  0.1202  1.0202 -0.8344
 5801TIP3    H217410   6.014   2.943   0.018  0.8281 -1.7643  0.8626
 5802TIP3   OH217411   3.914   3.262   4.568 -0.2654 -0.2863  0.3283
 5802TIP3    H117412   3.963   3.184   4.543 -1.1097 -0.5653 -0.5183
 5802TIP3    H217413   3.981   3.329   4.582  0.3379  0.1864 -3.6913
 5803TIP3   OH217414   5.409   4.091   3.767 -0.0876 -0.1898 -0.4363
 5803TIP3    H117415   5.501   4.115   3.754  0.2133 -0.2988  1.2465
 5803TIP3    H217416   5.379   4.152   3.835 -0.6814 -1.4457  0.4504
 5804TIP3   OH217417   0.654   4.017   4.755 -0.4985 -0.0730 -0.0315
 5804TIP3    H117418   0.674   3.942   4.811  0.8539  0.2306 -0.0730
 5804TIP3    H217419   0.739   4.055   4.735 -1.1411  1.3611 -0.1700
 5805TIP3   OH217420   5.857   1.039   3.922  0.2399 -0.4813 -0.3360
 5805TIP3    H117421   5.790   0.971   3.915 -0.0829 -0.0324 -2.4810
 5805TIP3    H217422   5.820   1.114   3.875  1.7395  0.1935 -0.5136
 5806TIP3   OH217423   2.806   1.378   0.400 -0.1879  0.5223 -0.3905
 5806TIP3    H117424   2.781   1.376   0.307  0.2975  1.6887 -0.5576
 5806TIP3    H217425   2.856   1.459   0.410 -0.4664  0.5468  0.9582
 5807TIP3   OH217426   5.534   0.882   3.731  0.5755 -0.9728 -0.5984
 5807TIP3    H117427   5.460   0.890   3.670 -1.2872  1.2631  1.6892
 5807TIP3    H217428   5.602   0.937   3.694 -1.0709  1.5832 -0.0874
 5808TIP3   OH217429   3.859   0.965   0.072  0.2872 -0.1054  0.0491
 5808TIP3    H117430   3.911   1.017   0.010  0.8838  0.1557  0.7575
 5808TIP3    H217431   3.890   0.992   0.158 -0.6286 -0.3728  0.4725
 5809TIP3   OH217432   0.730   4.150   3.456 -0.1401  0.2086 -0.5253
 5809TIP3    H117433   0.649   4.200   3.462 -0.6347 -0.6294 -0.0447
 5809TIP3    H217434   0.705   4.060   3.478  0.8065 -0.1787 -0.9566
 5810TIP3   OH217435   6.119   5.374   0.501  0.2161  0.0525 -0.4723
 5810TIP3    H117436   6.170   5.297   0.524  0.0867  0.6112  1.9673
 5810TIP3    H217437   6.036   5.339   0.468  0.0678 -0.8987  0.8144
 5811TIP3   OH217438   0.538   5.904   4.181 -0.5432  0.2247 -0.3959
 5811TIP3    H117439   0.479   5.839   4.219  0.5667 -0.5263  0.1354
 5811TIP3    H217440   0.576   5.859   4.105 -0.8754  0.8068 -0.9130
 5812TIP3   OH217441   5.486   1.771   3.120 -0.0136  0.1747 -0.4140
 5812TIP3    H117442   5.510   1.862   3.134 -0.2930  0.0705  0.8552
 5812TIP3    H217443   5.540   1.743   3.046  0.0381  1.3752 -0.8536
 5813TIP3   OH217444   3.589   5.377   4.968  0.4884 -0.4754 -0.1518
 5813TIP3    H117445   3.679   5.387   5.001  0.9722  1.4610 -1.8347
 5813TIP3    H217446   3.599   5.366   4.874 -1.0388  1.5313 -0.6260
 5814TIP3   OH217447   3.944   2.982   4.551 -0.4874  0.2569 -0.1987
 5814TIP3    H117448   3.901   2.992   4.636  0.5218  0.0161  0.3581
 5814TIP3    H217449   3.873   2.994   4.487 -1.3882 -0.1900  0.6768
 5815TIP3   OH217450   2.706   0.326   2.622 -0.0074 -0.3500  0.3902
 5815TIP3    H117451   2.706   0.255   2.558  1.7050 -0.6590  0.6846
 5815TIP3    H217452   2.619   0.366   2.613  0.6421  0.6117 -3.2291
 5816TIP3   OH217453   3.118   1.647   1.463  0.3960  0.5000 -0.0915
 5816TIP3    H117454   3.056   1.694   1.519  1.0376 -0.4704  1.4682
 5816TIP3    H217455   3.145   1.571   1.514  0.6019 -0.7334 -1.9352
 5817TIP3   OH217456   3.368   4.593   2.216  0.4671  0.3590  0.0831
 5817TIP3    H117457   3.346   4.500   2.220  0.5658  0.3603  0.7145
 5817TIP3    H217458   3.463   4.595   2.205  0.3806  0.3827 -0.7881
 5818TIP3   OH217459   4.697   4.363   3.684  0.0925  0.5318  0.5586
 5818TIP3    H117460   4.776   4.383   3.733  1.1051  0.2589 -0.8891
 5818TIP3    H217461   4.626   4.378   3.746  1.1625  2.3124  1.4529
 5819TIP3   OH217462   1.963   2.502   3.473  0.3380  0.2830 -0.4655
 5819TIP3    H117463   1.949   2.523   3.566 -1.8097 -1.5822 -0.2991
 5819TIP3    H217464   2.039   2.443   3.473 -1.7110 -2.5741  0.6301
 5820TIP3   OH217465   6.338   0.818   1.074 -0.1451 -0.2170  0.6122
 5820TIP3    H117466   6.353   0.814   1.168 -0.8892 -0.0218  0.7418
 5820TIP3    H217467   6.272   0.752   1.057  0.3765 -0.6264  0.1414
 5821TIP3   OH217468   0.418   1.386   0.947  0.3217  0.2819  0.4570
 5821TIP3    H117469   0.369   1.465   0.969 -0.8749 -0.1320 -0.6495
 5821TIP3    H217470   0.393   1.323   1.015 -0.4982  0.1470  0.0335
 5822TIP3   OH217471   4.960   5.617   2.675 -0.2837 -0.0664 -0.3359
 5822TIP3    H117472   4.988   5.657   2.758  0.6326  0.1068 -0.7217
 5822TIP3    H217473   4.864   5.611   2.683 -0.2762  0.6330  0.4250
 5823TIP3   OH217474   4.948   3.659   3.407  0.6308  0.4519  0.0747
 5823TIP3    H117475   4.917   3.749   3.420  0.1426  0.2159  0.6160
 5823TIP3    H217476   4.880   3.604   3.448 -0.1062 -0.2675 -1.9814
 5824TIP3   OH217477   2.403   3.747   3.937 -0.1348 -0.2620 -0.1216
 5824TIP3    H117478   2.330   3.694   3.969  0.3207 -0.4294  0.6766
 5824TIP3    H217479   2.362   3.829   3.908 -0.4478  0.6317  2.5274
 5825TIP3   OH217480   4.469   3.515   4.646 -0.2567  1.1223 -0.5868
 5825TIP3    H117481   4.540   3.463   4.608 -0.9059 -1.4863  1.4491
 5825TIP3    H217482   4.397   3.506   4.584 -0.8827 -1.9605  0.4017
 5826TIP3   OH217483   3.991   1.768   0.015  0.2248 -0.0228  0.0634
 5826TIP3    H117484   4.062   1.726  -0.034  0.4195  0.8301 -0.4019
 5826TIP3    H217485   3.953   1.697   0.067  0.8835 -0.6632 -0.3060
 5827TIP3   OH217486   1.159   5.387   0.271  0.0153 -0.1423 -0.3287
 5827TIP3    H117487   1.178   5.366   0.180  2.2648  0.5096 -0.0631
 5827TIP3    H217488   1.192   5.476   0.283 -2.0537  0.5564  0.6424
 5828TIP3   OH217489   6.187   2.461   4.457 -0.3759  0.8443 -0.1224
 5828TIP3    H117490   6.092   2.462   4.465 -0.4856 -0.9779 -0.7300
 5828TIP3    H217491   6.217   2.531   4.514 -2.0532  1.0742  0.5249
 5829TIP3   OH217492   3.448   2.760   4.009 -0.3334 -0.2275  0.4984
 5829TIP3    H117493   3.526   2.811   3.988 -0.5639 -0.0220  0.1020
 5829TIP3    H217494   3.461   2.730   4.098  0.8093 -1.3408 -0.0143
 5830TIP3   OH217495   5.215   5.453   0.537 -0.8839 -0.0009  0.4351
 5830TIP3    H117496   5.205   5.428   0.629  0.3492  2.5384  1.3518
 5830TIP3    H217497   5.154   5.526   0.525  0.3667  0.9963 -0.1563
 5831TIP3   OH217498   3.624   1.043   2.409 -0.3498 -0.8064  0.4023
 5831TIP3    H117499   3.573   1.087   2.342 -0.8251 -0.1873  1.1516
 5831TIP3    H217500   3.573   1.052   2.489  0.2534 -1.4345  0.8822
 5832TIP3   OH217501   0.985   0.443   3.103  0.3253 -0.2304  0.0433
 5832TIP3    H117502   1.008   0.536   3.108 -1.7153  0.3587 -0.8427
 5832TIP3    H217503   0.986   0.414   3.195  0.8510  0.6721  0.3400
 5833TIP3   OH217504   3.668   2.516   4.611 -0.1705 -0.1040  0.1798
 5833TIP3    H117505   3.726   2.592   4.616  0.6801 -0.6809 -0.5478
 5833TIP3    H217506   3.717   2.452   4.559 -0.7509 -1.2560  1.0079
 5834TIP3   OH217507   0.337   0.469   1.392 -0.2793 -0.2264 -0.3071
 5834TIP3    H117508   0.395   0.448   1.465  0.5523 -0.4631 -1.0152
 5834TIP3    H217509   0.305   0.557   1.410  0.6589  0.0830 -0.1333
 5835TIP3   OH217510   0.995   0.277   0.296  0.3788  0.3996 -0.1158
 5835TIP3    H117511   1.023   0.245   0.211  1.3586  0.3399  0.2138
 5835TIP3    H217512   0.938   0.351   0.276 -1.9989 -1.5098 -0.8945
 5836TIP3   OH217513   5.344   2.105   2.773  0.1726 -1.0258 -0.7890
 5836TIP3    H117514   5.371   2.116   2.864 -1.6834  1.1999 -0.3995
 5836TIP3    H217515   5.415   2.145   2.722 -0.5075  1.3989 -0.0095
 5837TIP3   OH217516   1.855   4.619   2.994  0.2240 -0.0066  0.1711
 5837TIP3    H117517   1.815   4.669   2.924 -2.2670 -0.4008  1.2043
 5837TIP3    H217518   1.846   4.528   2.967  0.7425 -0.0962  0.2828
 5838TIP3   OH217519   5.943   4.562   4.863 -0.7175 -0.6453  0.3521
 5838TIP3    H117520   6.004   4.494   4.835 -0.7850 -0.5208 -0.1135
 5838TIP3    H217521   5.919   4.608   4.782 -0.3380  0.2117  0.7114
 5839TIP3   OH217522   1.831   1.773   3.225 -0.2599 -0.4260 -0.3127
 5839TIP3    H117523   1.779   1.853   3.223  0.2058 -0.1049 -2.8903
 5839TIP3    H217524   1.787   1.718   3.290 -0.4647  1.9348  1.6850
 5840TIP3   OH217525   1.924   3.395   3.789  0.5995  0.0374 -0.6743
 5840TIP3    H117526   1.873   3.409   3.868  0.8327  2.7452 -0.9031
 5840TIP3    H217527   1.867   3.343   3.732 -0.1733 -0.6269  0.6732
 5841TIP3   OH217528   2.426   1.413   1.732  0.5525  0.3557  0.1825
 5841TIP3    H117529   2.341   1.454   1.719  1.4488  3.2231  2.4771
 5841TIP3    H217530   2.487   1.465   1.680  1.2472 -0.1670  0.4470
 5842TIP3   OH217531   2.964   5.349   4.284  0.2787 -0.3654 -0.2118
 5842TIP3    H117532   3.053   5.323   4.262  0.4565 -0.6494  0.8311
 5842TIP3    H217533   2.913   5.269   4.274  0.1617 -0.2476 -0.6108
 5843TIP3   OH217534   5.703   0.390   3.810 -0.1857 -0.0761 -0.6076
 5843TIP3    H117535   5.775   0.454   3.804  1.3006 -1.6537 -0.2812
 5843TIP3    H217536   5.739   0.309   3.775 -1.0873 -1.4826  1.4797
 5844TIP3   OH217537   4.280   3.298   4.010  0.1517  0.5450  0.0828
 5844TIP3    H117538   4.271   3.272   3.918 -2.2262 -0.5485  0.5371
 5844TIP3    H217539   4.190   3.303   4.042  0.9468 -0.0286  2.6284
 5845TIP3   OH217540   1.364   0.579   1.455 -0.5748 -0.4879  0.7277
 5845TIP3    H117541   1.349   0.595   1.548 -0.1074  2.4210  0.4080
 5845TIP3    H217542   1.439   0.520   1.452 -0.0361  0.0770  2.2276
 5846TIP3   OH217543   4.802   0.423   1.487  0.1216  0.2128 -0.8054
 5846TIP3    H117544   4.826   0.337   1.522 -2.6074 -0.5821 -0.6592
 5846TIP3    H217545   4.862   0.484   1.530 -1.5921 -0.9411  3.7747
 5847TIP3   OH217546   1.309   4.925   4.695 -0.2321 -0.1373 -0.1529
 5847TIP3    H117547   1.289   4.994   4.631 -1.6753 -0.0226  0.3847
 5847TIP3    H217548   1.272   4.957   4.777  0.2693 -0.9565  0.3993
 5848TIP3   OH217549   4.390   2.804   2.284  0.0073  0.1159  0.0857
 5848TIP3    H117550   4.333   2.869   2.327 -2.1923 -0.6962 -1.3940
 5848TIP3    H217551   4.446   2.856   2.226 -1.5040  0.7787 -0.8455
 5849TIP3   OH217552   5.477   4.679   5.120 -0.3007 -0.9927 -0.4392
 5849TIP3    H117553   5.401   4.730   5.091 -0.2349 -0.8535 -0.3618
 5849TIP3    H217554   5.514   4.644   5.039  0.9325  0.8284 -0.7298
 5850TIP3   OH217555   4.917   1.174   4.505  0.1595  0.0864 -0.3587
 5850TIP3    H117556   4.969   1.106   4.462 -0.5031 -0.5100 -0.2262
 5850TIP3    H217557   4.931   1.252   4.451  0.6946 -0.2176 -0.6756
 5851TIP3   OH217558   2.226   5.096   2.906 -0.7475 -0.2862 -0.3290
 5851TIP3    H117559   2.268   5.105   2.821 -1.4314 -2.5622 -0.9941
 5851TIP3    H217560   2.269   5.021   2.947 -2.1421 -0.8342  0.2159
 5852TIP3   OH217561   5.762   4.301   2.685 -0.4243 -0.2709 -0.0152
 5852TIP3    H117562   5.739   4.220   2.639 -1.0834 -0.0399 -0.0910
 5852TIP3    H217563   5.682   4.327   2.730 -0.5696  0.9851 -0.9438
 5853TIP3   OH217564   2.739   4.262   1.028  0.0986 -0.0050 -0.4691
 5853TIP3    H117565   2.784   4.185   1.061  2.1454  1.1622 -0.3541
 5853TIP3    H217566   2.676   4.285   1.096  0.3240 -0.8580  0.0391
 5854TIP3   OH217567   3.323   2.147   3.235  0.1166  0.1329 -0.4235
 5854TIP3    H117568   3.285   2.139   3.323 -0.0159 -0.4112 -0.5253
 5854TIP3    H217569   3.330   2.241   3.220 -0.6502  0.2352 -0.1662
 5855TIP3   OH217570   2.489   0.871   4.825  0.4918 -0.2750  0.2957
 5855TIP3    H117571   2.578   0.843   4.801  0.3612 -0.8208  0.4363
 5855TIP3    H217572   2.437   0.855   4.747  0.3098 -0.9346  0.5431
 5856TIP3   OH217573   2.298   2.169   4.057  0.3901  0.3528  0.0332
 5856TIP3    H117574   2.323   2.246   4.108  0.4469 -0.2585  0.9503
 5856TIP3    H217575   2.203   2.167   4.063  0.4175  0.0737  0.4434
 5857TIP3   OH217576   2.129   1.016   1.481  0.0415  0.3976 -0.0637
 5857TIP3    H117577   2.187   0.943   1.459  0.2143  0.1924  1.0006
 5857TIP3    H217578   2.183   1.094   1.469 -0.7918  0.6116 -3.4613
 5858TIP3   OH217579   0.654   5.752   4.973 -0.1408 -0.1635 -0.3444
 5858TIP3    H117580   0.563   5.748   5.000 -0.1531  1.5944  0.0398
 5858TIP3    H217581   0.653   5.731   4.880 -0.9015 -0.4368 -0.2786
 5859TIP3   OH217582   4.746   0.660   2.251  0.4286 -0.5872  0.9512
 5859TIP3    H117583   4.706   0.577   2.227 -1.3335  0.9586 -1.9519
 5859TIP3    H217584   4.697   0.690   2.328 -0.4047 -1.2266  0.6782
 5860TIP3   OH217585   2.568   4.603   0.249  0.4562  0.6145 -0.1012
 5860TIP3    H117586   2.627   4.541   0.292  0.4950  1.2437  0.8011
 5860TIP3    H217587   2.539   4.558   0.170  1.2222 -0.1693  0.0431
 5861TIP3   OH217588   3.263   1.610   0.281  0.1322 -0.1773  0.0865
 5861TIP3    H117589   3.327   1.561   0.332  0.9677 -1.2424 -1.8797
 5861TIP3    H217590   3.287   1.594   0.190 -1.7964  0.9511 -0.6895
 5862TIP3   OH217591   2.342   5.119   2.632 -0.4955 -0.1447 -0.3133
 5862TIP3    H117592   2.384   5.184   2.576  0.1106 -0.1250  0.1599
 5862TIP3    H217593   2.319   5.047   2.572 -1.2852  0.5452 -0.8622
 5863TIP3   OH217594   2.246   1.191   4.869  0.5820  0.1481  0.5979
 5863TIP3    H117595   2.188   1.173   4.795 -0.2333  0.7980  1.0486
 5863TIP3    H217596   2.198   1.159   4.945  1.7094 -1.1394  0.7965
 5864TIP3   OH217597   0.969   3.013   0.157  0.6982  0.2233 -0.5348
 5864TIP3    H117598   0.900   3.021   0.090 -0.5399  1.2954  0.7958
 5864TIP3    H217599   1.034   2.955   0.118 -0.7806 -0.5227 -2.0167
 5865TIP3   OH217600   5.336   1.001   0.542 -0.6904  0.3213  0.3833
 5865TIP3    H117601   5.288   1.040   0.469 -1.3151  1.7649  1.5163
 5865TIP3    H217602   5.426   0.996   0.511 -0.4511  3.2567  0.3348
 5866TIP3   OH217603   0.288   5.601   2.343  0.4286  0.1375  0.1511
 5866TIP3    H117604   0.284   5.562   2.430  2.0972 -0.8128 -0.1504
 5866TIP3    H217605   0.227   5.549   2.291 -2.6145  2.3506  1.2514
 5867TIP3   OH217606   2.642   4.667   1.809  0.7253  0.6880 -0.2695
 5867TIP3    H117607   2.561   4.708   1.839 -1.6971 -3.0762 -0.9636
 5867TIP3    H217608   2.634   4.665   1.713  0.9555 -0.8509 -0.2847
 5868TIP3   OH217609   0.766   1.589   1.368  0.1646 -0.0895 -0.2918
 5868TIP3    H117610   0.811   1.521   1.317  0.7028  0.1675 -0.1714
 5868TIP3    H217611   0.744   1.546   1.450 -0.3171 -0.3815 -0.5728
 5869TIP3   OH217612   2.376   2.292   4.333 -0.0863 -0.2084  0.0836
 5869TIP3    H117613   2.319   2.219   4.355  0.8298 -0.8378  0.4225
 5869TIP3    H217614   2.319   2.369   4.336 -1.0366 -0.8851 -0.1650
 5870TIP3   OH217615   1.500   0.736   2.907  0.2481 -0.0476 -0.2086
 5870TIP3    H117616   1.557   0.671   2.866 -0.5390 -0.8813 -0.0154
 5870TIP3    H217617   1.478   0.698   2.992  0.1317  0.6830  0.1019
 5871TIP3   OH217618   2.832   5.291   3.623  0.8321 -0.3954 -0.3168
 5871TIP3    H117619   2.879   5.292   3.540 -1.0416 -0.0198 -1.4319
 5871TIP3    H217620   2.862   5.370   3.668 -0.9405  1.6486 -2.4063
 5872TIP3   OH217621   5.797   3.892   4.526  0.0877  0.7156  0.2664
 5872TIP3    H117622   5.708   3.871   4.555  0.0418 -1.9213 -1.4194
 5872TIP3    H217623   5.852   3.874   4.601 -0.5720 -0.2143  0.5450
 5873TIP3   OH217624   1.606   1.084   0.143 -0.2947  0.0008  0.2682
 5873TIP3    H117625   1.644   1.108   0.227  1.3197  1.2090 -0.7657
 5873TIP3    H217626   1.669   1.024   0.103 -0.5900  0.1701 -0.4832
 5874TIP3   OH217627   0.073   0.752   3.539 -0.3386  0.6879  0.4036
 5874TIP3    H117628   0.052   0.662   3.511 -1.0675  0.4324  1.6759
 5874TIP3    H217629   0.039   0.807   3.468  1.1249 -0.0480 -0.9543
 5875TIP3   OH217630   2.943   0.319   2.303 -0.1757 -0.4952  0.1316
 5875TIP3    H117631   2.986   0.264   2.237  2.0359  0.3457  0.7806
 5875TIP3    H217632   2.895   0.385   2.252 -0.0086 -0.9579 -0.6361
 5876TIP3   OH217633   0.856   0.775   1.000  0.2980  0.0703  0.3556
 5876TIP3    H117634   0.799   0.741   0.930  1.4553  0.1511 -0.6603
 5876TIP3    H217635   0.932   0.810   0.954  0.7176  0.8898  1.6239
 5877TIP3   OH217636   5.970   0.486   3.822 -0.1821  0.4003 -0.1604
 5877TIP3    H117637   6.048   0.495   3.877  0.1846 -0.9444 -0.4181
 5877TIP3    H217638   5.975   0.397   3.788 -1.0309  0.8024 -1.4243
 5878TIP3   OH217639   3.136   5.008   4.484  0.7296  0.5969 -0.0754
 5878TIP3    H117640   3.066   5.042   4.539  1.2638  1.0118  0.3631
 5878TIP3    H217641   3.178   5.087   4.447 -0.0795  0.3260 -1.6794
 5879TIP3   OH217642   5.289   3.239   3.206 -0.0967  0.1914 -0.3652
 5879TIP3    H117643   5.271   3.253   3.113  1.5243 -0.4686 -0.8072
 5879TIP3    H217644   5.379   3.207   3.209 -0.1670  0.0496  1.4288
 5880TIP3   OH217645   4.642   1.768   2.705  0.0858 -0.6513 -0.1798
 5880TIP3    H117646   4.659   1.806   2.791  0.8305 -0.4855 -0.3886
 5880TIP3    H217647   4.647   1.674   2.719  0.5581 -0.6202 -0.0984
 5881TIP3   OH217648   1.644   1.729   1.303  0.3515 -0.6053  0.5558
 5881TIP3    H117649   1.696   1.648   1.295  1.0804 -0.0677 -0.4223
 5881TIP3    H217650   1.680   1.787   1.236 -2.0724 -0.4830 -0.7572
 5882TIP3   OH217651   0.447   1.300   2.151  0.1095  0.0709  0.9049
 5882TIP3    H117652   0.425   1.216   2.192  0.2430  0.3094  1.4863
 5882TIP3    H217653   0.365   1.330   2.112  0.3593 -0.9294 -0.4257
 5883TIP3   OH217654   5.725   1.988   4.343  0.4754 -0.0409 -0.4007
 5883TIP3    H117655   5.683   1.988   4.256 -0.1738  0.9572 -0.0972
 5883TIP3    H217656   5.700   1.903   4.381 -0.4387  0.1170 -0.6286
 5884TIP3   OH217657   5.957   3.045   4.941  0.1165  0.0137 -0.3172
 5884TIP3    H117658   6.040   3.052   4.987 -0.8748 -0.0848  1.6093
 5884TIP3    H217659   5.979   3.056   4.849  1.8398  3.1552  0.3567
 5885TIP3   OH217660   1.758   0.147   4.014 -0.1554 -0.3686  0.3884
 5885TIP3    H117661   1.696   0.186   3.952 -0.8642 -2.7244 -0.5021
 5885TIP3    H217662   1.734   0.186   4.098  0.5312  2.5556 -0.6684
 5886TIP3   OH217663   0.817   4.069   3.193 -0.4245  0.0730  0.0730
 5886TIP3    H117664   0.786   4.087   3.281 -2.8980 -1.5727 -0.3408
 5886TIP3    H217665   0.861   4.149   3.165  0.4807  0.5950  2.7881
 5887TIP3   OH217666   0.342   5.169   0.701 -0.1927  0.3990 -0.1215
 5887TIP3    H117667   0.360   5.113   0.626 -0.2536 -0.7861  0.7092
 5887TIP3    H217668   0.401   5.138   0.770  0.2588  1.8231  0.1698
 5888TIP3   OH217669   1.565   5.616   3.483 -0.1999 -0.0071  0.2256
 5888TIP3    H117670   1.479   5.640   3.451 -0.3877  3.1421  2.6233
 5888TIP3    H217671   1.604   5.565   3.412 -3.1800  0.2799 -1.7846
 5889TIP3   OH217672   0.242   2.155   0.234  0.2758  0.4160  0.1022
 5889TIP3    H117673   0.270   2.162   0.143 -1.0097 -0.6144 -0.3970
 5889TIP3    H217674   0.156   2.113   0.230  0.2274  0.2796  1.7951
 5890TIP3   OH217675   5.614   1.760   2.381  0.3775 -0.9957  0.0507
 5890TIP3    H117676   5.699   1.714   2.377  0.1136 -1.6494  1.3529
 5890TIP3    H217677   5.634   1.849   2.353  1.2905 -1.4072 -0.6778
 5891TIP3   OH217678   3.478   0.915   3.701 -0.0185 -0.9514  0.2851
 5891TIP3    H117679   3.463   0.831   3.658  1.6091 -0.8584 -0.5269
 5891TIP3    H217680   3.501   0.975   3.629  0.6119 -0.2639  1.0437
 5892TIP3   OH217681   0.890   4.684   5.074 -0.2331  0.1130 -0.0982
 5892TIP3    H117682   0.846   4.769   5.080 -0.5180  0.0507 -1.1038
 5892TIP3    H217683   0.845   4.639   5.002 -0.1202 -0.9121  0.4498
 5893TIP3   OH217684   0.580   0.203   3.384  0.1503  0.4061  0.1613
 5893TIP3    H117685   0.608   0.198   3.292 -0.3932  1.4660 -0.0888
 5893TIP3    H217686   0.588   0.296   3.406 -2.0702  0.6043  0.3891
 5894TIP3   OH217687   5.400   2.609   3.792  0.1496 -0.0364 -0.2935
 5894TIP3    H117688   5.382   2.662   3.869  1.6084 -0.8995  0.6902
 5894TIP3    H217689   5.314   2.575   3.765 -0.2396 -0.9726  1.9119
 5895TIP3   OH217690   0.528   2.557   5.023  0.3142  0.4419 -0.4237
 5895TIP3    H117691   0.572   2.487   4.975  0.0043  0.0694 -0.1733
 5895TIP3    H217692   0.594   2.625   5.033  1.7886 -1.2090  2.3790
 5896TIP3   OH217693   1.971   2.303   2.595  0.4311 -0.2134  0.0394
 5896TIP3    H117694   1.914   2.264   2.661 -0.4768 -1.3619 -1.3697
 5896TIP3    H217695   1.947   2.259   2.514  2.1237  0.5408 -0.9113
 5897TIP3   OH217696   1.791   4.009   4.440  0.2155 -0.2432 -1.2304
 5897TIP3    H117697   1.831   4.048   4.363  0.4364 -1.2302 -1.6250
 5897TIP3    H217698   1.796   3.914   4.426 -1.6901 -0.4281 -1.0145
 5898TIP3   OH217699   3.517   2.529   1.971  0.9287 -0.3654  0.3143
 5898TIP3    H117700   3.424   2.549   1.982  0.8342 -0.1846 -0.7561
 5898TIP3    H217701   3.559   2.567   2.049 -0.0270 -1.5467  1.4512
 5899TIP3   OH217702   5.147   3.768   3.174  0.3982  0.2072  0.7700
 5899TIP3    H117703   5.145   3.689   3.228 -1.4477  0.6457  1.4055
 5899TIP3    H217704   5.229   3.761   3.125  0.0702 -2.3357  0.4228
 5900TIP3   OH217705   4.501   1.206   1.939  0.0973 -0.0166 -0.2716
 5900TIP3    H117706   4.455   1.165   2.012 -0.5171 -2.6249 -2.0000
 5900TIP3    H217707   4.433   1.253   1.891  0.1858  0.2823 -0.1075
 5901TIP3   OH217708   4.895   3.317   2.943  0.0441  0.2377 -0.0009
 5901TIP3    H117709   4.911   3.251   3.010  0.0240 -0.2978 -0.5154
 5901TIP3    H217710   4.800   3.318   2.932  0.0738  0.0358 -0.3015
 5902TIP3   OH217711   0.934   2.268   0.913  0.3394  0.5213 -0.2003
 5902TIP3    H117712   0.933   2.195   0.975 -0.3752  1.9668  1.5581
 5902TIP3    H217713   0.842   2.296   0.907  0.4959  0.8559 -1.3998
 5903TIP3   OH217714   5.646   4.197   3.798 -0.2563  1.3608 -0.1774
 5903TIP3    H117715   5.661   4.283   3.760 -0.1093  1.9655  1.2212
 5903TIP3    H217716   5.730   4.173   3.838 -0.8341  1.4207  1.1021
 5904TIP3   OH217717   6.102   4.123   3.956 -0.0153  0.2320  0.1073
 5904TIP3    H117718   6.023   4.176   3.960 -0.7684 -0.9459  1.3996
 5904TIP3    H217719   6.139   4.142   3.869 -1.7241  0.7394 -0.5395
 5905TIP3   OH217720   0.596   5.391   0.075  0.0031  0.0272  0.4900
 5905TIP3    H117721   0.557   5.312   0.113 -1.2156  0.5164  0.3052
 5905TIP3    H217722   0.523   5.434   0.029  0.4896  1.5796  1.1076
 5906TIP3   OH217723   1.702   5.613   5.090  0.4525 -0.0966  0.0764
 5906TIP3    H117724   1.712   5.527   5.049  2.7859 -0.6790  1.6890
 5906TIP3    H217725   1.610   5.635   5.078 -0.0461 -2.5036 -0.9767
 5907TIP3   OH217726   3.193   0.121   4.563 -0.2479 -0.0444 -0.0618
 5907TIP3    H117727   3.136   0.144   4.489 -0.9741 -1.3407  0.0771
 5907TIP3    H217728   3.267   0.075   4.523 -1.6619 -2.6286  0.1554
 5908TIP3   OH217729   6.300   0.793   0.464  0.7229  0.1100  0.0379
 5908TIP3    H117730   6.345   0.845   0.531  0.9187  0.4944 -0.3912
 5908TIP3    H217731   6.356   0.716   0.453  1.7049  0.9351 -1.0360
 5909TIP3   OH217732   6.079   4.208   3.413 -0.5418  0.1714  0.1553
 5909TIP3    H117733   6.103   4.119   3.389  0.5702  0.5451 -0.2043
 5909TIP3    H217734   6.144   4.263   3.369 -2.4564  1.3193 -1.4275
 5910TIP3   OH217735   5.342   5.059   0.893 -0.9142  0.4667 -0.6533
 5910TIP3    H117736   5.333   5.027   0.983  0.6139 -2.7433 -1.4969
 5910TIP3    H217737   5.253   5.056   0.857 -1.6501  2.3960  0.8554
 5911TIP3   OH217738   6.310   4.240   3.261  0.2775 -0.2852  0.0387
 5911TIP3    H117739   6.302   4.322   3.213  0.6869 -0.4750 -0.3572
 5911TIP3    H217740   6.404   4.228   3.273  0.1850 -0.1713  1.0109
 5912TIP3   OH217741   1.706   0.524   1.811  0.2135 -0.1339  0.6781
 5912TIP3    H117742   1.632   0.492   1.760  0.8898 -1.1690  0.3103
 5912TIP3    H217743   1.776   0.461   1.793  1.2240  0.9050  0.9004
 5913TIP3   OH217744   4.277   2.304   1.048 -0.3007  0.5354 -0.2392
 5913TIP3    H117745   4.250   2.271   0.962 -0.0089  1.0786 -0.5488
 5913TIP3    H217746   4.351   2.362   1.029  0.4495 -0.1528  0.4943
 5914TIP3   OH217747   6.224   3.664   3.438  0.2552 -0.3883 -0.5391
 5914TIP3    H117748   6.155   3.633   3.380  0.3138  0.0082 -0.8253
 5914TIP3    H217749   6.297   3.604   3.423  0.2988 -0.2365 -0.9413
 5915TIP3   OH217750   5.096   2.125   3.530  0.2677  0.2977  0.3036
 5915TIP3    H117751   5.071   2.215   3.553 -1.2172  0.5532 -1.9774
 5915TIP3    H217752   5.015   2.075   3.540  0.2331 -0.0891 -1.5672
 5916TIP3   OH217753   5.637   0.698   3.907  0.0626  0.6957  0.2887
 5916TIP3    H117754   5.724   0.721   3.876 -0.5175  1.2456 -1.0116
 5916TIP3    H217755   5.578   0.747   3.850 -1.1456 -1.1513 -0.1300
 5917TIP3   OH217756   1.970   1.876   1.154  0.0137  0.6444 -0.2630
 5917TIP3    H117757   1.939   1.802   1.206  1.2119  0.8561  0.8032
 5917TIP3    H217758   1.907   1.945   1.171 -0.5413  0.1893 -0.4429
 5918TIP3   OH217759   5.026   2.103   5.088 -0.1751  0.1930 -0.4392
 5918TIP3    H117760   4.959   2.064   5.144  1.2138 -0.4556  0.8283
 5918TIP3    H217761   5.040   2.037   5.019 -0.7076  0.2585 -0.6150
 5919TIP3   OH217762   3.847   0.473   1.478 -0.3904  0.6037  0.6072
 5919TIP3    H117763   3.763   0.504   1.512 -0.1508 -0.1575  1.9403
 5919TIP3    H217764   3.823   0.416   1.405 -1.1844 -1.0065  2.0441
 5920TIP3   OH217765   2.462   5.652   2.961  0.5070 -0.3687 -0.4320
 5920TIP3    H117766   2.418   5.593   3.022  0.8323 -1.1432 -0.9297
 5920TIP3    H217767   2.547   5.612   2.946 -0.0389 -0.9308 -2.3868
 5921TIP3   OH217768   4.514   2.287   0.326 -0.2042 -1.0647  0.4943
 5921TIP3    H117769   4.447   2.334   0.375  2.0920  3.1226 -0.0010
 5921TIP3    H217770   4.505   2.320   0.236  2.5413 -0.2310  0.4520
 5922TIP3   OH217771   0.881   2.392   3.174  0.2935  0.1381 -0.1849
 5922TIP3    H117772   0.958   2.437   3.139 -1.0647  1.6352 -1.3722
 5922TIP3    H217773   0.859   2.327   3.107 -0.1669  0.5294 -0.4186
 5923TIP3   OH217774   0.292   2.872   0.367  0.3669 -0.0108 -0.0677
 5923TIP3    H117775   0.220   2.809   0.375 -0.7877  1.3723  0.8853
 5923TIP3    H217776   0.358   2.840   0.427 -0.6494  0.2178  1.2164
 5924TIP3   OH217777   1.957   0.292   2.045  0.3247 -0.2693 -0.3618
 5924TIP3    H117778   1.949   0.205   2.084 -0.0990 -0.2258 -0.3478
 5924TIP3    H217779   1.880   0.339   2.077 -0.1434 -0.2987 -1.4357
 5925TIP3   OH217780   5.887   5.056   4.972 -1.4390 -0.4877 -0.2048
 5925TIP3    H117781   5.862   4.965   4.954 -1.1476 -0.5976 -0.0511
 5925TIP3    H217782   5.971   5.050   5.017 -0.2691 -0.0449 -2.2286
 5926TIP3   OH217783   0.238   5.774   2.881  0.0456 -0.2541 -0.0905
 5926TIP3    H117784   0.286   5.691   2.869 -0.3896 -0.5709  0.3076
 5926TIP3    H217785   0.288   5.838   2.831 -0.0309 -0.9072 -1.0119
 5927TIP3   OH217786   2.512   1.369   0.469 -0.0992 -0.5633 -0.3009
 5927TIP3    H117787   2.420   1.351   0.489  0.0571 -1.6017 -0.4806
 5927TIP3    H217788   2.509   1.440   0.405 -0.7082  0.5275  0.8904
 5928TIP3   OH217789   4.588   4.816   0.323  0.0978  0.1779  0.1330
 5928TIP3    H117790   4.649   4.862   0.379 -0.0006 -0.3248  0.6677
 5928TIP3    H217791   4.551   4.883   0.266 -0.2348  0.7998  1.0654
 5929TIP3   OH217792   3.220   2.961   1.344 -0.1718  0.0493  0.3265
 5929TIP3    H117793   3.195   2.869   1.332  0.3710  0.1637 -2.1867
 5929TIP3    H217794   3.316   2.960   1.347 -0.1383  0.5811 -0.3691
 5930TIP3   OH217795   4.189   5.500   4.124 -0.1046  0.1211  0.3914
 5930TIP3    H117796   4.284   5.506   4.125 -0.1164  1.8044 -1.4984
 5930TIP3    H217797   4.169   5.444   4.049 -0.6192 -1.4788  1.6728
 5931TIP3   OH217798   5.964   0.406   3.407  0.4774  0.1927 -0.6084
 5931TIP3    H117799   5.928   0.393   3.495  0.3286 -1.2125 -0.8531
 5931TIP3    H217800   5.998   0.495   3.408  1.4993 -0.1629  1.2497
 5932TIP3   OH217801   4.680   5.274   2.683 -0.2588  0.0860 -0.0216
 5932TIP3    H117802   4.677   5.368   2.697 -1.6965 -0.2557  2.4146
 5932TIP3    H217803   4.734   5.240   2.754  0.1938 -0.9444 -0.8331
 5933TIP3   OH217804   1.889   4.795   0.154  0.0313  0.6970  0.1021
 5933TIP3    H117805   1.851   4.715   0.118  0.6621 -0.1317  1.2002
 5933TIP3    H217806   1.965   4.813   0.098 -0.9110  1.3591 -1.0118
 5934TIP3   OH217807   4.504   4.865   1.436 -0.0144 -0.5326 -0.1363
 5934TIP3    H117808   4.441   4.936   1.422  0.7018 -0.2462 -2.3590
 5934TIP3    H217809   4.526   4.870   1.529 -0.8135  1.4545 -0.0046
 5935TIP3   OH217810   2.359   0.265   5.130  0.1000 -0.0410 -0.6014
 5935TIP3    H117811   2.366   0.355   5.097 -1.9555 -0.1941 -1.5757
 5935TIP3    H217812   2.266   0.253   5.150 -0.2308 -2.8047 -3.1111
 5936TIP3   OH217813   2.261   3.444   4.236 -0.2611 -0.6406  0.6310
 5936TIP3    H117814   2.277   3.425   4.329 -1.8283 -1.5384  0.7594
 5936TIP3    H217815   2.192   3.382   4.211 -0.2468 -0.0392 -0.9953
 5937TIP3   OH217816   1.907   5.841   4.586  0.1131 -0.5920  0.6023
 5937TIP3    H117817   1.840   5.792   4.539 -0.1701 -1.6824  2.0644
 5937TIP3    H217818   1.879   5.932   4.580 -0.8933 -0.9125  0.2468
 5938TIP3   OH217819   1.324   5.751   0.581 -1.0340 -0.2355  0.5792
 5938TIP3    H117820   1.336   5.845   0.593 -2.0989  0.3225 -2.0760
 5938TIP3    H217821   1.276   5.723   0.658 -0.0420  1.2218  1.7866
 5939TIP3   OH217822   4.858   4.645   1.112 -0.0600  0.8590  0.1073
 5939TIP3    H117823   4.844   4.554   1.139 -1.2182  0.7185 -0.8986
 5939TIP3    H217824   4.830   4.697   1.187 -0.0755  0.4077  0.4200
 5940TIP3   OH217825   0.082   2.823   2.519 -0.0805 -0.3049  0.6953
 5940TIP3    H117826   0.161   2.814   2.572  0.2226  0.5759  0.4119
 5940TIP3    H217827   0.110   2.876   2.444 -0.6095 -1.1471 -0.1121
 5941TIP3   OH217828   5.789   4.667   3.523 -0.6699 -0.0140  0.4379
 5941TIP3    H117829   5.811   4.731   3.455 -0.6137  1.0479  1.4229
 5941TIP3    H217830   5.811   4.582   3.484 -0.8364  0.5508 -0.9344
 5942TIP3   OH217831   2.115   1.533   3.688  0.4206  0.3222  0.5423
 5942TIP3    H117832   2.081   1.523   3.599 -1.7361  1.3765  1.1890
 5942TIP3    H217833   2.055   1.482   3.742 -1.5366  3.7649  1.9571
 5943TIP3   OH217834   3.602   4.010   0.228  0.3204  0.6831 -0.3648
 5943TIP3    H117835   3.599   4.106   0.231  1.0039  0.8612 -3.1493
 5943TIP3    H217836   3.530   3.986   0.169  0.8543 -0.4485 -0.5776
 5944TIP3   OH217837   1.642   5.454   0.713  0.0368  0.6072  0.1531
 5944TIP3    H117838   1.586   5.389   0.669  1.6550 -0.6837 -0.1089
 5944TIP3    H217839   1.724   5.450   0.664  0.1198  3.0815 -0.0176
 5945TIP3   OH217840   5.991   5.538   3.072 -0.7704 -0.7892  0.0812
 5945TIP3    H117841   5.960   5.459   3.115 -1.4915 -2.2793 -2.9094
 5945TIP3    H217842   5.969   5.525   2.980 -0.5186  2.7405 -0.5960
 5946TIP3   OH217843   1.957   4.179   2.452  0.4524  0.7278  0.5685
 5946TIP3    H117844   1.965   4.089   2.420  3.1622  0.2566  2.2955
 5946TIP3    H217845   1.993   4.233   2.381  0.6706  0.2877  0.3411
 5947TIP3   OH217846   4.367   1.708   1.898 -0.8992  0.4074 -0.3780
 5947TIP3    H117847   4.424   1.781   1.921 -0.3240 -0.1452 -0.0243
 5947TIP3    H217848   4.368   1.705   1.803  2.1881 -1.4954 -0.4315
 5948TIP3   OH217849   1.563   4.821   4.727 -0.4836  0.4488 -0.6629
 5948TIP3    H117850   1.489   4.879   4.710  1.0132  2.8806  0.5117
 5948TIP3    H217851   1.610   4.816   4.644 -1.3502 -0.2166 -1.1244
 5949TIP3   OH217852   2.914   2.116   3.868 -0.0026  0.0242 -0.0107
 5949TIP3    H117853   2.915   2.178   3.941 -0.1429 -0.0865  0.0861
 5949TIP3    H217854   2.839   2.059   3.887  0.4973 -0.5568  0.2216
 5950TIP3   OH217855   0.815   0.960   0.679  0.8331  0.7408 -0.1732
 5950TIP3    H117856   0.726   0.995   0.683  0.9360  0.9345  0.5641
 5950TIP3    H217857   0.838   0.964   0.586  1.0122  3.0834 -0.1045
 5951TIP3   OH217858   6.044   1.015   3.692 -0.0520 -0.2056 -0.1521
 5951TIP3    H117859   5.995   1.014   3.774 -0.1892  1.5306 -0.1839
 5951TIP3    H217860   6.133   0.993   3.717 -0.4636 -1.6187  0.1597
 5952TIP3   OH217861   3.513   2.417   0.171  0.0975 -0.3373 -0.2678
 5952TIP3    H117862   3.419   2.421   0.153  0.0263 -0.4969  0.0690
 5952TIP3    H217863   3.552   2.476   0.106 -0.1120 -1.2181 -1.2042
 5953TIP3   OH217864   4.649   3.034   4.710  0.2481  0.1795 -0.2838
 5953TIP3    H117865   4.630   2.955   4.761  1.9373  1.0141  1.7813
 5953TIP3    H217866   4.610   3.105   4.760 -0.7614  0.7685 -1.8302
 5954TIP3   OH217867   0.504   3.453   0.118 -0.3128 -0.0517  0.0176
 5954TIP3    H117868   0.440   3.417   0.179  1.2992  0.2198  2.0002
 5954TIP3    H217869   0.463   3.446   0.032 -2.8021 -0.2263  1.1470
 5955TIP3   OH217870   4.066   4.716   4.009 -0.0920  0.1405 -0.6348
 5955TIP3    H117871   4.016   4.776   3.954  1.1942  0.6806 -1.2749
 5955TIP3    H217872   4.024   4.631   3.996  0.3324  0.1959 -2.7165
 5956TIP3   OH217873   4.796   1.258   1.961  0.6040  0.1401  0.4932
 5956TIP3    H117874   4.706   1.281   1.987 -0.3300 -0.9691 -1.5046
 5956TIP3    H217875   4.785   1.210   1.879  3.1355  0.9971 -0.4214
 5957TIP3   OH217876   4.039   3.252   1.801 -0.3370  0.1894  0.2416
 5957TIP3    H117877   4.094   3.289   1.871 -0.0285  0.6232 -0.2156
 5957TIP3    H217878   3.970   3.317   1.788 -1.1375 -0.5038  1.0255
 5958TIP3   OH217879   4.058   4.302   2.450  0.1792  0.0998  0.7463
 5958TIP3    H117880   4.048   4.227   2.391 -1.2458  1.5031 -0.9034
 5958TIP3    H217881   3.971   4.313   2.489  0.1279  1.3810  0.3101
 5959TIP3   OH217882   1.461   2.674   1.847  0.0462 -0.3066 -0.0276
 5959TIP3    H117883   1.463   2.680   1.752  1.7869  1.1161  0.0485
 5959TIP3    H217884   1.530   2.611   1.870  1.0909  0.9329  0.3403
 5960TIP3   OH217885   2.343   0.595   5.023  0.2668  0.2407 -0.6514
 5960TIP3    H117886   2.317   0.670   5.077 -0.3602 -0.5381  0.1572
 5960TIP3    H217887   2.260   0.556   4.995  0.5781 -0.7774 -0.1871
 5961TIP3   OH217888   4.602   1.603   5.131 -0.7007  0.1912 -0.0818
 5961TIP3    H117889   4.517   1.563   5.152 -1.2330  1.5297  0.4791
 5961TIP3    H217890   4.643   1.618   5.216 -0.4960  0.7686 -0.2759
 5962TIP3   OH217891   5.376   5.277   0.081 -0.8015  0.1039 -1.0382
 5962TIP3    H117892   5.341   5.188   0.072 -0.4372 -0.0359 -1.0853
 5962TIP3    H217893   5.392   5.286   0.175 -0.6798  0.0616 -1.0557
 5963TIP3   OH217894   0.807   1.526   4.220 -0.7947  0.0487 -0.2435
 5963TIP3    H117895   0.872   1.537   4.151  1.5067 -0.6201  1.6790
 5963TIP3    H217896   0.809   1.608   4.268 -0.2204 -0.4999  0.7080
 5964TIP3   OH217897   1.640   3.509   2.030 -0.3377 -0.2262  0.2988
 5964TIP3    H117898   1.628   3.549   2.116 -0.3802  0.1102  0.1420
 5964TIP3    H217899   1.570   3.547   1.977  1.1921  1.5850 -0.5700
 5965TIP3   OH217900   2.993   4.719   2.224  0.3868 -0.4104  0.2935
 5965TIP3    H117901   2.999   4.633   2.265 -0.3415 -0.3612  0.5195
 5965TIP3    H217902   3.083   4.742   2.203  0.5631 -1.3203  0.0398
 5966TIP3   OH217903   0.858   0.441   2.579 -0.0718  0.8931  0.2355
 5966TIP3    H117904   0.895   0.480   2.499 -0.5331  1.1380  0.1370
 5966TIP3    H217905   0.764   0.460   2.574 -0.3166 -0.2934  0.1642
 5967TIP3   OH217906   1.480   0.586   4.595  0.4374  0.6481  0.5647
 5967TIP3    H117907   1.439   0.579   4.681 -0.8257 -0.4876 -0.0975
 5967TIP3    H217908   1.503   0.496   4.572 -2.2196  0.4223 -1.6580
 5968TIP3   OH217909   0.239   0.056   1.614 -0.2556 -0.2911 -0.0771
 5968TIP3    H117910   0.208  -0.034   1.619  0.3894 -0.5956 -1.1996
 5968TIP3    H217911   0.249   0.083   1.705 -1.8918 -0.8280  0.2946
 5969TIP3   OH217912   2.239   2.735   0.748  0.0348 -0.3818 -0.8889
 5969TIP3    H117913   2.218   2.691   0.666 -1.5082  0.9335 -1.2510
 5969TIP3    H217914   2.220   2.669   0.815  0.8683 -1.3117 -1.5333
 5970TIP3   OH217915   4.386   2.100   3.026  0.0379 -0.3770 -0.2505
 5970TIP3    H117916   4.411   2.051   3.104  1.8947  0.5136 -0.2317
 5970TIP3    H217917   4.312   2.154   3.054  1.6580  1.1214  1.4324
 5971TIP3   OH217918   0.327   2.265   2.707 -0.1337  0.3325  0.0375
 5971TIP3    H117919   0.343   2.351   2.746 -0.9335  0.4991  0.0318
 5971TIP3    H217920   0.294   2.285   2.619  1.4018 -0.0316 -0.6430
 5972TIP3   OH217921   4.924   1.765   2.363  0.1570 -0.3866 -0.1099
 5972TIP3    H117922   4.976   1.841   2.336 -1.5731  1.5265  1.5510
 5972TIP3    H217923   4.870   1.745   2.287 -0.2200  0.8704 -0.1992
 5973TIP3   OH217924   2.389   4.479   2.252 -0.2927  0.2253  0.3653
 5973TIP3    H117925   2.370   4.487   2.346 -0.6582  0.2696  0.2915
 5973TIP3    H217926   2.411   4.567   2.224  0.4252  0.1024  0.5351
 5974TIP3   OH217927   3.451   5.265   1.167 -0.1308 -0.0452  0.0453
 5974TIP3    H117928   3.490   5.221   1.243  1.8198  1.1249 -0.1952
 5974TIP3    H217929   3.406   5.195   1.119 -1.3890 -0.8173  2.2166
 5975TIP3   OH217930   4.629   1.241   3.529 -0.1127  0.0932 -0.6490
 5975TIP3    H117931   4.546   1.283   3.550 -1.9666 -1.6619 -3.6657
 5975TIP3    H217932   4.658   1.285   3.449  1.4349  0.0871 -0.1185
 5976TIP3   OH217933   0.579   1.598   0.175 -0.0215 -0.5246  0.2815
 5976TIP3    H117934   0.498   1.641   0.199 -0.6996 -1.2570 -0.6121
 5976TIP3    H217935   0.580   1.601   0.079  2.0110  1.2771  0.2768
 5977TIP3   OH217936   5.831   5.432   0.597 -0.2268 -0.0358  0.4172
 5977TIP3    H117937   5.807   5.506   0.541 -0.5261  0.4107  1.1159
 5977TIP3    H217938   5.919   5.454   0.629 -0.7964  0.6280  1.5907
 5978TIP3   OH217939   2.341   4.266   0.589  0.2468 -0.3362  0.5183
 5978TIP3    H117940   2.308   4.177   0.603 -1.8897  0.2017 -0.7754
 5978TIP3    H217941   2.308   4.316   0.664  1.4924 -0.6030  1.2739
 5979TIP3   OH217942   3.759   5.078   2.075  0.8591 -0.3846  0.3260
 5979TIP3    H117943   3.829   5.139   2.051 -0.3915  0.7353 -0.6514
 5979TIP3    H217944   3.684   5.105   2.021  0.1691 -2.6312  0.0466
 5980TIP3   OH217945   2.803   3.865   3.208  0.1953  0.3926  0.2715
 5980TIP3    H117946   2.735   3.798   3.210  1.5890 -1.1585 -0.9523
 5980TIP3    H217947   2.817   3.881   3.115  2.4224 -0.3844  0.4044
 5981TIP3   OH217948   4.265   0.189   0.799 -0.4225  0.7733 -0.4938
 5981TIP3    H117949   4.325   0.259   0.775 -0.5336  0.7008 -0.9878
 5981TIP3    H217950   4.233   0.214   0.886 -0.0655  1.0673 -0.4464
 5982TIP3   OH217951   3.106   0.655   0.411  0.1836  0.1585  0.2371
 5982TIP3    H117952   3.097   0.731   0.469 -2.9478 -1.3951  2.0521
 5982TIP3    H217953   3.164   0.596   0.459  1.7242  0.8627 -0.6732
 5983TIP3   OH217954   4.598   3.673   5.063 -0.2210 -0.2596  0.2848
 5983TIP3    H117955   4.510   3.644   5.085  0.1423  0.0367  2.3320
 5983TIP3    H217956   4.593   3.700   4.971 -2.3056 -0.0411  0.4281
 5984TIP3   OH217957   3.546   0.132   2.671 -0.0797  0.3499  0.0277
 5984TIP3    H117958   3.589   0.217   2.661  1.7797 -0.1819  2.3945
 5984TIP3    H217959   3.471   0.136   2.612 -0.0245  3.5847 -0.0155
 5985TIP3   OH217960   5.171   0.696   3.766  0.1949  0.3454  0.1541
 5985TIP3    H117961   5.193   0.745   3.845 -0.7821 -1.2786  1.5189
 5985TIP3    H217962   5.087   0.653   3.787  0.2838 -0.7363 -1.4833
 5986TIP3   OH217963   3.309   5.025   1.120 -0.1292  0.1635  0.2941
 5986TIP3    H117964   3.310   4.954   1.055 -1.1444  0.3928  0.0128
 5986TIP3    H217965   3.227   5.013   1.167 -0.7444  1.6490 -0.3358
 5987TIP3   OH217966   3.442   3.568   1.033  0.3990 -0.0354  0.1722
 5987TIP3    H117967   3.456   3.484   0.989  0.2071 -0.3195  0.6428
 5987TIP3    H217968   3.400   3.623   0.966 -1.8363 -1.1221  0.5702
 5988TIP3   OH217969   4.257   4.587   0.681 -0.0844  0.2287 -0.3675
 5988TIP3    H117970   4.185   4.647   0.666  0.0922  0.8846  1.1683
 5988TIP3    H217971   4.215   4.502   0.694 -0.5115  0.4380 -0.3609
 5989TIP3   OH217972   2.006   5.013   3.276  0.2684  0.3425  0.1989
 5989TIP3    H117973   2.002   4.974   3.363 -0.9065  0.6676  0.3051
 5989TIP3    H217974   2.095   5.048   3.270  1.0145 -1.3751  0.5016
 5990TIP3   OH217975   5.446   0.080   1.876  0.1837 -0.0865  0.3492
 5990TIP3    H117976   5.451   0.026   1.797 -1.0018 -1.2813  1.0425
 5990TIP3    H217977   5.515   0.145   1.865  1.4769 -1.5612 -0.6743
 5991TIP3   OH217978   2.606   4.943   3.123 -0.3452  0.3038  0.2637
 5991TIP3    H117979   2.517   4.911   3.105 -0.6298  0.9538  0.4882
 5991TIP3    H217980   2.636   4.890   3.197 -0.3913 -0.1867 -0.0628
 5992TIP3   OH217981   1.871   2.560   0.163 -0.1918  0.7577 -0.5083
 5992TIP3    H117982   1.963   2.550   0.190 -0.4923  0.2967  0.3536
 5992TIP3    H217983   1.875   2.625   0.092  0.5565  2.6223  1.1330
 5993TIP3   OH217984   0.559   0.449   4.337  0.2027 -0.1788  0.4150
 5993TIP3    H117985   0.614   0.474   4.263  0.8785  1.3646  1.3818
 5993TIP3    H217986   0.572   0.519   4.401 -0.1614 -1.5918  2.1092
 5994TIP3   OH217987   0.945   4.406   3.125 -0.0320  0.3085  0.0045
 5994TIP3    H117988   0.938   4.494   3.089 -0.7688  0.2128 -0.1113
 5994TIP3    H217989   1.006   4.361   3.066 -0.4357  0.4548 -0.5395
 5995TIP3   OH217990   5.628   4.275   0.260 -0.0428  0.4269  0.6259
 5995TIP3    H117991   5.675   4.252   0.341 -0.7016 -0.9386  0.6590
 5995TIP3    H217992   5.697   4.289   0.195  0.4597 -0.7032  0.8798
 5996TIP3   OH217993   2.335   4.740   0.848 -0.7128  0.3027 -0.0995
 5996TIP3    H117994   2.352   4.777   0.761 -1.3960 -0.8140 -0.7323
 5996TIP3    H217995   2.243   4.714   0.845 -0.8237  0.5033  1.0647
 5997TIP3   OH217996   5.760   5.921   1.422 -0.9580 -0.1757 -0.1235
 5997TIP3    H117997   5.779   5.985   1.354 -1.2172 -0.5017 -0.5063
 5997TIP3    H217998   5.762   5.836   1.377 -2.0313 -0.3246  0.0766
 5998TIP3   OH217999   6.169   3.671   4.140  0.0879  0.0030  0.5272
 5998TIP3    H118000   6.219   3.619   4.077 -0.0699  0.4677  0.0047
 5998TIP3    H218001   6.173   3.760   4.105  0.6575  0.4092  1.5990
 5999TIP3   OH218002   1.968   1.260   2.073 -0.9082  0.1377 -0.5341
 5999TIP3    H118003   1.901   1.286   2.136 -1.0156 -1.3616  0.0047
 5999TIP3    H218004   1.922   1.256   1.989 -0.9027  1.5242 -0.6323
 6000TIP3   OH218005   3.149   5.380   1.695  0.3531  0.1052  0.1611
 6000TIP3    H118006   3.057   5.356   1.681 -0.1786 -0.1525  3.3406
 6000TIP3    H218007   3.196   5.297   1.692  0.4199  0.1633 -0.8060
 6001TIP3   OH218008   5.647   4.603   2.837 -0.0301  0.1578  0.4544
 6001TIP3    H118009   5.652   4.613   2.742  1.7808 -1.1844  0.3472
 6001TIP3    H218010   5.583   4.668   2.865  0.1274  1.2608 -1.5675
 6002TIP3   OH218011   1.892   4.228   1.832 -0.1735  0.2668 -0.4907
 6002TIP3    H118012   1.974   4.276   1.818  0.4031 -0.9601 -1.4820
 6002TIP3    H218013   1.911   4.140   1.802 -1.8957 -0.0278 -0.7824
 6003TIP3   OH218014   4.767   1.467   4.929 -0.0077 -0.1171  0.0060
 6003TIP3    H118015   4.726   1.518   4.999  1.4009  0.6296  0.3187
 6003TIP3    H218016   4.761   1.523   4.852 -0.8143 -0.5914 -0.2790
 6004TIP3   OH218017   3.243   4.048   2.132  0.4097 -0.0619  0.3660
 6004TIP3    H118018   3.199   3.969   2.100  0.3371 -0.5928  1.7201
 6004TIP3    H218019   3.292   4.080   2.056  0.2866 -1.2987 -0.2666
 6005TIP3   OH218020   1.218   0.765   4.489  0.0175 -0.3837  0.2163
 6005TIP3    H118021   1.180   0.725   4.411  1.6052 -0.5903 -0.4937
 6005TIP3    H218022   1.288   0.705   4.515  1.3631  1.0741  0.1044
 6006TIP3   OH218023   2.068   1.528   4.608  0.1310  0.5891 -0.3593
 6006TIP3    H118024   2.014   1.453   4.631  0.0377  0.3957 -1.1638
 6006TIP3    H218025   2.114   1.500   4.528  1.4991  0.6997  0.3556
 6007TIP3   OH218026   3.140   3.584   1.859 -0.0942  0.2393  0.6439
 6007TIP3    H118027   3.103   3.501   1.888 -1.5876  0.7566  0.2684
 6007TIP3    H218028   3.130   3.583   1.763  0.0787  0.7590  0.6146
 6008TIP3   OH218029   2.305   5.974   2.651  0.6093 -0.1764  0.0633
 6008TIP3    H118030   2.376   5.953   2.591  1.5271  0.3453  0.9324
 6008TIP3    H218031   2.309   5.905   2.718  0.7814  0.2523  0.5066
 6009TIP3   OH218032   1.402   2.185   0.429  0.2857  0.1271 -0.1817
 6009TIP3    H118033   1.489   2.154   0.452 -0.4066 -1.8044  0.0489
 6009TIP3    H218034   1.413   2.228   0.344  1.2702 -1.1318 -0.7202
 6010TIP3   OH218035   3.439   4.217   1.907  0.0036 -0.3546  0.2697
 6010TIP3    H118036   3.463   4.132   1.870  2.5494  0.2290  0.4207
 6010TIP3    H218037   3.507   4.236   1.971  0.0927  2.2501 -0.4811
 6011TIP3   OH218038   3.724   2.419   4.180 -0.3390 -0.3344  0.3270
 6011TIP3    H118039   3.660   2.366   4.133  0.6020 -0.2616 -1.1028
 6011TIP3    H218040   3.772   2.466   4.112  0.9708 -0.0882  1.3635
 6012TIP3   OH218041   2.387   2.001   3.001 -0.0067  0.4233  0.1458
 6012TIP3    H118042   2.313   1.939   2.994 -0.1553  0.7015 -0.7767
 6012TIP3    H218043   2.370   2.048   3.083 -1.4423  1.2154 -0.5616
 6013TIP3   OH218044   2.277   5.848   2.917 -0.4309  0.0557 -0.0559
 6013TIP3    H118045   2.211   5.831   2.983 -0.0488 -0.0943  0.2953
 6013TIP3    H218046   2.334   5.771   2.920  1.4768  1.4157  1.7275
 6014TIP3   OH218047   4.046   3.998   1.643 -0.3196  0.1963  0.0749
 6014TIP3    H118048   3.956   4.028   1.634 -0.3040  0.8335  1.6574
 6014TIP3    H218049   4.087   4.019   1.558 -1.8483 -0.9351 -0.9915
 6015TIP3   OH218050   2.541   2.168   2.616  0.4834  0.0493  0.0907
 6015TIP3    H118051   2.599   2.210   2.552  1.1470 -0.4439  0.3526
 6015TIP3    H218052   2.453   2.193   2.589  0.6874 -0.9429 -1.5891
 6016TIP3   OH218053   2.080   5.902   4.232 -0.2369  0.1452  0.2028
 6016TIP3    H118054   2.121   5.987   4.214  2.1250 -1.0442 -0.4275
 6016TIP3    H218055   2.103   5.884   4.323 -0.5083  0.0572  0.2539
 6017TIP3   OH218056   0.271   5.985   3.771 -0.1224 -0.5037  0.3933
 6017TIP3    H118057   0.241   5.957   3.857  2.8616 -3.8907  0.5549
 6017TIP3    H218058   0.357   6.025   3.788  0.1317 -0.4393 -0.9432
 6018TIP3   OH218059   4.688   2.309   0.701  0.6374 -0.1802 -0.8719
 6018TIP3    H118060   4.737   2.378   0.746 -0.4193  1.1729 -1.6964
 6018TIP3    H218061   4.746   2.279   0.632  1.2077 -0.3035 -0.3437
 6019TIP3   OH218062   1.580   3.982   0.492 -0.1841  0.6567 -0.0671
 6019TIP3    H118063   1.599   4.058   0.548 -0.9973  2.5543 -2.1980
 6019TIP3    H218064   1.518   4.015   0.427 -0.9531 -2.0004 -0.8239
 6020TIP3   OH218065   1.037   5.654   4.054 -0.2183 -0.0786 -0.5704
 6020TIP3    H118066   1.112   5.683   4.001  0.7308  0.1898  0.8469
 6020TIP3    H218067   1.027   5.562   4.032  0.2476 -0.0088 -1.1125
 6021TIP3   OH218068   1.526   4.833   3.980 -0.2988  0.2665 -0.1234
 6021TIP3    H118069   1.538   4.766   3.913  1.4643  0.0178  0.4000
 6021TIP3    H218070   1.495   4.909   3.932 -0.0285 -0.2099 -1.0766
 6022TIP3   OH218071   4.625   5.867   1.890  0.4677 -0.0779  0.2052
 6022TIP3    H118072   4.636   5.776   1.917 -1.3528 -0.1116  1.0005
 6022TIP3    H218073   4.682   5.917   1.949 -0.3288 -0.5195  1.3882
 6023TIP3   OH218074   3.626   5.501   0.196 -0.2005 -0.2958 -0.2531
 6023TIP3    H118075   3.577   5.419   0.190 -1.3300  0.1360  2.0047
 6023TIP3    H218076   3.694   5.485   0.261 -0.7535  0.6824  0.5974
 6024TIP3   OH218077   4.390   5.663   4.327 -0.7227 -0.4020 -0.2998
 6024TIP3    H118078   4.348   5.578   4.338  0.6253 -1.3397 -1.8511
 6024TIP3    H218079   4.483   5.643   4.319 -0.4419  1.1418 -1.4100
 6025TIP3   OH218080   4.881   0.138   4.301 -0.0220  0.2910 -0.4480
 6025TIP3    H118081   4.970   0.155   4.333 -0.2715 -1.0559  1.0761
 6025TIP3    H218082   4.875   0.189   4.220  1.7038  1.4029  0.0632
 6026TIP3   OH218083   3.304   4.474   1.889 -0.3425 -0.5564  0.2390
 6026TIP3    H118084   3.284   4.483   1.796  0.6561  0.8302  0.1160
 6026TIP3    H218085   3.342   4.387   1.898  1.1156 -0.0971 -0.9922
 6027TIP3   OH218086   5.617   4.996   1.825  0.0245 -0.2917 -0.8242
 6027TIP3    H118087   5.546   4.934   1.806 -0.8505  0.6969 -0.8520
 6027TIP3    H218088   5.697   4.944   1.814 -0.6355 -1.1082 -2.0693
 6028TIP3   OH218089   0.088   3.146   3.133  0.1862 -0.0859 -0.4780
 6028TIP3    H118090   0.153   3.160   3.202 -0.2181 -1.2089  0.1555
 6028TIP3    H218091   0.005   3.168   3.175 -0.0689 -0.8350 -0.5839
 6029TIP3   OH218092   0.181   0.272   3.275  0.5013  0.0552 -0.0290
 6029TIP3    H118093   0.268   0.293   3.239 -0.0215 -0.3280 -1.6024
 6029TIP3    H218094   0.132   0.354   3.266  0.6803  0.2765  0.8787
 6030TIP3   OH218095   4.331   2.806   1.148 -0.3628  0.1930  0.0588
 6030TIP3    H118096   4.308   2.895   1.176  1.3507  1.0585 -1.0603
 6030TIP3    H218097   4.427   2.805   1.153 -0.2499 -0.9493 -1.7759
 6031TIP3   OH218098   5.444   3.207   4.274  0.1440 -0.1686  0.6324
 6031TIP3    H118099   5.382   3.238   4.340  1.1603  2.3358  0.5379
 6031TIP3    H218100   5.525   3.254   4.294  0.6699  0.1762 -1.9530
 6032TIP3   OH218101   2.362   0.227   0.443 -0.0677 -0.3169  0.7698
 6032TIP3    H118102   2.362   0.274   0.359 -1.6851  0.1654  0.9874
 6032TIP3    H218103   2.402   0.288   0.505  1.4521 -0.8093  0.3140
 6033TIP3   OH218104   3.420   1.738   3.651  0.0538  0.3193 -0.2408
 6033TIP3    H118105   3.343   1.789   3.627 -0.4143  0.2457  1.0423
 6033TIP3    H218106   3.453   1.779   3.731  2.3810  1.4161 -1.6575
 6034TIP3   OH218107   2.218   0.218   1.340 -0.3455  0.0567 -0.3838
 6034TIP3    H118108   2.297   0.251   1.383 -0.1581  0.4410 -1.0098
 6034TIP3    H218109   2.247   0.141   1.291  0.1200  1.3816 -2.3198
 6035TIP3   OH218110   2.666   5.556   5.055 -0.2978  0.1290 -0.4447
 6035TIP3    H118111   2.700   5.508   5.130 -0.1215  0.0737 -0.5585
 6035TIP3    H218112   2.700   5.645   5.065  0.1493 -0.0047 -0.7245
 6036TIP3   OH218113   5.011   1.282   5.026  0.3955  0.0785  0.3985
 6036TIP3    H118114   4.934   1.313   4.979  0.8072  1.6018  0.6639
 6036TIP3    H218115   5.040   1.358   5.077  2.1007 -0.4237  0.2482
 6037TIP3   OH218116   1.757   5.080   0.536 -0.4200  0.1292  0.1637
 6037TIP3    H118117   1.665   5.064   0.516 -0.2360  0.7190 -1.3032
 6037TIP3    H218118   1.804   5.007   0.497 -0.2674 -0.3435  1.1896
 6038TIP3   OH218119   1.521   4.553   4.752 -0.3228 -0.2316 -0.1143
 6038TIP3    H118120   1.560   4.640   4.760 -0.9347 -0.1181  2.3051
 6038TIP3    H218121   1.427   4.569   4.741 -0.4174 -0.5683  0.1695
 6039TIP3   OH218122   5.750   5.148   0.132  0.3786 -0.2292  0.4538
 6039TIP3    H118123   5.714   5.207   0.199  0.6554 -0.1035  0.4933
 6039TIP3    H218124   5.721   5.060   0.160 -0.5437 -0.0616  0.0638
 6040TIP3   OH218125   1.499   0.092   0.303  0.2601  0.0785 -0.2347
 6040TIP3    H118126   1.570   0.113   0.243  0.2799 -2.1497 -1.0909
 6040TIP3    H218127   1.470   0.177   0.337  1.3252  1.2710 -2.1353
 6041TIP3   OH218128   4.974   0.298   0.543 -0.5254  0.4104  0.2750
 6041TIP3    H118129   4.908   0.285   0.476  0.8414  0.8012 -1.2092
 6041TIP3    H218130   4.987   0.212   0.582 -1.2448  0.1469 -0.0668
 6042TIP3   OH218131   0.214   4.515   0.901 -0.0697 -0.0690  0.5916
 6042TIP3    H118132   0.204   4.577   0.973 -0.4816  0.2378  0.2748
 6042TIP3    H218133   0.308   4.514   0.884 -0.0428  0.3476  0.7074
 6043TIP3   OH218134   5.227   1.594   4.671 -0.0797 -0.3233 -0.6822
 6043TIP3    H118135   5.266   1.668   4.625  1.5925  0.0549  1.1942
 6043TIP3    H218136   5.187   1.541   4.603  3.0319 -0.2933 -2.7298
 6044TIP3   OH218137   5.936   3.973   3.265 -0.1262 -0.0946  0.3071
 6044TIP3    H118138   6.021   3.945   3.298  0.4323 -1.3485 -1.9552
 6044TIP3    H218139   5.954   4.054   3.217 -0.1051 -0.5600 -0.4928
 6045TIP3   OH218140   3.556   0.200   4.406  0.3336  0.1674 -0.1194
 6045TIP3    H118141   3.651   0.206   4.392  0.5500  2.4097  1.7076
 6045TIP3    H218142   3.531   0.288   4.435 -2.2985 -0.4310 -0.3813
 6046TIP3   OH218143   5.226   3.283   0.757  0.4016  0.0597 -0.0215
 6046TIP3    H118144   5.269   3.283   0.843  0.1422 -0.2132  0.1111
 6046TIP3    H218145   5.298   3.284   0.694  0.5936  0.2803  0.1985
 6047TIP3   OH218146   5.807   3.093   0.152 -0.4539 -0.9926  0.0858
 6047TIP3    H118147   5.788   3.042   0.074  2.0431  0.6938 -1.8062
 6047TIP3    H218148   5.757   3.174   0.141  0.5840 -0.3778 -0.2704
 6048TIP3   OH218149   4.561   1.027   1.722 -0.2881 -0.1116  0.2751
 6048TIP3    H118150   4.540   1.086   1.649  1.2428  0.0933 -0.0396
 6048TIP3    H218151   4.550   1.080   1.800 -1.9272 -0.3264  0.2317
 6049TIP3   OH218152   0.054   5.786   3.068  0.1837 -0.2883 -0.0490
 6049TIP3    H118153   0.125   5.779   3.005 -0.0027  0.6558 -0.3810
 6049TIP3    H218154  -0.024   5.761   3.018  0.0328  0.4840 -0.2123
 6050TIP3   OH218155   3.433   3.832   3.235  0.5546  0.4676  0.0287
 6050TIP3    H118156   3.451   3.740   3.250  1.2028  0.7631  1.1763
 6050TIP3    H218157   3.448   3.844   3.141  0.8216 -0.5065 -0.0635
 6051TIP3   OH218158   4.564   0.537   0.617  0.2105  0.3820 -0.0015
 6051TIP3    H118159   4.528   0.596   0.683 -0.6217  1.0380 -1.0149
 6051TIP3    H218160   4.659   0.551   0.622  0.0294  1.9478 -0.3257
 6052TIP3   OH218161   3.405   1.317   3.078  0.1051 -0.2942  0.6459
 6052TIP3    H118162   3.480   1.374   3.095 -0.5341  1.2268 -1.2820
 6052TIP3    H218163   3.410   1.250   3.146  2.2694  0.6864  1.5434
 6053TIP3   OH218164   0.178   3.284   5.021 -0.4469 -0.5459 -0.0612
 6053TIP3    H118165   0.179   3.341   4.944  2.7062 -0.2145  0.1088
 6053TIP3    H218166   0.171   3.196   4.985 -0.2534 -0.3267 -0.6516
 6054TIP3   OH218167   0.451   1.989   2.056  0.0240 -0.0697 -0.1296
 6054TIP3    H118168   0.389   1.963   1.988  0.7504  0.0268 -0.8367
 6054TIP3    H218169   0.468   1.909   2.105 -0.7459 -0.0716  0.1593
 6055TIP3   OH218170   2.999   5.846   4.433  0.2409 -1.0218 -0.0287
 6055TIP3    H118171   3.090   5.825   4.414 -0.0683 -1.7976 -0.7518
 6055TIP3    H218172   2.956   5.760   4.441 -0.2884 -0.6726  1.0175
 6056TIP3   OH218173   0.240   1.895   1.943  0.5197  0.0256 -0.4689
 6056TIP3    H118174   0.219   1.840   1.868  0.8608  1.2708 -1.5165
 6056TIP3    H218175   0.168   1.881   2.004 -0.4139 -0.0760 -1.5608
 6057TIP3   OH218176   3.234   5.542   2.144 -0.3250 -0.3863 -0.1959
 6057TIP3    H118177   3.270   5.622   2.183 -1.0048  0.7063 -1.6943
 6057TIP3    H218178   3.276   5.537   2.058  0.6315 -2.3470  0.3326
 6058TIP3   OH218179   1.178   3.587   2.420 -0.0781  0.4896 -0.1603
 6058TIP3    H118180   1.116   3.661   2.424 -0.3095  0.2753  0.4020
 6058TIP3    H218181   1.195   3.566   2.512  1.3961  1.0039 -0.3030
 6059TIP3   OH218182   1.096   3.149   2.826 -0.0707 -1.2719 -0.4538
 6059TIP3    H118183   1.130   3.089   2.759  0.9151 -2.0338  0.6839
 6059TIP3    H218184   1.175   3.185   2.867 -0.5770  2.1204 -2.1696
 6060TIP3   OH218185   5.001   3.796   4.098 -0.4455 -0.2502 -0.1556
 6060TIP3    H118186   4.926   3.769   4.151 -1.5838  0.1198 -1.5100
 6060TIP3    H218187   4.964   3.810   4.010  1.1478  0.2983 -0.7693
 6061TIP3   OH218188   0.793   4.786   0.091 -0.0927 -0.0828  0.5134
 6061TIP3    H118189   0.731   4.775   0.018 -0.4365  0.2826  0.7465
 6061TIP3    H218190   0.873   4.817   0.049  0.0422 -0.8803  0.1716
 6062TIP3   OH218191   1.609   0.331   4.535  0.5221  0.1393  0.1465
 6062TIP3    H118192   1.629   0.254   4.589  0.0736  0.4846  0.8134
 6062TIP3    H218193   1.695   0.371   4.518  0.5958  0.5536  1.3994
 6063TIP3   OH218194   6.136   3.845   2.598  0.4783 -0.1295 -0.4582
 6063TIP3    H118195   6.065   3.868   2.537 -0.8179 -0.0832  1.0051
 6063TIP3    H218196   6.212   3.830   2.542 -1.1212 -1.9888 -2.2672
 6064TIP3   OH218197   3.575   0.147   0.187 -0.2591 -0.0727 -0.5122
 6064TIP3    H118198   3.560   0.080   0.120 -0.6318 -1.4131  0.8445
 6064TIP3    H218199   3.500   0.139   0.246  0.2999  0.7251  0.3377
 6065TIP3   OH218200   3.875   5.091   4.494  0.2698  0.0015  0.1335
 6065TIP3    H118201   3.959   5.136   4.506  0.3234 -0.0759  0.0475
 6065TIP3    H218202   3.825   5.113   4.572  0.0909  0.6554 -0.1589
 6066TIP3   OH218203   0.413   0.367   3.118 -0.0482 -0.2658 -0.6058
 6066TIP3    H118204   0.468   0.425   3.169 -0.2934 -0.1868 -0.4305
 6066TIP3    H218205   0.455   0.363   3.031 -0.8942  1.4263 -1.1247
 6067TIP3   OH218206   3.672   1.023   0.478 -0.3098  0.7696  0.2703
 6067TIP3    H118207   3.724   1.100   0.500 -0.4879  1.2417 -0.9098
 6067TIP3    H218208   3.735   0.951   0.480  0.2378  1.2171 -0.3491
 6068TIP3   OH218209   1.805   1.298   4.895 -0.4416  0.5388  0.3804
 6068TIP3    H118210   1.767   1.332   4.814 -1.0041  0.9323  0.7925
 6068TIP3    H218211   1.886   1.347   4.907  1.5016 -1.9105 -1.7170
 6069TIP3   OH218212   2.221   2.437   4.966 -0.0645 -0.0688 -0.2837
 6069TIP3    H118213   2.276   2.510   4.994  1.0742 -0.7452 -0.6696
 6069TIP3    H218214   2.156   2.428   5.035  0.3182  0.7437  0.2050
 6070TIP3   OH218215   4.695   1.704   4.044 -0.1349  0.2742  0.2639
 6070TIP3    H118216   4.731   1.747   3.966 -0.7387  1.0097  0.3832
 6070TIP3    H218217   4.742   1.745   4.117 -1.9768  2.0931  0.5055
 6071TIP3   OH218218   0.655   1.164   0.467 -0.0778  0.2130 -0.6340
 6071TIP3    H118219   0.644   1.216   0.388 -1.6885  0.5425 -0.2225
 6071TIP3    H218220   0.604   1.209   0.534  1.5921  0.1869  0.7442
 6072TIP3   OH218221   3.043   0.299   3.372  0.0847  0.8384  0.8351
 6072TIP3    H118222   2.979   0.370   3.373 -2.1212 -1.0212  0.3061
 6072TIP3    H218223   3.050   0.274   3.280  0.4004 -0.0011  1.0759
 6073TIP3   OH218224   1.821   3.173   0.635 -0.2447 -0.2270  0.8674
 6073TIP3    H118225   1.741   3.125   0.613 -0.4872 -0.6145  2.4610
 6073TIP3    H218226   1.891   3.107   0.630 -0.2037 -0.1659  0.6351
 6074TIP3   OH218227   4.759   3.968   2.544 -0.0080  0.1883  0.3927
 6074TIP3    H118228   4.854   3.963   2.556  0.5546  3.0152 -1.7645
 6074TIP3    H218229   4.743   3.934   2.456 -0.8340  0.5931  0.3663
 6075TIP3   OH218230   6.094   5.022   5.147  0.6160  0.5617 -0.5729
 6075TIP3    H118231   6.071   4.940   5.191  1.1377  0.3217 -0.7396
 6075TIP3    H218232   6.189   5.021   5.142  0.7977  2.1771  1.3344
 6076TIP3   OH218233   3.875   2.931   1.033  0.2649  0.2920  0.7430
 6076TIP3    H118234   3.858   2.888   1.116  2.2598 -0.4497  0.8299
 6076TIP3    H218235   3.917   2.863   0.979 -0.1289  1.0227 -0.5324
 6077TIP3   OH218236   4.041   2.365   2.617 -0.1436 -0.1512  0.4380
 6077TIP3    H118237   4.073   2.393   2.703  0.1744 -1.1050  0.6428
 6077TIP3    H218238   3.964   2.312   2.636  0.2011 -0.7601  0.1762
 6078TIP3   OH218239   3.532   0.735   3.017  0.0163 -0.5290  0.4523
 6078TIP3    H118240   3.511   0.824   2.991  0.4382 -0.6867 -0.4643
 6078TIP3    H218241   3.625   0.724   2.994  0.4073 -0.7149  1.9636
 6079TIP3   OH218242   2.317   2.485   1.054 -0.1620  0.2362  0.4378
 6079TIP3    H118243   2.222   2.497   1.054 -0.2100 -0.0995 -0.1183
 6079TIP3    H218244   2.342   2.488   1.146 -0.7146  0.3068  0.5888
 6080TIP3   OH218245   1.774   2.438   0.423 -0.7281 -0.5938  0.4431
 6080TIP3    H118246   1.678   2.441   0.417 -0.8717 -0.3998  2.2782
 6080TIP3    H218247   1.804   2.495   0.352 -1.9737 -0.3764  0.0567
 6081TIP3   OH218248   2.936   3.431   2.379 -0.0378  0.3625  0.0089
 6081TIP3    H118249   3.007   3.367   2.372  1.0565  1.6231 -1.1002
 6081TIP3    H218250   2.883   3.401   2.453  2.6144  0.2528  2.0092
 6082TIP3   OH218251   5.684   3.907   4.830 -0.2878  0.2664  0.1975
 6082TIP3    H118252   5.622   3.851   4.783 -0.0275 -1.0977  1.4017
 6082TIP3    H218253   5.658   3.996   4.808 -2.9410 -0.2469  0.9733
 6083TIP3   OH218254   6.038   1.498   2.485  0.5237 -0.2699 -0.0877
 6083TIP3    H118255   6.044   1.478   2.578 -0.1309 -1.2117 -0.2376
 6083TIP3    H218256   6.039   1.413   2.442 -0.7103  0.0703 -0.8415
 6084TIP3   OH218257   3.925   0.671   4.056  0.1836  0.3203 -0.0429
 6084TIP3    H118258   3.967   0.722   3.986 -0.9921  0.5004 -0.6440
 6084TIP3    H218259   3.881   0.737   4.109  2.1196  0.3276  1.6761
 6085TIP3   OH218260   3.449   5.301   3.997  0.5315  0.3878 -0.2040
 6085TIP3    H118261   3.508   5.225   3.991 -0.6531 -0.5751 -0.0920
 6085TIP3    H218262   3.504   5.376   3.974  1.5558 -0.5821 -1.0458
 6086TIP3   OH218263   3.785   3.125   0.134 -0.4301  0.0632 -0.1615
 6086TIP3    H118264   3.713   3.075   0.172 -1.9241  0.3858 -2.4237
 6086TIP3    H218265   3.864   3.085   0.172 -1.7021 -1.4850  0.9959
 6087TIP3   OH218266   4.322   2.085   4.945 -0.1901  0.1764  0.5531
 6087TIP3    H118267   4.383   2.109   4.875  0.2521 -2.4416 -0.0495
 6087TIP3    H218268   4.240   2.066   4.901 -0.0000 -1.1784  0.7413
 6088TIP3   OH218269   2.719   3.704   1.035  0.2435  0.2844  0.5062
 6088TIP3    H118270   2.642   3.675   1.085 -0.3388  0.6340 -0.1673
 6088TIP3    H218271   2.684   3.769   0.974  1.1096  0.5619  0.2971
 6089TIP3   OH218272   0.859   0.430   1.241 -0.2119  0.0359  0.2684
 6089TIP3    H118273   0.867   0.522   1.263  1.0466 -0.2081  0.9141
 6089TIP3    H218274   0.768   0.408   1.260 -0.3366  0.9753  0.7692
 6090TIP3   OH218275   4.263   1.066   0.311  0.1772 -0.2123 -0.3135
 6090TIP3    H118276   4.315   1.124   0.257 -0.7083  0.6246 -0.2922
 6090TIP3    H218277   4.245   1.116   0.391  0.6457 -1.0669  0.3483
 6091TIP3   OH218278   4.783   1.988   2.111  0.2982 -0.0047  0.6226
 6091TIP3    H118279   4.851   2.004   2.176  1.0097 -0.5606  0.0328
 6091TIP3    H218280   4.778   2.068   2.059  1.7331 -0.5365 -0.4142
 6092TIP3   OH218281   4.317   0.141   2.280  0.2827 -0.5233 -0.0650
 6092TIP3    H118282   4.291   0.143   2.188  0.7114 -2.0588 -0.2500
 6092TIP3    H218283   4.239   0.168   2.328 -0.9500 -2.6585 -0.7288
 6093TIP3   OH218284   4.436   5.132   4.853  0.5109 -0.4323 -0.0429
 6093TIP3    H118285   4.457   5.163   4.765  1.5502 -1.0853 -0.0369
 6093TIP3    H218286   4.438   5.211   4.907 -2.9297  0.4875 -1.0081
 6094TIP3   OH218287   4.782   4.673   2.015 -0.3473 -0.0349 -0.6003
 6094TIP3    H118288   4.699   4.711   2.045  0.6094  2.1109 -0.5079
 6094TIP3    H218289   4.831   4.747   1.980  1.1294 -1.4388 -1.6391
 6095TIP3   OH218290   0.242   1.704   3.328  0.1027 -0.2198 -0.2842
 6095TIP3    H118291   0.273   1.750   3.406 -1.0569  0.1495 -0.0186
 6095TIP3    H218292   0.248   1.611   3.351 -0.5131 -0.1067  0.3695
 6096TIP3   OH218293   2.042   5.317   5.049  0.0069 -0.3365 -0.1329
 6096TIP3    H118294   1.988   5.396   5.052 -0.5105 -0.6381 -1.1339
 6096TIP3    H218295   2.127   5.347   5.017  0.4121  0.1157  1.3077
 6097TIP3   OH218296   0.991   3.526   3.849 -1.0113  0.0959  0.5352
 6097TIP3    H118297   1.067   3.475   3.878 -1.7181 -1.4423 -0.2105
 6097TIP3    H218298   0.973   3.586   3.922  0.7594  0.3468  0.8121
 6098TIP3   OH218299   5.917   5.534   2.759 -0.7220 -0.3928 -0.1099
 6098TIP3    H118300   5.833   5.558   2.721  0.4623 -0.2421 -2.8524
 6098TIP3    H218301   5.974   5.609   2.742  1.0367 -2.0566 -2.0798
 6099TIP3   OH218302   1.927   1.274   3.055  0.2885 -0.3214  0.0388
 6099TIP3    H118303   1.960   1.348   3.004  0.4921 -0.5183 -0.1167
 6099TIP3    H218304   1.838   1.300   3.080  0.0661 -0.3579 -0.6926
 6100TIP3   OH218305   3.246   2.392   5.007  0.2356 -0.1062 -0.4434
 6100TIP3    H118306   3.276   2.338   4.934 -0.5423 -3.8900  1.7198
 6100TIP3    H218307   3.280   2.348   5.085 -0.2801  2.7949  1.5948
 6101TIP3   OH218308   0.781   2.607   2.044 -0.3680  0.3317 -0.4386
 6101TIP3    H118309   0.803   2.699   2.056  1.4755  0.2265 -2.4309
 6101TIP3    H218310   0.803   2.566   2.128  2.2060  1.1735 -0.6101
 6102TIP3   OH218311   1.897   2.520   2.883  0.3193 -0.0359  0.3813
 6102TIP3    H118312   1.869   2.611   2.885 -1.2804 -0.4056 -1.7407
 6102TIP3    H218313   1.948   2.512   2.802 -2.8658 -1.7725 -1.6684
 6103TIP3   OH218314   1.603   4.198   5.087  0.1008  0.1213 -0.1283
 6103TIP3    H118315   1.655   4.221   5.010  0.8263  1.1719  0.6546
 6103TIP3    H218316   1.647   4.121   5.123 -1.1802 -1.4007 -1.6325
 6104TIP3   OH218317   5.878   4.884   1.829  0.1551 -0.1348 -0.0655
 6104TIP3    H118318   5.859   4.790   1.834  0.6734 -0.2296  0.1968
 6104TIP3    H218319   5.904   4.898   1.738 -1.4213  0.0550 -0.5148
 6105TIP3   OH218320   3.806   5.624   4.986  0.3712 -0.1863 -0.4329
 6105TIP3    H118321   3.868   5.691   5.014  0.6882 -0.4141 -0.5728
 6105TIP3    H218322   3.861   5.548   4.967 -0.0276 -0.6402  0.1873
 6106TIP3   OH218323   3.418   3.655   2.176  0.2507  0.0168 -0.0938
 6106TIP3    H118324   3.459   3.617   2.099  0.8110  0.8623 -0.2346
 6106TIP3    H218325   3.343   3.598   2.195  0.0913 -0.1969 -1.2694
 6107TIP3   OH218326   3.465   0.652   0.322 -0.7366 -0.2041 -0.7311
 6107TIP3    H118327   3.378   0.667   0.358 -0.4762 -0.5131  0.0637
 6107TIP3    H218328   3.450   0.625   0.232 -1.4080  0.6973 -0.8986
 6108TIP3   OH218329   2.588   5.711   4.056 -0.3805  0.1299 -0.1259
 6108TIP3    H118330   2.610   5.619   4.072 -1.1070 -0.0486 -0.1593
 6108TIP3    H218331   2.660   5.759   4.098  0.6199 -0.4649 -1.1008
 6109TIP3   OH218332   4.140   0.379   0.014 -0.0909 -0.1039 -0.0115
 6109TIP3    H118333   4.092   0.312  -0.034  0.2965 -1.0448  0.9004
 6109TIP3    H218334   4.077   0.416   0.075 -0.5020  0.8925 -0.9921
 6110TIP3   OH218335   0.256   3.361   4.748 -0.4092 -0.3907  0.2582
 6110TIP3    H118336   0.266   3.266   4.757 -1.1759 -0.8650 -2.8056
 6110TIP3    H218337   0.174   3.372   4.699 -0.1569  1.8464  0.2268
 6111TIP3   OH218338   0.623   2.951   2.336  0.5124 -0.1433 -0.6925
 6111TIP3    H118339   0.644   3.013   2.267  2.3341 -1.1300 -1.0960
 6111TIP3    H218340   0.675   2.980   2.411  2.7386 -2.0198 -1.3826
 6112TIP3   OH218341   4.649   3.459   2.864 -0.2850  0.3629 -0.1446
 6112TIP3    H118342   4.589   3.403   2.815  1.6629 -0.2448 -1.9804
 6112TIP3    H218343   4.651   3.541   2.815 -0.4421  0.7724  0.5282
 6113TIP3   OH218344   3.113   2.946   1.960  0.1372  0.9170 -0.2025
 6113TIP3    H118345   3.154   3.029   1.984  1.4509 -0.0802  1.1384
 6113TIP3    H218346   3.143   2.929   1.871 -0.0666  1.8087 -0.4534
 6114TIP3   OH218347   0.700   3.382   0.619  0.7813 -0.4328  0.5627
 6114TIP3    H118348   0.721   3.421   0.534  3.8513  1.0199  1.8393
 6114TIP3    H218349   0.754   3.304   0.624  0.7627 -0.4088  1.2332
 6115TIP3   OH218350   6.041   1.541   3.325  0.0275 -0.0577 -0.3879
 6115TIP3    H118351   5.973   1.529   3.259  0.8664  1.4835 -1.5945
 6115TIP3    H218352   6.123   1.535   3.276  0.7744 -1.2894  0.9394
 6116TIP3   OH218353   3.677   4.456   4.377  0.1978  0.4366  0.1103
 6116TIP3    H118354   3.733   4.433   4.452  3.2508  2.1760 -1.4366
 6116TIP3    H218355   3.629   4.533   4.406  1.3837  1.1194  0.3322
 6117TIP3   OH218356   0.933   1.095   3.961 -0.1592  0.0093  0.0304
 6117TIP3    H118357   1.010   1.134   3.919  0.1912  1.1818  1.6768
 6117TIP3    H218358   0.934   1.129   4.050 -1.2412 -1.8737  0.8215
 6118TIP3   OH218359   0.976   0.648   3.725  0.0797 -0.2559 -0.6340
 6118TIP3    H118360   0.965   0.646   3.629  1.7043 -0.4914 -0.8431
 6118TIP3    H218361   1.039   0.578   3.743 -0.8055 -0.7299  0.7110
 6119TIP3   OH218362   0.248   4.961   2.372  0.3545  0.1032 -0.2963
 6119TIP3    H118363   0.157   4.934   2.381 -0.1345  1.0239 -1.9624
 6119TIP3    H218364   0.290   4.932   2.453 -1.1902 -1.1977  0.0978
 6120TIP3   OH218365   3.855   1.777   3.070 -0.2420 -0.2696  0.5229
 6120TIP3    H118366   3.789   1.802   3.135  2.1641  0.8668  2.6862
 6120TIP3    H218367   3.881   1.860   3.030 -0.4422 -0.7709 -0.6959
 6121TIP3   OH218368   2.819   3.395   4.439  0.2010  0.8481 -0.6459
 6121TIP3    H118369   2.781   3.309   4.459 -0.8272  1.1602 -1.2009
 6121TIP3    H218370   2.792   3.413   4.349  0.7651  1.5733 -0.6827
 6122TIP3   OH218371   4.923   2.922   1.184 -0.0839 -0.9631  0.0170
 6122TIP3    H118372   4.987   2.920   1.113 -0.5785 -0.5948 -0.4474
 6122TIP3    H218373   4.923   3.013   1.214 -1.3354 -0.6448 -0.8765
 6123TIP3   OH218374   4.248   2.785   1.504  0.4085 -0.0971  0.7774
 6123TIP3    H118375   4.217   2.827   1.584  1.6584  0.6344  0.9030
 6123TIP3    H218376   4.342   2.802   1.503  0.9519 -2.6339  0.6765
 6124TIP3   OH218377   2.952   0.247   1.499 -0.9020  0.3994 -0.0965
 6124TIP3    H118378   3.042   0.219   1.510 -0.6959  0.7808 -0.7262
 6124TIP3    H218379   2.921   0.265   1.588  0.4689  2.7531 -0.0137
 6125TIP3   OH218380   0.875   4.585   4.388 -0.0356  0.0343 -0.1296
 6125TIP3    H118381   0.936   4.645   4.433  0.2388 -0.6073  0.3860
 6125TIP3    H218382   0.816   4.555   4.457 -0.3641 -0.0499 -0.4455
 6126TIP3   OH218383   3.400   1.914   1.132  0.2430 -0.2925  0.9886
 6126TIP3    H118384   3.393   1.825   1.166 -2.6533 -1.0287 -1.0943
 6126TIP3    H218385   3.335   1.918   1.062  0.7766  3.2700  0.4894
 6127TIP3   OH218386   1.373   0.666   1.738 -0.1538  0.6564 -0.1289
 6127TIP3    H118387   1.345   0.635   1.824 -1.4180  1.0611 -0.3669
 6127TIP3    H218388   1.444   0.728   1.757  0.7553 -0.5274  0.4894
 6128TIP3   OH218389   4.324   0.328   4.592  0.5444  0.1023  0.0096
 6128TIP3    H118390   4.260   0.387   4.630 -1.9865 -1.0107 -2.2538
 6128TIP3    H218391   4.348   0.367   4.508 -1.8695 -2.3091 -1.9674
 6129TIP3   OH218392   1.280   1.784   4.780 -0.4134  0.0419  0.4425
 6129TIP3    H118393   1.207   1.840   4.752 -0.6518 -0.2373  0.4983
 6129TIP3    H218394   1.252   1.747   4.864 -0.7623 -1.0604 -0.1287
 6130TIP3   OH218395   2.503   2.803   0.558 -0.2983 -0.2328  0.1293
 6130TIP3    H118396   2.443   2.734   0.532 -0.7469  0.1462  0.1306
 6130TIP3    H218397   2.483   2.819   0.650 -0.3849  0.0773  0.0595
 6131TIP3   OH218398   4.158   4.105   4.848 -0.4992 -0.1792 -0.5507
 6131TIP3    H118399   4.149   4.200   4.856  1.4885  0.0125 -0.0463
 6131TIP3    H218400   4.102   4.070   4.917  1.1053  0.7757  1.3371
 6132TIP3   OH218401   4.355   2.445   3.894  0.0774 -0.4492 -0.0852
 6132TIP3    H118402   4.280   2.495   3.861 -1.1266 -1.4075  1.0799
 6132TIP3    H218403   4.358   2.367   3.838 -2.3144 -2.3560  2.1720
 6133TIP3   OH218404   1.373   5.808   3.377 -0.0237 -0.0176  0.0768
 6133TIP3    H118405   1.373   5.897   3.412  1.5008 -0.1880  0.5774
 6133TIP3    H218406   1.457   5.800   3.331 -0.2626 -1.1024 -0.2084
 6134TIP3   OH218407   2.812   5.162   4.876  0.1609 -0.4273  0.2696
 6134TIP3    H118408   2.885   5.102   4.892  0.1376 -0.2725  0.9837
 6134TIP3    H218409   2.851   5.249   4.880  0.6105 -0.3541 -2.7884
 6135TIP3   OH218410   5.064   3.118   1.771 -0.2784  0.2539  0.0798
 6135TIP3    H118411   5.054   3.129   1.677 -0.1849 -0.3826 -0.0076
 6135TIP3    H218412   4.975   3.126   1.805 -0.2250  1.1854  0.0194
 6136TIP3   OH218413   1.930   5.264   0.285  0.3376  0.6735 -0.2371
 6136TIP3    H118414   1.873   5.197   0.247 -1.2585  1.4091  0.7282
 6136TIP3    H218415   1.892   5.347   0.256  0.8349  1.1914  0.5412
 6137TIP3   OH218416   4.754   0.111   0.797  0.5134 -0.1367 -0.4080
 6137TIP3    H118417   4.712   0.169   0.734 -0.3291  0.0428  0.3014
 6137TIP3    H218418   4.789   0.039   0.744  0.1156  0.1777 -1.1093
 6138TIP3   OH218419   0.734   4.347   4.493  0.3958 -0.1269 -0.4749
 6138TIP3    H118420   0.661   4.353   4.432 -0.3566 -1.6320  0.2067
 6138TIP3    H218421   0.798   4.291   4.449 -0.7939 -2.5093  0.6003
 6139TIP3   OH218422   6.000   2.642   4.840  0.1673  0.3289 -0.2726
 6139TIP3    H118423   5.955   2.558   4.849  0.6970  0.1648  1.0593
 6139TIP3    H218424   5.964   2.680   4.760 -0.5124 -0.8979 -0.5730
 6140TIP3   OH218425   3.225   3.828   3.666  0.2978 -0.0855 -0.0341
 6140TIP3    H118426   3.219   3.737   3.639 -0.7751  0.3058 -1.1695
 6140TIP3    H218427   3.138   3.864   3.650  1.3326  1.7633 -1.9626
 6141TIP3   OH218428   5.614   0.862   3.230  0.6464  0.0409  0.2789
 6141TIP3    H118429   5.628   0.821   3.316 -0.6868  0.4578  0.7123
 6141TIP3    H218430   5.625   0.956   3.247  0.9024  0.0869 -0.1312
 6142TIP3   OH218431   1.530   4.124   3.224  0.3464  0.2057 -0.0422
 6142TIP3    H118432   1.511   4.207   3.268 -0.5163  0.7475 -1.4005
 6142TIP3    H218433   1.621   4.105   3.248  0.3282  1.1676  0.8671
 6143TIP3   OH218434   2.784   4.450   0.360  0.5197 -0.0495 -0.2325
 6143TIP3    H118435   2.815   4.403   0.438  1.3002 -0.3196 -0.6973
 6143TIP3    H218436   2.855   4.510   0.338  0.7753 -0.7229 -1.3497
 6144TIP3   OH218437   5.697   4.757   4.544 -0.3615  1.1164  0.1452
 6144TIP3    H118438   5.636   4.763   4.618 -1.3726 -0.4610 -0.4838
 6144TIP3    H218439   5.777   4.722   4.582 -0.6889  0.8290  0.5944
 6145TIP3   OH218440   6.091   3.390   1.416 -0.3992  0.4895 -0.0617
 6145TIP3    H118441   6.164   3.410   1.475  0.8868 -1.0506 -1.0214
 6145TIP3    H218442   6.059   3.475   1.387  1.8862  1.2457 -0.5789
 6146TIP3   OH218443   2.839   5.691   0.166  0.4588  0.0528 -0.2932
 6146TIP3    H118444   2.910   5.647   0.120  2.3613  1.3555  1.1831
 6146TIP3    H218445   2.843   5.782   0.135 -0.5515  0.1461 -0.1763
 6147TIP3   OH218446   2.690   2.199   2.179  0.0719 -0.0516 -0.0327
 6147TIP3    H118447   2.660   2.123   2.229 -0.3808 -0.3377 -0.7074
 6147TIP3    H218448   2.609   2.246   2.157  0.2041 -0.1936 -0.8797
 6148TIP3   OH218449   2.992   5.959   1.000  0.3398  0.0028  0.5161
 6148TIP3    H118450   2.942   6.038   0.979  1.4521  0.2171 -1.5886
 6148TIP3    H218451   2.973   5.943   1.092 -4.0533 -0.3220 -0.2335
 6149TIP3   OH218452   5.700   5.792   4.008 -0.0820 -0.5656 -0.2098
 6149TIP3    H118453   5.785   5.764   3.974  0.4240 -0.6953  1.1038
 6149TIP3    H218454   5.717   5.815   4.099 -1.3466 -0.0291 -0.0863
 6150TIP3   OH218455   3.521   3.780   1.599  0.2374  0.2619  0.0545
 6150TIP3    H118456   3.452   3.832   1.557  2.0769  1.6680 -1.4160
 6150TIP3    H218457   3.596   3.789   1.541  1.3506 -2.2023  0.9815
 6151TIP3   OH218458   2.071   0.309   0.623 -0.3609 -0.3153  0.0726
 6151TIP3    H118459   1.975   0.304   0.625 -0.4780  1.2728  0.2493
 6151TIP3    H218460   2.097   0.314   0.715 -0.0756 -1.1197  0.0376
 6152TIP3   OH218461   5.055   1.308   1.251  0.7701 -0.8721  0.7780
 6152TIP3    H118462   5.033   1.382   1.306 -0.0997 -1.2355  0.9265
 6152TIP3    H218463   4.983   1.302   1.188  1.7131 -0.4915 -0.3857
 6153TIP3   OH218464   3.060   5.803   1.286  0.5612 -0.0748 -0.5780
 6153TIP3    H118465   3.053   5.865   1.358  0.3642 -0.6783 -0.0665
 6153TIP3    H218466   3.053   5.717   1.328  0.5591 -0.4354 -1.3035
 6154TIP3   OH218467   2.780   3.633   5.086 -0.7109 -0.1111  0.5687
 6154TIP3    H118468   2.845   3.641   5.016 -1.3114 -0.4156 -0.0454
 6154TIP3    H218469   2.829   3.602   5.162  0.0391  0.7076  0.4288
 6155TIP3   OH218470   1.839   0.508   3.833 -0.0775  0.6450  0.1525
 6155TIP3    H118471   1.863   0.600   3.821 -0.2736  0.5535 -1.0028
 6155TIP3    H218472   1.922   0.461   3.836 -0.0249  0.6058 -1.4780
 6156TIP3   OH218473   6.219   3.477   2.214 -0.2669  0.0923 -0.4323
 6156TIP3    H118474   6.303   3.499   2.175  0.5028 -1.2725  0.3897
 6156TIP3    H218475   6.164   3.450   2.141 -0.0495  1.1047 -0.9854
 6157TIP3   OH218476   4.031   3.535   2.861 -0.1631  0.0130 -0.2098
 6157TIP3    H118477   4.077   3.459   2.897 -0.4791 -0.5087 -0.8835
 6157TIP3    H218478   4.020   3.514   2.768 -0.6875  0.6680 -0.2984
 6158TIP3   OH218479   3.940   3.195   3.263 -0.4497 -0.5100  0.2729
 6158TIP3    H118480   4.030   3.223   3.275  0.0020 -1.7704 -0.0655
 6158TIP3    H218481   3.903   3.191   3.351  0.2024 -1.1858  0.5243
 6159TIP3   OH218482   2.220   3.481   0.746  0.2006 -1.1646 -0.1192
 6159TIP3    H118483   2.288   3.448   0.688 -1.6366 -1.1168 -2.4546
 6159TIP3    H218484   2.242   3.445   0.832  2.0894 -2.7171 -1.1783
 6160TIP3   OH218485   6.336   2.672   4.068  0.2485 -0.3328  0.4101
 6160TIP3    H118486   6.356   2.628   3.985  2.1080 -0.1891  0.7405
 6160TIP3    H218487   6.373   2.760   4.058  0.1350 -0.1800  1.2505
 6161TIP3   OH218488   5.958   0.660   3.187 -0.3370 -0.2699 -0.5915
 6161TIP3    H118489   5.950   0.677   3.093  0.5923 -1.4395 -0.9056
 6161TIP3    H218490   5.903   0.584   3.203  1.8408 -1.9862 -0.8252
 6162TIP3   OH218491   3.915   0.274   5.177 -0.6410 -0.3219 -0.3881
 6162TIP3    H118492   3.887   0.186   5.152  1.3611 -0.5409 -2.2068
 6162TIP3    H218493   3.988   0.260   5.237 -0.1293  0.0719 -0.9050
 6163TIP3   OH218494   2.712   0.697   4.786  0.1908  0.5628 -0.0430
 6163TIP3    H118495   2.765   0.681   4.864 -1.1001  1.7926  1.1463
 6163TIP3    H218496   2.765   0.664   4.714  1.8185  0.2079  1.2502
 6164TIP3   OH218497   4.696   4.665   3.713  0.2013 -0.0233 -0.1998
 6164TIP3    H118498   4.616   4.706   3.745 -0.0688 -0.4878 -0.2647
 6164TIP3    H218499   4.684   4.572   3.733  1.0692  0.0001  0.5172
 6165TIP3   OH218500   4.112   0.191   3.068 -0.1552 -0.0248  0.6886
 6165TIP3    H118501   4.069   0.224   3.147 -2.4331  0.9071 -0.8234
 6165TIP3    H218502   4.062   0.112   3.045  1.5873 -1.2963  1.0640
 6166TIP3   OH218503   2.756   3.619   1.345  0.0803 -0.0591  0.4378
 6166TIP3    H118504   2.795   3.696   1.302  0.3297 -0.8458 -0.8188
 6166TIP3    H218505   2.682   3.596   1.289  1.2223 -1.9289 -0.3799
 6167TIP3   OH218506   0.349   5.807   0.366  0.0773  0.1626  0.1666
 6167TIP3    H118507   0.271   5.822   0.312  0.1918  0.9833  0.2192
 6167TIP3    H218508   0.399   5.742   0.317 -0.9654 -0.9104  0.4797
 6168TIP3   OH218509   0.885  -0.030   0.839  0.2308 -0.0898  0.2520
 6168TIP3    H118510   0.921   0.008   0.919 -0.6874  1.0207  0.1644
 6168TIP3    H218511   0.878   0.044   0.778  2.9008 -1.2468 -1.6398
 6169TIP3   OH218512   4.978   5.557   0.247 -0.5233 -0.6763 -0.3136
 6169TIP3    H118513   4.952   5.591   0.333 -0.2190  0.7084 -0.7518
 6169TIP3    H218514   4.957   5.464   0.252  1.7249 -1.1703  2.1502
 6170TIP3   OH218515   0.906   3.846   2.813  0.1442 -0.2254  0.5557
 6170TIP3    H118516   0.857   3.890   2.744  0.8024 -0.3317  0.0198
 6170TIP3    H218517   0.853   3.859   2.892 -0.6720 -0.2031  0.0144
 6171TIP3   OH218518   1.193   2.352   2.146  0.0512 -0.2067  0.2050
 6171TIP3    H118519   1.208   2.427   2.089  0.8361 -0.6336 -0.1706
 6171TIP3    H218520   1.102   2.327   2.129 -0.2079  0.6361  0.3163
 6172TIP3   OH218521   5.553   3.315   3.815 -0.1079 -0.0776 -0.5195
 6172TIP3    H118522   5.513   3.383   3.761 -0.7631 -0.0629 -0.0415
 6172TIP3    H218523   5.563   3.240   3.757  2.0340  0.8711 -1.4731
 6173TIP3   OH218524   3.770   0.571   4.580  0.2957 -0.0155 -0.1850
 6173TIP3    H118525   3.852   0.537   4.615  1.9769  1.9292 -1.9915
 6173TIP3    H218526   3.733   0.621   4.653  0.6057 -0.9991  0.6836
 6174TIP3   OH218527   1.919   3.969   0.582  0.1704 -0.0813  0.4301
 6174TIP3    H118528   1.898   3.907   0.512 -0.9882 -0.8748  1.4318
 6174TIP3    H218529   1.850   4.035   0.576  1.9971  1.7952 -1.3187
 6175TIP3   OH218530   4.574   5.521   2.916  0.0009  0.2250 -0.3340
 6175TIP3    H118531   4.635   5.538   2.988 -1.6244  0.2938  1.0666
 6175TIP3    H218532   4.561   5.426   2.918  0.8746  0.0677 -1.3384
 6176TIP3   OH218533   5.302   1.813   4.429 -0.1606 -0.8461  0.0712
 6176TIP3    H118534   5.333   1.902   4.412 -1.0895 -0.4410  0.4350
 6176TIP3    H218535   5.342   1.760   4.361 -2.5744  0.4640 -2.5883
 6177TIP3   OH218536   2.062   0.556   1.679 -0.1899  0.4155 -0.0337
 6177TIP3    H118537   2.132   0.566   1.743 -0.8798  0.2457  0.7585
 6177TIP3    H218538   1.998   0.499   1.721 -1.0170  0.9140 -0.5700
 6178TIP3   OH218539   1.474   4.794   3.551  0.4930 -0.0978 -0.7954
 6178TIP3    H118540   1.420   4.770   3.476 -0.9379  0.2033  0.1049
 6178TIP3    H218541   1.522   4.714   3.572 -4.4397 -2.7321  2.3884
 6179TIP3   OH218542   4.308   2.171   2.251 -0.2687  0.2232 -0.0670
 6179TIP3    H118543   4.268   2.084   2.249  0.4797 -0.1204 -0.1710
 6179TIP3    H218544   4.322   2.194   2.159 -0.5721  0.5128 -0.0462
 6180TIP3   OH218545   4.666   5.853   1.427  0.7694 -0.0861 -0.3287
 6180TIP3    H118546   4.659   5.935   1.476 -0.1768 -0.2628 -0.1299
 6180TIP3    H218547   4.577   5.816   1.431  1.3374 -1.4529  0.1676
 6181TIP3   OH218548   5.538   0.701   0.837 -0.2032 -0.1353  0.2916
 6181TIP3    H118549   5.574   0.752   0.764 -0.8825  1.3229  0.9358
 6181TIP3    H218550   5.570   0.612   0.822  0.7720  0.4048 -1.0429
 6182TIP3   OH218551   2.676   0.396   0.578  0.0607 -0.1371  0.3689
 6182TIP3    H118552   2.629   0.478   0.565  0.8023  0.5295  1.6970
 6182TIP3    H218553   2.747   0.398   0.514  0.4416  0.5529  0.8053
 6183TIP3   OH218554   1.753   3.167   0.131 -0.2065 -0.0685  0.7138
 6183TIP3    H118555   1.698   3.240   0.102  0.9828  0.7179  0.3951
 6183TIP3    H218556   1.715   3.143   0.216 -0.2885  1.2993  1.1031
 6184TIP3   OH218557   1.395   2.088   4.217  0.1713 -0.3113  0.1269
 6184TIP3    H118558   1.475   2.129   4.250 -0.3934  0.0121  1.1604
 6184TIP3    H218559   1.367   2.031   4.289 -0.6407 -0.2467 -0.1318
 6185TIP3   OH218560   4.137   3.323   2.684  0.2640  0.0102 -0.0955
 6185TIP3    H118561   4.144   3.305   2.591 -1.7183  1.5556 -0.5909
 6185TIP3    H218562   4.056   3.279   2.711  0.9166 -0.5949  0.9772
 6186TIP3   OH218563   2.490   1.500   4.345 -0.4927 -0.2053 -0.1759
 6186TIP3    H118564   2.478   1.466   4.256 -4.2111 -1.8378  0.7635
 6186TIP3    H218565   2.454   1.432   4.402 -0.4733  1.7946  2.4323
 6187TIP3   OH218566   5.513   4.385   4.359  0.9828 -0.2806  0.1614
 6187TIP3    H118567   5.466   4.403   4.440  0.2388  0.7737 -0.4779
 6187TIP3    H218568   5.500   4.292   4.343 -0.0180 -0.2115  0.5324
 6188TIP3   OH218569   2.900   2.210   4.116  0.3722  0.2067 -0.2386
 6188TIP3    H118570   2.881   2.187   4.207  0.1536 -0.6834 -0.4966
 6188TIP3    H218571   2.856   2.294   4.103  0.0024  0.1139  0.3444
 6189TIP3   OH218572   4.236   0.134   0.163  0.6302  0.3199  0.2739
 6189TIP3    H118573   4.331   0.129   0.154  0.5976 -1.0868  0.4310
 6189TIP3    H218574   4.211   0.207   0.108  1.7668  0.4244 -0.1397
 6190TIP3   OH218575   1.437   1.309   1.710  0.1604 -0.4621 -0.0167
 6190TIP3    H118576   1.531   1.298   1.698  0.2423  0.8331 -0.7491
 6190TIP3    H218577   1.428   1.346   1.797  0.6978  2.9094 -1.2227
 6191TIP3   OH218578   1.498   4.492   1.988  0.1358  0.2010  0.1221
 6191TIP3    H118579   1.531   4.580   2.007  1.6027 -0.2573 -0.2022
 6191TIP3    H218580   1.576   4.438   1.980 -0.6544 -0.7743 -1.4894
 6192TIP3   OH218581   4.528   1.947   4.289  0.5564  0.7211 -0.2709
 6192TIP3    H118582   4.434   1.963   4.291  0.3736 -0.3420  2.2497
 6192TIP3    H218583   4.566   2.032   4.266 -0.8897  1.9864  1.7784
 6193TIP3   OH218584   4.363   5.831   1.979  0.3761  0.6294 -0.0043
 6193TIP3    H118585   4.456   5.849   1.966  0.1212  1.3356 -0.9066
 6193TIP3    H218586   4.354   5.828   2.075  1.1749  1.4102  0.1210
 6194TIP3   OH218587   6.352   1.485   1.112  0.2689  0.4612  0.2978
 6194TIP3    H118588   6.267   1.459   1.148  1.0655 -1.0090  1.1975
 6194TIP3    H218589   6.370   1.420   1.044  0.7074  0.7384  0.1427
 6195TIP3   OH218590   2.555   0.247   2.128 -0.1597  0.5988 -0.2564
 6195TIP3    H118591   2.570   0.217   2.218 -0.0969  2.1723  0.3056
 6195TIP3    H218592   2.460   0.259   2.122 -0.1675  0.4598 -0.4029
 6196TIP3   OH218593   2.691   1.360   4.043 -0.9364  0.5883  0.2659
 6196TIP3    H118594   2.735   1.431   3.997  1.6032 -1.4529 -0.6940
 6196TIP3    H218595   2.649   1.308   3.974 -0.4343 -0.3398  0.6365
 6197TIP3   OH218596   6.271   3.883   3.689  0.1819 -0.3895 -0.2231
 6197TIP3    H118597   6.247   3.898   3.598 -0.0943  2.9061  0.2971
 6197TIP3    H218598   6.230   3.954   3.738 -2.0985 -3.5594  2.9974
 6198TIP3   OH218599   4.281   0.715   1.695 -0.2817 -0.3679 -0.2254
 6198TIP3    H118600   4.208   0.708   1.633 -0.3143 -0.8031 -0.1416
 6198TIP3    H218601   4.357   0.686   1.646 -0.2259 -0.2567 -0.2047
 6199TIP3   OH218602   2.202   0.255   3.114 -0.3452 -0.0591 -0.4882
 6199TIP3    H118603   2.267   0.251   3.043 -0.5979  0.2544 -0.7419
 6199TIP3    H218604   2.193   0.349   3.133  0.0088 -0.1674  0.2307
 6200TIP3   OH218605   0.588   2.989   1.704 -0.1500  0.3470  0.3594
 6200TIP3    H118606   0.665   2.965   1.653 -1.1660 -0.4647 -0.8396
 6200TIP3    H218607   0.520   3.003   1.639 -1.0556  0.9321  1.4103
 6201TIP3   OH218608   0.560   2.479   3.349 -0.4303  0.0431 -0.0083
 6201TIP3    H118609   0.528   2.516   3.431  3.1215  2.7463  0.3728
 6201TIP3    H218610   0.487   2.489   3.288 -1.6071  2.4390  1.6333
 6202TIP3   OH218611   2.058   4.520   0.187  0.1098  0.3407 -0.3330
 6202TIP3    H118612   2.023   4.540   0.100  1.2661  1.8862 -0.4963
 6202TIP3    H218613   2.100   4.602   0.214 -3.3254  1.2061  3.2604
 6203TIP3   OH218614   2.016   1.731   0.934  0.2813 -0.1958  0.6848
 6203TIP3    H118615   1.992   1.777   0.854  0.9601  0.9165  1.0968
 6203TIP3    H218616   1.995   1.792   1.004  0.5548 -0.7879  1.2933
 6204TIP3   OH218617   2.511   0.835   2.912 -0.4387  0.0226 -0.3355
 6204TIP3    H118618   2.487   0.916   2.868 -0.3215  0.0550 -0.3398
 6204TIP3    H218619   2.427   0.793   2.932 -0.5300  0.5315  0.3953
 6205TIP3   OH218620   4.050   0.939   3.412  0.3759 -0.5100 -0.0460
 6205TIP3    H118621   3.966   0.958   3.369  0.6468  2.3576  0.4650
 6205TIP3    H218622   4.032   0.951   3.505  1.0369 -1.2505  0.1791
 6206TIP3   OH218623   2.820   3.364   3.009  0.2922  0.1853 -0.3483
 6206TIP3    H118624   2.860   3.451   3.013 -0.0985  0.3906 -0.8629
 6206TIP3    H218625   2.727   3.381   2.996  0.2831 -0.3182 -0.9775
 6207TIP3   OH218626   2.072   5.414   3.378 -0.8978  0.1315  0.2314
 6207TIP3    H118627   1.990   5.376   3.409 -2.1861  0.4520 -2.4776
 6207TIP3    H218628   2.139   5.376   3.435 -2.8278 -0.6424  2.1225
 6208TIP3   OH218629   1.989   0.558   2.896 -0.4074  0.5256 -0.1180
 6208TIP3    H118630   1.932   0.634   2.902  0.1642  1.0108 -0.6932
 6208TIP3    H218631   2.060   0.586   2.838  0.8558  0.2342  1.2263
 6209TIP3   OH218632   2.806   4.658   4.854  0.1189 -0.6538  0.2549
 6209TIP3    H118633   2.882   4.601   4.863  0.5748  0.2323  3.7610
 6209TIP3    H218634   2.839   4.734   4.806  1.9342  0.2637  2.7466
 6210TIP3   OH218635   6.142   4.789   0.377 -0.0697  0.2617 -0.0091
 6210TIP3    H118636   6.156   4.761   0.467  0.0638 -0.7825 -0.3318
 6210TIP3    H218637   6.201   4.734   0.325  0.8871  1.8062 -0.6296
 6211TIP3   OH218638   3.421   2.312   2.884 -0.1656  0.0479 -0.2661
 6211TIP3    H118639   3.345   2.268   2.845 -0.6255 -1.7721  2.4031
 6211TIP3    H218640   3.454   2.250   2.949  3.4783  0.9042 -1.0510
 6212TIP3   OH218641   4.516   5.429   3.741 -0.3574 -0.6020 -0.3891
 6212TIP3    H118642   4.486   5.517   3.716  0.3111 -0.3851 -0.4428
 6212TIP3    H218643   4.550   5.391   3.660 -0.2038 -0.7316 -0.2648
 6213TIP3   OH218644   1.618   3.135   0.387 -0.2348  0.0559  0.2818
 6213TIP3    H118645   1.588   3.075   0.455  1.6182 -0.0815  1.0317
 6213TIP3    H218646   1.635   3.217   0.433  1.6282 -0.2129  0.1581
 6214TIP3   OH218647   6.247   2.837   1.766  0.1368 -0.6727  0.1648
 6214TIP3    H118648   6.198   2.915   1.792  0.7213  0.1212 -1.0337
 6214TIP3    H218649   6.219   2.820   1.676 -0.4582 -2.2532  0.6119
 6215TIP3   OH218650   6.103   5.623   3.640  0.2703 -0.2273  0.4994
 6215TIP3    H118651   6.087   5.594   3.551  0.6250 -2.2242  1.0364
 6215TIP3    H218652   6.148   5.707   3.631 -1.7385  0.7468 -1.1265
 6216TIP3   OH218653   4.496   2.559   2.320 -0.3691  0.3666  0.3998
 6216TIP3    H118654   4.428   2.521   2.376 -1.7880  2.5221  0.2504
 6216TIP3    H218655   4.464   2.646   2.299  2.1123  1.1805 -0.3582
 6217TIP3   OH218656   6.270   2.200   1.446 -0.4081 -0.2440  0.0822
 6217TIP3    H118657   6.190   2.155   1.472 -0.9384  0.6212 -0.0078
 6217TIP3    H218658   6.325   2.132   1.407 -0.5690 -1.0992  1.3093
 6218TIP3   OH218659   0.610   1.025   4.977  0.4572 -0.2923 -0.2623
 6218TIP3    H118660   0.515   1.020   4.989  0.4401  0.4205 -0.0381
 6218TIP3    H218661   0.622   1.040   4.884  0.3532 -0.4110 -0.2951
 6219TIP3   OH218662   1.707   1.325   1.628  0.0086 -0.2243  0.3464
 6219TIP3    H118663   1.744   1.406   1.592  0.3537  0.7015  2.5799
 6219TIP3    H218664   1.673   1.279   1.552  1.0578  1.3540 -1.1894
 6220TIP3   OH218665   6.028   3.329   3.588 -0.3854  0.1187 -0.2492
 6220TIP3    H118666   5.959   3.376   3.542 -0.9802 -0.3466  0.1470
 6220TIP3    H218667   5.983   3.283   3.659  0.2888 -0.4340 -0.1623
 6221TIP3   OH218668   5.675   4.260   4.597 -0.2658  0.4884 -0.2534
 6221TIP3    H118669   5.608   4.315   4.556 -0.1799 -1.4968 -3.3984
 6221TIP3    H218670   5.724   4.223   4.524  1.9335 -1.0311  1.8194
 6222TIP3   OH218671   2.276   4.124   4.030  0.0062  0.5427 -0.2989
 6222TIP3    H118672   2.264   4.103   4.123  1.3905  2.3646  0.3589
 6222TIP3    H218673   2.368   4.150   4.023  0.4669 -1.3020 -2.5928
 6223TIP3   OH218674   1.869   2.383   3.111  0.3757  0.1510  0.4990
 6223TIP3    H118675   1.957   2.412   3.136 -0.0678  0.8742  1.2719
 6223TIP3    H218676   1.846   2.439   3.036  0.8540 -0.5524 -0.1938
 6224TIP3   OH218677   1.115   3.098   1.928  0.2750  0.0565 -0.2219
 6224TIP3    H118678   1.169   3.021   1.909  1.4164  1.3269 -2.5265
 6224TIP3    H218679   1.178   3.165   1.955 -0.6373  0.4002  1.1445
 6225TIP3   OH218680   0.998   1.925   4.354 -0.0290 -0.7216  0.5787
 6225TIP3    H118681   0.959   2.012   4.354  1.0904 -0.1356 -1.8718
 6225TIP3    H218682   0.952   1.878   4.284  0.4056 -1.6116  0.8716
 6226TIP3   OH218683   4.942   4.115   4.016 -0.4372 -0.4913  0.0765
 6226TIP3    H118684   4.988   4.139   3.936  0.3991 -1.3658  0.2827
 6226TIP3    H218685   4.998   4.150   4.086  0.3784 -2.2424  0.3559
 6227TIP3   OH218686   2.872   2.474   4.291 -0.2481  0.4627  0.6558
 6227TIP3    H118687   2.787   2.494   4.330 -0.7423 -1.3315  0.6090
 6227TIP3    H218688   2.861   2.494   4.198 -0.6351  0.2173  0.6468
 6228TIP3   OH218689   5.165   0.419   4.041  0.8017  0.0586  0.3365
 6228TIP3    H118690   5.194   0.329   4.054  0.6223 -0.2248 -1.1286
 6228TIP3    H218691   5.085   0.426   4.094  0.1383 -1.0208 -0.4817
 6229TIP3   OH218692   4.869   4.700   5.089  0.7121 -0.4391 -0.7030
 6229TIP3    H118693   4.859   4.780   5.140  1.2644 -0.6588 -0.2377
 6229TIP3    H218694   4.931   4.722   5.020 -0.3683 -0.0175 -1.5623
 6230TIP3   OH218695   6.173   2.876   1.472  0.0022 -0.0027 -0.3253
 6230TIP3    H118696   6.142   2.806   1.414  1.5682 -1.6099  0.6769
 6230TIP3    H218697   6.187   2.951   1.413 -4.2224  0.4576 -1.0456
 6231TIP3   OH218698   4.085   2.038   4.435 -0.1014  0.0110 -0.5135
 6231TIP3    H118699   3.992   2.051   4.419 -0.5651 -1.4998  0.6526
 6231TIP3    H218700   4.091   1.947   4.467  1.4055  0.8396  1.8525
 6232TIP3   OH218701   6.271   3.798   0.877  0.3538 -0.2666  0.2634
 6232TIP3    H118702   6.203   3.757   0.823 -0.5302  1.8248 -0.3262
 6232TIP3    H218703   6.303   3.727   0.932  0.6428 -2.3058 -2.3094
 6233TIP3   OH218704   5.611   5.465   1.315 -0.3396  0.1552  0.0787
 6233TIP3    H118705   5.615   5.495   1.224  1.5188 -2.0048 -0.6657
 6233TIP3    H218706   5.528   5.419   1.321 -0.1122 -0.4087 -0.8174
 6234TIP3   OH218707   5.189   5.011   1.756 -0.4896 -0.5109  0.4373
 6234TIP3    H118708   5.188   5.038   1.847 -0.6904 -0.2514  0.3598
 6234TIP3    H218709   5.254   4.941   1.752 -0.4882 -0.5294  0.7795
 6235TIP3   OH218710   4.226   4.722   3.406  0.0553  0.3880  0.2287
 6235TIP3    H118711   4.267   4.760   3.484 -0.3193  0.7603  0.2512
 6235TIP3    H218712   4.141   4.691   3.436  0.1869 -0.0909  0.1146
 6236TIP3   OH218713   1.050   3.750   4.916  0.5961  0.5846  0.1603
 6236TIP3    H118714   1.141   3.748   4.887  0.7778 -0.4446  0.7348
 6236TIP3    H218715   1.049   3.698   4.996 -0.6460 -0.1362 -0.2887
 6237TIP3   OH218716   4.609   1.272   5.013 -0.7604  0.5549  0.1644
 6237TIP3    H118717   4.611   1.188   4.967 -1.2470  0.6480 -0.0306
 6237TIP3    H218718   4.672   1.326   4.965 -1.4915  0.7481 -0.5990
 6238TIP3   OH218719   2.775   2.797   2.418  0.4543 -0.0043  0.1379
 6238TIP3    H118720   2.692   2.843   2.404 -0.1933 -1.1478  0.1396
 6238TIP3    H218721   2.827   2.858   2.470 -0.9304  0.1674  1.3992
 6239TIP3   OH218722   3.253   5.499   3.616  0.5811 -1.1283 -0.1851
 6239TIP3    H118723   3.326   5.455   3.573  1.8284  1.5538 -0.9754
 6239TIP3    H218724   3.188   5.512   3.547  0.2782 -1.5666  0.0121
 6240TIP3   OH218725   4.233   0.409   1.485 -0.0965  0.7098  0.7441
 6240TIP3    H118726   4.308   0.389   1.541 -0.6410  1.4496  1.7793
 6240TIP3    H218727   4.193   0.324   1.466  2.3042 -0.0098 -1.8181
 6241TIP3   OH218728   3.346   3.043   4.582  0.3999  0.2927  0.0903
 6241TIP3    H118729   3.343   2.950   4.557  1.2303  0.5228 -0.9342
 6241TIP3    H218730   3.439   3.061   4.594  0.1327  0.4609  2.4993
 6242TIP3   OH218731   4.664   4.374   3.100 -0.5911  0.1392  0.2123
 6242TIP3    H118732   4.603   4.448   3.102 -3.4445 -1.6438 -4.3127
 6242TIP3    H218733   4.629   4.313   3.165 -3.0025 -0.2422 -1.3041
 6243TIP3   OH218734   6.192   1.578   0.664 -0.2571  1.0666  0.3398
 6243TIP3    H118735   6.248   1.570   0.741  1.2933 -1.3551 -0.9156
 6243TIP3    H218736   6.243   1.632   0.603 -0.5025  1.1181  0.1790
 6244TIP3   OH218737   5.101   5.379   2.631 -0.8413 -0.0322 -0.4465
 6244TIP3    H118738   5.064   5.467   2.635 -1.3371 -0.2643  0.4897
 6244TIP3    H218739   5.167   5.378   2.701 -0.5702 -0.2847 -0.7035
 6245TIP3   OH218740   5.543   4.696   0.762  0.2069  0.3163 -0.5600
 6245TIP3    H118741   5.600   4.619   0.756 -0.0437  0.1066 -0.2801
 6245TIP3    H218742   5.603   4.770   0.767  0.4567  0.0881 -0.1096
 6246TIP3   OH218743   1.852   0.260   3.352 -0.3264 -0.2467 -0.5059
 6246TIP3    H118744   1.826   0.330   3.412  0.4965  1.4120 -2.0047
 6246TIP3    H218745   1.774   0.243   3.299 -0.7965 -1.1244  0.4366
 6247TIP3   OH218746   0.296   3.160   1.845  0.5571  0.6511 -0.3756
 6247TIP3    H118747   0.389   3.160   1.867  0.2856 -0.2525  0.9415
 6247TIP3    H218748   0.253   3.185   1.927 -0.4277 -0.7826 -0.4213
 6248TIP3   OH218749   4.223   0.400   4.845  0.3054 -0.3225  0.2040
 6248TIP3    H118750   4.229   0.457   4.921  1.3134  2.5205 -1.8123
 6248TIP3    H218751   4.251   0.314   4.876 -0.4832  0.4344  3.2416
 6249TIP3   OH218752   4.783   0.470   3.553  0.1596 -0.0871 -0.4238
 6249TIP3    H118753   4.779   0.506   3.465  1.0976 -0.0146 -0.4462
 6249TIP3    H218754   4.824   0.384   3.542  1.6644  0.5282  0.0938
 6250TIP3   OH218755   2.899   2.765   1.200 -1.0927 -0.0317 -0.1053
 6250TIP3    H118756   2.929   2.856   1.205 -1.0789 -0.0942  1.2830
 6250TIP3    H218757   2.879   2.751   1.108  1.8198  0.4590 -0.9219
 6251TIP3   OH218758   5.064   3.141   0.586  0.1795  0.2034 -0.0193
 6251TIP3    H118759   5.110   3.186   0.657  1.6097  1.0244 -1.3901
 6251TIP3    H218760   4.982   3.188   0.578  0.3040  0.5493  0.6378
 6252TIP3   OH218761   0.638   3.280   1.092  0.2711 -0.0223 -0.3852
 6252TIP3    H118762   0.681   3.318   1.169 -0.3571  0.4667 -0.2736
 6252TIP3    H218763   0.561   3.335   1.077 -0.1330 -0.6839 -0.7949
 6253TIP3   OH218764   3.923   4.246   1.490  0.4667 -0.4639 -0.2485
 6253TIP3    H118765   3.859   4.183   1.524 -0.3397 -0.4825 -1.7483
 6253TIP3    H218766   3.970   4.197   1.423  0.6424  0.1877 -0.6011
 6254TIP3   OH218767   2.496   2.571   4.741  0.5352 -0.2581  0.4901
 6254TIP3    H118768   2.475   2.583   4.834  0.9616 -0.8738  0.6780
 6254TIP3    H218769   2.497   2.476   4.730  0.3665 -0.1845 -0.1766
 6255TIP3   OH218770   1.408   1.746   2.058  0.1463  0.3680 -0.4855
 6255TIP3    H118771   1.456   1.826   2.041  2.8479 -1.3203 -1.3959
 6255TIP3    H218772   1.364   1.726   1.976 -0.1915  0.6956 -0.3848
 6256TIP3   OH218773   5.582   1.468   2.363  0.6043  0.2611 -0.6836
 6256TIP3    H118774   5.576   1.557   2.327  1.7569 -0.4916 -2.8501
 6256TIP3    H218775   5.511   1.465   2.427 -0.2677  2.3427 -1.4353
 6257TIP3   OH218776   2.070   1.093   5.097 -0.0386  0.0167  0.0923
 6257TIP3    H118777   2.057   1.020   5.158  0.7891 -0.3297 -0.1235
 6257TIP3    H218778   2.007   1.078   5.027 -0.1772 -0.2462  0.2707
 6258TIP3   OH218779   0.079   5.821   3.671 -0.1580 -0.8735  0.2955
 6258TIP3    H118780   0.154   5.845   3.725  0.5663 -1.5694 -0.3830
 6258TIP3    H218781   0.109   5.830   3.581 -1.4456  0.5676 -0.0337
 6259TIP3   OH218782   1.124   0.762   2.613 -0.2457  0.2403 -0.3809
 6259TIP3    H118783   1.212   0.724   2.610 -0.9667 -1.7097  0.7562
 6259TIP3    H218784   1.079   0.723   2.538 -1.6022 -3.1158  1.9037
 6260TIP3   OH218785   4.241   0.989   4.188 -0.2699  0.0367  0.0871
 6260TIP3    H118786   4.297   1.003   4.264  0.4651  2.0475 -0.7440
 6260TIP3    H218787   4.156   1.023   4.214  0.1222  1.2355 -0.1310
 6261TIP3   OH218788   5.369   3.350   1.003  0.4130  0.5248  0.3664
 6261TIP3    H118789   5.439   3.288   0.982 -0.8611 -0.5692 -0.8527
 6261TIP3    H218790   5.375   3.361   1.098  1.1523 -0.8726  0.5101
 6262TIP3   OH218791   4.006   2.797   3.012 -0.0928  0.2059  0.3496
 6262TIP3    H118792   3.944   2.746   2.961 -0.7988 -0.6148  1.9390
 6262TIP3    H218793   3.957   2.875   3.038  0.1102  0.3920  0.1811
 6263TIP3   OH218794   4.917   5.364   2.044  0.1419 -0.2264  0.4321
 6263TIP3    H118795   4.943   5.454   2.025 -1.5543  0.5363  1.4384
 6263TIP3    H218796   4.883   5.330   1.962  1.6795 -0.3024 -0.1941
 6264TIP3   OH218797   4.948   4.925   4.399  0.8301 -0.1632 -0.1137
 6264TIP3    H118798   4.913   4.838   4.417  0.3310 -0.2709 -1.4728
 6264TIP3    H218799   5.041   4.919   4.421  0.3127 -0.2752  2.2504
 6265TIP3   OH218800   4.607   2.858   1.174 -0.2308 -0.0724  0.1339
 6265TIP3    H118801   4.678   2.920   1.189  0.9669 -1.3111 -0.2676
 6265TIP3    H218802   4.632   2.810   1.096 -2.1996  0.3790 -0.8418
 6266TIP3   OH218803   2.686   4.088   0.415  0.0647 -0.3643  0.0947
 6266TIP3    H118804   2.623   4.102   0.344  1.0972  2.5582 -0.3775
 6266TIP3    H218805   2.714   4.176   0.440  0.8403 -1.3529  3.1789
 6267TIP3   OH218806   1.220   1.885   3.576  0.7515  0.1032 -0.0939
 6267TIP3    H118807   1.206   1.892   3.482  0.7111  0.8325 -0.0451
 6267TIP3    H218808   1.201   1.973   3.609  1.5178  0.0655  0.4902
 6268TIP3   OH218809   2.469   1.452   0.815  0.6642 -0.1224  0.1857
 6268TIP3    H118810   2.537   1.393   0.847  0.6786  0.0545  0.4915
 6268TIP3    H218811   2.387   1.408   0.837  0.5570  1.3148  3.2779
 6269TIP3   OH218812   5.298   4.083   1.915 -0.1408 -0.3119 -0.1989
 6269TIP3    H118813   5.384   4.086   1.874 -0.0847 -1.0758 -0.1506
 6269TIP3    H218814   5.277   4.175   1.933  0.6306 -0.1129 -0.2728
 6270TIP3   OH218815   1.024   1.693   4.106  0.1835 -0.1623  0.1477
 6270TIP3    H118816   1.015   1.735   4.020 -0.4932  2.7208  1.5056
 6270TIP3    H218817   1.116   1.705   4.129  0.5385 -1.6015 -0.4541
 6271TIP3   OH218818   3.626   5.835   0.473  0.3405  0.4073  0.3686
 6271TIP3    H118819   3.692   5.792   0.528  1.4932  1.1646 -0.3537
 6271TIP3    H218820   3.556   5.860   0.533  1.0558  0.2277  1.3016
 6272TIP3   OH218821   4.849   3.687   3.137 -0.2617 -0.1351 -0.2457
 6272TIP3    H118822   4.926   3.658   3.088 -0.6823 -3.2531  0.7128
 6272TIP3    H218823   4.874   3.681   3.229 -0.5740  2.3759  0.0867
 6273TIP3   OH218824   4.420   1.390   4.053  0.2865  0.2107  0.1115
 6273TIP3    H118825   4.419   1.482   4.080  1.7162 -0.2369  1.9353
 6273TIP3    H218826   4.487   1.350   4.109 -2.6089 -2.6882  1.8670
 6274TIP3   OH218827   1.032   1.144   1.530  0.1579  0.0798 -0.2939
 6274TIP3    H118828   1.044   1.163   1.436 -1.5419 -0.3714 -0.6328
 6274TIP3    H218829   0.962   1.203   1.558  0.0811 -0.3688  0.4909
 6275TIP3   OH218830   5.938   1.001   3.431  0.5038 -0.0466  0.3091
 6275TIP3    H118831   5.844   1.018   3.422  0.8773  1.5540 -1.2139
 6275TIP3    H218832   5.957   1.018   3.523 -0.3203  1.9995  0.1644
 6276TIP3   OH218833   2.684   0.608   0.905  0.3330 -0.0184 -0.6449
 6276TIP3    H118834   2.604   0.628   0.856 -0.0241 -0.5290 -0.2760
 6276TIP3    H218835   2.706   0.518   0.880 -0.2885 -0.5719  0.6995
 6277TIP3   OH218836   1.332   5.600   4.844  0.3529 -0.0425  0.4593
 6277TIP3    H118837   1.403   5.541   4.819 -0.4454 -0.1450 -1.8950
 6277TIP3    H218838   1.310   5.646   4.762 -1.4678  0.8718  1.3946
 6278TIP3   OH218839   5.884   1.755   4.014 -0.6583  0.6610  0.5217
 6278TIP3    H118840   5.919   1.840   4.041  0.6974  0.7465 -1.3055
 6278TIP3    H218841   5.838   1.772   3.933  0.7887 -0.5082 -0.6142
 6279TIP3   OH218842   4.501   2.894   1.434  0.0742  0.4130 -0.3101
 6279TIP3    H118843   4.557   2.843   1.494 -1.3317 -1.9117 -0.8345
 6279TIP3    H218844   4.546   2.888   1.350  0.2699  0.6411 -0.2220
 6280TIP3   OH218845   0.872   3.188   0.613  0.2345 -0.2810  0.1605
 6280TIP3    H118846   0.964   3.212   0.602  0.2766 -0.5846 -0.1874
 6280TIP3    H218847   0.848   3.148   0.530 -0.2409 -0.1198  0.2191
 6281TIP3   OH218848   4.922   0.212   2.997  0.3142  0.3177  0.0609
 6281TIP3    H118849   4.926   0.307   2.992  3.2652  0.2799  0.2102
 6281TIP3    H218850   4.949   0.190   3.086  0.4259 -0.6623 -0.1923
 6282TIP3   OH218851   1.381   4.203   0.552  1.0561 -0.0397  0.0583
 6282TIP3    H118852   1.376   4.246   0.638 -2.7723  0.7647 -0.4062
 6282TIP3    H218853   1.426   4.267   0.497  1.5167  0.4083  0.9237
 6283TIP3   OH218854   2.404   0.182   0.832  0.1521 -0.1251  0.2520
 6283TIP3    H118855   2.433   0.273   0.835 -0.7580  0.2407 -1.0317
 6283TIP3    H218856   2.457   0.143   0.762  0.3581 -0.5209  0.6244
 6284TIP3   OH218857   4.761   1.534   3.748  0.1358  0.1550  0.2753
 6284TIP3    H118858   4.734   1.594   3.817 -0.2650  0.4784 -0.1540
 6284TIP3    H218859   4.680   1.491   3.720  0.4382 -0.7222  0.6951
 6285TIP3   OH218860   0.138   0.271   0.187  0.2770 -0.0617 -0.0342
 6285TIP3    H118861   0.201   0.331   0.228  0.8498 -0.6106 -0.0824
 6285TIP3    H218862   0.089   0.234   0.261  1.9772 -1.7965  0.3148
 6286TIP3   OH218863   4.036   0.788   0.643 -0.5438  0.5227 -0.7683
 6286TIP3    H118864   4.018   0.880   0.664  0.3068  1.0706 -2.3200
 6286TIP3    H218865   3.964   0.761   0.587  0.5276  1.0858 -2.5016
 6287TIP3   OH218866   4.156   2.661   1.288 -0.4953  0.3241  0.2465
 6287TIP3    H118867   4.181   2.682   1.378 -1.4213  0.4522  0.4889
 6287TIP3    H218868   4.216   2.712   1.233 -0.4183  0.8328  0.7964
 6288TIP3   OH218869   5.494   3.697   0.228 -0.1197  0.1356 -0.1174
 6288TIP3    H118870   5.498   3.618   0.174  0.7286  1.2046 -1.7280
 6288TIP3    H218871   5.407   3.696   0.267 -0.2588 -1.3825 -0.4231
 6289TIP3   OH218872   4.168   5.825   1.350  0.0016  0.4695 -0.0080
 6289TIP3    H118873   4.144   5.883   1.278  0.0793  2.1132  1.2341
 6289TIP3    H218874   4.170   5.738   1.311 -0.1058  1.2890 -1.9423
 6290TIP3   OH218875   5.595   3.546   1.325 -0.4164  0.0420 -0.1397
 6290TIP3    H118876   5.551   3.535   1.409  0.9225  0.8071  0.6983
 6290TIP3    H218877   5.669   3.487   1.328  0.1676  0.7416 -0.3893
 6291TIP3   OH218878   3.351   2.280   4.741 -0.5272 -0.2385  0.3175
 6291TIP3    H118879   3.368   2.191   4.713  3.9827 -0.0920  1.8687
 6291TIP3    H218880   3.377   2.334   4.666  0.6884 -0.1664  0.7736
 6292TIP3   OH218881   1.099   2.566   3.152 -0.3631 -0.7564 -0.0109
 6292TIP3    H118882   1.133   2.629   3.215 -1.8654 -0.4765  0.5602
 6292TIP3    H218883   1.115   2.607   3.067  1.6246 -1.1175  0.1308
 6293TIP3   OH218884   4.617   3.222   3.405  0.2319 -0.5198  0.4160
 6293TIP3    H118885   4.663   3.158   3.351  2.1646  0.1291  1.1918
 6293TIP3    H218886   4.613   3.183   3.492  1.2094  0.2519  0.8374
 6294TIP3   OH218887   0.401   2.561   3.576  1.2218  0.1588  0.8297
 6294TIP3    H118888   0.331   2.496   3.568  1.3193  0.1362  0.1257
 6294TIP3    H218889   0.356   2.641   3.604  0.2341  1.2477 -3.1679
 6295TIP3   OH218890   2.713   5.754   2.524  0.3718  0.0396  0.0681
 6295TIP3    H118891   2.745   5.804   2.599  1.6590  3.2690 -2.3974
 6295TIP3    H218892   2.784   5.693   2.504  0.0299 -0.8277  1.3574
 6296TIP3   OH218893   3.260   2.402   1.355 -0.0416  0.0253 -0.5158
 6296TIP3    H118894   3.299   2.383   1.440 -0.1143  2.6185  0.1870
 6296TIP3    H218895   3.320   2.363   1.291  0.9270 -0.4764  0.6764
 6297TIP3   OH218896   0.988   5.838   4.372  0.2842  0.3933  0.5706
 6297TIP3    H118897   1.015   5.818   4.462  0.8025  1.1611  0.5956
 6297TIP3    H218898   1.069   5.832   4.322  0.1020  0.5401  0.2571
 6298TIP3   OH218899   3.117   1.707   1.957  0.4990 -0.2645 -0.2027
 6298TIP3    H118900   3.168   1.782   1.990  1.5527 -0.8868 -0.3889
 6298TIP3    H218901   3.084   1.664   2.036  0.1401  0.2120 -0.0860
 6299TIP3   OH218902   6.097   1.265   2.336 -0.5996  0.1655  0.2277
 6299TIP3    H118903   6.148   1.184   2.348 -1.2289 -0.2459  0.1373
 6299TIP3    H218904   6.118   1.293   2.247  0.5764  0.7836  0.6688
 6300TIP3   OH218905   4.012   5.592   0.176  0.0131  0.0040  0.1527
 6300TIP3    H118906   3.919   5.614   0.171  0.0469 -0.0864 -1.5303
 6300TIP3    H218907   4.051   5.638   0.102  0.9083 -1.7895 -0.5344
 6301TIP3   OH218908   3.459   1.666   2.455  0.0843  0.1814  0.0274
 6301TIP3    H118909   3.378   1.620   2.478 -0.3714  1.4399  1.0280
 6301TIP3    H218910   3.490   1.621   2.377 -1.4275 -0.5065 -0.2144
 6302TIP3   OH218911   3.811   2.326   3.502 -1.0388  0.9805 -0.1506
 6302TIP3    H118912   3.883   2.265   3.519 -1.3318 -0.0490 -2.2298
 6302TIP3    H218913   3.732   2.271   3.501 -1.2359  1.1591 -2.7378
 6303TIP3   OH218914   3.263   5.902   0.945 -0.3717  0.2970  0.8847
 6303TIP3    H118915   3.285   5.862   1.029 -0.8757  1.1776  1.4417
 6303TIP3    H218916   3.168   5.905   0.943 -0.4140 -0.7401 -0.2226
 6304TIP3   OH218917   5.255   1.968   4.676  0.7849 -0.7206  0.6884
 6304TIP3    H118918   5.258   1.905   4.604 -0.0245  0.6740 -0.6300
 6304TIP3    H218919   5.337   2.018   4.668  0.8716 -0.8189  0.9678
 6305TIP3   OH218920   5.345   4.126   2.682 -0.5540  0.0288 -0.3433
 6305TIP3    H118921   5.431   4.135   2.642 -0.7687 -2.5748 -1.5976
 6305TIP3    H218922   5.362   4.133   2.776  0.9521 -0.0324 -0.5872
 6306TIP3   OH218923   1.619   1.681   4.342  0.3211 -0.2576 -0.7269
 6306TIP3    H118924   1.536   1.676   4.389 -0.2801 -2.1909 -1.9181
 6306TIP3    H218925   1.595   1.678   4.250  1.6494  0.6052 -1.1306
 6307TIP3   OH218926   5.267   5.538   3.038  0.0243  0.3194 -0.1728
 6307TIP3    H118927   5.338   5.588   3.080  0.9580  0.3310 -1.6653
 6307TIP3    H218928   5.255   5.462   3.094  0.5137  0.8298  0.6512
 6308TIP3   OH218929   3.569   1.143   1.634 -0.1891  0.1571  0.1785
 6308TIP3    H118930   3.513   1.089   1.579 -0.0249  1.3614 -1.2399
 6308TIP3    H218931   3.520   1.224   1.646  0.8480  0.9014 -0.3741
 6309TIP3   OH218932   2.491   0.119   4.150 -0.2291  0.4066  0.4132
 6309TIP3    H118933   2.551   0.052   4.182 -0.0656  0.2772 -0.1433
 6309TIP3    H218934   2.428   0.070   4.096  1.4049  0.9613 -2.1675
 6310TIP3   OH218935   2.507   1.235   1.541 -0.3701 -0.2740  0.3054
 6310TIP3    H118936   2.464   1.288   1.608 -0.1532  0.5527 -0.1827
 6310TIP3    H218937   2.594   1.274   1.532 -0.6045  0.0335 -0.8795
 6311TIP3   OH218938   0.159   5.064   0.235  0.0777  0.1555 -0.2234
 6311TIP3    H118939   0.069   5.088   0.211 -0.2445 -1.2360 -0.5142
 6311TIP3    H218940   0.154   4.970   0.253  2.0300 -0.6393 -3.1442
 6312TIP3   OH218941   2.162   0.480   0.423 -0.1041 -0.5304 -0.0034
 6312TIP3    H118942   2.104   0.416   0.464  0.7009 -0.7686  0.8051
 6312TIP3    H218943   2.234   0.426   0.388 -1.0208 -0.4043 -2.2418
 6313TIP3   OH218944   3.536   3.630   1.285  0.0038 -0.7626 -0.2901
 6313TIP3    H118945   3.489   3.588   1.214 -0.5310  1.0117 -1.0446
 6313TIP3    H218946   3.627   3.604   1.271 -0.1399 -0.7295 -1.4197
 6314TIP3   OH218947   4.330   1.740   4.454 -0.0256 -0.3528  0.2856
 6314TIP3    H118948   4.348   1.813   4.513  3.9823 -0.7796 -0.1614
 6314TIP3    H218949   4.353   1.662   4.504  0.3065 -0.9646 -0.7955
 6315TIP3   OH218950   2.944   4.831   3.385  0.6200 -0.8133 -0.5374
 6315TIP3    H118951   2.981   4.775   3.318 -0.0286  0.7367 -2.2649
 6315TIP3    H218952   2.849   4.820   3.376  0.5096 -0.1210 -0.3163
 6316TIP3   OH218953   0.645   4.358   1.540 -0.2253  0.3930 -0.0716
 6316TIP3    H118954   0.698   4.383   1.616  2.5065  0.8344 -1.9930
 6316TIP3    H218955   0.632   4.264   1.551  1.6231  0.1148  0.1702
 6317TIP3   OH218956   2.894   4.917   3.911 -0.0292 -0.0439 -0.8627
 6317TIP3    H118957   2.860   4.911   3.822 -0.1418  2.5766 -1.0766
 6317TIP3    H218958   2.931   5.005   3.917  2.3349 -1.0250  0.9032
 6318TIP3   OH218959   4.959   0.452   0.122 -0.7884 -0.0590 -0.2118
 6318TIP3    H118960   4.993   0.530   0.166 -0.9263  0.0234 -0.2506
 6318TIP3    H218961   4.864   0.458   0.133 -0.8234 -0.0427 -0.5116
 6319TIP3   OH218962   2.830   5.747   4.187 -0.2242 -0.4659  0.2180
 6319TIP3    H118963   2.858   5.673   4.133 -0.7419 -0.8818  0.5051
 6319TIP3    H218964   2.847   5.718   4.277 -0.8949 -0.4469  0.3564
 6320TIP3   OH218965   1.698   2.711   0.497  0.0787 -0.7895 -0.4138
 6320TIP3    H118966   1.631   2.662   0.449  0.7739 -0.3060 -1.9265
 6320TIP3    H218967   1.665   2.801   0.499  0.5894 -0.5880 -0.9908
 6321TIP3   OH218968   3.898   5.273   2.884  0.0897  0.4222  0.4151
 6321TIP3    H118969   3.981   5.320   2.897  0.4720  0.4153 -1.6530
 6321TIP3    H218970   3.858   5.316   2.809 -1.1274 -0.4907  0.5164
 6322TIP3   OH218971   5.469   5.054   4.861  0.1776  0.4589  0.1143
 6322TIP3    H118972   5.399   5.094   4.809  0.5047  1.2483  0.2670
 6322TIP3    H218973   5.456   5.089   4.949  0.7619  0.5976  0.1455
 6323TIP3   OH218974   0.578   3.752   2.505  0.0631  0.3715  0.1923
 6323TIP3    H118975   0.577   3.787   2.416  1.7666  0.4037  0.1582
 6323TIP3    H218976   0.618   3.666   2.496 -1.4767 -0.4305  0.6873
 6324TIP3   OH218977   1.406   3.347   3.330  0.1315 -0.5863  0.3219
 6324TIP3    H118978   1.469   3.276   3.315  0.6445  0.0483 -0.6792
 6324TIP3    H218979   1.351   3.347   3.252  1.5649  1.5137 -0.7721
 6325TIP3   OH218980   2.029   4.405   2.226 -0.4015  0.3968 -0.1849
 6325TIP3    H118981   2.068   4.470   2.285 -0.9419  1.6110 -1.1071
 6325TIP3    H218982   1.937   4.429   2.221 -0.6750 -0.6300 -0.3253
 6326TIP3   OH218983   1.339   1.876   4.413 -0.2869 -0.1888 -0.4309
 6326TIP3    H118984   1.245   1.857   4.403 -0.0410 -2.2038  0.4276
 6326TIP3    H218985   1.359   1.848   4.503  0.7099  2.3111  0.1896
 6327TIP3   OH218986   4.965   3.295   3.266 -0.1190  0.1033  0.0449
 6327TIP3    H118987   4.984   3.227   3.201 -0.6429  1.1310 -1.2208
 6327TIP3    H218988   4.875   3.320   3.249 -0.5409 -0.1512  1.7279
 6328TIP3   OH218989   2.287   3.987   3.801  0.1887 -0.6884  0.2328
 6328TIP3    H118990   2.285   4.024   3.889  0.0786 -1.2973  0.4962
 6328TIP3    H218991   2.197   3.997   3.770  0.5776  0.9825 -0.4512
 6329TIP3   OH218992   2.084   4.042   2.742  0.5332 -0.4531  0.3216
 6329TIP3    H118993   2.121   4.088   2.667 -0.1145  0.9577  0.8352
 6329TIP3    H218994   2.046   3.962   2.704  0.0667  0.3045 -0.8933
 6330TIP3   OH218995   0.749   5.550   1.341  0.1348  0.0025  0.3369
 6330TIP3    H118996   0.655   5.567   1.349  0.0946 -0.8826  2.3604
 6330TIP3    H218997   0.791   5.632   1.367 -0.0547  0.4448 -0.7068
 6331TIP3   OH218998   6.274   1.311   1.513 -0.7249  0.0153  0.3559
 6331TIP3    H118999   6.209   1.256   1.558 -1.5213  0.1968 -0.5501
 6331TIP3    H219000   6.273   1.393   1.563 -1.3305  0.0807  0.2503
 6332TIP3   OH219001   4.703   1.726   2.225 -0.3019 -0.0950 -0.2330
 6332TIP3    H119002   4.618   1.741   2.266  0.3587  1.8335  0.5303
 6332TIP3    H219003   4.730   1.812   2.194  1.3829 -0.6683 -0.4417
 6333TIP3   OH219004   6.212   1.858   0.924  0.3089 -0.0422  0.6054
 6333TIP3    H119005   6.220   1.946   0.961  0.7888  0.0243  0.3460
 6333TIP3    H219006   6.211   1.801   1.001  2.1340  0.0316  0.7359
 6334TIP3   OH219007   0.506   0.260   2.607  0.4440 -0.1556 -0.1904
 6334TIP3    H119008   0.434   0.208   2.571 -0.7416  0.8524  0.6029
 6334TIP3    H219009   0.584   0.206   2.595 -0.2156 -0.7587 -2.2625
 6335TIP3   OH219010   5.932   5.277   4.542  0.0791  0.2703 -0.0290
 6335TIP3    H119011   5.878   5.345   4.583 -1.0232  0.0002 -0.9983
 6335TIP3    H219012   5.878   5.198   4.545  0.9248 -0.3133  0.1085
 6336TIP3   OH219013   3.158   4.304   3.685  0.8047 -0.3708 -0.0441
 6336TIP3    H119014   3.072   4.289   3.723  1.7953 -1.2912  2.0184
 6336TIP3    H219015   3.164   4.241   3.614  0.5764 -1.9026  1.2287
 6337TIP3   OH219016   0.470   1.838   3.706 -0.0540 -0.0822 -0.0158
 6337TIP3    H119017   0.554   1.858   3.748  0.2769  1.4622 -1.2996
 6337TIP3    H219018   0.469   1.893   3.627 -2.4050  0.1929  0.1224
 6338TIP3   OH219019   1.033   3.034   3.367  0.2774  0.0819 -0.2119
 6338TIP3    H119020   1.046   3.104   3.432  0.1040 -1.3944  1.4752
 6338TIP3    H219021   0.941   3.010   3.376  0.3135 -0.3155 -0.8451
 6339TIP3   OH219022   4.935   5.063   2.729  0.0075  0.2821  0.3939
 6339TIP3    H119023   4.927   5.129   2.660 -0.4194 -2.1114 -2.0054
 6339TIP3    H219024   5.030   5.051   2.739  0.0786  0.1309 -0.3596
 6340TIP3   OH219025   2.240   5.687   1.000  0.0574 -0.5523  0.1845
 6340TIP3    H119026   2.177   5.663   1.068 -0.5436 -0.8690 -0.4732
 6340TIP3    H219027   2.225   5.624   0.930 -1.6898  1.7542 -1.6823
 6341TIP3   OH219028   2.297   3.327   2.446  0.3086  0.4239 -0.0555
 6341TIP3    H119029   2.388   3.352   2.426 -0.0225  1.6068 -0.1482
 6341TIP3    H219030   2.246   3.365   2.375 -0.1782 -1.0484 -0.5188
 6342TIP3   OH219031  -0.022   3.566   1.002 -0.3478 -0.0948  0.7306
 6342TIP3    H119032  -0.001   3.554   1.095 -0.4503  1.3338  0.9583
 6342TIP3    H219033   0.057   3.537   0.956 -0.9314 -2.5374  1.1195
 6343TIP3   OH219034   2.247   0.073   4.637  0.0171 -0.9463 -0.0023
 6343TIP3    H119035   2.282   0.140   4.696 -0.3946  0.1553 -0.9670
 6343TIP3    H219036   2.180   0.029   4.689  1.3485 -1.6934  1.1699
 6344TIP3   OH219037   3.294   3.763   4.112 -0.4421  0.1116 -0.0453
 6344TIP3    H119038   3.294   3.755   4.207 -2.9543 -2.0837 -0.0892
 6344TIP3    H219039   3.246   3.844   4.094  1.0617  1.1553  0.5103
 6345TIP3   OH219040   0.182   5.382   0.895  0.2041 -0.0250 -0.3145
 6345TIP3    H119041   0.224   5.296   0.887  1.7013  0.7014 -0.6105
 6345TIP3    H219042   0.254   5.445   0.886 -0.8819  1.2714 -0.2669
 6346TIP3   OH219043   3.264   0.417   3.474  0.5143  0.1479 -0.3805
 6346TIP3    H119044   3.268   0.395   3.568 -0.1643  0.3681 -0.2998
 6346TIP3    H219045   3.186   0.372   3.442 -0.3841  1.6678 -0.4094
 6347TIP3   OH219046   4.958   1.297   3.435 -0.0993  0.2759  0.6237
 6347TIP3    H119047   5.017   1.257   3.372  0.8576  1.4783  0.7287
 6347TIP3    H219048   4.872   1.295   3.392  0.4565  0.6956 -0.5316
 6348TIP3   OH219049   5.979   3.644   3.013  0.2101 -0.1627 -0.1432
 6348TIP3    H119050   5.898   3.628   3.062  0.7668  1.4322  1.4224
 6348TIP3    H219051   6.047   3.600   3.064  0.1350 -3.9352 -2.9116
 6349TIP3   OH219052   2.699   3.653   2.389 -0.0724 -0.4635  0.1810
 6349TIP3    H119053   2.695   3.559   2.373 -0.7774 -0.3494 -0.3163
 6349TIP3    H219054   2.780   3.681   2.346  0.1497 -0.8375  0.3455
 6350TIP3   OH219055   5.430   5.973   0.725 -0.0414  0.1631  0.2491
 6350TIP3    H119056   5.410   6.017   0.643  1.9309  0.2687 -0.2174
 6350TIP3    H219057   5.360   5.909   0.736 -0.4189  0.2472 -1.4454
 6351TIP3   OH219058   2.908   4.635   4.242  0.3472  0.1231 -0.1251
 6351TIP3    H119059   2.979   4.689   4.206  0.7206 -0.7585 -0.7884
 6351TIP3    H219060   2.832   4.655   4.188  1.2272 -2.1705 -2.4653
 6352TIP3   OH219061   1.394   4.792   0.324 -0.1871  0.0426 -0.5953
 6352TIP3    H119062   1.479   4.755   0.302  0.3576 -1.1600  2.9684
 6352TIP3    H219063   1.334   4.718   0.322 -0.2663  0.0432  0.9886
 6353TIP3   OH219064   4.576   3.590   1.154  0.1825  0.2264  0.1450
 6353TIP3    H119065   4.590   3.618   1.244 -0.1605  2.2043 -0.3807
 6353TIP3    H219066   4.630   3.511   1.145  1.4768  0.8921  1.6231
 6354TIP3   OH219067   3.860   2.217   4.724  0.3277 -0.2529  0.7519
 6354TIP3    H119068   3.889   2.305   4.699  1.3242 -0.6272  0.5110
 6354TIP3    H219069   3.836   2.176   4.641 -1.5745  0.2566  1.0125
 6355TIP3   OH219070   4.577   3.879   2.862  0.9314  0.9861  0.0436
 6355TIP3    H119071   4.602   3.894   2.953  0.0402  2.0005  0.1365
 6355TIP3    H219072   4.564   3.966   2.825  0.2433  0.5698 -0.7483
 6356TIP3   OH219073   3.316   4.781   1.001  0.1454  0.3818  0.0568
 6356TIP3    H119074   3.358   4.756   0.919 -1.1226 -1.8897  0.0165
 6356TIP3    H219075   3.295   4.698   1.044 -1.1936  1.4675  1.6613
 6357TIP3   OH219076   0.655   1.845   3.970 -0.3718 -0.0380 -0.0619
 6357TIP3    H119077   0.581   1.787   3.960 -1.1748  0.7556  0.9941
 6357TIP3    H219078   0.638   1.892   4.052  1.4422 -0.0558  0.3672
 6358TIP3   OH219079   0.713   2.750   4.971  0.5988  0.5660 -0.0703
 6358TIP3    H119080   0.670   2.728   4.888 -0.1461 -0.7116  0.6211
 6358TIP3    H219081   0.749   2.838   4.957  0.8695  0.2019 -1.8805
 6359TIP3   OH219082   4.609   5.662   0.262  0.4340 -0.2345 -0.1831
 6359TIP3    H119083   4.629   5.718   0.337 -0.2135 -0.6379  0.3094
 6359TIP3    H219084   4.518   5.634   0.277 -0.7401  1.9247 -2.5372
 6360TIP3   OH219085   2.262   2.560   0.166  0.0792 -0.1903  0.6061
 6360TIP3    H119086   2.292   2.627   0.228  3.1310 -0.0657 -0.8368
 6360TIP3    H219087   2.322   2.487   0.178  0.0486 -0.6005 -1.3657
 6361TIP3   OH219088   3.582   0.981   0.029  0.0047  0.0517  0.1299
 6361TIP3    H119089   3.549   0.976   0.119  0.8202 -0.8573  0.3913
 6361TIP3    H219090   3.653   1.045   0.032  1.4406 -1.4950  0.6155
 6362TIP3   OH219091   1.111   5.756   4.969 -0.6252 -0.5375 -0.2169
 6362TIP3    H119092   1.114   5.809   4.890  0.5490  1.2365  0.9216
 6362TIP3    H219093   1.161   5.678   4.948  1.1107  0.6675 -0.7477
 6363TIP3   OH219094   1.658   1.816   0.280 -0.5778 -0.1021 -0.0999
 6363TIP3    H119095   1.705   1.873   0.220 -0.6079 -0.2856 -0.2962
 6363TIP3    H219096   1.609   1.876   0.336 -1.8732  0.0251 -1.3282
 6364TIP3   OH219097   0.755   0.978   2.069  0.4796  0.2105  0.2557
 6364TIP3    H119098   0.787   0.908   2.126  1.1423  0.4642  0.2123
 6364TIP3    H219099   0.801   1.057   2.101 -0.1186  0.5928  0.1919
 6365TIP3   OH219100   5.534   4.198   0.796  0.3599  0.1811 -0.1204
 6365TIP3    H119101   5.561   4.247   0.718  0.1613  0.2432 -0.1485
 6365TIP3    H219102   5.585   4.117   0.792  1.1368  0.6339  0.2348
 6366TIP3   OH219103   0.883   4.548   0.422  0.3973  0.4784  0.2517
 6366TIP3    H119104   0.946   4.589   0.481  0.8236 -0.2909  0.3601
 6366TIP3    H219105   0.798   4.561   0.463  0.7274 -0.3966  1.2706
 6367TIP3   OH219106   2.545   5.755   4.428  0.8035  0.5127 -0.2408
 6367TIP3    H119107   2.571   5.667   4.401  0.5793  0.5204 -0.4810
 6367TIP3    H219108   2.459   5.768   4.389  0.2726  0.3487  0.8297
 6368TIP3   OH219109   5.841   5.155   3.939 -0.0575 -0.1720 -0.2163
 6368TIP3    H119110   5.840   5.060   3.950 -0.3307 -0.2194 -0.6240
 6368TIP3    H219111   5.869   5.168   3.849  0.0960  0.1428 -0.1254
 6369TIP3   OH219112   3.635   5.297   3.598 -0.1020  0.3711  0.0448
 6369TIP3    H119113   3.550   5.263   3.569  0.0663  0.9938 -1.2171
 6369TIP3    H219114   3.628   5.392   3.588  0.1474  0.5785  1.6082
 6370TIP3   OH219115   6.050   2.695   4.109 -0.3471  0.3397  0.1862
 6370TIP3    H119116   6.141   2.665   4.108 -0.8071 -1.1447 -0.6451
 6370TIP3    H219117   6.007   2.639   4.174 -0.6263  1.1954  0.7479
 6371TIP3   OH219118   0.117   4.270   4.206 -0.3344 -0.3099  0.8057
 6371TIP3    H119119   0.205   4.234   4.214 -0.3972 -1.1246 -1.5928
 6371TIP3    H219120   0.070   4.235   4.282  0.5064 -2.6333  0.3308
 6372TIP3   OH219121   1.961   1.460   1.782  0.4014 -1.1134 -0.1401
 6372TIP3    H119122   1.893   1.499   1.837 -0.2853  0.4847 -2.0238
 6372TIP3    H219123   1.930   1.372   1.764 -2.0889  0.0489 -2.2291
 6373TIP3   OH219124   5.053   5.225   0.053 -0.2597  0.7321  0.1291
 6373TIP3    H119125   5.078   5.306   0.008  0.2714 -0.3412 -1.5913
 6373TIP3    H219126   5.120   5.162   0.028 -2.0888 -0.9656 -0.7853
 6374TIP3   OH219127   4.148   4.361   0.270 -0.6986 -0.1767 -0.6312
 6374TIP3    H119128   4.133   4.395   0.358  1.1686 -0.8906  0.0145
 6374TIP3    H219129   4.072   4.304   0.253 -1.8253  1.1331 -0.1234
 6375TIP3   OH219130   4.708   1.224   2.564  0.3404 -0.1255  0.3977
 6375TIP3    H119131   4.625   1.191   2.529  0.5770 -2.3587  1.7850
 6375TIP3    H219132   4.719   1.309   2.520 -2.4130  0.0443 -0.2032
 6376TIP3   OH219133   5.595   1.053   4.261  0.0829  0.1714 -0.3330
 6376TIP3    H119134   5.638   1.112   4.322 -0.3436 -0.3237  0.4760
 6376TIP3    H219135   5.659   0.984   4.245  0.2130  0.3266 -0.4806
 6377TIP3   OH219136   1.937   3.664   2.459  0.0112  0.2436  0.0426
 6377TIP3    H119137   1.926   3.673   2.364  1.7871 -0.1209 -0.2422
 6377TIP3    H219138   2.020   3.617   2.468 -1.2043 -1.7320  1.7495
 6378TIP3   OH219139   0.746   1.944   0.548  0.1846  1.0718 -0.5382
 6378TIP3    H119140   0.679   1.964   0.613 -0.2987 -2.5411  0.2695
 6378TIP3    H219141   0.826   1.931   0.599 -0.2241 -1.9061 -0.5024
 6379TIP3   OH219142   0.484   4.455   1.111 -0.3520  0.6704 -0.0231
 6379TIP3    H119143   0.462   4.518   1.180  0.5438  0.2835  0.6262
 6379TIP3    H219144   0.445   4.492   1.031 -0.1825  1.8366  0.4235
 6380TIP3   OH219145   3.873   3.443   1.721  0.1300  0.2248 -0.1795
 6380TIP3    H119146   3.883   3.538   1.725  0.5972  0.1619  0.2906
 6380TIP3    H219147   3.869   3.423   1.628 -0.7901  0.7797 -0.2689
 6381TIP3   OH219148   2.190   1.818   0.477 -0.1376 -0.2951  0.2372
 6381TIP3    H119149   2.242   1.898   0.470 -2.4047  1.1708 -0.9723
 6381TIP3    H219150   2.254   1.750   0.499  2.1692  1.4638 -0.6355
 6382TIP3   OH219151   1.275   1.867   2.271  0.5135  0.3028 -0.3505
 6382TIP3    H119152   1.272   1.962   2.253  0.8795  0.3802 -0.0008
 6382TIP3    H219153   1.322   1.830   2.196 -0.3138  0.2956 -0.8835
 6383TIP3   OH219154   6.246   4.794   4.572 -0.7510  0.5697  0.1350
 6383TIP3    H119155   6.295   4.877   4.572 -1.1598  0.8239  0.7170
 6383TIP3    H219156   6.282   4.744   4.500 -2.2707  2.3136 -1.9686
 6384TIP3   OH219157   3.093  -0.011   3.767  0.4466 -0.6477 -0.0734
 6384TIP3    H119158   3.076  -0.037   3.858 -0.8992 -0.0444 -0.1334
 6384TIP3    H219159   3.058   0.077   3.760 -0.3545 -1.0449 -1.4368
 6385TIP3   OH219160   2.790   4.945   2.245 -0.1430 -0.1885 -0.4374
 6385TIP3    H119161   2.861   4.973   2.188 -0.4594 -0.6077 -1.0532
 6385TIP3    H219162   2.736   4.887   2.190  0.8543 -2.5968  0.9408
 6386TIP3   OH219163   3.711   2.342   0.681  0.7538  0.8107 -0.1683
 6386TIP3    H119164   3.729   2.436   0.681  0.4790  0.8785  1.3808
 6386TIP3    H219165   3.616   2.335   0.673  0.8130  0.6465 -0.7573
 6387TIP3   OH219166   1.618   3.730   4.951  0.6922 -0.1126  0.0254
 6387TIP3    H119167   1.614   3.670   5.026  0.1819 -0.4371 -0.2556
 6387TIP3    H219168   1.601   3.674   4.875 -3.5001  0.8819  0.0103
 6388TIP3   OH219169   1.761   2.125   1.698 -0.3408 -0.1077  0.0891
 6388TIP3    H119170   1.843   2.117   1.648  0.4389 -0.7568  1.4033
 6388TIP3    H219171   1.752   2.219   1.715  0.0153 -0.0092 -0.2466
 6389TIP3   OH219172   6.265   1.849   3.087  0.6505 -0.2222 -0.0241
 6389TIP3    H119173   6.340   1.885   3.134 -0.7592  0.9893  1.4167
 6389TIP3    H219174   6.223   1.925   3.046 -1.0492 -0.5157  1.0856
 6390TIP3   OH219175   5.307   1.815   1.427 -0.1602  0.2096 -0.8363
 6390TIP3    H119176   5.218   1.828   1.461  0.2908 -0.4021  0.6710
 6390TIP3    H219177   5.317   1.720   1.423  0.9397  0.2470  0.4980
 6391TIP3   OH219178   5.441   5.956   1.238 -0.4490  0.1246 -0.6624
 6391TIP3    H119179   5.353   5.961   1.276 -0.8198  0.8970 -1.5804
 6391TIP3    H219180   5.480   6.041   1.257  1.1726 -1.1033  2.1345
 6392TIP3   OH219181   2.675   1.821   3.006 -0.2470  0.0733 -0.2612
 6392TIP3    H119182   2.703   1.796   2.918 -0.6427  0.1249 -0.4019
 6392TIP3    H219183   2.694   1.915   3.011 -2.9014  0.7431 -1.3500
 6393TIP3   OH219184   6.083   1.052   1.033 -0.6106  0.2004 -0.3385
 6393TIP3    H119185   6.128   1.113   1.091  0.9827 -0.7509 -0.5309
 6393TIP3    H219186   6.052   0.982   1.091  1.3775 -0.9848 -0.5952
 6394TIP3   OH219187   3.900   0.532   0.939  0.6062  0.4452 -0.3044
 6394TIP3    H119188   3.826   0.550   0.881  1.1429  0.1468 -1.0979
 6394TIP3    H219189   3.863   0.537   1.027 -0.4211  0.0594 -0.6943
 6395TIP3   OH219190   5.628   4.910   0.242  0.2697 -0.0903 -0.1263
 6395TIP3    H119191   5.550   4.857   0.226  2.2543 -3.0998 -0.5521
 6395TIP3    H219192   5.616   4.944   0.331 -1.9348  0.3917 -0.5587
 6396TIP3   OH219193   1.733   2.440   4.295 -0.0065 -0.0561  0.0150
 6396TIP3    H119194   1.760   2.356   4.259  0.2644  0.4584 -1.0150
 6396TIP3    H219195   1.647   2.456   4.255 -1.0590 -0.8185  1.8460
 6397TIP3   OH219196   5.551   5.814   2.871  0.0289  0.0727  0.7077
 6397TIP3    H119197   5.634   5.809   2.918 -0.5991 -0.7624  1.7942
 6397TIP3    H219198   5.523   5.723   2.864  0.4152  0.0920 -1.9506
 6398TIP3   OH219199   5.975   1.254   3.269 -0.2446  0.2459 -0.4087
 6398TIP3    H119200   5.962   1.163   3.244 -0.6034  0.0071  0.5882
 6398TIP3    H219201   5.933   1.262   3.355 -1.7137  1.7666 -1.1898
 6399TIP3   OH219202   4.092   3.611   4.960 -0.3467  0.9571  0.1173
 6399TIP3    H119203   4.048   3.559   5.027 -0.6033 -0.0250 -0.7861
 6399TIP3    H219204   4.037   3.688   4.949 -1.2930  0.2453 -0.2528
 6400TIP3   OH219205   1.756   0.479   3.480 -0.8935 -0.2873 -0.1267
 6400TIP3    H119206   1.796   0.538   3.416 -0.2384  1.1171  1.5292
 6400TIP3    H219207   1.683   0.529   3.516 -2.0264 -1.5311 -0.6001
 6401TIP3   OH219208   3.199   4.115   0.810  0.3321  0.6752  0.1522
 6401TIP3    H119209   3.199   4.046   0.743 -1.1843  1.2565 -0.4902
 6401TIP3    H219210   3.115   4.105   0.854 -0.2141  2.5200 -0.4041
 6402TIP3   OH219211   0.819   2.404   0.253 -0.6099 -0.1318  0.3257
 6402TIP3    H119212   0.819   2.316   0.290  1.1851 -1.5823 -2.6686
 6402TIP3    H219213   0.906   2.440   0.275 -0.0643 -0.4732 -1.1365
 6403TIP3   OH219214   4.577   3.244   4.878  0.0686  0.2481  0.0722
 6403TIP3    H119215   4.630   3.293   4.941 -0.6916  1.5764 -0.2962
 6403TIP3    H219216   4.502   3.300   4.860 -1.1333 -1.2931  0.0519
 6404TIP3   OH219217   1.944   2.137   2.985  0.4003  0.3266  0.3396
 6404TIP3    H119218   2.008   2.082   3.030  1.1085  0.8616  0.0038
 6404TIP3    H219219   1.971   2.227   3.005  0.0817  0.5653 -0.2627
 6405TIP3   OH219220   2.327   2.662   3.593 -0.4024  0.3412  0.0930
 6405TIP3    H119221   2.388   2.623   3.655 -1.0191 -1.3925 -0.3278
 6405TIP3    H219222   2.286   2.733   3.642  0.2915  0.0507  1.1380
 6406TIP3   OH219223   2.450   2.755   1.232 -0.0025 -0.2046 -0.5926
 6406TIP3    H119224   2.385   2.758   1.161 -0.2449  0.0657 -0.3637
 6406TIP3    H219225   2.415   2.690   1.293 -1.6216  1.9865  1.0000
 6407TIP3   OH219226   0.547   5.572   2.184 -0.1575  0.3380 -0.0712
 6407TIP3    H119227   0.613   5.505   2.205 -0.6448  0.0338  0.5156
 6407TIP3    H219228   0.487   5.571   2.259 -1.2831  0.0521 -0.9498
 6408TIP3   OH219229   0.557   4.319   0.089 -0.4812  0.2078  0.1142
 6408TIP3    H119230   0.579   4.226   0.096 -2.1759 -0.2000  0.4872
 6408TIP3    H219231   0.494   4.323   0.017 -1.2498  0.8901  0.8024
 6409TIP3   OH219232   5.961   3.692   0.247 -0.4045 -0.2411 -0.3659
 6409TIP3    H119233   6.039   3.701   0.302  0.6526  0.3323 -1.8867
 6409TIP3    H219234   5.934   3.782   0.230 -0.8563 -0.4213 -0.6062
 6410TIP3   OH219235   4.142   5.777   4.147 -0.2026 -0.0147 -0.1165
 6410TIP3    H119236   4.179   5.692   4.171  0.5470 -0.0762 -1.4061
 6410TIP3    H219237   4.047   5.765   4.154 -0.0903 -0.8727 -0.0092
 6411TIP3   OH219238   0.301   5.713   4.238  0.0945  0.5720  0.7449
 6411TIP3    H119239   0.251   5.647   4.286 -1.2835  0.9569 -0.1112
 6411TIP3    H219240   0.325   5.670   4.156 -0.0790  0.8600  0.5427
 6412TIP3   OH219241   3.966   3.186   2.877  0.2968 -0.3268 -0.2561
 6412TIP3    H119242   3.947   3.148   2.963  1.0137  1.3323  0.6743
 6412TIP3    H219243   3.880   3.194   2.836 -0.2513  0.2822  0.9405
 6413TIP3   OH219244   4.880   1.875   1.854  0.0902  0.0207  0.3097
 6413TIP3    H119245   4.828   1.798   1.879 -0.6003  0.5971  0.6832
 6413TIP3    H219246   4.815   1.940   1.827  0.7180  0.1114 -1.0653
 6414TIP3   OH219247   2.739   1.059   2.863  0.1524 -0.1381 -0.0556
 6414TIP3    H119248   2.651   1.054   2.825  0.3117 -0.4303 -0.4003
 6414TIP3    H219249   2.786   0.986   2.822  0.3991 -0.3139  0.5331
 6415TIP3   OH219250   0.717   2.430   4.828  0.4445 -0.0258  0.6139
 6415TIP3    H119251   0.758   2.468   4.749 -0.5655 -2.4177 -1.1851
 6415TIP3    H219252   0.784   2.439   4.896  1.4776  1.8798 -0.5320
 6416TIP3   OH219253   0.198   0.072   4.231 -0.4464 -0.0786 -0.8686
 6416TIP3    H119254   0.172  -0.004   4.282  0.1004 -0.0969 -0.6060
 6416TIP3    H219255   0.241   0.130   4.294  0.6011 -0.2811 -1.3810
 6417TIP3   OH219256   4.583   4.070   4.017  0.7501 -0.1756  0.3673
 6417TIP3    H119257   4.507   4.093   3.963  1.6086 -0.8682 -1.1929
 6417TIP3    H219258   4.610   4.153   4.056  2.4620  1.3095 -3.4334
 6418TIP3   OH219259   3.444   1.848   3.905 -0.3162 -0.2257  0.4438
 6418TIP3    H119260   3.533   1.882   3.905 -0.4742  0.2551 -0.8622
 6418TIP3    H219261   3.420   1.842   3.997 -0.3590  3.4614  0.7966
 6419TIP3   OH219262   2.603   3.115   2.798 -0.2061  0.7918 -0.3936
 6419TIP3    H119263   2.524   3.141   2.752 -1.0364 -1.2227 -0.2264
 6419TIP3    H219264   2.574   3.045   2.856  1.4843  0.8624  0.6005
 6420TIP3   OH219265   4.087   2.031   4.814 -0.7802 -0.1492 -0.4972
 6420TIP3    H119266   4.020   1.969   4.842 -2.2588  0.5460 -2.2630
 6420TIP3    H219267   4.039   2.097   4.764  1.2661  0.0282 -2.4105
 6421TIP3   OH219268   1.217   5.786   2.209  0.3611  0.0599 -0.5079
 6421TIP3    H119269   1.250   5.752   2.293  2.2316 -1.7008 -1.8229
 6421TIP3    H219270   1.178   5.710   2.167  0.4670  0.6298 -1.6733
 6422TIP3   OH219271   2.055   3.119   3.259 -0.4890 -0.2116  0.1872
 6422TIP3    H119272   2.067   3.080   3.173 -2.4430 -0.1517 -0.1606
 6422TIP3    H219273   2.134   3.094   3.308 -0.7009 -2.8098 -0.6609
 6423TIP3   OH219274   0.728   0.625   0.769 -0.5241  0.1457 -0.3436
 6423TIP3    H119275   0.710   0.537   0.738 -0.7444  0.3455 -0.7950
 6423TIP3    H219276   0.819   0.642   0.741  0.0737 -0.5106  1.1113
 6424TIP3   OH219277   5.061   0.669   4.805  0.7987  0.3319  0.2614
 6424TIP3    H119278   5.015   0.751   4.792 -0.4820 -0.2722  0.7437
 6424TIP3    H219279   5.004   0.620   4.866  0.9035 -1.3813 -0.9623
 6425TIP3   OH219280   1.627   1.331   5.106  0.1138 -0.1031 -0.1766
 6425TIP3    H119281   1.679   1.306   5.030  0.8635 -0.8231  0.5417
 6425TIP3    H219282   1.567   1.258   5.119 -0.6481  0.4380 -0.6197
 6426TIP3   OH219283   1.077   2.587   0.108  0.2620 -0.3411  0.4811
 6426TIP3    H119284   1.084   2.508   0.163 -0.2477  0.2235  1.3733
 6426TIP3    H219285   1.022   2.647   0.159 -0.7894 -0.0459 -0.9343
 6427TIP3   OH219286   2.385   5.631   3.550  0.1247  0.0912  0.2796
 6427TIP3    H119287   2.323   5.675   3.492 -0.3683  0.1458  0.8374
 6427TIP3    H219288   2.379   5.678   3.633 -1.6875 -1.9849  1.4620
 6428TIP3   OH219289   2.803   5.398   0.812 -0.2905 -0.0992  0.0235
 6428TIP3    H119290   2.893   5.425   0.828 -0.1563 -2.0760  3.3592
 6428TIP3    H219291   2.775   5.453   0.738  3.4205  0.9217 -0.8381
 6429TIP3   OH219292   2.167   0.167   4.097  0.4052 -0.3343  0.1138
 6429TIP3    H119293   2.184   0.089   4.043  1.1197 -0.1760  0.1014
 6429TIP3    H219294   2.158   0.133   4.186 -2.1792 -0.7816 -0.2183
 6430TIP3   OH219295   0.498   3.353   2.621  0.1421  0.7556 -0.0923
 6430TIP3    H119296   0.587   3.388   2.624  0.0956  0.8383  1.3592
 6430TIP3    H219297   0.508   3.261   2.644 -0.0167  0.4469 -1.2355
 6431TIP3   OH219298   0.639   2.718   3.645 -0.1711  0.2777 -0.1476
 6431TIP3    H119299   0.573   2.649   3.635 -0.2654  0.3036  0.2548
 6431TIP3    H219300   0.618   2.758   3.730  2.4173 -1.9787  1.7568
 6432TIP3   OH219301   0.138   0.851   5.136 -0.4639  0.1137  0.2144
 6432TIP3    H119302   0.084   0.822   5.062 -0.3068 -1.0488  0.5302
 6432TIP3    H219303   0.094   0.817   5.213 -0.1720  0.5959  0.6001
 6433TIP3   OH219304   1.465   2.105   4.998  0.2036 -0.0763 -0.3047
 6433TIP3    H119305   1.411   2.133   4.924 -1.2564  0.5546  0.9379
 6433TIP3    H219306   1.498   2.187   5.035  1.1136 -0.4019 -0.3798
 6434TIP3   OH219307   2.774   3.026   1.651 -0.1658  0.1750  0.4643
 6434TIP3    H119308   2.850   3.062   1.606 -2.3933  3.1948 -1.2819
 6434TIP3    H219309   2.728   2.975   1.584 -0.5995 -0.1326  0.9844
 6435TIP3   OH219310   1.222   3.289   0.220 -0.4737 -0.2343  0.1912
 6435TIP3    H119311   1.309   3.303   0.257 -0.4910  1.3647 -0.2975
 6435TIP3    H219312   1.234   3.298   0.126 -0.8366 -2.0246 -0.0552
 6436TIP3   OH219313   2.277   3.254   2.902 -0.0427  0.0609  0.1690
 6436TIP3    H119314   2.324   3.229   2.823  2.2999  2.0643  0.8194
 6436TIP3    H219315   2.209   3.315   2.871  1.0175  1.0304 -0.2999
 6437TIP3   OH219316   4.035   0.058   1.827  0.1601 -1.0066  0.1059
 6437TIP3    H119317   3.993   0.132   1.784  0.0510 -0.9746  0.2691
 6437TIP3    H219318   3.967  -0.010   1.830  0.2157 -1.0629  0.0868
 6438TIP3   OH219319   2.393   5.174   5.096  0.3277  0.8983  0.2912
 6438TIP3    H119320   2.357   5.263   5.094  1.3250  1.3128  0.5135
 6438TIP3    H219321   2.464   5.175   5.032 -0.6429 -0.2001 -0.8770
 6439TIP3   OH219322   5.458   3.562   1.596  0.2023  0.6997 -0.2913
 6439TIP3    H119323   5.395   3.584   1.665  0.3388 -0.7414  0.3172
 6439TIP3    H219324   5.469   3.468   1.603  1.1924  0.7104 -1.4746
 6440TIP3   OH219325   0.253   1.417   3.441  0.5006 -0.3123 -0.4254
 6440TIP3    H119326   0.343   1.384   3.446  0.4221 -0.4337  0.2971
 6440TIP3    H219327   0.210   1.379   3.518 -0.2453 -0.4868 -0.9275
 6441TIP3   OH219328   5.417   3.038   0.247  1.2895  0.0642 -0.2004
 6441TIP3    H119329   5.334   3.024   0.293  2.1347  0.1013  1.4088
 6441TIP3    H219330   5.392   3.063   0.158 -0.3856 -2.6074 -0.5796
 6442TIP3   OH219331   1.464   4.355   3.384 -0.2717  0.3127 -0.1922
 6442TIP3    H119332   1.375   4.362   3.420  0.1568 -0.2875  1.0317
 6442TIP3    H219333   1.514   4.422   3.429 -0.2878  1.3078 -1.5804
 6443TIP3   OH219334   2.120   1.456   4.938 -0.0382  0.2833 -0.0881
 6443TIP3    H119335   2.112   1.481   5.030 -0.2916  1.5912 -0.4515
 6443TIP3    H219336   2.199   1.403   4.934 -1.1359 -1.6042  1.2451
 6444TIP3   OH219337   1.406   1.447   0.303  0.2350  0.8710  0.1277
 6444TIP3    H119338   1.434   1.528   0.259  0.3182  0.4833 -0.5374
 6444TIP3    H219339   1.404   1.381   0.234 -0.4903  0.4527  0.5314
 6445TIP3   OH219340   5.838   2.421   2.283 -0.7192  0.2930  0.1131
 6445TIP3    H119341   5.905   2.416   2.351  0.1298 -2.0165 -0.8057
 6445TIP3    H219342   5.756   2.402   2.329 -0.3699  0.3619  0.7742
 6446TIP3   OH219343   0.282   3.992   0.766  0.0950  0.5059  0.1907
 6446TIP3    H119344   0.209   3.984   0.704  1.7017 -0.5754 -1.6599
 6446TIP3    H219345   0.351   4.036   0.718  0.5806  1.9193  2.0560
 6447TIP3   OH219346   3.961   5.329   2.294 -0.1231 -0.7840  0.7342
 6447TIP3    H119347   4.015   5.403   2.321  0.6346 -0.9240 -0.3518
 6447TIP3    H219348   3.872   5.365   2.289  0.4678  0.4961 -1.3628
 6448TIP3   OH219349   1.898   2.792   2.641 -0.4779  1.0521  0.0730
 6448TIP3    H119350   1.896   2.832   2.728 -0.2955  1.9941 -0.3449
 6448TIP3    H219351   1.922   2.701   2.657 -0.6251  1.1709  1.0249
 6449TIP3   OH219352   1.824   3.952   1.274 -0.2932  0.3740 -0.5877
 6449TIP3    H119353   1.769   3.968   1.351 -0.7813  0.3774 -0.9330
 6449TIP3    H219354   1.914   3.964   1.306 -0.4814  0.1926  0.0228
 6450TIP3   OH219355   1.414   5.206   4.254  0.0117 -0.0955  0.8144
 6450TIP3    H119356   1.494   5.257   4.262 -0.4216  0.4702  1.7701
 6450TIP3    H219357   1.377   5.232   4.169  0.8020 -0.3266  0.3918
 6451TIP3   OH219358   2.544   2.392   0.943  0.1469 -0.3412 -0.1866
 6451TIP3    H119359   2.457   2.431   0.954 -0.2607 -0.5429 -2.3087
 6451TIP3    H219360   2.598   2.437   1.008 -0.7025  2.4834 -1.2787
 6452TIP3   OH219361   2.548   0.462   0.051 -0.2826 -0.0665  0.5034
 6452TIP3    H119362   2.534   0.550   0.015 -1.7303 -1.4701 -2.7893
 6452TIP3    H219363   2.605   0.419  -0.012  0.5152 -1.4994  2.1180
 6453TIP3   OH219364   5.066   1.793   4.215  0.7413  0.1555 -0.6465
 6453TIP3    H119365   5.133   1.767   4.278  1.3368 -0.9862 -1.6979
 6453TIP3    H219366   5.115   1.836   4.145  0.1214  1.1845 -0.4709
 6454TIP3   OH219367   5.314   4.689   3.454 -0.0638  0.6721 -0.2472
 6454TIP3    H119368   5.386   4.633   3.424 -1.1577  0.1662 -2.0990
 6454TIP3    H219369   5.234   4.644   3.426 -1.2094  0.7627  2.5276
 6455TIP3   OH219370   3.467   5.388   0.697  0.7100  0.1688  0.6811
 6455TIP3    H119371   3.419   5.353   0.622 -0.4783  1.0789  0.9764
 6455TIP3    H219372   3.430   5.475   0.710  1.1224  0.1546  2.1220
 6456TIP3   OH219373   1.583   0.864   2.637 -0.0146 -0.1510  0.7049
 6456TIP3    H119374   1.563   0.846   2.729  0.2593 -3.3575  0.2576
 6456TIP3    H219375   1.667   0.909   2.638 -0.2490  0.2943  2.0210
 6457TIP3   OH219376   0.154   2.649   3.086 -0.1469  0.1523  0.8134
 6457TIP3    H119377   0.123   2.606   3.006  0.4846  0.5112  0.3609
 6457TIP3    H219378   0.086   2.713   3.106 -0.2826  0.1019  0.5307
 6458TIP3   OH219379   3.144   3.764   1.038  0.4628 -0.0241 -0.2928
 6458TIP3    H119380   3.082   3.691   1.032  0.0757  0.3381 -0.7848
 6458TIP3    H219381   3.194   3.760   0.957  0.2102  0.4579 -0.4772
 6459TIP3   OH219382   0.629   3.245   3.390  0.1420  0.3951 -0.0504
 6459TIP3    H119383   0.597   3.177   3.329 -0.9998  1.6200 -0.8832
 6459TIP3    H219384   0.724   3.246   3.377 -0.1278  1.1715 -2.4919
 6460TIP3   OH219385   0.672   4.755   1.748 -0.0242 -0.1548 -0.5981
 6460TIP3    H119386   0.663   4.844   1.780 -0.3948 -0.6799  0.8197
 6460TIP3    H219387   0.743   4.759   1.684  0.6942  0.9584  0.2369
 6461TIP3   OH219388   4.332   1.458   1.572  0.0533 -0.8033  0.4233
 6461TIP3    H119389   4.332   1.451   1.476 -1.3126 -0.6539  0.3992
 6461TIP3    H219390   4.240   1.454   1.597  0.3821 -0.7398  1.7375
 6462TIP3   OH219391   5.955   4.409   0.505 -0.0714 -0.3305  0.2981
 6462TIP3    H119392   6.001   4.382   0.425  0.1829  1.3818 -0.1680
 6462TIP3    H219393   6.011   4.377   0.576  1.1833  0.5576 -0.2525
 6463TIP3   OH219394   4.786   1.588   4.316 -0.0888  0.3635 -0.1798
 6463TIP3    H119395   4.853   1.586   4.247  1.2342  2.1180  0.9780
 6463TIP3    H219396   4.746   1.675   4.308 -1.6223 -0.3198 -0.2516
 6464TIP3   OH219397   1.773   1.107   2.509  0.2046  0.3033 -0.5076
 6464TIP3    H119398   1.731   1.100   2.595  0.5131  0.0708 -0.3738
 6464TIP3    H219399   1.866   1.096   2.527  0.3759  1.2359 -0.7477
 6465TIP3   OH219400   6.330   1.262   2.678 -0.2235  0.2665  0.3104
 6465TIP3    H119401   6.246   1.305   2.661 -0.9464  0.1916  3.1095
 6465TIP3    H219402   6.374   1.320   2.741  2.1267  0.5801 -1.5098
 6466TIP3   OH219403   4.780   3.007   3.701 -0.3167 -0.1315 -0.3461
 6466TIP3    H119404   4.817   3.063   3.769 -0.3457  0.6660 -0.9735
 6466TIP3    H219405   4.846   3.007   3.631 -1.0127  0.4106 -1.0123
 6467TIP3   OH219406   4.541   5.574   1.229  0.3927  0.6463 -0.4402
 6467TIP3    H119407   4.518   5.663   1.201  2.0992  1.8093  1.5459
 6467TIP3    H219408   4.635   5.569   1.217  0.5887 -0.2087  1.2440
 6468TIP3   OH219409   5.608   1.768   4.825 -0.2410 -0.6679 -0.0016
 6468TIP3    H119410   5.553   1.746   4.900 -0.4100  1.5492  0.5994
 6468TIP3    H219411   5.696   1.739   4.850 -0.4504 -0.6901  0.7221
 6469TIP3   OH219412   2.951   1.485   0.865  0.4909  0.4532 -0.0441
 6469TIP3    H119413   2.938   1.569   0.910  1.6276  1.2334 -1.0828
 6469TIP3    H219414   2.895   1.491   0.787  1.1814  0.6040 -0.5384
 6470TIP3   OH219415   0.557   2.221   3.124  0.0106  0.2546  0.3794
 6470TIP3    H119416   0.471   2.193   3.154 -0.3969  2.1221  1.0964
 6470TIP3    H219417   0.548   2.315   3.111  0.8486 -0.0503 -3.4328
 6471TIP3   OH219418   0.417   5.937   2.752 -0.0747 -0.3720  0.2932
 6471TIP3    H119419   0.458   5.908   2.671 -0.6531 -0.2526 -0.0417
 6471TIP3    H219420   0.491   5.956   2.810  0.3793  0.9441 -0.6794
 6472TIP3   OH219421   4.867   2.290   4.920  0.2735  0.3631 -0.4369
 6472TIP3    H119422   4.836   2.241   4.997  1.1688  2.3413  1.2540
 6472TIP3    H219423   4.932   2.232   4.880  0.6459 -0.2442  0.9772
 6473TIP3   OH219424   0.008   0.077   3.267 -0.2016 -0.3253  0.2423
 6473TIP3    H119425   0.082   0.136   3.257  0.2674 -1.0331 -0.6151
 6473TIP3    H219426  -0.039   0.110   3.343 -0.2840  1.4810 -0.5455
 6474TIP3   OH219427   2.715   4.919   2.581  0.2525 -0.0765 -0.0281
 6474TIP3    H119428   2.699   4.911   2.675  1.8951 -2.3694  0.1443
 6474TIP3    H219429   2.758   5.004   2.571 -1.9317  1.2137  0.9184
 6475TIP3   OH219430   3.404   1.480   0.903 -0.3458  0.2157  0.5278
 6475TIP3    H119431   3.382   1.419   0.832 -0.5706  0.7642  0.1193
 6475TIP3    H219432   3.485   1.446   0.939 -0.9837 -0.8900  0.9537
 6476TIP3   OH219433   6.176   1.061   2.058  0.0929 -0.1925  0.2507
 6476TIP3    H119434   6.244   1.124   2.037  0.9318 -1.2370 -0.2404
 6476TIP3    H219435   6.094   1.105   2.035  0.6980  0.4804 -0.6821
 6477TIP3   OH219436   3.172   2.660   3.626  0.4586 -0.3119 -0.7929
 6477TIP3    H119437   3.213   2.581   3.661  0.4736  0.1788  0.3461
 6477TIP3    H219438   3.239   2.698   3.569  1.6319  0.4543  1.0128
 6478TIP3   OH219439   4.064   3.441   4.669 -0.8360  0.2638 -0.5373
 6478TIP3    H119440   4.068   3.442   4.764 -0.7377 -0.8647 -0.5183
 6478TIP3    H219441   4.029   3.527   4.645  2.3635  1.9821  0.3611
 6479TIP3   OH219442   2.540   1.499   2.497 -0.2325  0.2972 -0.1573
 6479TIP3    H119443   2.499   1.463   2.417 -2.1249 -0.2388  0.9838
 6479TIP3    H219444   2.510   1.589   2.500  1.5931  0.9932 -1.1190
 6480TIP3   OH219445   1.625   1.197   2.025  0.3493 -0.1731 -0.3515
 6480TIP3    H119446   1.645   1.204   2.118 -1.1421 -1.6976  0.1306
 6480TIP3    H219447   1.557   1.263   2.009 -1.0854 -1.4683  0.2070
 6481TIP3   OH219448   3.113   5.297   1.372 -0.2569 -0.1594 -0.2623
 6481TIP3    H119449   3.127   5.291   1.277 -0.6769  0.0646 -0.3398
 6481TIP3    H219450   3.155   5.218   1.407  1.3491  0.5635 -0.4620
 6482TIP3   OH219451   0.704   4.866   3.752 -0.4053  0.4298  0.0187
 6482TIP3    H119452   0.705   4.915   3.834 -0.7894  0.7299 -0.1512
 6482TIP3    H219453   0.635   4.908   3.700 -0.6856 -0.2419 -0.1609
 6483TIP3   OH219454   3.008   1.507   5.093 -0.5655 -0.3076  0.3627
 6483TIP3    H119455   2.961   1.474   5.016 -0.3721 -1.4230  0.6981
 6483TIP3    H219456   2.939   1.545   5.148 -0.7982 -0.1273 -0.0453
 6484TIP3   OH219457   5.393   5.212   5.077  0.5080  0.4262 -0.4896
 6484TIP3    H119458   5.372   5.211   5.171  0.6844  0.5208 -0.4494
 6484TIP3    H219459   5.378   5.303   5.051  0.3752  0.3803 -0.5727
 6485TIP3   OH219460   6.300   0.973   3.762  0.2853  0.1340 -0.0689
 6485TIP3    H119461   6.385   0.988   3.804 -0.4780  0.9822  1.2596
 6485TIP3    H219462   6.321   0.964   3.669  2.0500 -1.8055  0.4274
 6486TIP3   OH219463   5.053   0.993   5.026  0.2285  0.0135  0.0884
 6486TIP3    H119464   5.027   1.081   5.051  0.5233  0.1138  0.0542
 6486TIP3    H219465   5.142   1.004   4.992  0.3642 -0.3363  0.3256
 6487TIP3   OH219466   0.926   5.108   1.154 -0.3406 -0.5129  0.0713
 6487TIP3    H119467   0.839   5.115   1.192  0.0736 -0.6918  1.0705
 6487TIP3    H219468   0.954   5.018   1.171  0.5133 -0.1236  0.8319
 6488TIP3   OH219469   4.528   2.866   4.488  0.4771  0.0703 -1.1331
 6488TIP3    H119470   4.599   2.928   4.506  0.1865 -0.3605  1.8955
 6488TIP3    H219471   4.449   2.910   4.518 -0.0431 -0.8881 -1.0611
 6489TIP3   OH219472   1.378   3.582   4.911  0.0872  0.5310 -0.0779
 6489TIP3    H119473   1.314   3.510   4.907  0.1074  0.5852 -2.2254
 6489TIP3    H219474   1.450   3.553   4.855  1.8201  0.6733  1.9528
 6490TIP3   OH219475   2.780   3.210   4.986 -0.1381 -0.3613 -0.6946
 6490TIP3    H119476   2.832   3.133   4.964  0.7056  0.0946 -0.3600
 6490TIP3    H219477   2.730   3.184   5.064 -0.7635 -0.9472 -1.2791
 6491TIP3   OH219478   6.166   5.663   4.984  0.2184 -0.2710  0.2197
 6491TIP3    H119479   6.203   5.590   4.936  1.2107 -0.1006  0.7042
 6491TIP3    H219480   6.128   5.624   5.063  2.3499 -0.1074  1.3911
 6492TIP3   OH219481   3.173   4.741   3.895 -0.0836 -0.1911  0.5238
 6492TIP3    H119482   3.087   4.780   3.878  0.0805  1.0449  2.2675
 6492TIP3    H219483   3.172   4.722   3.988  1.8205  0.6030  0.7492
 6493TIP3   OH219484   4.286   5.417   4.393 -0.8684 -0.0394 -0.6885
 6493TIP3    H119485   4.308   5.325   4.379 -0.6066  0.2469 -2.3340
 6493TIP3    H219486   4.191   5.418   4.399 -0.8402 -0.4857  0.0755
 6494TIP3   OH219487   0.735   2.256   4.568 -0.2985  0.2189  0.4152
 6494TIP3    H119488   0.806   2.304   4.611 -0.9570  2.2386 -0.6172
 6494TIP3    H219489   0.778   2.208   4.497 -0.0566  2.8337 -1.3611
 6495TIP3   OH219490   2.269   2.241   2.875 -0.2939  0.6645 -0.0089
 6495TIP3    H119491   2.347   2.297   2.883  0.8758 -0.5961 -1.8681
 6495TIP3    H219492   2.300   2.153   2.896 -1.1793  0.1198 -0.9163
 6496TIP3   OH219493   1.146   1.293   4.193  0.3907  0.4933 -0.4249
 6496TIP3    H119494   1.079   1.236   4.230 -0.0371  0.6396 -0.9595
 6496TIP3    H219495   1.101   1.341   4.123  0.0540  3.2732  1.5407
 6497TIP3   OH219496   1.466   2.128   2.379  0.2432  0.8158 -0.6277
 6497TIP3    H119497   1.476   2.200   2.317  1.2719  1.0431 -0.2151
 6497TIP3    H219498   1.552   2.120   2.421 -0.1873  0.1010  0.1471
 6498TIP3   OH219499   0.555   2.954   1.964  0.3028 -0.4390 -0.5179
 6498TIP3    H119500   0.633   3.004   1.987  0.2979 -0.6448 -0.0462
 6498TIP3    H219501   0.549   2.960   1.869  0.5008  0.1613 -0.4929
 6499TIP3   OH219502   1.512   3.187   4.004  0.2827 -0.5622  0.2227
 6499TIP3    H119503   1.437   3.240   4.031  0.8577  0.2982  0.1609
 6499TIP3    H219504   1.483   3.144   3.924  0.0943  0.3029 -0.1769
 6500TIP3   OH219505   1.171   0.408   0.556 -0.7371  0.5504 -0.0613
 6500TIP3    H119506   1.148   0.315   0.555 -0.2168  0.3888  1.2287
 6500TIP3    H219507   1.256   0.412   0.599  0.5763  1.3791 -2.5190
 6501TIP3   OH219508   6.213   0.374   3.656 -0.5399  0.2330  0.6609
 6501TIP3    H119509   6.298   0.388   3.614 -0.5802 -0.8064  0.2012
 6501TIP3    H219510   6.233   0.366   3.749 -0.3450  1.6538  0.7622
 6502TIP3   OH219511   3.528   4.351   3.351 -0.3512  0.5027  0.0310
 6502TIP3    H119512   3.553   4.278   3.408  1.7185 -1.2990 -2.9557
 6502TIP3    H219513   3.574   4.427   3.389  0.9203 -0.6092  0.8044
 6503TIP3   OH219514   4.166   1.961   1.903 -0.2164 -0.4937 -0.0230
 6503TIP3    H119515   4.223   1.915   1.842  0.2552 -0.9746  0.7529
 6503TIP3    H219516   4.220   2.031   1.939 -0.4784 -0.2342 -0.1335
 6504TIP3   OH219517   0.651   5.574   0.629 -0.2973  0.4852 -0.8258
 6504TIP3    H119518   0.579   5.637   0.626 -0.2735  0.4875 -2.2811
 6504TIP3    H219519   0.618   5.498   0.581 -0.0667 -0.3447  0.2881
 6505TIP3   OH219520   3.437   0.428   2.046 -0.1412 -0.5831 -0.1853
 6505TIP3    H119521   3.504   0.471   1.993 -1.3077 -0.0802 -1.3390
 6505TIP3    H219522   3.473   0.341   2.065  1.6866  0.3764  1.0271
 6506TIP3   OH219523   4.425   1.166   3.108  0.1012 -0.2647 -0.3160
 6506TIP3    H119524   4.434   1.097   3.174  1.1151 -0.2333 -0.4117
 6506TIP3    H219525   4.387   1.240   3.155  0.0711 -0.5062  0.0419
 6507TIP3   OH219526   1.622   5.344   0.962  0.5628  0.1458 -0.2523
 6507TIP3    H119527   1.623   5.416   0.899 -0.6302  0.9633  0.5997
 6507TIP3    H219528   1.581   5.271   0.916  2.0690 -0.1147 -1.2273
 6508TIP3   OH219529   4.401   3.258   4.262 -0.1309  0.0547  0.0376
 6508TIP3    H119530   4.375   3.249   4.170 -0.1288 -0.1042  0.0523
 6508TIP3    H219531   4.485   3.211   4.268 -0.3713 -0.3547  0.2274
 6509TIP3   OH219532   3.592   4.732   4.352 -1.0407 -0.0142 -0.2495
 6509TIP3    H119533   3.523   4.784   4.393 -1.1528  1.3894 -2.1055
 6509TIP3    H219534   3.568   4.728   4.259  0.7807 -0.4727 -0.7497
 6510TIP3   OH219535   0.423   2.069   5.047  0.3271  0.1461 -0.0454
 6510TIP3    H119536   0.356   2.133   5.072  0.2323 -0.4296  1.2333
 6510TIP3    H219537   0.470   2.111   4.975  0.5190  1.8456  0.9972
 6511TIP3   OH219538   1.669   5.467   3.276  0.0012  0.0139  0.5693
 6511TIP3    H119539   1.644   5.393   3.331  0.2386 -0.8526 -0.4366
 6511TIP3    H219540   1.593   5.480   3.219 -0.5925  1.4640  1.6338
 6512TIP3   OH219541   0.864   5.825   2.085 -0.0166  0.4647 -0.5278
 6512TIP3    H119542   0.773   5.838   2.058 -0.1240 -1.2174 -1.0951
 6512TIP3    H219543   0.916   5.853   2.010 -0.1032  0.6432 -0.5211
 6513TIP3   OH219544   5.187   3.998   4.156 -0.2752 -0.3435  0.6296
 6513TIP3    H119545   5.119   3.933   4.135  0.9429 -2.0715  1.7382
 6513TIP3    H219546   5.142   4.063   4.208 -1.2011 -1.2194  0.9641
 6514TIP3   OH219547   3.541   3.238   4.441  0.2206 -0.1797 -0.1424
 6514TIP3    H119548   3.506   3.238   4.352 -1.2700 -0.1088  0.4236
 6514TIP3    H219549   3.532   3.329   4.470 -1.7353 -0.6670  0.9635
 6515TIP3   OH219550   1.001   1.708   3.349 -0.1902 -0.0940 -0.2931
 6515TIP3    H119551   1.074   1.770   3.350  0.3175 -0.6103 -1.9992
 6515TIP3    H219552   1.043   1.622   3.359 -0.7170 -0.2925  0.2275
 6516TIP3   OH219553   5.152   5.322   0.766 -0.6299  0.0793  0.6696
 6516TIP3    H119554   5.072   5.321   0.818 -2.0034 -1.0095 -1.2886
 6516TIP3    H219555   5.171   5.229   0.750  0.2358  0.3573 -0.0059
 6517TIP3   OH219556   0.904   5.921   4.100  0.3373 -0.4131 -0.1146
 6517TIP3    H119557   0.953   5.840   4.086  1.1606 -0.0671  0.7087
 6517TIP3    H219558   0.896   5.928   4.195 -0.2840  0.1489 -0.2031
 6518TIP3   OH219559   5.518   2.702   2.001  0.4689 -0.1602 -0.1857
 6518TIP3    H119560   5.441   2.697   1.943 -0.9847  0.9527  1.5351
 6518TIP3    H219561   5.481   2.702   2.089  2.3532  1.8278  0.6898
 6519TIP3   OH219562   5.889   0.623   4.801  0.2211 -0.1493 -0.4364
 6519TIP3    H119563   5.864   0.714   4.819  2.6887  0.8344 -1.3967
 6519TIP3    H219564   5.807   0.575   4.800 -1.2299  2.1632 -0.3487
 6520TIP3   OH219565   4.656   5.249   0.056 -0.2288  0.4441 -0.7147
 6520TIP3    H119566   4.610   5.168   0.075  1.6388 -0.8625 -1.4983
 6520TIP3    H219567   4.720   5.226  -0.011  2.3544  1.8363  1.0695
 6521TIP3   OH219568   0.919   4.986   3.471  0.1663 -0.6418 -0.4388
 6521TIP3    H119569   0.899   5.075   3.443 -3.0851 -0.6338  1.3932
 6521TIP3    H219570   0.862   4.930   3.417 -1.0624 -1.1547  1.2763
 6522TIP3   OH219571   4.355   3.703   4.316  0.4613  0.5794  0.6044
 6522TIP3    H119572   4.300   3.690   4.239  1.4176  0.8098 -0.1279
 6522TIP3    H219573   4.329   3.633   4.376  0.5426 -0.3312 -0.3934
 6523TIP3   OH219574   4.473   0.435   2.801  0.0279  0.2367 -0.4034
 6523TIP3    H119575   4.543   0.370   2.798  1.7358  1.9488  0.4071
 6523TIP3    H219576   4.473   0.467   2.891 -2.1836 -0.0391 -0.2316
 6524TIP3   OH219577   1.317   5.116   2.202  0.0317 -0.0262  0.0449
 6524TIP3    H119578   1.355   5.172   2.270 -1.5705  0.2482  0.7368
 6524TIP3    H219579   1.241   5.165   2.170 -0.0933 -0.8216 -0.9103
 6525TIP3   OH219580   6.098   2.134   4.564 -0.0771 -0.0582 -0.0264
 6525TIP3    H119581   6.163   2.075   4.526 -0.4099  0.9116 -2.2863
 6525TIP3    H219582   6.115   2.218   4.522 -3.2523  0.0371 -1.4254
 6526TIP3   OH219583   5.662   5.561   4.506  0.6685 -0.3158  0.2999
 6526TIP3    H119584   5.715   5.580   4.428  1.8157  0.2283  1.1811
 6526TIP3    H219585   5.726   5.529   4.571 -0.3433 -1.2985  0.8507
 6527TIP3   OH219586   1.699   2.079   4.872  0.2579 -0.1430  0.6567
 6527TIP3    H119587   1.719   1.986   4.881 -0.8411 -0.4777 -0.0519
 6527TIP3    H219588   1.619   2.092   4.923  1.2437  0.7777  2.0422
 6528TIP3   OH219589   1.611   5.888   0.349  0.7085 -0.2024 -0.3140
 6528TIP3    H119590   1.620   5.803   0.393 -0.8428  0.0878  0.6403
 6528TIP3    H219591   1.613   5.952   0.421 -0.2897  0.4021 -0.8117
 6529TIP3   OH219592   0.908   0.022   3.740  0.3368 -0.2587  0.3515
 6529TIP3    H119593   0.832   0.055   3.692  0.6846  1.3652  0.8415
 6529TIP3    H219594   0.977   0.017   3.674  0.3301  0.2017  0.3052
 6530TIP3   OH219595   6.145   0.537   0.244  0.2975  0.2309  0.2701
 6530TIP3    H119596   6.076   0.484   0.285  0.5610 -0.8329 -0.6206
 6530TIP3    H219597   6.206   0.554   0.315  0.1948 -0.6574  0.5891
 6531TIP3   OH219598   1.686   2.138   0.511  0.1839  0.1523 -0.4349
 6531TIP3    H119599   1.672   2.187   0.592 -0.4083 -2.4084  1.1311
 6531TIP3    H219600   1.771   2.168   0.479  0.1502  1.6709  0.7795
 6532TIP3   OH219601   5.837   0.704   1.875  0.6583 -0.4658  0.3457
 6532TIP3    H119602   5.852   0.769   1.944  0.1474 -0.1768  0.1911
 6532TIP3    H219603   5.833   0.756   1.794 -0.0189 -0.6591  0.2530
 6533TIP3   OH219604   2.401   4.734   4.064  0.0658 -0.0274 -0.2318
 6533TIP3    H119605   2.384   4.811   4.118  1.4629 -1.2279  2.1147
 6533TIP3    H219606   2.348   4.665   4.104  0.5944 -0.7951 -0.8299
 6534TIP3   OH219607   2.470   3.417   4.705 -0.1605  0.1572 -0.0456
 6534TIP3    H119608   2.536   3.484   4.719 -0.5478  0.6557 -0.5647
 6534TIP3    H219609   2.507   3.338   4.744 -0.3455  1.0028  2.0016
 6535TIP3   OH219610   1.323   5.431   2.691 -0.1738  0.5564  0.3521
 6535TIP3    H119611   1.271   5.366   2.738  1.6579  0.7877  2.9240
 6535TIP3    H219612   1.364   5.483   2.760  0.8535  2.4866 -1.5858
 6536TIP3   OH219613   4.743   2.423   1.433  0.1721  0.1246  0.0707
 6536TIP3    H119614   4.654   2.406   1.402  0.2747  0.5125 -0.4370
 6536TIP3    H219615   4.771   2.501   1.386  0.6322  0.2494  0.5343
 6537TIP3   OH219616   1.628   0.205   3.189  0.4318 -0.2846 -0.3619
 6537TIP3    H119617   1.540   0.223   3.156  0.5447  1.0538  0.0240
 6537TIP3    H219618   1.666   0.145   3.124  0.1124  1.0580 -1.8592
 6538TIP3   OH219619   5.944   3.679   3.381  0.2651  0.0155  0.0028
 6538TIP3    H119620   5.878   3.742   3.353 -0.2469  0.5372  2.1552
 6538TIP3    H219621   5.899   3.594   3.376  0.1421  0.1094 -0.5564
 6539TIP3   OH219622   5.616   5.262   1.726  0.6475  0.3326  0.1379
 6539TIP3    H119623   5.614   5.168   1.747 -2.8121  0.1730 -0.3098
 6539TIP3    H219624   5.650   5.266   1.637  1.2983 -0.4024  0.3337
 6540TIP3   OH219625   4.543   5.414   1.473 -0.2866  1.0507 -0.0449
 6540TIP3    H119626   4.589   5.329   1.467 -0.4837  0.8762  0.7803
 6540TIP3    H219627   4.527   5.439   1.382 -0.3044  0.1540 -0.2983
 6541TIP3   OH219628   1.544   2.809   0.086 -0.1942 -0.2040  0.0991
 6541TIP3    H119629   1.481   2.761   0.139 -0.6679 -1.9818 -1.9618
 6541TIP3    H219630   1.515   2.797  -0.004  1.5421  1.2798 -0.7357
 6542TIP3   OH219631   1.222   5.405   0.677  0.0634 -0.1537 -0.2822
 6542TIP3    H119632   1.197   5.436   0.763  0.9951 -0.1175 -0.0092
 6542TIP3    H219633   1.139   5.384   0.633 -0.3906 -0.9227  0.8921
 6543TIP3   OH219634   5.540   0.089   4.638  0.1062  0.1752 -0.2826
 6543TIP3    H119635   5.563   0.148   4.710  0.1362 -0.5641  0.3212
 6543TIP3    H219636   5.516   0.148   4.566  1.3757  0.9485 -0.1072
 6544TIP3   OH219637   2.366   5.109   2.207 -0.7284  0.4418  0.5844
 6544TIP3    H119638   2.349   5.044   2.275 -1.0128  0.2857  0.3690
 6544TIP3    H219639   2.434   5.165   2.243 -1.8828  1.2572  1.6000
 6545TIP3   OH219640   3.394   5.592   0.456 -0.2065  0.4906  0.8486
 6545TIP3    H119641   3.469   5.652   0.448 -2.0254  2.7398 -0.5202
 6545TIP3    H219642   3.330   5.641   0.507 -1.6125 -0.4486  0.0456
 6546TIP3   OH219643   2.261   0.158   1.858  0.1348  0.3725  0.1428
 6546TIP3    H119644   2.193   0.112   1.809 -0.5115  0.0838  1.2684
 6546TIP3    H219645   2.290   0.094   1.924  2.2613  0.0995 -0.9401
 6547TIP3   OH219646   0.759   5.471   5.204  0.2457 -0.5629 -0.0899
 6547TIP3    H119647   0.735   5.379   5.197  0.5451 -0.7064  0.6659
 6547TIP3    H219648   0.842   5.477   5.157 -1.3866  0.0407 -3.1796
 6548TIP3   OH219649   0.152   1.423   0.678 -0.0035 -0.3504  0.1087
 6548TIP3    H119650   0.102   1.461   0.750  1.9324  0.8867  0.8777
 6548TIP3    H219651   0.195   1.497   0.637  0.2621 -1.2393 -1.2845
 6549TIP3   OH219652   2.671   1.223   0.152 -0.0337 -0.5031  0.0593
 6549TIP3    H119653   2.614   1.253   0.081 -0.0944  0.1282  0.3712
 6549TIP3    H219654   2.700   1.136   0.124 -0.3698 -0.4227 -0.5560
 6550TIP3   OH219655   5.108   0.254   2.047 -0.1280  0.2771  0.0124
 6550TIP3    H119656   5.060   0.244   1.965  1.8488  0.9226 -1.3084
 6550TIP3    H219657   5.174   0.321   2.028  2.3977 -1.7297  1.1366
 6551TIP3   OH219658   5.603   4.635   2.102  0.0908 -0.9667 -0.0189
 6551TIP3    H119659   5.556   4.552   2.113  1.1323 -1.5289  0.3106
 6551TIP3    H219660   5.649   4.647   2.185  2.2481 -1.5368 -1.0845
 6552TIP3   OH219661   4.479   2.661   0.125 -0.1520  0.5945 -0.3851
 6552TIP3    H119662   4.401   2.672   0.070  0.9864  0.5849 -2.0860
 6552TIP3    H219663   4.534   2.736   0.102  0.4820  0.4250  0.5669
 6553TIP3   OH219664   0.097   5.099   1.049  0.4282  0.3828  0.5384
 6553TIP3    H119665   0.149   5.147   1.114 -1.0187 -0.2477  2.2595
 6553TIP3    H219666   0.019   5.070   1.097 -1.4069  1.0244 -1.8155
 6554TIP3   OH219667   4.377  -0.007   3.985  0.2260 -0.3711  0.1885
 6554TIP3    H119668   4.423   0.058   3.931 -2.1226  1.6375  0.3820
 6554TIP3    H219669   4.432  -0.017   4.063  0.2552  2.2674  0.6257
 6555TIP3   OH219670   1.084   3.601   3.543 -0.5237 -0.5156  0.0651
 6555TIP3    H119671   1.127   3.522   3.575 -0.8654 -1.0448 -0.7436
 6555TIP3    H219672   1.069   3.584   3.450 -2.1745 -0.2147  0.2442
 6556TIP3   OH219673   1.423   3.283   4.367  0.8134  0.0995 -0.5074
 6556TIP3    H119674   1.497   3.342   4.351  0.1984  1.2099  0.5225
 6556TIP3    H219675   1.409   3.287   4.462 -0.2911 -0.4311 -0.6232
 6557TIP3   OH219676   0.831   2.349   3.439  0.6098  0.6560 -0.0987
 6557TIP3    H119677   0.858   2.343   3.347  0.0819 -0.2201 -0.2038
 6557TIP3    H219678   0.742   2.382   3.435  0.0636 -0.7570  0.0131
 6558TIP3   OH219679   2.614   1.461   1.175  0.0032  0.2073  0.2048
 6558TIP3    H119680   2.643   1.372   1.154  2.0354  0.9774 -0.4334
 6558TIP3    H219681   2.642   1.514   1.101 -3.5528  1.0378 -0.7546
 6559TIP3   OH219682   2.686   4.170   4.370 -0.0870  0.5721 -0.2290
 6559TIP3    H119683   2.728   4.255   4.384  2.0493 -0.3253 -0.7565
 6559TIP3    H219684   2.735   4.110   4.426 -1.3131 -0.4021 -0.1654
 6560TIP3   OH219685   2.445   4.788   3.396 -0.1659  0.3829 -0.7225
 6560TIP3    H119686   2.405   4.700   3.394  1.3646 -0.3317 -1.8110
 6560TIP3    H219687   2.413   4.827   3.477 -0.8365 -1.2087 -0.1798
 6561TIP3   OH219688   4.863   5.337   1.385  0.0757 -0.1571 -0.0274
 6561TIP3    H119689   4.830   5.411   1.334 -0.9034 -0.6503 -0.1276
 6561TIP3    H219690   4.899   5.377   1.464 -0.4936  0.4268 -0.0538
 6562TIP3   OH219691   2.336   1.261   4.386 -0.5960  0.0144 -0.4155
 6562TIP3    H119692   2.426   1.231   4.397 -0.3016  0.5559 -1.2193
 6562TIP3    H219693   2.286   1.182   4.368 -0.4638 -0.4156  1.0047
 6563TIP3   OH219694   2.722   0.314   0.902 -0.2411 -0.0945  0.2326
 6563TIP3    H119695   2.761   0.238   0.860 -0.2349 -0.1598  0.3577
 6563TIP3    H219696   2.656   0.278   0.962  0.4404 -0.0615  1.0262
 6564TIP3   OH219697   0.743   1.295   3.707  0.0908 -0.3543  0.4591
 6564TIP3    H119698   0.685   1.220   3.689 -1.9574  1.2105  0.1871
 6564TIP3    H219699   0.770   1.282   3.799 -0.7407 -1.0905  0.6183
 6565TIP3   OH219700   1.000   4.657   1.951  0.2300  0.0606  0.3792
 6565TIP3    H119701   1.038   4.658   1.863 -1.2453 -0.1612 -0.2842
 6565TIP3    H219702   1.068   4.618   2.006  0.8149 -0.6808 -0.8290
 6566TIP3   OH219703   0.405   4.800   3.708  0.4796  0.0563  0.1594
 6566TIP3    H119704   0.437   4.878   3.752  0.0020  0.2760  0.1199
 6566TIP3    H219705   0.365   4.833   3.627  1.7560 -0.3767 -0.6889
 6567TIP3   OH219706   2.589   1.643   0.980  0.6814 -0.1492 -0.0946
 6567TIP3    H119707   2.533   1.584   0.930 -0.7527  1.4810 -0.5353
 6567TIP3    H219708   2.542   1.727   0.978  2.1122  0.7384  1.3795
 6568TIP3   OH219709   2.385   3.328   3.421  0.0893 -0.1699 -0.0150
 6568TIP3    H119710   2.375   3.383   3.498 -0.2595 -0.6247  0.2731
 6568TIP3    H219711   2.307   3.347   3.368 -1.0769 -1.8285  1.0221
 6569TIP3   OH219712   4.946   1.200   0.138 -0.1135 -0.1512 -0.0950
 6569TIP3    H119713   4.964   1.243   0.055  0.4218  0.6214  0.4122
 6569TIP3    H219714   4.957   1.268   0.204 -0.6444 -0.7230  0.6068
 6570TIP3   OH219715   5.479   2.971   1.025  0.2735 -0.1723 -0.1219
 6570TIP3    H119716   5.481   3.043   0.962 -0.8983  0.4287  0.4871
 6570TIP3    H219717   5.549   2.992   1.087  1.7951 -1.0463 -1.4678
 6571TIP3   OH219718   3.960   0.920   2.020 -0.4043 -0.1800 -0.2072
 6571TIP3    H119719   4.007   1.003   2.025  0.5836 -0.5499 -2.1979
 6571TIP3    H219720   3.885   0.930   2.078 -0.1974  2.0188 -0.2598
 6572TIP3   OH219721   2.037   3.820   4.804 -0.3312 -0.5590 -0.3547
 6572TIP3    H119722   2.126   3.788   4.816 -0.0454  0.1201 -0.6244
 6572TIP3    H219723   2.021   3.813   4.709  0.6165  2.2880 -0.8108
 6573TIP3   OH219724   2.317   5.898   1.423  0.5496 -0.4708  0.8060
 6573TIP3    H119725   2.401   5.857   1.404  0.4127 -0.0947 -0.7316
 6573TIP3    H219726   2.258   5.865   1.355 -0.3690 -0.1759  1.4420
 6574TIP3   OH219727   3.559   4.709   3.230  0.4345 -0.3847  0.0751
 6574TIP3    H119728   3.468   4.738   3.224 -0.4280 -2.8141  0.5964
 6574TIP3    H219729   3.566   4.640   3.165  1.7804 -0.5895  0.4197
 6575TIP3   OH219730   5.515   0.219   4.386 -0.0374  1.0155  0.2108
 6575TIP3    H119731   5.512   0.247   4.295  0.3427  0.1674 -0.0746
 6575TIP3    H219732   5.465   0.138   4.388 -0.4085  1.2522  0.8489
 6576TIP3   OH219733   1.378   5.356   5.126  0.8280  0.1427  0.0747
 6576TIP3    H119734   1.401   5.263   5.128  0.9332  0.0994 -1.7229
 6576TIP3    H219735   1.434   5.393   5.057 -1.0969  0.9686 -1.1331
 6577TIP3   OH219736   3.277   1.184   0.025  0.4648  0.2681 -0.7387
 6577TIP3    H119737   3.357   1.222   0.061 -0.0818  1.1291 -0.3926
 6577TIP3    H219738   3.264   1.102   0.074  1.1864  0.0623 -0.8860
 6578TIP3   OH219739   4.383   5.823   0.890 -0.1603  0.0577  0.2199
 6578TIP3    H119740   4.478   5.831   0.885 -0.2690  0.8593 -1.0299
 6578TIP3    H219741   4.365   5.733   0.863  0.0636  0.9734 -3.5987
 6579TIP3   OH219742   3.231   3.104   1.096  0.3966 -0.2445  0.5873
 6579TIP3    H119743   3.233   3.103   1.192  1.2342 -2.0752  0.5880
 6579TIP3    H219744   3.281   3.026   1.070 -0.5235 -0.2526 -1.3263
 6580TIP3   OH219745   1.065   2.049   3.877 -0.1512 -0.2646 -0.0411
 6580TIP3    H119746   1.008   1.974   3.861 -1.1951  0.3419  0.7319
 6580TIP3    H219747   1.112   2.062   3.795  1.1543 -2.6638  0.2281
 6581TIP3   OH219748   5.272   5.921   2.857  0.3900 -0.5695 -0.1779
 6581TIP3    H119749   5.305   5.960   2.776  0.9709 -1.2174 -0.2664
 6581TIP3    H219750   5.344   5.929   2.919  0.1381 -0.5611  0.1187
 6582TIP3   OH219751   3.351   1.163   0.822 -0.5259 -0.3603 -0.5456
 6582TIP3    H119752   3.332   1.183   0.731  0.9498 -1.4006 -1.1264
 6582TIP3    H219753   3.438   1.199   0.837 -0.0986 -1.5358 -0.0369
 6583TIP3   OH219754   2.431   4.879   0.623 -0.4044  0.0304  0.4118
 6583TIP3    H119755   2.463   4.908   0.538 -0.0160 -2.5739 -0.4448
 6583TIP3    H219756   2.506   4.888   0.682 -0.2711  0.6031  0.1603
 6584TIP3   OH219757   2.559   4.112   4.768  0.2464 -0.0111 -0.5957
 6584TIP3    H119758   2.491   4.175   4.792  0.1373 -1.0414  2.1205
 6584TIP3    H219759   2.523   4.067   4.691 -1.3849  0.6114 -0.2493
 6585TIP3   OH219760   4.829   5.553   4.569 -0.4142 -0.9587  0.0579
 6585TIP3    H119761   4.844   5.623   4.632  1.6396 -0.8645 -0.4885
 6585TIP3    H219762   4.863   5.587   4.486  0.7651 -2.6282 -0.1919
 6586TIP3   OH219763   4.357   1.852   2.785  0.1432 -0.0258 -0.4993
 6586TIP3    H119764   4.417   1.779   2.764 -0.7107 -0.5663 -1.1575
 6586TIP3    H219765   4.288   1.812   2.837  0.3113  0.5867  0.2117
 6587TIP3   OH219766   4.345   0.777   4.030  0.5982  0.1883 -0.6172
 6587TIP3    H119767   4.273   0.755   3.969  2.0855 -0.5434 -2.1987
 6587TIP3    H219768   4.303   0.832   4.097 -1.7257 -1.3439 -0.6819
 6588TIP3   OH219769   3.822   1.232   4.945  0.4002 -0.1781  0.4827
 6588TIP3    H119770   3.817   1.156   5.004 -1.3764 -0.4975 -0.0292
 6588TIP3    H219771   3.754   1.216   4.880  0.3901  1.5875  0.0226
 6589TIP3   OH219772   5.655   0.359   2.395 -0.1407 -0.5528 -0.0273
 6589TIP3    H119773   5.746   0.361   2.426 -0.0867  0.2882 -0.2335
 6589TIP3    H219774   5.609   0.421   2.452 -0.3724 -0.2109 -0.5748
 6590TIP3   OH219775   0.426   2.257   0.396  0.3320 -0.1479  0.6083
 6590TIP3    H119776   0.419   2.352   0.405  1.0863 -0.1219  1.0171
 6590TIP3    H219777   0.375   2.236   0.317 -0.3794  0.5115  0.8812
 6591TIP3   OH219778   0.660   5.900   1.869 -0.5177 -0.0413  0.0118
 6591TIP3    H119779   0.739   5.951   1.884  1.4451 -2.9683  0.4815
 6591TIP3    H219780   0.674   5.858   1.784 -1.1378 -1.2760  0.4939
 6592TIP3   OH219781   1.278   3.044   3.837  0.3649 -0.2624 -0.1474
 6592TIP3    H119782   1.252   2.979   3.773  1.3972 -1.0145  0.1707
 6592TIP3    H219783   1.294   2.994   3.917  0.0396  0.5370  0.4319
 6593TIP3   OH219784   3.031   5.541   3.461 -0.1553  0.0943 -0.3090
 6593TIP3    H119785   3.000   5.568   3.547  0.7948  3.4325 -0.8992
 6593TIP3    H219786   2.964   5.572   3.400  0.2652 -0.2192 -0.9410
 6594TIP3   OH219787   3.873   3.442   3.925  0.0104 -0.8530 -0.0070
 6594TIP3    H119788   3.956   3.395   3.919  0.4134 -0.1235 -0.3374
 6594TIP3    H219789   3.892   3.518   3.980  0.0697  0.3130 -1.5528
 6595TIP3   OH219790   0.002   2.878   5.009  0.1673  0.1220 -0.2552
 6595TIP3    H119791  -0.020   2.788   4.983  0.5969  0.1909 -0.8757
 6595TIP3    H219792   0.082   2.868   5.062 -1.2995 -0.1364  2.0542
 6596TIP3   OH219793   4.339   0.175   4.294 -0.0488 -0.2950 -0.1572
 6596TIP3    H119794   4.422   0.198   4.336  0.1046  0.9482 -1.0790
 6596TIP3    H219795   4.284   0.144   4.365  1.0166 -0.5741  0.5646
 6597TIP3   OH219796   3.509   0.146   2.096  0.1873 -0.0258 -0.1728
 6597TIP3    H119797   3.509   0.051   2.107  0.1866 -0.2092 -1.5719
 6597TIP3    H219798   3.463   0.179   2.174 -1.2033 -1.2817 -0.4024
 6598TIP3   OH219799   4.294   4.856   0.518  0.2753 -0.1088 -0.6986
 6598TIP3    H119800   4.221   4.839   0.578  1.2839 -1.3129  0.2181
 6598TIP3    H219801   4.342   4.928   0.559  0.0763  0.1246 -0.8738
 6599TIP3   OH219802   4.819   2.135   1.428  0.6101 -0.1817 -0.1500
 6599TIP3    H119803   4.746   2.073   1.436  0.5786 -0.3250 -1.3157
 6599TIP3    H219804   4.780   2.220   1.449  0.4772 -0.4460  0.7242
 6600TIP3   OH219805   1.273   5.050   4.462 -0.3034 -0.4435  0.2695
 6600TIP3    H119806   1.191   5.099   4.461  0.6154  1.1771  0.3546
 6600TIP3    H219807   1.327   5.093   4.396  0.5304 -1.4012  0.3025
 6601TIP3   OH219808   4.553   5.687   3.387  0.3507  0.9378  0.2456
 6601TIP3    H119809   4.640   5.654   3.366  1.4616  3.3388  0.7901
 6601TIP3    H219810   4.496   5.646   3.322  2.2714  1.2370 -1.7426
 6602TIP3   OH219811   1.380   4.521   4.293 -0.0170  0.0197 -0.2534
 6602TIP3    H119812   1.335   4.600   4.322  0.6848 -0.6621  3.1665
 6602TIP3    H219813   1.340   4.500   4.209 -0.3399  3.8363 -1.2265
 6603TIP3   OH219814   5.378   0.492   4.872  0.1580 -0.5346  0.3511
 6603TIP3    H119815   5.310   0.487   4.805  0.6456  0.7504 -0.2909
 6603TIP3    H219816   5.333   0.472   4.954 -0.3299 -2.7259 -0.4030
 6604TIP3   OH219817   0.128   4.375   0.240  0.1615  0.2389  0.0119
 6604TIP3    H119818   0.172   4.352   0.158 -1.7590  0.9446 -1.3132
 6604TIP3    H219819   0.077   4.298   0.262 -1.4656  0.9609 -1.0319
 6605TIP3   OH219820   1.015   1.661   5.089  0.1314 -0.2100  0.3513
 6605TIP3    H119821   0.991   1.647   4.997 -1.4970  0.0963  0.7136
 6605TIP3    H219822   1.103   1.624   5.096 -0.5738 -2.2392 -0.8038
 6606TIP3   OH219823   5.453   3.966   4.060  0.4418 -0.8581  0.3196
 6606TIP3    H119824   5.370   4.004   4.087  1.8246  1.6017  1.4833
 6606TIP3    H219825   5.451   3.968   3.964 -1.3509 -2.2109  0.2757
 6607TIP3   OH219826   6.216   3.533   3.093 -0.2120 -0.1522 -0.0410
 6607TIP3    H119827   6.296   3.553   3.142  0.5244 -3.1550  0.1847
 6607TIP3    H219828   6.243   3.533   3.002 -0.0281 -0.7633  0.0087
 6608TIP3   OH219829   5.852   3.129   2.092 -0.3736  0.6537 -0.2063
 6608TIP3    H119830   5.878   3.219   2.075 -0.6914  0.8973  0.5642
 6608TIP3    H219831   5.757   3.129   2.088 -0.5128  0.8575  2.0558
 6609TIP3   OH219832   0.586   0.562   2.577  0.2461 -0.1168  0.0729
 6609TIP3    H119833   0.548   0.642   2.542  0.3195 -0.5786 -1.1226
 6609TIP3    H219834   0.541   0.492   2.529 -1.4701 -0.9388  2.6461
 6610TIP3   OH219835   1.107   5.491   2.945 -1.0862  0.0359  0.2992
 6610TIP3    H119836   1.100   5.586   2.937  0.0155  0.0892 -0.2795
 6610TIP3    H219837   1.201   5.473   2.934 -1.4952 -1.2836 -1.5401
 6611TIP3   OH219838   2.291   5.256   3.501 -0.0941 -0.1587  0.3596
 6611TIP3    H119839   2.298   5.186   3.566  0.5412  0.1185  0.5918
 6611TIP3    H219840   2.381   5.284   3.486 -0.3274  0.4857  0.1313
 6612TIP3   OH219841   5.299   5.017   4.504  0.3950  1.2262  0.4307
 6612TIP3    H119842   5.252   5.063   4.573 -0.1403  0.1430  0.8049
 6612TIP3    H219843   5.383   5.063   4.497  1.0430  0.5040  2.7673
 6613TIP3   OH219844   6.304   1.702   3.490  0.1943  1.1141 -0.3409
 6613TIP3    H119845   6.264   1.684   3.405 -1.6580  0.5318  0.5951
 6613TIP3    H219846   6.368   1.632   3.502 -1.7828 -0.7244  0.0698
 6614TIP3   OH219847   3.352   0.074   3.640  1.0598  0.2594 -0.1299
 6614TIP3    H119848   3.368   0.142   3.705  1.4535  1.1460 -1.1299
 6614TIP3    H219849   3.275   0.027   3.673 -0.3940  2.3577 -0.3223
 6615TIP3   OH219850   6.356   0.916   3.316  0.2461 -1.1268  0.5120
 6615TIP3    H119851   6.262   0.932   3.314  0.3348 -0.6549 -1.0382
 6615TIP3    H219852   6.374   0.870   3.234  1.3934 -1.0608  0.7153
 6616TIP3   OH219853   2.249   5.470   0.084  0.0417 -0.2418  0.4178
 6616TIP3    H119854   2.330   5.503   0.122  0.1311  0.0200  0.0058
 6616TIP3    H219855   2.275   5.392   0.035 -0.0156 -0.3709  0.5924
 6617TIP3   OH219856   4.629   3.718   1.801 -0.7062  0.4079 -0.1206
 6617TIP3    H119857   4.631   3.811   1.823  2.5414  0.1609  1.2233
 6617TIP3    H219858   4.583   3.714   1.717 -2.8264  2.9123  0.8032
 6618TIP3   OH219859   0.596   1.208   5.186  0.6760  0.4490 -0.6150
 6618TIP3    H119860   0.504   1.199   5.210  1.1084 -0.2880  0.8919
 6618TIP3    H219861   0.609   1.143   5.117  0.4011 -0.5767  0.2567
 6619TIP3   OH219862   1.180   4.639   0.498  0.3845 -0.1196 -0.1105
 6619TIP3    H119863   1.272   4.641   0.524  0.4219 -0.0920 -0.2398
 6619TIP3    H219864   1.177   4.575   0.426 -0.0436 -1.5836  1.1665
 6620TIP3   OH219865   0.506   1.317   3.429 -0.2648 -0.4509 -0.5992
 6620TIP3    H119866   0.592   1.355   3.413  0.1681 -0.1584  1.9273
 6620TIP3    H219867   0.507   1.233   3.383  1.1319 -0.1884 -1.0833
 6621TIP3   OH219868   4.323   3.045   2.389  0.0678  0.1393 -0.2366
 6621TIP3    H119869   4.248   3.104   2.381  1.3167  1.8123 -0.1199
 6621TIP3    H219870   4.391   3.084   2.333  1.1839 -0.7890  0.4135
 6622TIP3   OH219871   1.541   2.435   2.381 -0.7837  0.2109  1.4693
 6622TIP3    H119872   1.578   2.467   2.299 -0.0857 -2.8664  0.4348
 6622TIP3    H219873   1.474   2.499   2.404 -0.3332  1.6975 -0.9595
 6623TIP3   OH219874   4.899   3.631   0.254  0.1611  0.7518 -0.2875
 6623TIP3    H119875   4.835   3.578   0.208 -0.7183  1.1223  0.4880
 6623TIP3    H219876   4.894   3.718   0.213 -0.5907  1.0694  0.4442
 6624TIP3   OH219877   3.542   0.915   0.288  0.1260  0.2325  0.7468
 6624TIP3    H119878   3.600   0.946   0.358 -1.0966  0.4780  1.6901
 6624TIP3    H219879   3.531   0.822   0.305  2.0927 -0.3523 -0.8352
 6625TIP3   OH219880   1.565   0.577   3.867 -1.1210  0.6646 -0.2412
 6625TIP3    H119881   1.513   0.558   3.945 -1.6128  0.9038 -0.5014
 6625TIP3    H219882   1.652   0.542   3.886 -0.5803  2.6351  1.2946
 6626TIP3   OH219883   6.168   3.322   1.157 -0.3949  0.0802 -0.1635
 6626TIP3    H119884   6.124   3.355   1.236  0.0901  3.7361 -1.2206
 6626TIP3    H219885   6.258   3.352   1.167  0.7604 -2.9989 -0.3257
 6627TIP3   OH219886   0.604   0.357   1.265 -0.9138  0.2020 -0.0414
 6627TIP3    H119887   0.584   0.447   1.291 -0.1251  0.3092  0.2280
 6627TIP3    H219888   0.524   0.326   1.223 -1.2497  0.9778 -0.0010
 6628TIP3   OH219889   5.728   0.638   0.513  0.5942 -0.1221 -0.0840
 6628TIP3    H119890   5.729   0.573   0.584  0.2289 -0.3580 -0.2887
 6628TIP3    H219891   5.695   0.718   0.553 -2.1339 -0.9274 -0.5248
 6629TIP3   OH219892   2.248   4.657   4.480  0.3854 -0.2966  0.4421
 6629TIP3    H119893   2.169   4.607   4.501 -0.2556 -0.2108 -1.5805
 6629TIP3    H219894   2.228   4.746   4.512 -0.7712 -0.0383 -0.8921
 6630TIP3   OH219895   2.767   2.354   4.822  0.3289  0.1932 -0.3167
 6630TIP3    H119896   2.813   2.424   4.776  0.0852  0.3628 -0.3004
 6630TIP3    H219897   2.681   2.350   4.781 -0.6178  1.6651  1.3841
 6631TIP3   OH219898   5.990   5.815   3.961  0.1856  0.4989 -0.2485
 6631TIP3    H119899   6.074   5.846   3.995  1.1737 -0.7849 -1.4335
 6631TIP3    H219900   5.973   5.870   3.884 -0.1200  0.8166  0.0412
 6632TIP3   OH219901   4.468   1.752   3.461  0.4084 -0.0067  0.1633
 6632TIP3    H119902   4.389   1.698   3.458  1.7652 -2.1795  1.0263
 6632TIP3    H219903   4.484   1.766   3.554  1.0075  0.4640 -0.0032
 6633TIP3   OH219904   1.934   0.304   1.769 -0.1543 -0.6586 -0.2225
 6633TIP3    H119905   1.957   0.285   1.860 -0.7426 -1.5118 -0.2430
 6633TIP3    H219906   1.974   0.234   1.719 -0.3903 -0.5568 -0.5555
 6634TIP3   OH219907   1.152   5.472   0.961 -0.3431  0.2667 -0.3595
 6634TIP3    H119908   1.071   5.467   1.011  0.0191  0.4885  0.2619
 6634TIP3    H219909   1.220   5.484   1.027  0.1345  0.6859 -0.9175
 6635TIP3   OH219910   4.935   4.507   4.159  0.5445 -0.1058 -0.3720
 6635TIP3    H119911   5.028   4.497   4.137  0.4735  2.0005 -2.0498
 6635TIP3    H219912   4.925   4.601   4.175 -1.2239 -0.3693  0.2350
 6636TIP3   OH219913   2.887   4.725   1.221 -0.4034 -0.6840  0.0471
 6636TIP3    H119914   2.876   4.684   1.306  1.5281 -1.5254 -0.0628
 6636TIP3    H219915   2.881   4.653   1.158 -2.4894  0.0142 -0.6371
 6637TIP3   OH219916   3.615   5.277   2.794  0.0930  0.0853  0.5782
 6637TIP3    H119917   3.663   5.205   2.753 -0.3353  0.6280 -0.9653
 6637TIP3    H219918   3.528   5.241   2.812  0.4164 -0.2824  1.4126
 6638TIP3   OH219919   2.624   3.938   4.528  0.0322  0.3691  0.3060
 6638TIP3    H119920   2.677   3.862   4.552  1.5663  1.1898 -0.3463
 6638TIP3    H219921   2.538   3.901   4.507  0.2361 -0.9792  1.6059
 6639TIP3   OH219922   5.013   3.964   2.586  0.4122  0.2412  0.0165
 6639TIP3    H119923   5.050   4.015   2.513 -0.6583  1.1501  0.0779
 6639TIP3    H219924   5.021   4.021   2.662  0.5294 -0.2699  0.3933
 6640TIP3   OH219925   6.145   4.378   0.303 -0.4856 -0.0472 -0.1047
 6640TIP3    H119926   6.177   4.289   0.294 -0.5656 -0.0960  0.0750
 6640TIP3    H219927   6.192   4.413   0.379  2.2433  1.2753 -2.2162
   6.35749   5.99390   5.19087   0.00000   0.00000  -2.11916   0.00000  -2.11916  -2.99696
