Title
  165
    1GLY      N    1   6.698   4.244   2.334  0.5048 -0.3617 -0.5836
    1GLY    HT1    2   6.660   4.304   2.258 -1.7216  0.6946  1.2352
    1GLY    HT2    3   6.674   4.285   2.427 -1.4352 -1.0837 -0.7303
    1GLY    HT3    4   6.645   4.154   2.337 -0.3218  0.1304  0.5958
    1GLY     CA    5   6.843   4.210   2.317  0.2103  0.2425 -0.5340
    1GLY    HA1    6   6.880   4.167   2.409  0.8465  0.1238 -0.8406
    1GLY    HA2    7   6.898   4.290   2.269 -0.4677  1.1602  0.2003
    1GLY      C    8   6.849   4.106   2.211 -0.1322 -0.0509 -0.1142
    1GLY      O    9   6.749   4.058   2.158  0.3877 -0.0774  0.1201
    2PRO      N   10   6.977   4.053   2.184  0.7041 -0.0726  0.8948
    2PRO     CD   11   7.098   4.107   2.244 -0.1719 -0.1590  0.0299
    2PRO    HD1   12   7.109   4.064   2.346 -0.2474  1.1291  0.5932
    2PRO    HD2   13   7.116   4.216   2.249  1.4110 -0.3946 -0.0087
    2PRO     CA   14   7.007   3.938   2.097 -0.3122 -0.3591  0.1651
    2PRO     HA   15   7.004   3.969   1.993 -0.0248  0.9732  0.5361
    2PRO     CB   16   7.153   3.898   2.125  0.4477  0.2595 -0.0093
    2PRO    HB1   17   7.198   3.843   2.040 -0.4886  0.5916 -0.7403
    2PRO    HB2   18   7.149   3.829   2.212 -2.0339 -0.3259 -0.5076
    2PRO     CG   19   7.214   4.037   2.163  0.6109  0.2278 -0.2069
    2PRO    HG1   20   7.315   4.032   2.208  0.2356 -0.7734  0.5693
    2PRO    HG2   21   7.219   4.087   2.064  0.5800 -0.5720 -0.6230
    2PRO      C   22   6.912   3.819   2.102 -0.3147  0.0124 -0.7784
    2PRO      O   23   6.883   3.771   2.212  0.1621  0.2658  0.2186
    3GLY      N   24   6.857   3.768   1.988 -0.6253 -0.0595 -0.2393
    3GLY     HN   25   6.877   3.819   1.905 -0.7761 -1.7002 -1.3255
    3GLY     CA   26   6.794   3.638   1.983 -0.0255 -0.7407 -0.7354
    3GLY    HA1   27   6.820   3.574   2.066 -1.0867 -1.1846 -0.7239
    3GLY    HA2   28   6.815   3.593   1.887  1.3385 -1.4033 -0.1538
    3GLY      C   29   6.641   3.643   1.980 -0.1171 -0.5705  0.0262
    3GLY      O   30   6.583   3.751   1.958 -0.5038  0.9739  0.1016
    4ASP      N   31   6.578   3.528   2.004 -0.2107  0.2777 -0.3322
    4ASP     HN   32   6.639   3.450   2.013  2.5110  2.4980  3.3593
    4ASP     CA   33   6.433   3.514   2.001  0.5621 -0.6054  0.0957
    4ASP     HA   34   6.392   3.536   1.903 -1.7926 -1.4895  0.8124
    4ASP     CB   35   6.379   3.373   2.038  0.2879 -0.3196 -0.5978
    4ASP    HB1   36   6.268   3.378   2.033  0.2435  1.7403  1.2029
    4ASP    HB2   37   6.409   3.342   2.140 -1.3879 -0.1027  0.0020
    4ASP     CG   38   6.425   3.268   1.939  0.4337 -0.2088  0.0420
    4ASP    OD1   39   6.387   3.151   1.958  0.4074 -0.5349  0.1437
    4ASP    OD2   40   6.508   3.288   1.847  0.2839 -0.6186 -0.1247
    4ASP      C   41   6.363   3.616   2.101 -0.2999 -1.1416  0.2776
    4ASP      O   42   6.416   3.646   2.209 -0.1078 -0.3897  0.7935
    5PRO      N   43   6.239   3.669   2.078 -0.1620  0.5591 -0.2277
    5PRO     CD   44   6.174   3.668   1.949 -0.3876  0.3836  0.6658
    5PRO    HD1   45   6.127   3.567   1.948 -1.3476  0.7982  1.4153
    5PRO    HD2   46   6.247   3.681   1.867 -0.7838 -0.9931  0.0630
    5PRO     CA   47   6.167   3.744   2.175 -0.1701 -0.0231  0.1755
    5PRO     HA   48   6.228   3.832   2.186 -1.5999  1.2720 -1.7308
    5PRO     CB   49   6.033   3.769   2.109 -0.0676  0.2612 -0.3194
    5PRO    HB1   50   5.988   3.866   2.138 -0.8292 -0.1612 -0.0688
    5PRO    HB2   51   5.955   3.692   2.123 -0.9456  1.3246  0.8039
    5PRO     CG   52   6.070   3.786   1.962 -0.4058  0.8157  0.7674
    5PRO    HG1   53   5.986   3.765   1.893 -0.2162 -0.8552  1.0057
    5PRO    HG2   54   6.114   3.885   1.937  0.7023  0.8013  2.4503
    5PRO      C   55   6.154   3.685   2.319 -0.3699  0.5365  0.6162
    5PRO      O   56   6.118   3.570   2.342 -0.4363  0.2997  0.1266
    6GLY      N   57   6.199   3.766   2.413 -0.4007 -0.0678 -0.3750
    6GLY     HN   58   6.235   3.856   2.391 -1.9808  0.3418 -1.4180
    6GLY     CA   59   6.206   3.717   2.554  0.1660 -0.5124  0.5894
    6GLY    HA1   60   6.259   3.797   2.604 -0.6380  2.0074 -2.2529
    6GLY    HA2   61   6.264   3.626   2.550 -0.6560 -1.0108 -0.5809
    6GLY      C   62   6.078   3.700   2.626  0.0727  0.0600 -0.8060
    6GLY      O   63   5.972   3.726   2.575  0.2469 -0.3055 -0.5553
    7PRO      N   64   6.083   3.662   2.751 -0.0341  0.0444 -0.2125
    7PRO     CD   65   6.204   3.613   2.818 -0.1794  0.2628  0.2121
    7PRO    HD1   66   6.269   3.698   2.846  1.0677 -0.8644  0.8442
    7PRO    HD2   67   6.273   3.551   2.758 -2.0742 -0.2073 -1.5964
    7PRO     CA   68   5.970   3.661   2.845 -0.3308  0.7633  0.2356
    7PRO     HA   69   5.903   3.586   2.805  0.9096 -0.1516 -0.2137
    7PRO     CB   70   6.033   3.634   2.981  0.4435  0.3055 -0.0485
    7PRO    HB1   71   5.963   3.572   3.040  1.7381 -0.4250  0.7834
    7PRO    HB2   72   6.080   3.724   3.028  0.5641  0.8616 -1.1804
    7PRO     CG   73   6.159   3.553   2.950  0.2104 -0.2175  0.8043
    7PRO    HG1   74   6.230   3.552   3.035 -1.6502  0.4143  2.4660
    7PRO    HG2   75   6.143   3.445   2.928  0.8420 -0.1294 -0.1016
    7PRO      C   76   5.886   3.784   2.853 -0.0195 -0.2894  0.1749
    7PRO      O   77   5.947   3.890   2.851  0.0624  0.2060 -0.3557
    8GLY      N   78   5.750   3.782   2.864  0.3607 -0.0404  0.0180
    8GLY     HN   79   5.716   3.689   2.874  3.7962 -1.1683  3.8707
    8GLY     CA   80   5.676   3.905   2.878  0.0021  0.3518  0.8059
    8GLY    HA1   81   5.577   3.870   2.904  1.1931 -1.5525  3.2401
    8GLY    HA2   82   5.687   3.956   2.783  1.2545  0.5478  1.0417
    8GLY      C   83   5.717   4.004   2.987 -0.0685 -0.7051  0.0679
    8GLY      O   84   5.802   3.979   3.074  0.1286 -0.3443 -0.1228
    9ASP      N   85   5.672   4.126   2.980 -0.1813 -0.7780 -0.9302
    9ASP     HN   86   5.619   4.146   2.897  2.6929 -1.7334 -3.1617
    9ASP     CA   87   5.696   4.236   3.072 -0.1313 -1.0826  0.0213
    9ASP     HA   88   5.804   4.242   3.081 -0.0598  1.1150 -1.4520
    9ASP     CB   89   5.640   4.374   3.016  1.3170  0.1845 -0.9683
    9ASP    HB1   90   5.642   4.456   3.091  1.3809 -1.2181  0.6132
    9ASP    HB2   91   5.532   4.356   2.996  1.2145  0.4895 -0.6962
    9ASP     CG   92   5.698   4.429   2.892 -0.6527  0.7648  0.0670
    9ASP    OD1   93   5.754   4.349   2.810 -0.1757  0.6212  0.8659
    9ASP    OD2   94   5.677   4.550   2.859  0.4812  0.0476  0.1398
    9ASP      C   95   5.638   4.207   3.213 -0.2774  0.4575  0.6235
    9ASP      O   96   5.524   4.160   3.209 -0.6927  0.4523  0.1900
   10PRO      N   97   5.705   4.234   3.325  0.4449 -0.2277 -0.2578
   10PRO     CD   98   5.846   4.281   3.328 -0.1291 -0.1617 -0.7192
   10PRO    HD1   99   5.859   4.371   3.263 -2.0312  0.4860 -0.2539
   10PRO    HD2  100   5.916   4.204   3.287 -0.5888  0.7526 -3.4245
   10PRO     CA  101   5.624   4.285   3.441 -0.4841  0.3338 -0.8841
   10PRO     HA  102   5.604   4.200   3.505 -1.2889  1.1312 -0.0334
   10PRO     CB  103   5.732   4.377   3.508  0.3919  0.4884  0.4108
   10PRO    HB1  104   5.730   4.382   3.619 -1.3307  2.3379  0.3555
   10PRO    HB2  105   5.715   4.478   3.466 -0.4190  1.2664  2.4618
   10PRO     CG  106   5.869   4.321   3.467  0.5784  0.1915 -0.8733
   10PRO    HG1  107   5.944   4.400   3.490  0.1919 -0.1841  2.1291
   10PRO    HG2  108   5.893   4.234   3.531  0.3528 -0.3216 -1.4738
   10PRO      C  109   5.494   4.362   3.415  0.0581 -0.2659  0.0706
   10PRO      O  110   5.488   4.433   3.312 -0.0306  0.2893 -0.0617
   11GLY      N  111   5.395   4.342   3.499 -0.1815  0.0370 -0.1863
   11GLY     HN  112   5.415   4.291   3.582 -0.5324  0.6320  0.2673
   11GLY     CA  113   5.255   4.384   3.482 -0.1206  0.1300 -0.9881
   11GLY    HA1  114   5.198   4.344   3.564  0.5284  1.0291 -0.0768
   11GLY    HA2  115   5.219   4.348   3.387 -0.1345  1.3776 -1.4750
   11GLY      C  116   5.218   4.541   3.491 -0.3523  0.2710 -0.6330
   11GLY      O  117   5.302   4.627   3.505 -0.5366  0.6944 -0.3317
   12PRO      N  118   5.085   4.565   3.486 -0.1192  0.1311  0.4157
   12PRO     CD  119   4.989   4.465   3.446 -1.4481 -0.5498  0.0714
   12PRO    HD1  120   4.990   4.380   3.518  2.9696 -0.7963 -0.0416
   12PRO    HD2  121   5.018   4.429   3.345  0.0424  1.4755 -0.2886
   12PRO     CA  122   5.023   4.683   3.544 -0.3398  0.7260  0.2589
   12PRO     HA  123   5.042   4.764   3.475  0.7804 -0.8129 -1.3126
   12PRO     CB  124   4.875   4.649   3.543 -0.4357  0.1736  0.1881
   12PRO    HB1  125   4.816   4.738   3.514 -1.9449 -0.7280  0.4038
   12PRO    HB2  126   4.836   4.614   3.640 -3.4570 -1.1260 -1.3613
   12PRO     CG  127   4.860   4.541   3.438  0.4613 -0.5417  0.2459
   12PRO    HG1  128   4.770   4.480   3.464 -0.4579  0.7489  0.1887
   12PRO    HG2  129   4.839   4.581   3.337  0.0640 -0.5791  0.3128
   12PRO      C  130   5.069   4.731   3.682  0.0879  0.3622  0.3554
   12PRO      O  131   5.048   4.659   3.781 -0.1322 -0.3819  0.2192
   13GLY      N  132   5.111   4.857   3.683  0.8791  0.6274 -0.4755
   13GLY     HN  133   5.112   4.910   3.598 -0.4870 -2.4183 -2.5479
   13GLY     CA  134   5.145   4.932   3.804  0.3624 -0.1078  0.1150
   13GLY    HA1  135   5.155   5.034   3.769  0.5277  0.3559  1.4386
   13GLY    HA2  136   5.242   4.904   3.842  0.1629  0.1133  0.8148
   13GLY      C  137   5.052   4.929   3.921  0.1939 -0.3934  0.1565
   13GLY      O  138   4.933   4.903   3.907  0.3994 -0.3317  0.4931
   14ASP      N  139   5.119   4.956   4.036  0.0902  0.5246 -0.1887
   14ASP     HN  140   5.218   4.958   4.033  0.0848  0.9262 -0.1350
   14ASP     CA  141   5.053   4.953   4.164 -0.2896 -0.3510 -0.3448
   14ASP     HA  142   5.000   4.859   4.166  0.0801 -0.5547 -0.0138
   14ASP     CB  143   5.162   4.970   4.269 -0.1197  0.0682 -1.0007
   14ASP    HB1  144   5.120   4.999   4.367  1.4311  2.8152 -1.0394
   14ASP    HB2  145   5.239   5.044   4.240  0.4373  1.0038  2.4839
   14ASP     CG  146   5.230   4.838   4.298 -0.1984 -0.9487  0.2555
   14ASP    OD1  147   5.183   4.737   4.237 -0.0179 -0.1107 -0.5167
   14ASP    OD2  148   5.323   4.838   4.383  0.2122  0.0354  0.2008
   14ASP      C  149   4.953   5.070   4.189 -0.1035  0.4030 -0.1883
   14ASP      O  150   4.993   5.182   4.159 -0.3711 -0.6304  0.4573
   15PRO      N  151   4.826   5.055   4.219 -0.1846 -0.3003  0.0536
   15PRO     CD  152   4.759   4.924   4.238  0.4610 -0.3440  0.3883
   15PRO    HD1  153   4.762   4.890   4.343 -4.2805 -0.6484  0.5968
   15PRO    HD2  154   4.813   4.845   4.182  0.8769  0.2860 -0.1154
   15PRO     CA  155   4.728   5.165   4.223  0.0853  0.1750 -0.0143
   15PRO     HA  156   4.730   5.219   4.130 -0.7222 -0.3727 -0.3548
   15PRO     CB  157   4.591   5.092   4.248 -0.4304 -0.1446 -0.2170
   15PRO    HB1  158   4.508   5.147   4.199 -1.0063 -0.2239  0.6460
   15PRO    HB2  159   4.565   5.073   4.355 -1.3643  0.8785 -0.2497
   15PRO     CG  160   4.616   4.952   4.201 -0.6493  0.1138 -0.2509
   15PRO    HG1  161   4.544   4.881   4.247 -2.4115 -0.0768 -3.0232
   15PRO    HG2  162   4.590   4.948   4.093  0.3148 -0.8675 -0.4680
   15PRO      C  163   4.755   5.266   4.333 -0.2539  0.1877  0.4348
   15PRO    OT1  164   4.814   5.228   4.436 -0.2808  0.0638 -0.4342
   15PRO    OT2  165   4.722   5.386   4.325  0.0529  0.2927 -0.2629
   8.29920   7.82456   6.77626   0.00000   0.00000  -2.76640   0.00000  -2.76640  -3.91228
