Title t= 448.00000 step= 224000
29212
    1ASP      N    1   2.212   1.141   2.893
    1ASP    HT1    2   2.117   1.159   2.854
    1ASP    HT2    3   2.211   1.040   2.917
    1ASP    HT3    4   2.290   1.145   2.825
    1ASP     CA    5   2.225   1.234   3.010
    1ASP     HA    6   2.148   1.200   3.078
    1ASP     CB    7   2.359   1.230   3.087
    1ASP    HB1    8   2.359   1.314   3.160
    1ASP    HB2    9   2.435   1.246   3.007
    1ASP     CG   10   2.379   1.094   3.140
    1ASP    OD1   11   2.279   1.016   3.146
    1ASP    OD2   12   2.488   1.055   3.185
    1ASP      C   13   2.192   1.375   2.966
    1ASP      O   14   2.226   1.421   2.857
    2GLY      N   15   2.141   1.451   3.066
    2GLY     HN   16   2.138   1.411   3.157
    2GLY     CA   17   2.077   1.578   3.058
    2GLY    HA1   18   2.153   1.646   3.021
    2GLY    HA2   19   2.042   1.602   3.158
    2GLY      C   20   1.963   1.596   2.964
    2GLY      O   21   1.946   1.516   2.870
    3ASP      N   22   1.885   1.707   2.978
    3ASP     HN   23   1.904   1.772   3.052
    3ASP     CA   24   1.784   1.751   2.888
    3ASP     HA   25   1.734   1.660   2.857
    3ASP     CB   26   1.681   1.846   2.966
    3ASP    HB1   27   1.604   1.891   2.900
    3ASP    HB2   28   1.731   1.934   3.012
    3ASP     CG   29   1.611   1.768   3.075
    3ASP    OD1   30   1.559   1.836   3.167
    3ASP    OD2   31   1.588   1.646   3.067
    3ASP      C   32   1.845   1.827   2.771
    3ASP      O   33   1.953   1.889   2.772
    4GLY      N   34   1.776   1.831   2.657
    4GLY     HN   35   1.680   1.804   2.663
    4GLY     CA   36   1.835   1.897   2.542
    4GLY    HA1   37   1.799   1.843   2.457
    4GLY    HA2   38   1.941   1.914   2.537
    4GLY      C   39   1.778   2.038   2.538
    4GLY      O   40   1.726   2.084   2.638
    5PRO      N   41   1.789   2.114   2.431
    5PRO     CD   42   1.845   2.067   2.304
    5PRO    HD1   43   1.793   1.972   2.277
    5PRO    HD2   44   1.952   2.046   2.322
    5PRO     CA   45   1.728   2.247   2.421
    5PRO     HA   46   1.751   2.306   2.508
    5PRO     CB   47   1.806   2.297   2.295
    5PRO    HB1   48   1.906   2.334   2.326
    5PRO    HB2   49   1.746   2.376   2.245
    5PRO     CG   50   1.808   2.171   2.202
    5PRO    HG1   51   1.708   2.155   2.156
    5PRO    HG2   52   1.887   2.178   2.125
    5PRO      C   53   1.581   2.249   2.404
    5PRO      O   54   1.532   2.354   2.367
    6GLY      N   55   1.511   2.141   2.439
    6GLY     HN   56   1.553   2.059   2.476
    6GLY     CA   57   1.367   2.135   2.433
    6GLY    HA1   58   1.349   2.030   2.454
    6GLY    HA2   59   1.327   2.158   2.335
    6GLY      C   60   1.300   2.220   2.540
    6GLY      O   61   1.363   2.292   2.621
    7ASP      N   62   1.166   2.221   2.543
    7ASP     HN   63   1.114   2.153   2.491
    7ASP     CA   64   1.088   2.303   2.638
    7ASP     HA   65   1.142   2.394   2.656
    7ASP     CB   66   0.953   2.349   2.578
    7ASP    HB1   67   0.895   2.414   2.646
    7ASP    HB2   68   0.902   2.251   2.563
    7ASP     CG   69   0.955   2.408   2.443
    7ASP    OD1   70   1.055   2.468   2.398
    7ASP    OD2   71   0.845   2.405   2.383
    7ASP      C   72   1.075   2.213   2.759
    7ASP      O   73   1.034   2.094   2.743
    8PRO      N   74   1.118   2.255   2.876
    8PRO     CD   75   1.180   2.392   2.900
    8PRO    HD1   76   1.089   2.457   2.901
    8PRO    HD2   77   1.258   2.413   2.824
    8PRO     CA   78   1.118   2.176   2.998
    8PRO     HA   79   1.194   2.100   2.999
    8PRO     CB   80   1.148   2.277   3.108
    8PRO    HB1   81   1.204   2.236   3.194
    8PRO    HB2   82   1.055   2.329   3.140
    8PRO     CG   83   1.240   2.378   3.041
    8PRO    HG1   84   1.253   2.477   3.090
    8PRO    HG2   85   1.338   2.326   3.039
    8PRO      C   86   0.981   2.098   3.017
    8PRO      O   87   0.886   2.156   2.964
    9GLY      N   88   0.971   1.975   3.073
    9GLY     HN   89   1.050   1.937   3.120
    9GLY     CA   90   0.854   1.885   3.063
    9GLY    HA1   91   0.793   1.911   2.977
    9GLY    HA2   92   0.795   1.897   3.153
    9GLY      C   93   0.889   1.748   3.049
    9GLY      O   94   1.001   1.714   3.012
   10ASP      N   95   0.786   1.661   3.078
   10ASP     HN   96   0.697   1.705   3.088
   10ASP     CA   97   0.798   1.512   3.087
   10ASP     HA   98   0.901   1.481   3.098
   10ASP     CB   99   0.707   1.459   3.205
   10ASP    HB1  100   0.710   1.348   3.205
   10ASP    HB2  101   0.599   1.483   3.195
   10ASP     CG  102   0.755   1.517   3.335
   10ASP    OD1  103   0.679   1.538   3.431
   10ASP    OD2  104   0.875   1.549   3.350
   10ASP      C  105   0.754   1.447   2.954
   10ASP      O  106   0.761   1.328   2.936
   11GLY      N  107   0.714   1.526   2.852
   11GLY     HN  108   0.708   1.625   2.860
   11GLY     CA  109   0.671   1.486   2.719
   11GLY    HA1  110   0.639   1.571   2.661
   11GLY    HA2  111   0.597   1.407   2.729
   11GLY      C  112   0.786   1.441   2.635
   11GLY    OT1  113   0.894   1.504   2.622
   11GLY    OT2  114   0.766   1.332   2.575
   12LIT    LIT  115   4.365   5.082   1.731
   13LIT    LIT  116   5.907   5.131   1.375
   14LIT    LIT  117   5.218   1.067   0.783
   15LIT    LIT  118   3.011   1.734   1.075
   16LIT    LIT  119   0.976   1.361   2.549
   17LIT    LIT  120   0.575   1.761   0.363
   18LIT    LIT  121   5.207   4.881   0.078
   19LIT    LIT  122   3.443   0.789   2.237
   20LIT    LIT  123   0.133   3.633   4.350
   21LIT    LIT  124   1.675   6.146   1.138
   22LIT    LIT  125   3.642   5.554   0.387
   23LIT    LIT  126   5.850   5.966   0.529
   24LIT    LIT  127   5.772   4.630   2.397
   25LIT    LIT  128   6.482   1.253   3.467
   26LIT    LIT  129   0.823   1.626   3.518
   27LIT    LIT  130   3.586   2.768   3.192
   28LIT    LIT  131   7.145   3.929   5.486
   29LIT    LIT  132   1.645   1.866   3.327
   30LIT    LIT  133   6.351   3.564   0.715
   31LIT    LIT  134   4.258   1.826   2.965
   32LIT    LIT  135   6.262   2.557   1.255
   33LIT    LIT  136   5.054   3.349   2.255
   34LIT    LIT  137   5.355   2.350   5.363
   35LIT    LIT  138   6.776   1.624   2.067
   36LIT    LIT  139   3.479   3.383   5.028
   37LIT    LIT  140   2.734   4.748   1.664
   38LIT    LIT  141   1.165   4.721   1.653
   39LIT    LIT  142   2.411   0.876   3.179
   40LIT    LIT  143   2.098   6.534   1.663
   41LIT    LIT  144   1.456   6.506   5.208
   42LIT    LIT  145   1.437   1.666   3.156
   43CLA    CLA  146   2.045   6.672   1.839
   44CLA    CLA  147   6.706   2.146   3.067
   45CLA    CLA  148   5.555   0.631   5.616
   46CLA    CLA  149   0.020   5.017   1.118
   47CLA    CLA  150   6.125   0.610   1.417
   48CLA    CLA  151   2.883   3.327   4.160
   49CLA    CLA  152   2.267   3.965   4.809
   50CLA    CLA  153   3.999   5.065   0.691
   51CLA    CLA  154   0.577   0.942   0.658
   52CLA    CLA  155   6.281   2.805   5.288
   53CLA    CLA  156   3.022   2.029   3.791
   54CLA    CLA  157   5.613   3.129   2.898
   55CLA    CLA  158   0.973   5.243   4.946
   56CLA    CLA  159   5.756   4.168   2.363
   57CLA    CLA  160   6.418   0.553   4.425
   58CLA    CLA  161   4.584   3.656   1.629
   59CLA    CLA  162   4.550   4.045   4.550
   60CLA    CLA  163   5.403   2.042   5.703
   61CLA    CLA  164   6.615   6.358   2.104
   62CLA    CLA  165   0.084   4.553   3.588
   63CLA    CLA  166   1.360   1.708   3.658
   64CLA    CLA  167   5.234   2.751   1.065
   65CLA    CLA  168   5.405   5.255   2.904
   66CLA    CLA  169   0.579   6.351   4.599
   67CLA    CLA  170   2.546   5.529   0.672
   68CLA    CLA  171   1.354   3.255   0.899
   69CLA    CLA  172   5.729   6.198   1.597
   70TIP3   OH2  173   1.136   2.619   1.360
   70TIP3    H1  174   1.088   2.572   1.429
   70TIP3    H2  175   1.176   2.693   1.405
   71TIP3   OH2  176   6.028   1.230   4.005
   71TIP3    H1  177   6.109   1.224   3.956
   71TIP3    H2  178   6.004   1.323   4.001
   72TIP3   OH2  179   6.027   4.027   0.145
   72TIP3    H1  180   6.111   4.057   0.179
   72TIP3    H2  181   5.996   3.964   0.210
   73TIP3   OH2  182   6.015   4.476   0.838
   73TIP3    H1  183   6.032   4.567   0.817
   73TIP3    H2  184   6.015   4.472   0.934
   74TIP3   OH2  185   5.718   5.842   2.111
   74TIP3    H1  186   5.756   5.826   2.025
   74TIP3    H2  187   5.792   5.866   2.166
   75TIP3   OH2  188   2.114   3.607   1.245
   75TIP3    H1  189   2.103   3.698   1.273
   75TIP3    H2  190   2.193   3.609   1.190
   76TIP3   OH2  191   0.740   1.006   5.158
   76TIP3    H1  192   0.795   0.954   5.217
   76TIP3    H2  193   0.655   1.012   5.202
   77TIP3   OH2  194   1.254   5.027   3.005
   77TIP3    H1  195   1.343   5.053   2.980
   77TIP3    H2  196   1.217   5.105   3.045
   78TIP3   OH2  197   5.473   0.154   4.801
   78TIP3    H1  198   5.505   0.086   4.859
   78TIP3    H2  199   5.447   0.226   4.859
   79TIP3   OH2  200   3.892   6.328   1.033
   79TIP3    H1  201   3.911   6.388   0.960
   79TIP3    H2  202   3.846   6.255   0.992
   80TIP3   OH2  203   4.170   3.267   1.856
   80TIP3    H1  204   4.087   3.273   1.903
   80TIP3    H2  205   4.235   3.301   1.917
   81TIP3   OH2  206   0.876   4.588   4.520
   81TIP3    H1  207   0.936   4.550   4.585
   81TIP3    H2  208   0.921   4.667   4.490
   82TIP3   OH2  209   4.150   5.867   3.518
   82TIP3    H1  210   4.237   5.906   3.527
   82TIP3    H2  211   4.167   5.780   3.481
   83TIP3   OH2  212   3.526   6.543   2.522
   83TIP3    H1  213   3.514   6.454   2.554
   83TIP3    H2  214   3.608   6.539   2.471
   84TIP3   OH2  215   3.605   4.022   2.387
   84TIP3    H1  216   3.517   4.006   2.421
   84TIP3    H2  217   3.609   3.970   2.307
   85TIP3   OH2  218   5.386   1.500   0.829
   85TIP3    H1  219   5.427   1.428   0.878
   85TIP3    H2  220   5.412   1.485   0.738
   86TIP3   OH2  221   0.734   1.882   2.134
   86TIP3    H1  222   0.652   1.841   2.162
   86TIP3    H2  223   0.726   1.888   2.039
   87TIP3   OH2  224   6.474   2.588   2.319
   87TIP3    H1  225   6.557   2.632   2.340
   87TIP3    H2  226   6.418   2.606   2.394
   88TIP3   OH2  227   4.469   1.648   1.079
   88TIP3    H1  228   4.535   1.711   1.052
   88TIP3    H2  229   4.408   1.644   1.005
   89TIP3   OH2  230   4.182   4.826   2.724
   89TIP3    H1  231   4.188   4.762   2.795
   89TIP3    H2  232   4.102   4.875   2.742
   90TIP3   OH2  233   4.037   2.149   4.323
   90TIP3    H1  234   4.064   2.199   4.400
   90TIP3    H2  235   4.005   2.066   4.358
   91TIP3   OH2  236   6.155   4.443   2.191
   91TIP3    H1  237   6.250   4.444   2.182
   91TIP3    H2  238   6.126   4.524   2.150
   92TIP3   OH2  239   1.965   5.197   0.148
   92TIP3    H1  240   1.900   5.216   0.216
   92TIP3    H2  241   1.914   5.192   0.067
   93TIP3   OH2  242   5.719   3.238   5.644
   93TIP3    H1  243   5.694   3.149   5.618
   93TIP3    H2  244   5.642   3.291   5.624
   94TIP3   OH2  245   7.178   3.085   4.116
   94TIP3    H1  246   7.098   3.044   4.085
   94TIP3    H2  247   7.195   3.044   4.201
   95TIP3   OH2  248   3.277   3.812   5.806
   95TIP3    H1  249   3.282   3.888   5.865
   95TIP3    H2  250   3.362   3.769   5.817
   96TIP3   OH2  251   5.483   3.202   3.641
   96TIP3    H1  252   5.578   3.213   3.647
   96TIP3    H2  253   5.458   3.164   3.725
   97TIP3   OH2  254   1.248   5.144   2.040
   97TIP3    H1  255   1.196   5.094   2.103
   97TIP3    H2  256   1.324   5.089   2.023
   98TIP3   OH2  257   0.847   6.551   0.380
   98TIP3    H1  258   0.752   6.558   0.376
   98TIP3    H2  259   0.867   6.468   0.338
   99TIP3   OH2  260   6.714   4.667   2.633
   99TIP3    H1  261   6.674   4.660   2.720
   99TIP3    H2  262   6.642   4.645   2.573
  100TIP3   OH2  263   4.092   6.342   2.827
  100TIP3    H1  264   4.031   6.357   2.755
  100TIP3    H2  265   4.082   6.418   2.884
  101TIP3   OH2  266   0.949   3.974   4.178
  101TIP3    H1  267   0.902   4.055   4.198
  101TIP3    H2  268   1.024   3.975   4.238
  102TIP3   OH2  269   2.024   6.716   2.610
  102TIP3    H1  270   1.944   6.763   2.636
  102TIP3    H2  271   2.060   6.769   2.539
  103TIP3   OH2  272   6.014   5.979   2.574
  103TIP3    H1  273   6.070   5.902   2.569
  103TIP3    H2  274   6.069   6.046   2.613
  104TIP3   OH2  275   0.778   5.006   0.512
  104TIP3    H1  276   0.797   5.083   0.458
  104TIP3    H2  277   0.683   4.995   0.506
  105TIP3   OH2  278   7.145   4.902   0.793
  105TIP3    H1  279   7.153   4.972   0.858
  105TIP3    H2  280   7.235   4.882   0.768
  106TIP3   OH2  281   0.687   1.601   1.386
  106TIP3    H1  282   0.604   1.557   1.365
  106TIP3    H2  283   0.747   1.529   1.407
  107TIP3   OH2  284   1.156   4.114   1.461
  107TIP3    H1  285   1.125   4.072   1.541
  107TIP3    H2  286   1.101   4.077   1.392
  108TIP3   OH2  287   7.174   6.152   3.852
  108TIP3    H1  288   7.130   6.163   3.936
  108TIP3    H2  289   7.229   6.074   3.864
  109TIP3   OH2  290   5.481   5.865   0.335
  109TIP3    H1  291   5.463   5.875   0.241
  109TIP3    H2  292   5.411   5.912   0.379
  110TIP3   OH2  293   0.075   6.349   2.358
  110TIP3    H1  294   0.070   6.373   2.451
  110TIP3    H2  295   0.085   6.432   2.312
  111TIP3   OH2  296   3.714   1.589   5.065
  111TIP3    H1  297   3.692   1.675   5.100
  111TIP3    H2  298   3.773   1.607   4.992
  112TIP3   OH2  299   2.260   1.049   3.791
  112TIP3    H1  300   2.288   0.959   3.809
  112TIP3    H2  301   2.220   1.079   3.873
  113TIP3   OH2  302   7.191   0.320   4.328
  113TIP3    H1  303   7.143   0.362   4.256
  113TIP3    H2  304   7.122   0.289   4.387
  114TIP3   OH2  305   0.756   1.625   0.018
  114TIP3    H1  306   0.841   1.603   0.057
  114TIP3    H2  307   0.696   1.561   0.055
  115TIP3   OH2  308   6.521   4.227   0.205
  115TIP3    H1  309   6.614   4.231   0.227
  115TIP3    H2  310   6.517   4.177   0.124
  116TIP3   OH2  311   4.486   2.477   3.959
  116TIP3    H1  312   4.394   2.477   3.934
  116TIP3    H2  313   4.498   2.395   4.007
  117TIP3   OH2  314   4.235   0.791   1.309
  117TIP3    H1  315   4.273   0.719   1.259
  117TIP3    H2  316   4.159   0.819   1.257
  118TIP3   OH2  317   7.007   1.533   3.785
  118TIP3    H1  318   6.964   1.515   3.869
  118TIP3    H2  319   7.076   1.467   3.778
  119TIP3   OH2  320   1.690   6.238   1.309
  119TIP3    H1  321   1.632   6.203   1.376
  119TIP3    H2  322   1.767   6.269   1.356
  120TIP3   OH2  323   4.450   0.643   1.633
  120TIP3    H1  324   4.435   0.732   1.599
  120TIP3    H2  325   4.498   0.598   1.563
  121TIP3   OH2  326   3.102   0.587   2.598
  121TIP3    H1  327   3.101   0.555   2.688
  121TIP3    H2  328   3.010   0.588   2.572
  122TIP3   OH2  329   3.318   0.011   1.657
  122TIP3    H1  330   3.413   0.019   1.648
  122TIP3    H2  331   3.300   0.045   1.745
  123TIP3   OH2  332   4.723   5.499   5.206
  123TIP3    H1  333   4.692   5.452   5.129
  123TIP3    H2  334   4.670   5.579   5.208
  124TIP3   OH2  335   6.165   0.683   5.642
  124TIP3    H1  336   6.131   0.606   5.687
  124TIP3    H2  337   6.258   0.665   5.630
  125TIP3   OH2  338   4.074   3.487   1.749
  125TIP3    H1  339   4.045   3.523   1.833
  125TIP3    H2  340   4.127   3.411   1.772
  126TIP3   OH2  341   4.627   1.499   1.448
  126TIP3    H1  342   4.634   1.590   1.418
  126TIP3    H2  343   4.544   1.497   1.496
  127TIP3   OH2  344   4.092   5.151   5.510
  127TIP3    H1  345   4.134   5.208   5.445
  127TIP3    H2  346   4.153   5.151   5.584
  128TIP3   OH2  347   1.385   1.052   5.447
  128TIP3    H1  348   1.380   1.097   5.362
  128TIP3    H2  349   1.303   1.074   5.491
  129TIP3   OH2  350   1.100   1.517   2.451
  129TIP3    H1  351   1.103   1.611   2.431
  129TIP3    H2  352   1.191   1.488   2.442
  130TIP3   OH2  353   1.097   5.987   0.223
  130TIP3    H1  354   1.129   6.077   0.229
  130TIP3    H2  355   1.167   5.939   0.179
  131TIP3   OH2  356   1.166   4.378   0.286
  131TIP3    H1  357   1.172   4.357   0.193
  131TIP3    H2  358   1.174   4.293   0.330
  132TIP3   OH2  359   0.751   1.353   0.761
  132TIP3    H1  360   0.658   1.372   0.747
  132TIP3    H2  361   0.750   1.272   0.814
  133TIP3   OH2  362   5.905   1.855   5.740
  133TIP3    H1  363   5.899   1.935   5.687
  133TIP3    H2  364   5.992   1.820   5.720
  134TIP3   OH2  365   6.599   1.361   3.565
  134TIP3    H1  366   6.691   1.341   3.578
  134TIP3    H2  367   6.590   1.453   3.591
  135TIP3   OH2  368   4.552   5.621   4.477
  135TIP3    H1  369   4.494   5.563   4.526
  135TIP3    H2  370   4.641   5.590   4.498
  136TIP3   OH2  371   4.535   3.429   5.134
  136TIP3    H1  372   4.595   3.493   5.172
  136TIP3    H2  373   4.491   3.477   5.064
  137TIP3   OH2  374   6.901   3.590   3.905
  137TIP3    H1  375   6.872   3.664   3.852
  137TIP3    H2  376   6.922   3.521   3.842
  138TIP3   OH2  377   5.998   6.747   0.479
  138TIP3    H1  378   6.068   6.682   0.482
  138TIP3    H2  379   6.000   6.780   0.389
  139TIP3   OH2  380   5.162   1.580   3.335
  139TIP3    H1  381   5.240   1.624   3.370
  139TIP3    H2  382   5.096   1.591   3.404
  140TIP3   OH2  383   3.621   4.285   2.313
  140TIP3    H1  384   3.678   4.269   2.238
  140TIP3    H2  385   3.602   4.198   2.348
  141TIP3   OH2  386   1.717   1.893   3.926
  141TIP3    H1  387   1.700   1.975   3.880
  141TIP3    H2  388   1.811   1.877   3.913
  142TIP3   OH2  389   6.091   1.475   5.612
  142TIP3    H1  390   6.115   1.567   5.626
  142TIP3    H2  391   5.999   1.478   5.585
  143TIP3   OH2  392   5.403   4.349   2.104
  143TIP3    H1  393   5.399   4.404   2.182
  143TIP3    H2  394   5.464   4.279   2.125
  144TIP3   OH2  395   0.586   3.480   3.849
  144TIP3    H1  396   0.662   3.423   3.866
  144TIP3    H2  397   0.580   3.483   3.754
  145TIP3   OH2  398   0.244   1.952   0.518
  145TIP3    H1  399   0.330   1.924   0.486
  145TIP3    H2  400   0.251   2.048   0.525
  146TIP3   OH2  401   3.030   2.866   4.485
  146TIP3    H1  402   3.121   2.840   4.468
  146TIP3    H2  403   2.981   2.785   4.482
  147TIP3   OH2  404   4.926   0.292   0.799
  147TIP3    H1  405   4.868   0.220   0.825
  147TIP3    H2  406   4.968   0.260   0.718
  148TIP3   OH2  407   3.048   3.746   2.460
  148TIP3    H1  408   3.083   3.817   2.515
  148TIP3    H2  409   3.002   3.790   2.390
  149TIP3   OH2  410   6.680   0.137   3.262
  149TIP3    H1  411   6.587   0.134   3.283
  149TIP3    H2  412   6.702   0.230   3.263
  150TIP3   OH2  413   6.007   2.979   3.574
  150TIP3    H1  414   6.050   2.963   3.490
  150TIP3    H2  415   6.034   2.905   3.629
  151TIP3   OH2  416   1.750   5.259   2.099
  151TIP3    H1  417   1.797   5.281   2.179
  151TIP3    H2  418   1.790   5.177   2.069
  152TIP3   OH2  419   4.363   2.320   5.461
  152TIP3    H1  420   4.284   2.269   5.477
  152TIP3    H2  421   4.398   2.340   5.548
  153TIP3   OH2  422   3.112   0.789   4.575
  153TIP3    H1  423   3.182   0.740   4.531
  153TIP3    H2  424   3.071   0.841   4.506
  154TIP3   OH2  425   1.136   2.612   3.605
  154TIP3    H1  426   1.048   2.626   3.639
  154TIP3    H2  427   1.190   2.676   3.651
  155TIP3   OH2  428   2.417   3.435   1.295
  155TIP3    H1  429   2.387   3.429   1.386
  155TIP3    H2  430   2.501   3.388   1.295
  156TIP3   OH2  431   2.561   1.946   3.697
  156TIP3    H1  432   2.622   1.877   3.725
  156TIP3    H2  433   2.591   1.972   3.610
  157TIP3   OH2  434   1.544   5.623   2.019
  157TIP3    H1  435   1.617   5.565   2.001
  157TIP3    H2  436   1.466   5.569   2.004
  158TIP3   OH2  437   3.417   4.326   3.177
  158TIP3    H1  438   3.473   4.249   3.183
  158TIP3    H2  439   3.395   4.332   3.084
  159TIP3   OH2  440   2.880   5.206   3.012
  159TIP3    H1  441   2.921   5.290   3.033
  159TIP3    H2  442   2.856   5.169   3.096
  160TIP3   OH2  443   1.767   6.423   2.209
  160TIP3    H1  444   1.823   6.378   2.146
  160TIP3    H2  445   1.810   6.409   2.293
  161TIP3   OH2  446   2.970   5.747   5.829
  161TIP3    H1  447   2.953   5.701   5.747
  161TIP3    H2  448   2.934   5.835   5.814
  162TIP3   OH2  449   6.073   0.646   3.288
  162TIP3    H1  450   5.986   0.678   3.312
  162TIP3    H2  451   6.064   0.619   3.196
  163TIP3   OH2  452   0.847   6.145   4.059
  163TIP3    H1  453   0.822   6.217   4.117
  163TIP3    H2  454   0.862   6.071   4.119
  164TIP3   OH2  455   3.570   3.053   1.301
  164TIP3    H1  456   3.567   3.021   1.211
  164TIP3    H2  457   3.597   2.978   1.353
  165TIP3   OH2  458   2.870   2.722   3.513
  165TIP3    H1  459   2.856   2.816   3.519
  165TIP3    H2  460   2.831   2.687   3.593
  166TIP3   OH2  461   1.817   4.293   4.338
  166TIP3    H1  462   1.812   4.384   4.368
  166TIP3    H2  463   1.903   4.263   4.369
  167TIP3   OH2  464   0.369   2.372   3.351
  167TIP3    H1  465   0.383   2.328   3.435
  167TIP3    H2  466   0.449   2.424   3.339
  168TIP3   OH2  467   6.768   1.502   1.651
  168TIP3    H1  468   6.788   1.412   1.622
  168TIP3    H2  469   6.824   1.557   1.596
  169TIP3   OH2  470   6.252   3.580   1.193
  169TIP3    H1  471   6.170   3.542   1.163
  169TIP3    H2  472   6.252   3.668   1.157
  170TIP3   OH2  473   5.020   3.514   3.569
  170TIP3    H1  474   5.099   3.473   3.534
  170TIP3    H2  475   4.953   3.446   3.562
  171TIP3   OH2  476   5.202   2.196   4.145
  171TIP3    H1  477   5.180   2.186   4.052
  171TIP3    H2  478   5.222   2.107   4.174
  172TIP3   OH2  479   1.327   5.529   2.237
  172TIP3    H1  480   1.392   5.473   2.193
  172TIP3    H2  481   1.355   5.530   2.329
  173TIP3   OH2  482   1.518   1.517   1.361
  173TIP3    H1  483   1.580   1.505   1.289
  173TIP3    H2  484   1.553   1.461   1.431
  174TIP3   OH2  485   2.614   0.110   4.823
  174TIP3    H1  486   2.673   0.133   4.895
  174TIP3    H2  487   2.530   0.093   4.866
  175TIP3   OH2  488   0.418   0.920   3.429
  175TIP3    H1  489   0.324   0.932   3.420
  175TIP3    H2  490   0.456   1.002   3.396
  176TIP3   OH2  491   6.228   5.001   1.222
  176TIP3    H1  492   6.314   4.994   1.263
  176TIP3    H2  493   6.240   4.962   1.135
  177TIP3   OH2  494   6.596   0.128   4.336
  177TIP3    H1  495   6.520   0.137   4.279
  177TIP3    H2  496   6.671   0.137   4.276
  178TIP3   OH2  497   6.004   6.762   1.876
  178TIP3    H1  498   6.087   6.756   1.922
  178TIP3    H2  499   6.015   6.835   1.815
  179TIP3   OH2  500   5.187   4.513   0.871
  179TIP3    H1  501   5.168   4.487   0.781
  179TIP3    H2  502   5.207   4.431   0.916
  180TIP3   OH2  503   1.970   0.591   4.455
  180TIP3    H1  504   1.981   0.632   4.541
  180TIP3    H2  505   1.973   0.665   4.393
  181TIP3   OH2  506   7.104   3.018   1.816
  181TIP3    H1  507   7.099   3.106   1.780
  181TIP3    H2  508   7.062   3.025   1.902
  182TIP3   OH2  509   2.123   2.203   3.928
  182TIP3    H1  510   2.188   2.194   3.858
  182TIP3    H2  511   2.175   2.215   4.007
  183TIP3   OH2  512   2.757   1.538   2.550
  183TIP3    H1  513   2.752   1.628   2.518
  183TIP3    H2  514   2.677   1.525   2.601
  184TIP3   OH2  515   1.008   3.164   5.404
  184TIP3    H1  516   1.074   3.231   5.422
  184TIP3    H2  517   1.023   3.098   5.472
  185TIP3   OH2  518   5.082   4.421   5.612
  185TIP3    H1  519   5.117   4.339   5.577
  185TIP3    H2  520   5.153   4.484   5.599
  186TIP3   OH2  521   4.668   1.871   4.297
  186TIP3    H1  522   4.702   1.956   4.324
  186TIP3    H2  523   4.731   1.807   4.331
  187TIP3   OH2  524   1.754   1.526   1.191
  187TIP3    H1  525   1.810   1.453   1.163
  187TIP3    H2  526   1.815   1.598   1.208
  188TIP3   OH2  527   1.245   6.353   1.446
  188TIP3    H1  528   1.246   6.359   1.351
  188TIP3    H2  529   1.161   6.392   1.472
  189TIP3   OH2  530   0.351   3.807   5.369
  189TIP3    H1  531   0.355   3.712   5.364
  189TIP3    H2  532   0.416   3.837   5.305
  190TIP3   OH2  533   1.695   5.603   5.310
  190TIP3    H1  534   1.620   5.546   5.329
  190TIP3    H2  535   1.656   5.679   5.266
  191TIP3   OH2  536   4.819   2.385   3.911
  191TIP3    H1  537   4.799   2.291   3.917
  191TIP3    H2  538   4.869   2.394   3.830
  192TIP3   OH2  539   0.600   3.927   3.291
  192TIP3    H1  540   0.514   3.922   3.332
  192TIP3    H2  541   0.659   3.955   3.361
  193TIP3   OH2  542   3.608   3.673   2.342
  193TIP3    H1  543   3.593   3.579   2.356
  193TIP3    H2  544   3.540   3.699   2.280
  194TIP3   OH2  545   2.749   2.341   5.091
  194TIP3    H1  546   2.722   2.259   5.051
  194TIP3    H2  547   2.675   2.400   5.079
  195TIP3   OH2  548   0.386   1.261   4.149
  195TIP3    H1  549   0.383   1.347   4.107
  195TIP3    H2  550   0.348   1.274   4.235
  196TIP3   OH2  551   3.008   1.715   2.657
  196TIP3    H1  552   3.060   1.793   2.677
  196TIP3    H2  553   2.925   1.729   2.701
  197TIP3   OH2  554   2.750   6.436   0.876
  197TIP3    H1  555   2.679   6.497   0.854
  197TIP3    H2  556   2.757   6.378   0.800
  198TIP3   OH2  557   6.784   3.919   5.388
  198TIP3    H1  558   6.693   3.930   5.416
  198TIP3    H2  559   6.817   4.008   5.378
  199TIP3   OH2  560   1.081   1.621   2.771
  199TIP3    H1  561   1.013   1.574   2.722
  199TIP3    H2  562   1.038   1.652   2.850
  200TIP3   OH2  563   6.960   3.617   0.488
  200TIP3    H1  564   6.970   3.585   0.398
  200TIP3    H2  565   7.021   3.691   0.494
  201TIP3   OH2  566   6.242   0.605   2.184
  201TIP3    H1  567   6.152   0.622   2.209
  201TIP3    H2  568   6.249   0.639   2.094
  202TIP3   OH2  569   5.381   3.770   5.605
  202TIP3    H1  570   5.389   3.703   5.672
  202TIP3    H2  571   5.394   3.723   5.522
  203TIP3   OH2  572   6.576   1.968   3.522
  203TIP3    H1  573   6.484   1.969   3.496
  203TIP3    H2  574   6.622   2.006   3.446
  204TIP3   OH2  575   0.266   3.375   3.099
  204TIP3    H1  576   0.329   3.375   3.170
  204TIP3    H2  577   0.181   3.381   3.142
  205TIP3   OH2  578   3.869   4.325   3.809
  205TIP3    H1  579   3.850   4.388   3.740
  205TIP3    H2  580   3.783   4.292   3.836
  206TIP3   OH2  581   4.303   3.788   3.292
  206TIP3    H1  582   4.337   3.741   3.216
  206TIP3    H2  583   4.356   3.757   3.366
  207TIP3   OH2  584   2.789   0.658   0.820
  207TIP3    H1  585   2.817   0.749   0.812
  207TIP3    H2  586   2.866   0.607   0.793
  208TIP3   OH2  587   5.319   5.240   3.435
  208TIP3    H1  588   5.384   5.190   3.385
  208TIP3    H2  589   5.279   5.299   3.371
  209TIP3   OH2  590   0.498   4.302   0.669
  209TIP3    H1  591   0.440   4.374   0.643
  209TIP3    H2  592   0.539   4.333   0.750
  210TIP3   OH2  593   5.956   4.617   2.051
  210TIP3    H1  594   5.883   4.555   2.047
  210TIP3    H2  595   5.976   4.636   1.959
  211TIP3   OH2  596   1.822   6.712   1.555
  211TIP3    H1  597   1.765   6.718   1.632
  211TIP3    H2  598   1.908   6.739   1.586
  212TIP3   OH2  599   6.191   4.282   0.749
  212TIP3    H1  600   6.116   4.330   0.783
  212TIP3    H2  601   6.249   4.269   0.824
  213TIP3   OH2  602   0.790   3.364   2.917
  213TIP3    H1  603   0.754   3.299   2.977
  213TIP3    H2  604   0.715   3.396   2.867
  214TIP3   OH2  605   1.019   3.631   2.798
  214TIP3    H1  606   0.943   3.689   2.791
  214TIP3    H2  607   1.087   3.685   2.837
  215TIP3   OH2  608   6.260   0.835   3.986
  215TIP3    H1  609   6.190   0.880   3.939
  215TIP3    H2  610   6.305   0.904   4.036
  216TIP3   OH2  611   2.584   3.391   2.612
  216TIP3    H1  612   2.591   3.347   2.527
  216TIP3    H2  613   2.620   3.327   2.674
  217TIP3   OH2  614   5.421   1.536   3.910
  217TIP3    H1  615   5.389   1.543   4.000
  217TIP3    H2  616   5.513   1.560   3.915
  218TIP3   OH2  617   5.119   0.396   4.367
  218TIP3    H1  618   5.123   0.301   4.356
  218TIP3    H2  619   5.188   0.416   4.430
  219TIP3   OH2  620   0.424   0.566   5.528
  219TIP3    H1  621   0.431   0.625   5.453
  219TIP3    H2  622   0.365   0.496   5.497
  220TIP3   OH2  623   4.512   5.948   2.155
  220TIP3    H1  624   4.441   5.909   2.206
  220TIP3    H2  625   4.563   5.873   2.125
  221TIP3   OH2  626   5.927   2.626   2.794
  221TIP3    H1  627   5.918   2.554   2.732
  221TIP3    H2  628   6.021   2.646   2.793
  222TIP3   OH2  629   4.456   1.117   3.842
  222TIP3    H1  630   4.394   1.188   3.857
  222TIP3    H2  631   4.422   1.044   3.894
  223TIP3   OH2  632   2.135   2.696   2.942
  223TIP3    H1  633   2.073   2.741   2.885
  223TIP3    H2  634   2.194   2.765   2.972
  224TIP3   OH2  635   1.817   4.755   2.341
  224TIP3    H1  636   1.903   4.720   2.319
  224TIP3    H2  637   1.770   4.681   2.380
  225TIP3   OH2  638   6.842   1.050   4.257
  225TIP3    H1  639   6.918   1.025   4.310
  225TIP3    H2  640   6.870   1.129   4.211
  226TIP3   OH2  641   0.033   3.463   1.492
  226TIP3    H1  642   0.001   3.508   1.570
  226TIP3    H2  643   0.048   3.373   1.521
  227TIP3   OH2  644   2.169   3.246   4.373
  227TIP3    H1  645   2.261   3.241   4.400
  227TIP3    H2  646   2.129   3.306   4.436
  228TIP3   OH2  647   0.316   1.092   0.751
  228TIP3    H1  648   0.373   1.016   0.735
  228TIP3    H2  649   0.285   1.117   0.664
  229TIP3   OH2  650   6.781   4.423   3.943
  229TIP3    H1  651   6.862   4.386   3.908
  229TIP3    H2  652   6.787   4.408   4.037
  230TIP3   OH2  653   5.593   4.199   3.106
  230TIP3    H1  654   5.668   4.165   3.057
  230TIP3    H2  655   5.629   4.270   3.158
  231TIP3   OH2  656   4.623   1.582   0.286
  231TIP3    H1  657   4.676   1.517   0.333
  231TIP3    H2  658   4.617   1.656   0.346
  232TIP3   OH2  659   3.449   6.696   1.957
  232TIP3    H1  660   3.507   6.679   1.883
  232TIP3    H2  661   3.368   6.650   1.936
  233TIP3   OH2  662   7.157   3.290   4.330
  233TIP3    H1  663   7.102   3.230   4.278
  233TIP3    H2  664   7.094   3.339   4.383
  234TIP3   OH2  665   3.939   2.249   3.699
  234TIP3    H1  666   3.874   2.317   3.718
  234TIP3    H2  667   3.999   2.251   3.773
  235TIP3   OH2  668   6.134   5.191   5.502
  235TIP3    H1  669   6.066   5.245   5.543
  235TIP3    H2  670   6.174   5.248   5.437
  236TIP3   OH2  671   6.843   4.291   2.799
  236TIP3    H1  672   6.763   4.308   2.750
  236TIP3    H2  673   6.905   4.259   2.734
  237TIP3   OH2  674   6.031   5.430   1.957
  237TIP3    H1  675   5.999   5.456   2.044
  237TIP3    H2  676   6.112   5.382   1.975
  238TIP3   OH2  677   1.836   3.313   0.115
  238TIP3    H1  678   1.829   3.366   0.195
  238TIP3    H2  679   1.857   3.377   0.047
  239TIP3   OH2  680   2.536   0.200   1.023
  239TIP3    H1  681   2.577   0.131   1.075
  239TIP3    H2  682   2.604   0.229   0.962
  240TIP3   OH2  683   5.965   1.027  -0.018
  240TIP3    H1  684   5.979   0.936   0.008
  240TIP3    H2  685   5.924   1.068   0.059
  241TIP3   OH2  686   1.097   4.865   1.524
  241TIP3    H1  687   1.125   4.943   1.477
  241TIP3    H2  688   1.030   4.826   1.467
  242TIP3   OH2  689   6.086   2.571   3.946
  242TIP3    H1  690   6.152   2.613   4.002
  242TIP3    H2  691   6.009   2.563   4.002
  243TIP3   OH2  692   2.303   2.430   3.787
  243TIP3    H1  693   2.398   2.425   3.776
  243TIP3    H2  694   2.290   2.424   3.881
  244TIP3   OH2  695   6.840   5.220   4.352
  244TIP3    H1  696   6.911   5.196   4.293
  244TIP3    H2  697   6.808   5.137   4.386
  245TIP3   OH2  698   6.788   4.984   3.081
  245TIP3    H1  699   6.883   4.984   3.074
  245TIP3    H2  700   6.769   4.922   3.152
  246TIP3   OH2  701   1.172   6.733   0.619
  246TIP3    H1  702   1.237   6.729   0.549
  246TIP3    H2  703   1.224   6.734   0.700
  247TIP3   OH2  704   5.144   6.677   3.050
  247TIP3    H1  705   5.117   6.701   3.139
  247TIP3    H2  706   5.183   6.757   3.015
  248TIP3   OH2  707   1.432   0.937   0.157
  248TIP3    H1  708   1.473   0.916   0.073
  248TIP3    H2  709   1.355   0.989   0.133
  249TIP3   OH2  710   3.373   6.363   4.258
  249TIP3    H1  711   3.385   6.280   4.212
  249TIP3    H2  712   3.458   6.407   4.251
  250TIP3   OH2  713   3.650   2.698   3.380
  250TIP3    H1  714   3.664   2.733   3.468
  250TIP3    H2  715   3.654   2.603   3.391
  251TIP3   OH2  716   4.023   3.833   4.849
  251TIP3    H1  717   3.993   3.905   4.794
  251TIP3    H2  718   4.069   3.775   4.789
  252TIP3   OH2  719   0.137   2.974   3.044
  252TIP3    H1  720   0.054   2.982   3.090
  252TIP3    H2  721   0.138   2.885   3.009
  253TIP3   OH2  722   5.299   5.895   1.243
  253TIP3    H1  723   5.337   5.961   1.301
  253TIP3    H2  724   5.263   5.829   1.302
  254TIP3   OH2  725   4.881   4.068   1.296
  254TIP3    H1  726   4.923   4.113   1.369
  254TIP3    H2  727   4.833   3.996   1.336
  255TIP3   OH2  728   3.572   2.094   0.264
  255TIP3    H1  729   3.565   2.073   0.171
  255TIP3    H2  730   3.492   2.143   0.284
  256TIP3   OH2  731   2.514   6.687   5.521
  256TIP3    H1  732   2.541   6.598   5.497
  256TIP3    H2  733   2.419   6.682   5.530
  257TIP3   OH2  734   4.870   5.517   0.378
  257TIP3    H1  735   4.952   5.501   0.425
  257TIP3    H2  736   4.804   5.526   0.447
  258TIP3   OH2  737   4.871   2.038   4.382
  258TIP3    H1  738   4.899   2.124   4.350
  258TIP3    H2  739   4.921   1.976   4.331
  259TIP3   OH2  740   3.092   6.529   4.797
  259TIP3    H1  741   3.175   6.575   4.786
  259TIP3    H2  742   3.078   6.483   4.714
  260TIP3   OH2  743   1.315   4.692   1.309
  260TIP3    H1  744   1.260   4.746   1.253
  260TIP3    H2  745   1.322   4.609   1.262
  261TIP3   OH2  746   7.052   2.188   2.607
  261TIP3    H1  747   7.051   2.282   2.591
  261TIP3    H2  748   7.068   2.180   2.701
  262TIP3   OH2  749   4.140   4.072   1.388
  262TIP3    H1  750   4.045   4.063   1.380
  262TIP3    H2  751   4.175   4.001   1.335
  263TIP3   OH2  752   0.792   1.068   4.444
  263TIP3    H1  753   0.790   1.023   4.529
  263TIP3    H2  754   0.702   1.061   4.411
  264TIP3   OH2  755   2.119   2.645   1.267
  264TIP3    H1  756   2.157   2.723   1.308
  264TIP3    H2  757   2.152   2.573   1.320
  265TIP3   OH2  758   6.729   6.647   4.944
  265TIP3    H1  759   6.660   6.579   4.942
  265TIP3    H2  760   6.756   6.655   4.853
  266TIP3   OH2  761   0.167   4.154   0.511
  266TIP3    H1  762   0.104   4.178   0.443
  266TIP3    H2  763   0.250   4.148   0.464
  267TIP3   OH2  764   6.856   1.914   1.232
  267TIP3    H1  765   6.851   1.878   1.144
  267TIP3    H2  766   6.819   2.002   1.225
  268TIP3   OH2  767   3.060   1.339   5.381
  268TIP3    H1  768   3.077   1.373   5.469
  268TIP3    H2  769   3.144   1.345   5.336
  269TIP3   OH2  770   3.025   4.917   3.123
  269TIP3    H1  771   2.995   4.830   3.097
  269TIP3    H2  772   2.982   4.933   3.207
  270TIP3   OH2  773   3.046   6.709   4.012
  270TIP3    H1  774   3.090   6.682   4.092
  270TIP3    H2  775   2.953   6.705   4.033
  271TIP3   OH2  776   3.176   1.372   4.178
  271TIP3    H1  777   3.111   1.421   4.127
  271TIP3    H2  778   3.207   1.435   4.243
  272TIP3   OH2  779   5.857   5.931   1.497
  272TIP3    H1  780   5.829   6.013   1.537
  272TIP3    H2  781   5.834   5.941   1.405
  273TIP3   OH2  782   2.384   4.004   5.084
  273TIP3    H1  783   2.333   4.010   5.003
  273TIP3    H2  784   2.330   3.952   5.142
  274TIP3   OH2  785   3.769   0.897   4.214
  274TIP3    H1  786   3.831   0.832   4.247
  274TIP3    H2  787   3.683   0.856   4.221
  275TIP3   OH2  788   1.913   4.200   5.252
  275TIP3    H1  789   1.865   4.121   5.228
  275TIP3    H2  790   1.848   4.255   5.297
  276TIP3   OH2  791   3.476   0.494   3.878
  276TIP3    H1  792   3.433   0.541   3.807
  276TIP3    H2  793   3.536   0.434   3.835
  277TIP3   OH2  794   6.743   1.756   3.550
  277TIP3    H1  795   6.692   1.833   3.525
  277TIP3    H2  796   6.679   1.694   3.583
  278TIP3   OH2  797   0.194   0.692   0.276
  278TIP3    H1  798   0.167   0.614   0.324
  278TIP3    H2  799   0.257   0.735   0.335
  279TIP3   OH2  800   1.247   3.753   5.516
  279TIP3    H1  801   1.330   3.784   5.553
  279TIP3    H2  802   1.186   3.753   5.590
  280TIP3   OH2  803   6.658   4.633   0.358
  280TIP3    H1  804   6.735   4.634   0.301
  280TIP3    H2  805   6.690   4.596   0.440
  281TIP3   OH2  806   1.071   6.608   3.147
  281TIP3    H1  807   1.095   6.516   3.145
  281TIP3    H2  808   1.056   6.631   3.055
  282TIP3   OH2  809   3.748   3.969   4.780
  282TIP3    H1  810   3.702   3.972   4.864
  282TIP3    H2  811   3.803   4.047   4.780
  283TIP3   OH2  812   4.645   6.329   1.772
  283TIP3    H1  813   4.558   6.345   1.736
  283TIP3    H2  814   4.692   6.283   1.702
  284TIP3   OH2  815   0.122   1.297   1.672
  284TIP3    H1  816   0.213   1.281   1.696
  284TIP3    H2  817   0.086   1.345   1.747
  285TIP3   OH2  818   1.766   0.069   3.756
  285TIP3    H1  819   1.749   0.056   3.849
  285TIP3    H2  820   1.845   0.122   3.753
  286TIP3   OH2  821   4.792   5.442   2.346
  286TIP3    H1  822   4.867   5.412   2.398
  286TIP3    H2  823   4.762   5.363   2.300
  287TIP3   OH2  824   4.925   1.208   4.151
  287TIP3    H1  825   4.889   1.273   4.211
  287TIP3    H2  826   4.850   1.177   4.100
  288TIP3   OH2  827   0.321   4.571   5.725
  288TIP3    H1  828   0.388   4.531   5.781
  288TIP3    H2  829   0.266   4.621   5.786
  289TIP3   OH2  830   5.007   5.667   1.343
  289TIP3    H1  831   5.045   5.672   1.431
  289TIP3    H2  832   4.942   5.737   1.340
  290TIP3   OH2  833   4.985   1.035   4.577
  290TIP3    H1  834   4.976   1.130   4.567
  290TIP3    H2  835   4.939   1.015   4.658
  291TIP3   OH2  836   1.638   4.926   4.005
  291TIP3    H1  837   1.694   4.953   3.932
  291TIP3    H2  838   1.699   4.890   4.070
  292TIP3   OH2  839   5.111   6.599   2.173
  292TIP3    H1  840   5.123   6.509   2.141
  292TIP3    H2  841   5.075   6.646   2.097
  293TIP3   OH2  842   5.258   1.896   3.319
  293TIP3    H1  843   5.303   1.873   3.399
  293TIP3    H2  844   5.324   1.886   3.250
  294TIP3   OH2  845   2.550   1.843   4.579
  294TIP3    H1  846   2.460   1.839   4.548
  294TIP3    H2  847   2.592   1.909   4.524
  295TIP3   OH2  848   0.547   6.732   0.677
  295TIP3    H1  849   0.638   6.714   0.657
  295TIP3    H2  850   0.530   6.682   0.757
  296TIP3   OH2  851   4.845   0.411   5.378
  296TIP3    H1  852   4.890   0.337   5.420
  296TIP3    H2  853   4.913   0.478   5.371
  297TIP3   OH2  854   1.546   1.308   3.400
  297TIP3    H1  855   1.468   1.301   3.345
  297TIP3    H2  856   1.610   1.353   3.346
  298TIP3   OH2  857   5.043   5.876   5.331
  298TIP3    H1  858   5.033   5.961   5.373
  298TIP3    H2  859   5.021   5.892   5.239
  299TIP3   OH2  860   3.492   4.613   2.864
  299TIP3    H1  861   3.579   4.613   2.904
  299TIP3    H2  862   3.445   4.542   2.908
  300TIP3   OH2  863   5.373   2.142   1.275
  300TIP3    H1  864   5.326   2.201   1.216
  300TIP3    H2  865   5.305   2.091   1.318
  301TIP3   OH2  866   0.459   3.878   1.229
  301TIP3    H1  867   0.387   3.903   1.170
  301TIP3    H2  868   0.458   3.946   1.297
  302TIP3   OH2  869   0.672   1.393   0.186
  302TIP3    H1  870   0.678   1.310   0.233
  302TIP3    H2  871   0.631   1.370   0.103
  303TIP3   OH2  872   1.124   2.917   4.628
  303TIP3    H1  873   1.033   2.889   4.641
  303TIP3    H2  874   1.148   2.960   4.710
  304TIP3   OH2  875   6.005   5.462   4.493
  304TIP3    H1  876   6.065   5.396   4.459
  304TIP3    H2  877   6.012   5.454   4.588
  305TIP3   OH2  878   5.185   4.598   3.134
  305TIP3    H1  879   5.194   4.653   3.212
  305TIP3    H2  880   5.242   4.523   3.150
  306TIP3   OH2  881   1.064   4.033   3.883
  306TIP3    H1  882   1.028   4.019   3.970
  306TIP3    H2  883   0.999   3.996   3.823
  307TIP3   OH2  884   4.363   2.274   2.196
  307TIP3    H1  885   4.351   2.369   2.198
  307TIP3    H2  886   4.458   2.261   2.196
  308TIP3   OH2  887   2.145   5.832   0.134
  308TIP3    H1  888   2.169   5.739   0.137
  308TIP3    H2  889   2.052   5.833   0.158
  309TIP3   OH2  890   4.572   3.276   5.488
  309TIP3    H1  891   4.496   3.331   5.470
  309TIP3    H2  892   4.645   3.338   5.498
  310TIP3   OH2  893   3.599   0.844   5.541
  310TIP3    H1  894   3.507   0.869   5.531
  310TIP3    H2  895   3.613   0.779   5.471
  311TIP3   OH2  896   0.234   5.666   3.587
  311TIP3    H1  897   0.280   5.583   3.570
  311TIP3    H2  898   0.153   5.659   3.537
  312TIP3   OH2  899   1.805   5.846   3.596
  312TIP3    H1  900   1.854   5.922   3.628
  312TIP3    H2  901   1.722   5.848   3.645
  313TIP3   OH2  902   1.081   2.219   0.954
  313TIP3    H1  903   1.027   2.278   1.006
  313TIP3    H2  904   1.030   2.138   0.950
  314TIP3   OH2  905   2.568   3.033   1.125
  314TIP3    H1  906   2.622   2.953   1.131
  314TIP3    H2  907   2.529   3.041   1.212
  315TIP3   OH2  908   6.656   5.359   2.375
  315TIP3    H1  909   6.642   5.420   2.302
  315TIP3    H2  910   6.712   5.291   2.339
  316TIP3   OH2  911   2.453   4.805   1.058
  316TIP3    H1  912   2.526   4.758   1.098
  316TIP3    H2  913   2.495   4.866   0.997
  317TIP3   OH2  914   1.905   1.023   4.210
  317TIP3    H1  915   1.843   1.065   4.269
  317TIP3    H2  916   1.852   0.996   4.134
  318TIP3   OH2  917   6.975   4.194   5.039
  318TIP3    H1  918   7.058   4.240   5.026
  318TIP3    H2  919   6.994   4.104   5.012
  319TIP3   OH2  920   0.410   1.575   1.326
  319TIP3    H1  921   0.401   1.481   1.311
  319TIP3    H2  922   0.391   1.615   1.241
  320TIP3   OH2  923   4.398   3.000   1.114
  320TIP3    H1  924   4.410   3.067   1.047
  320TIP3    H2  925   4.305   2.976   1.107
  321TIP3   OH2  926   3.793   4.237   2.107
  321TIP3    H1  927   3.842   4.177   2.162
  321TIP3    H2  928   3.812   4.209   2.017
  322TIP3   OH2  929   2.493   4.682   4.542
  322TIP3    H1  930   2.526   4.770   4.558
  322TIP3    H2  931   2.538   4.628   4.607
  323TIP3   OH2  932   1.314   2.085   0.954
  323TIP3    H1  933   1.253   2.159   0.950
  323TIP3    H2  934   1.258   2.008   0.955
  324TIP3   OH2  935   6.968   3.770   2.356
  324TIP3    H1  936   6.977   3.796   2.265
  324TIP3    H2  937   7.055   3.783   2.394
  325TIP3   OH2  938   2.648   6.386   3.532
  325TIP3    H1  939   2.631   6.425   3.617
  325TIP3    H2  940   2.609   6.447   3.469
  326TIP3   OH2  941   6.614   4.023   2.727
  326TIP3    H1  942   6.676   4.005   2.656
  326TIP3    H2  943   6.662   4.001   2.807
  327TIP3   OH2  944   1.475   4.262   3.604
  327TIP3    H1  945   1.561   4.222   3.617
  327TIP3    H2  946   1.442   4.278   3.693
  328TIP3   OH2  947   3.206   1.670   4.647
  328TIP3    H1  948   3.195   1.579   4.671
  328TIP3    H2  949   3.288   1.673   4.598
  329TIP3   OH2  950   1.289   5.654   1.161
  329TIP3    H1  951   1.346   5.638   1.236
  329TIP3    H2  952   1.249   5.739   1.180
  330TIP3   OH2  953   2.939   6.312   2.179
  330TIP3    H1  954   2.927   6.241   2.242
  330TIP3    H2  955   2.961   6.269   2.097
  331TIP3   OH2  956   5.650   0.590   2.608
  331TIP3    H1  957   5.642   0.623   2.697
  331TIP3    H2  958   5.703   0.656   2.562
  332TIP3   OH2  959   5.662   0.960   4.214
  332TIP3    H1  960   5.674   0.908   4.134
  332TIP3    H2  961   5.689   1.049   4.189
  333TIP3   OH2  962   0.730   0.080   1.433
  333TIP3    H1  963   0.682   0.100   1.514
  333TIP3    H2  964   0.821   0.069   1.462
  334TIP3   OH2  965   4.603   1.399   2.686
  334TIP3    H1  966   4.644   1.385   2.601
  334TIP3    H2  967   4.516   1.435   2.666
  335TIP3   OH2  968   3.435   1.077   5.821
  335TIP3    H1  969   3.473   1.107   5.738
  335TIP3    H2  970   3.511   1.061   5.878
  336TIP3   OH2  971   0.183   5.051   4.451
  336TIP3    H1  972   0.158   5.140   4.477
  336TIP3    H2  973   0.267   5.036   4.494
  337TIP3   OH2  974   0.972  -0.009   0.846
  337TIP3    H1  975   0.935  -0.006   0.758
  337TIP3    H2  976   0.957   0.078   0.882
  338TIP3   OH2  977   5.557   5.831   3.841
  338TIP3    H1  978   5.546   5.864   3.930
  338TIP3    H2  979   5.493   5.879   3.789
  339TIP3   OH2  980   3.809   0.661   1.023
  339TIP3    H1  981   3.862   0.598   1.073
  339TIP3    H2  982   3.805   0.623   0.935
  340TIP3   OH2  983   0.099   2.454   0.799
  340TIP3    H1  984   0.150   2.502   0.864
  340TIP3    H2  985   0.080   2.370   0.841
  341TIP3   OH2  986   5.057   6.537   2.621
  341TIP3    H1  987   5.114   6.555   2.695
  341TIP3    H2  988   5.058   6.618   2.569
  342TIP3   OH2  989   1.962   1.755   2.002
  342TIP3    H1  990   2.003   1.680   1.959
  342TIP3    H2  991   2.025   1.826   1.991
  343TIP3   OH2  992   4.267   1.019   3.058
  343TIP3    H1  993   4.354   1.044   3.029
  343TIP3    H2  994   4.208   1.081   3.015
  344TIP3   OH2  995   2.316   0.660   2.391
  344TIP3    H1  996   2.246   0.702   2.441
  344TIP3    H2  997   2.288   0.666   2.300
  345TIP3   OH2  998   2.637   5.609   0.180
  345TIP3    H1  999   2.566   5.673   0.184
  345TIP3    H2 1000   2.650   5.593   0.086
  346TIP3   OH2 1001   0.173   0.679   3.154
  346TIP3    H1 1002   0.105   0.614   3.138
  346TIP3    H2 1003   0.246   0.653   3.099
  347TIP3   OH2 1004   1.011   6.396   1.891
  347TIP3    H1 1005   1.098   6.382   1.928
  347TIP3    H2 1006   1.027   6.414   1.798
  348TIP3   OH2 1007   6.124   2.927   0.778
  348TIP3    H1 1008   6.043   2.954   0.821
  348TIP3    H2 1009   6.096   2.897   0.691
  349TIP3   OH2 1010   0.461   5.965   2.008
  349TIP3    H1 1011   0.377   5.935   2.043
  349TIP3    H2 1012   0.508   5.998   2.085
  350TIP3   OH2 1013   2.471   3.072   1.378
  350TIP3    H1 1014   2.376   3.075   1.383
  350TIP3    H2 1015   2.501   3.117   1.457
  351TIP3   OH2 1016   3.259   4.667   4.915
  351TIP3    H1 1017   3.309   4.603   4.966
  351TIP3    H2 1018   3.313   4.684   4.838
  352TIP3   OH2 1019   3.904   6.668   2.955
  352TIP3    H1 1020   3.946   6.659   3.041
  352TIP3    H2 1021   3.973   6.700   2.897
  353TIP3   OH2 1022   2.830   2.320   5.540
  353TIP3    H1 1023   2.812   2.414   5.531
  353TIP3    H2 1024   2.866   2.294   5.456
  354TIP3   OH2 1025   2.772   2.822   0.239
  354TIP3    H1 1026   2.770   2.916   0.223
  354TIP3    H2 1027   2.734   2.784   0.159
  355TIP3   OH2 1028   6.406   4.318   3.099
  355TIP3    H1 1029   6.399   4.284   3.188
  355TIP3    H2 1030   6.341   4.267   3.049
  356TIP3   OH2 1031   0.613   4.772   4.256
  356TIP3    H1 1032   0.538   4.830   4.242
  356TIP3    H2 1033   0.688   4.822   4.222
  357TIP3   OH2 1034   1.838   2.696   4.833
  357TIP3    H1 1035   1.876   2.781   4.809
  357TIP3    H2 1036   1.751   2.697   4.793
  358TIP3   OH2 1037   2.992   6.774   0.489
  358TIP3    H1 1038   3.077   6.732   0.475
  358TIP3    H2 1039   2.936   6.738   0.421
  359TIP3   OH2 1040   4.505   2.232   4.076
  359TIP3    H1 1041   4.551   2.252   4.158
  359TIP3    H2 1042   4.420   2.198   4.104
  360TIP3   OH2 1043   6.457   0.337   4.202
  360TIP3    H1 1044   6.466   0.383   4.285
  360TIP3    H2 1045   6.393   0.388   4.153
  361TIP3   OH2 1046   3.322   4.269   1.555
  361TIP3    H1 1047   3.348   4.347   1.605
  361TIP3    H2 1048   3.356   4.196   1.606
  362TIP3   OH2 1049   3.902   1.911   4.457
  362TIP3    H1 1050   3.973   1.914   4.522
  362TIP3    H2 1051   3.914   1.827   4.412
  363TIP3   OH2 1052   6.680   0.253   1.963
  363TIP3    H1 1053   6.773   0.233   1.952
  363TIP3    H2 1054   6.673   0.290   2.051
  364TIP3   OH2 1055   4.681   6.487   3.996
  364TIP3    H1 1056   4.774   6.510   3.998
  364TIP3    H2 1057   4.637   6.568   3.973
  365TIP3   OH2 1058   3.733   6.501   5.340
  365TIP3    H1 1059   3.677   6.576   5.320
  365TIP3    H2 1060   3.748   6.507   5.435
  366TIP3   OH2 1061   5.050   3.731   4.061
  366TIP3    H1 1062   5.058   3.731   3.966
  366TIP3    H2 1063   5.130   3.773   4.092
  367TIP3   OH2 1064   5.558   6.038   3.581
  367TIP3    H1 1065   5.545   5.974   3.510
  367TIP3    H2 1066   5.615   6.105   3.542
  368TIP3   OH2 1067   5.750   6.198   0.154
  368TIP3    H1 1068   5.662   6.212   0.120
  368TIP3    H2 1069   5.808   6.232   0.087
  369TIP3   OH2 1070   6.131   0.035   0.414
  369TIP3    H1 1071   6.085   0.022   0.496
  369TIP3    H2 1072   6.222   0.050   0.440
  370TIP3   OH2 1073   0.499   3.196   3.473
  370TIP3    H1 1074   0.556   3.173   3.546
  370TIP3    H2 1075   0.458   3.113   3.447
  371TIP3   OH2 1076   3.347   4.340   2.646
  371TIP3    H1 1077   3.380   4.390   2.572
  371TIP3    H2 1078   3.349   4.249   2.616
  372TIP3   OH2 1079   1.366   3.553   0.500
  372TIP3    H1 1080   1.369   3.464   0.464
  372TIP3    H2 1081   1.428   3.551   0.573
  373TIP3   OH2 1082   7.124   5.358   3.704
  373TIP3    H1 1083   7.190   5.408   3.751
  373TIP3    H2 1084   7.173   5.300   3.646
  374TIP3   OH2 1085   0.362   6.793   5.316
  374TIP3    H1 1086   0.342   6.762   5.228
  374TIP3    H2 1087   0.334   6.722   5.374
  375TIP3   OH2 1088   0.988   1.406   2.177
  375TIP3    H1 1089   0.942   1.383   2.096
  375TIP3    H2 1090   0.982   1.502   2.182
  376TIP3   OH2 1091   3.099   2.543   0.080
  376TIP3    H1 1092   3.084   2.606   0.151
  376TIP3    H2 1093   3.117   2.597   0.003
  377TIP3   OH2 1094   1.792   4.149   1.474
  377TIP3    H1 1095   1.873   4.165   1.425
  377TIP3    H2 1096   1.758   4.067   1.437
  378TIP3   OH2 1097   5.246   4.084   3.480
  378TIP3    H1 1098   5.237   4.116   3.391
  378TIP3    H2 1099   5.303   4.147   3.523
  379TIP3   OH2 1100   1.520   6.681   0.166
  379TIP3    H1 1101   1.615   6.690   0.156
  379TIP3    H2 1102   1.483   6.736   0.098
  380TIP3   OH2 1103   1.722   2.522   4.390
  380TIP3    H1 1104   1.786   2.590   4.413
  380TIP3    H2 1105   1.732   2.456   4.459
  381TIP3   OH2 1106   2.051   4.879  -0.026
  381TIP3    H1 1107   2.017   4.792  -0.004
  381TIP3    H2 1108   2.019   4.936   0.044
  382TIP3   OH2 1109   4.705   6.571   1.900
  382TIP3    H1 1110   4.697   6.489   1.852
  382TIP3    H2 1111   4.630   6.571   1.960
  383TIP3   OH2 1112   6.899   2.867   3.528
  383TIP3    H1 1113   6.848   2.845   3.449
  383TIP3    H2 1114   6.862   2.811   3.596
  384TIP3   OH2 1115   4.627   0.540   0.471
  384TIP3    H1 1116   4.544   0.496   0.489
  384TIP3    H2 1117   4.606   0.633   0.475
  385TIP3   OH2 1118   7.096   6.432   3.775
  385TIP3    H1 1119   7.029   6.433   3.843
  385TIP3    H2 1120   7.126   6.341   3.772
  386TIP3   OH2 1121   0.314   4.655   3.788
  386TIP3    H1 1122   0.386   4.595   3.768
  386TIP3    H2 1123   0.243   4.627   3.730
  387TIP3   OH2 1124   7.077   1.998   0.088
  387TIP3    H1 1125   7.169   1.991   0.114
  387TIP3    H2 1126   7.051   2.086   0.115
  388TIP3   OH2 1127   4.256   5.866   1.144
  388TIP3    H1 1128   4.323   5.878   1.212
  388TIP3    H2 1129   4.173   5.870   1.191
  389TIP3   OH2 1130   6.707   4.683   2.966
  389TIP3    H1 1131   6.730   4.745   3.035
  389TIP3    H2 1132   6.619   4.653   2.988
  390TIP3   OH2 1133   6.736   2.386   0.582
  390TIP3    H1 1134   6.808   2.450   0.580
  390TIP3    H2 1135   6.742   2.341   0.498
  391TIP3   OH2 1136   7.029   5.951   5.015
  391TIP3    H1 1137   6.956   6.012   5.007
  391TIP3    H2 1138   7.003   5.875   4.964
  392TIP3   OH2 1139   1.677   6.363   3.098
  392TIP3    H1 1140   1.593   6.382   3.138
  392TIP3    H2 1141   1.665   6.277   3.057
  393TIP3   OH2 1142   3.382   5.208   5.169
  393TIP3    H1 1143   3.346   5.231   5.254
  393TIP3    H2 1144   3.348   5.121   5.150
  394TIP3   OH2 1145   5.027   0.739   0.213
  394TIP3    H1 1146   5.037   0.832   0.189
  394TIP3    H2 1147   4.937   0.732   0.245
  395TIP3   OH2 1148   4.317   6.290   0.459
  395TIP3    H1 1149   4.353   6.203   0.444
  395TIP3    H2 1150   4.225   6.283   0.433
  396TIP3   OH2 1151   1.223   4.970   5.252
  396TIP3    H1 1152   1.254   4.888   5.291
  396TIP3    H2 1153   1.288   5.035   5.279
  397TIP3   OH2 1154   7.106   5.347   4.414
  397TIP3    H1 1155   7.070   5.273   4.366
  397TIP3    H2 1156   7.143   5.404   4.346
  398TIP3   OH2 1157   2.081   6.154   3.935
  398TIP3    H1 1158   2.035   6.215   3.993
  398TIP3    H2 1159   2.095   6.203   3.855
  399TIP3   OH2 1160   5.926   5.712   2.436
  399TIP3    H1 1161   5.926   5.661   2.517
  399TIP3    H2 1162   5.985   5.785   2.453
  400TIP3   OH2 1163   5.975   0.861   1.848
  400TIP3    H1 1164   6.069   0.875   1.862
  400TIP3    H2 1165   5.971   0.794   1.780
  401TIP3   OH2 1166   1.036   1.349   4.056
  401TIP3    H1 1167   1.015   1.353   3.963
  401TIP3    H2 1168   0.957   1.379   4.101
  402TIP3   OH2 1169   0.183   1.533   0.631
  402TIP3    H1 1170   0.220   1.618   0.653
  402TIP3    H2 1171   0.183   1.484   0.713
  403TIP3   OH2 1172   2.336   5.795   5.392
  403TIP3    H1 1173   2.401   5.795   5.322
  403TIP3    H2 1174   2.371   5.735   5.458
  404TIP3   OH2 1175   0.328   1.636   1.059
  404TIP3    H1 1176   0.239   1.649   1.026
  404TIP3    H2 1177   0.383   1.690   1.002
  405TIP3   OH2 1178   2.821   0.394   5.786
  405TIP3    H1 1179   2.770   0.453   5.731
  405TIP3    H2 1180   2.755   0.344   5.835
  406TIP3   OH2 1181   6.109   0.715   0.585
  406TIP3    H1 1182   6.023   0.677   0.568
  406TIP3    H2 1183   6.101   0.757   0.671
  407TIP3   OH2 1184   2.884   5.986   2.984
  407TIP3    H1 1185   2.957   6.014   3.039
  407TIP3    H2 1186   2.919   5.988   2.895
  408TIP3   OH2 1187   4.402   3.278   4.295
  408TIP3    H1 1188   4.451   3.360   4.288
  408TIP3    H2 1189   4.393   3.247   4.205
  409TIP3   OH2 1190   4.454   0.155   0.042
  409TIP3    H1 1191   4.476   0.066   0.066
  409TIP3    H2 1192   4.464   0.206   0.122
  410TIP3   OH2 1193   4.716   5.520   4.879
  410TIP3    H1 1194   4.803   5.529   4.842
  410TIP3    H2 1195   4.688   5.610   4.899
  411TIP3   OH2 1196   0.775   6.277   1.115
  411TIP3    H1 1197   0.720   6.345   1.077
  411TIP3    H2 1198   0.751   6.276   1.208
  412TIP3   OH2 1199   6.416   2.876   3.240
  412TIP3    H1 1200   6.393   2.949   3.183
  412TIP3    H2 1201   6.332   2.849   3.279
  413TIP3   OH2 1202   5.209   2.785   3.371
  413TIP3    H1 1203   5.272   2.722   3.333
  413TIP3    H2 1204   5.136   2.786   3.309
  414TIP3   OH2 1205   4.888   1.322   3.137
  414TIP3    H1 1206   4.958   1.304   3.199
  414TIP3    H2 1207   4.929   1.318   3.051
  415TIP3   OH2 1208   1.724   6.716   2.191
  415TIP3    H1 1209   1.731   6.621   2.201
  415TIP3    H2 1210   1.682   6.728   2.106
  416TIP3   OH2 1211   5.753   2.875   2.347
  416TIP3    H1 1212   5.772   2.866   2.254
  416TIP3    H2 1213   5.718   2.790   2.373
  417TIP3   OH2 1214   1.521   4.393   0.981
  417TIP3    H1 1215   1.433   4.391   1.020
  417TIP3    H2 1216   1.580   4.397   1.056
  418TIP3   OH2 1217   5.161   0.168   4.900
  418TIP3    H1 1218   5.177   0.076   4.917
  418TIP3    H2 1219   5.154   0.174   4.805
  419TIP3   OH2 1220   6.207   6.482   1.937
  419TIP3    H1 1221   6.152   6.472   1.859
  419TIP3    H2 1222   6.238   6.573   1.933
  420TIP3   OH2 1223   5.068   2.799   4.454
  420TIP3    H1 1224   5.085   2.889   4.427
  420TIP3    H2 1225   5.000   2.769   4.394
  421TIP3   OH2 1226   0.797   1.061   2.275
  421TIP3    H1 1227   0.704   1.083   2.283
  421TIP3    H2 1228   0.807   1.027   2.186
  422TIP3   OH2 1229   5.473   5.664   4.149
  422TIP3    H1 1230   5.545   5.636   4.093
  422TIP3    H2 1231   5.514   5.718   4.217
  423TIP3   OH2 1232   6.920   4.180   1.013
  423TIP3    H1 1233   6.902   4.087   1.000
  423TIP3    H2 1234   6.942   4.213   0.926
  424TIP3   OH2 1235   3.503   3.675   5.826
  424TIP3    H1 1236   3.480   3.634   5.909
  424TIP3    H2 1237   3.515   3.601   5.766
  425TIP3   OH2 1238   4.851   6.417   4.596
  425TIP3    H1 1239   4.811   6.341   4.554
  425TIP3    H2 1240   4.933   6.430   4.549
  426TIP3   OH2 1241   5.838   0.605   4.810
  426TIP3    H1 1242   5.908   0.562   4.860
  426TIP3    H2 1243   5.870   0.604   4.719
  427TIP3   OH2 1244   6.449   2.608   4.103
  427TIP3    H1 1245   6.359   2.639   4.111
  427TIP3    H2 1246   6.498   2.663   4.164
  428TIP3   OH2 1247   6.486   1.333   3.273
  428TIP3    H1 1248   6.522   1.289   3.197
  428TIP3    H2 1249   6.466   1.422   3.243
  429TIP3   OH2 1250   4.117   6.129   3.018
  429TIP3    H1 1251   4.130   6.199   2.953
  429TIP3    H2 1252   4.044   6.159   3.072
  430TIP3   OH2 1253   5.709   3.204   3.378
  430TIP3    H1 1254   5.772   3.177   3.311
  430TIP3    H2 1255   5.623   3.186   3.339
  431TIP3   OH2 1256   3.599   3.993   0.989
  431TIP3    H1 1257   3.555   3.918   1.030
  431TIP3    H2 1258   3.678   4.007   1.042
  432TIP3   OH2 1259   6.643   0.636   3.120
  432TIP3    H1 1260   6.590   0.686   3.183
  432TIP3    H2 1261   6.691   0.703   3.070
  433TIP3   OH2 1262   6.823   4.704   4.525
  433TIP3    H1 1263   6.847   4.633   4.585
  433TIP3    H2 1264   6.869   4.781   4.560
  434TIP3   OH2 1265   7.061   4.594   3.409
  434TIP3    H1 1266   7.132   4.564   3.466
  434TIP3    H2 1267   7.106   4.642   3.339
  435TIP3   OH2 1268   3.721   0.660   3.973
  435TIP3    H1 1269   3.654   0.692   4.033
  435TIP3    H2 1270   3.686   0.677   3.886
  436TIP3   OH2 1271   6.113   1.128   5.619
  436TIP3    H1 1272   6.197   1.169   5.640
  436TIP3    H2 1273   6.049   1.176   5.671
  437TIP3   OH2 1274   1.092   6.449   4.281
  437TIP3    H1 1275   1.018   6.412   4.232
  437TIP3    H2 1276   1.057   6.467   4.368
  438TIP3   OH2 1277   2.191   1.721   0.971
  438TIP3    H1 1278   2.191   1.815   0.952
  438TIP3    H2 1279   2.273   1.706   1.018
  439TIP3   OH2 1280   0.170   4.628   4.272
  439TIP3    H1 1281   0.244   4.645   4.330
  439TIP3    H2 1282   0.208   4.584   4.196
  440TIP3   OH2 1283   4.710   6.034   4.041
  440TIP3    H1 1284   4.770   5.999   4.107
  440TIP3    H2 1285   4.665   6.106   4.085
  441TIP3   OH2 1286   2.013   4.158   3.809
  441TIP3    H1 1287   2.018   4.063   3.801
  441TIP3    H2 1288   2.004   4.189   3.719
  442TIP3   OH2 1289   4.042   4.357   4.028
  442TIP3    H1 1290   4.107   4.290   4.008
  442TIP3    H2 1291   3.993   4.370   3.947
  443TIP3   OH2 1292   3.709   3.590   4.447
  443TIP3    H1 1293   3.649   3.612   4.376
  443TIP3    H2 1294   3.750   3.674   4.470
  444TIP3   OH2 1295   1.823   5.285   2.381
  444TIP3    H1 1296   1.786   5.232   2.452
  444TIP3    H2 1297   1.918   5.281   2.396
  445TIP3   OH2 1298   5.661   1.714   1.871
  445TIP3    H1 1299   5.737   1.669   1.907
  445TIP3    H2 1300   5.685   1.807   1.874
  446TIP3   OH2 1301   5.125   0.585   5.383
  446TIP3    H1 1302   5.084   0.668   5.360
  446TIP3    H2 1303   5.177   0.605   5.460
  447TIP3   OH2 1304   4.917   0.731   3.462
  447TIP3    H1 1305   4.967   0.708   3.541
  447TIP3    H2 1306   4.971   0.798   3.419
  448TIP3   OH2 1307   4.123   0.786   4.573
  448TIP3    H1 1308   4.168   0.845   4.513
  448TIP3    H2 1309   4.184   0.713   4.585
  449TIP3   OH2 1310   1.591   2.597   5.502
  449TIP3    H1 1311   1.585   2.508   5.538
  449TIP3    H2 1312   1.623   2.585   5.413
  450TIP3   OH2 1313   6.830   4.342   4.401
  450TIP3    H1 1314   6.897   4.296   4.451
  450TIP3    H2 1315   6.865   4.346   4.312
  451TIP3   OH2 1316   3.268   4.556   3.605
  451TIP3    H1 1317   3.268   4.624   3.673
  451TIP3    H2 1318   3.199   4.495   3.633
  452TIP3   OH2 1319   6.222   0.963   2.312
  452TIP3    H1 1320   6.178   0.882   2.285
  452TIP3    H2 1321   6.304   0.963   2.263
  453TIP3   OH2 1322   2.891   1.684   4.806
  453TIP3    H1 1323   2.806   1.723   4.826
  453TIP3    H2 1324   2.955   1.748   4.835
  454TIP3   OH2 1325   0.467   1.171   0.968
  454TIP3    H1 1326   0.496   1.090   1.008
  454TIP3    H2 1327   0.417   1.143   0.891
  455TIP3   OH2 1328   0.511   4.866   1.908
  455TIP3    H1 1329   0.474   4.948   1.876
  455TIP3    H2 1330   0.601   4.888   1.933
  456TIP3   OH2 1331   6.496   1.784   3.194
  456TIP3    H1 1332   6.434   1.856   3.199
  456TIP3    H2 1333   6.579   1.825   3.170
  457TIP3   OH2 1334   1.218   1.131   5.836
  457TIP3    H1 1335   1.129   1.123   5.803
  457TIP3    H2 1336   1.263   1.052   5.805
  458TIP3   OH2 1337   6.348   4.039   1.208
  458TIP3    H1 1338   6.310   4.115   1.252
  458TIP3    H2 1339   6.338   3.967   1.271
  459TIP3   OH2 1340   6.288   1.425   4.862
  459TIP3    H1 1341   6.383   1.424   4.854
  459TIP3    H2 1342   6.272   1.431   4.956
  460TIP3   OH2 1343   0.978   1.836   5.858
  460TIP3    H1 1344   0.978   1.741   5.848
  460TIP3    H2 1345   0.948   1.851   5.947
  461TIP3   OH2 1346   4.930   0.447   1.767
  461TIP3    H1 1347   4.928   0.374   1.705
  461TIP3    H2 1348   4.973   0.411   1.845
  462TIP3   OH2 1349   0.061   6.311   5.400
  462TIP3    H1 1350   0.090   6.311   5.492
  462TIP3    H2 1351  -0.015   6.369   5.398
  463TIP3   OH2 1352   1.171   0.743   1.414
  463TIP3    H1 1353   1.155   0.656   1.378
  463TIP3    H2 1354   1.104   0.798   1.373
  464TIP3   OH2 1355   1.493   2.219   4.430
  464TIP3    H1 1356   1.536   2.135   4.450
  464TIP3    H2 1357   1.561   2.284   4.444
  465TIP3   OH2 1358   6.977   6.779   5.451
  465TIP3    H1 1359   6.967   6.745   5.362
  465TIP3    H2 1360   7.049   6.728   5.488
  466TIP3   OH2 1361   2.431   5.020   4.852
  466TIP3    H1 1362   2.356   5.075   4.874
  466TIP3    H2 1363   2.500   5.082   4.829
  467TIP3   OH2 1364   5.991   1.261   2.358
  467TIP3    H1 1365   5.987   1.220   2.272
  467TIP3    H2 1366   6.069   1.315   2.355
  468TIP3   OH2 1367   1.312   0.206   5.215
  468TIP3    H1 1368   1.273   0.179   5.299
  468TIP3    H2 1369   1.377   0.272   5.239
  469TIP3   OH2 1370   3.915   0.183   5.220
  469TIP3    H1 1371   3.917   0.254   5.156
  469TIP3    H2 1372   3.836   0.133   5.199
  470TIP3   OH2 1373   3.902   3.110   3.021
  470TIP3    H1 1374   3.957   3.096   2.944
  470TIP3    H2 1375   3.847   3.185   2.998
  471TIP3   OH2 1376   2.621   2.015   0.902
  471TIP3    H1 1377   2.685   2.042   0.968
  471TIP3    H2 1378   2.537   2.026   0.945
  472TIP3   OH2 1379   5.017   6.187   0.688
  472TIP3    H1 1380   4.978   6.208   0.773
  472TIP3    H2 1381   5.067   6.266   0.665
  473TIP3   OH2 1382   3.560   2.906   0.731
  473TIP3    H1 1383   3.505   2.902   0.809
  473TIP3    H2 1384   3.616   2.828   0.737
  474TIP3   OH2 1385   5.746   3.661   3.939
  474TIP3    H1 1386   5.681   3.731   3.938
  474TIP3    H2 1387   5.790   3.668   3.854
  475TIP3   OH2 1388   1.560   3.091   0.732
  475TIP3    H1 1389   1.575   3.016   0.790
  475TIP3    H2 1390   1.492   3.142   0.775
  476TIP3   OH2 1391   2.852   6.631   3.165
  476TIP3    H1 1392   2.839   6.639   3.260
  476TIP3    H2 1393   2.769   6.661   3.128
  477TIP3   OH2 1394   4.904   1.769   5.364
  477TIP3    H1 1395   4.977   1.828   5.382
  477TIP3    H2 1396   4.832   1.804   5.416
  478TIP3   OH2 1397   1.583   6.068   3.905
  478TIP3    H1 1398   1.538   6.152   3.905
  478TIP3    H2 1399   1.530   6.012   3.849
  479TIP3   OH2 1400   4.797   6.570   5.211
  479TIP3    H1 1401   4.716   6.608   5.245
  479TIP3    H2 1402   4.867   6.620   5.252
  480TIP3   OH2 1403   0.685   5.211   1.125
  480TIP3    H1 1404   0.735   5.138   1.162
  480TIP3    H2 1405   0.751   5.278   1.105
  481TIP3   OH2 1406   4.930   0.013   0.209
  481TIP3    H1 1407   5.025   0.005   0.198
  481TIP3    H2 1408   4.898   0.033   0.121
  482TIP3   OH2 1409   5.167   3.418   2.395
  482TIP3    H1 1410   5.255   3.386   2.412
  482TIP3    H2 1411   5.156   3.492   2.455
  483TIP3   OH2 1412   1.991   3.384   0.926
  483TIP3    H1 1413   2.029   3.338   1.001
  483TIP3    H2 1414   2.067   3.423   0.881
  484TIP3   OH2 1415   6.648   2.464   3.997
  484TIP3    H1 1416   6.699   2.454   4.077
  484TIP3    H2 1417   6.569   2.511   4.024
  485TIP3   OH2 1418   4.985   4.718   1.454
  485TIP3    H1 1419   4.948   4.697   1.368
  485TIP3    H2 1420   5.026   4.803   1.442
  486TIP3   OH2 1421   6.603   4.624   4.851
  486TIP3    H1 1422   6.551   4.567   4.794
  486TIP3    H2 1423   6.693   4.615   4.819
  487TIP3   OH2 1424   5.101   5.364   5.495
  487TIP3    H1 1425   5.037   5.434   5.484
  487TIP3    H2 1426   5.080   5.301   5.427
  488TIP3   OH2 1427   1.394   3.645   5.281
  488TIP3    H1 1428   1.443   3.566   5.305
  488TIP3    H2 1429   1.313   3.638   5.330
  489TIP3   OH2 1430   5.844   1.621   4.440
  489TIP3    H1 1431   5.851   1.526   4.444
  489TIP3    H2 1432   5.782   1.644   4.509
  490TIP3   OH2 1433   6.015   0.754   2.255
  490TIP3    H1 1434   5.994   0.678   2.307
  490TIP3    H2 1435   5.933   0.777   2.211
  491TIP3   OH2 1436   3.303   0.933   2.301
  491TIP3    H1 1437   3.270   0.990   2.232
  491TIP3    H2 1438   3.225   0.907   2.350
  492TIP3   OH2 1439   4.214   2.485   0.812
  492TIP3    H1 1440   4.149   2.554   0.825
  492TIP3    H2 1441   4.271   2.517   0.743
  493TIP3   OH2 1442   0.954   5.897   1.562
  493TIP3    H1 1443   1.049   5.892   1.565
  493TIP3    H2 1444   0.934   5.936   1.477
  494TIP3   OH2 1445   6.571   6.777   4.038
  494TIP3    H1 1446   6.652   6.726   4.045
  494TIP3    H2 1447   6.504   6.712   4.019
  495TIP3   OH2 1448   1.923   2.906   2.219
  495TIP3    H1 1449   1.932   3.000   2.208
  495TIP3    H2 1450   1.828   2.891   2.217
  496TIP3   OH2 1451   3.409   6.697   4.173
  496TIP3    H1 1452   3.424   6.667   4.083
  496TIP3    H2 1453   3.319   6.670   4.193
  497TIP3   OH2 1454   1.592   5.170   1.829
  497TIP3    H1 1455   1.548   5.254   1.840
  497TIP3    H2 1456   1.523   5.111   1.798
  498TIP3   OH2 1457   0.728   3.820   1.463
  498TIP3    H1 1458   0.726   3.894   1.402
  498TIP3    H2 1459   0.638   3.815   1.497
  499TIP3   OH2 1460   7.007   5.600   3.187
  499TIP3    H1 1461   6.994   5.525   3.129
  499TIP3    H2 1462   7.102   5.608   3.194
  500TIP3   OH2 1463   1.525   1.820   2.405
  500TIP3    H1 1464   1.547   1.843   2.314
  500TIP3    H2 1465   1.536   1.725   2.408
  501TIP3   OH2 1466   1.134   0.334   2.078
  501TIP3    H1 1467   1.063   0.336   2.142
  501TIP3    H2 1468   1.177   0.419   2.087
  502TIP3   OH2 1469   1.743   4.622   2.779
  502TIP3    H1 1470   1.738   4.609   2.684
  502TIP3    H2 1471   1.717   4.538   2.816
  503TIP3   OH2 1472   2.265   1.078   2.466
  503TIP3    H1 1473   2.355   1.047   2.475
  503TIP3    H2 1474   2.229   1.025   2.395
  504TIP3   OH2 1475   4.441   2.910   4.161
  504TIP3    H1 1476   4.504   2.949   4.101
  504TIP3    H2 1477   4.375   2.871   4.104
  505TIP3   OH2 1478   3.507   3.682   1.524
  505TIP3    H1 1479   3.514   3.633   1.442
  505TIP3    H2 1480   3.414   3.677   1.547
  506TIP3   OH2 1481   0.766   0.509   4.909
  506TIP3    H1 1482   0.761   0.604   4.919
  506TIP3    H2 1483   0.677   0.478   4.922
  507TIP3   OH2 1484   3.219   1.416   2.054
  507TIP3    H1 1485   3.175   1.390   1.974
  507TIP3    H2 1486   3.298   1.362   2.056
  508TIP3   OH2 1487   1.558   0.544   5.645
  508TIP3    H1 1488   1.539   0.630   5.682
  508TIP3    H2 1489   1.608   0.499   5.712
  509TIP3   OH2 1490   7.134   3.326   3.446
  509TIP3    H1 1491   7.176   3.363   3.368
  509TIP3    H2 1492   7.161   3.234   3.447
  510TIP3   OH2 1493   2.594   2.683   3.910
  510TIP3    H1 1494   2.606   2.600   3.955
  510TIP3    H2 1495   2.597   2.749   3.980
  511TIP3   OH2 1496   1.516   3.376   3.216
  511TIP3    H1 1497   1.520   3.293   3.168
  511TIP3    H2 1498   1.472   3.354   3.298
  512TIP3   OH2 1499   1.515   4.789   4.326
  512TIP3    H1 1500   1.493   4.794   4.419
  512TIP3    H2 1501   1.610   4.788   4.323
  513TIP3   OH2 1502   6.404   5.881   5.310
  513TIP3    H1 1503   6.334   5.828   5.271
  513TIP3    H2 1504   6.462   5.818   5.352
  514TIP3   OH2 1505   4.409   3.353   1.248
  514TIP3    H1 1506   4.487   3.352   1.192
  514TIP3    H2 1507   4.441   3.323   1.334
  515TIP3   OH2 1508   7.117   6.467   0.358
  515TIP3    H1 1509   7.036   6.484   0.407
  515TIP3    H2 1510   7.156   6.391   0.400
  516TIP3   OH2 1511   3.982   6.389   1.914
  516TIP3    H1 1512   3.943   6.367   1.998
  516TIP3    H2 1513   3.991   6.305   1.869
  517TIP3   OH2 1514   7.167   6.034   1.722
  517TIP3    H1 1515   7.113   5.963   1.756
  517TIP3    H2 1516   7.115   6.113   1.738
  518TIP3   OH2 1517   6.354   6.507   1.677
  518TIP3    H1 1518   6.438   6.546   1.653
  518TIP3    H2 1519   6.377   6.435   1.735
  519TIP3   OH2 1520   4.415   6.664   4.622
  519TIP3    H1 1521   4.445   6.608   4.551
  519TIP3    H2 1522   4.322   6.679   4.603
  520TIP3   OH2 1523   6.523   6.451   4.128
  520TIP3    H1 1524   6.606   6.463   4.174
  520TIP3    H2 1525   6.500   6.359   4.143
  521TIP3   OH2 1526   0.662   1.886   1.878
  521TIP3    H1 1527   0.624   1.814   1.828
  521TIP3    H2 1528   0.700   1.944   1.812
  522TIP3   OH2 1529   5.157   2.600   4.194
  522TIP3    H1 1530   5.235   2.600   4.139
  522TIP3    H2 1531   5.102   2.670   4.158
  523TIP3   OH2 1532   5.492   3.395   5.619
  523TIP3    H1 1533   5.435   3.449   5.564
  523TIP3    H2 1534   5.434   3.330   5.658
  524TIP3   OH2 1535   3.512   4.115   0.469
  524TIP3    H1 1536   3.520   4.043   0.531
  524TIP3    H2 1537   3.564   4.088   0.393
  525TIP3   OH2 1538   1.171   1.958   1.778
  525TIP3    H1 1539   1.147   2.015   1.851
  525TIP3    H2 1540   1.222   2.013   1.720
  526TIP3   OH2 1541   6.749   2.430   4.739
  526TIP3    H1 1542   6.688   2.465   4.805
  526TIP3    H2 1543   6.730   2.337   4.735
  527TIP3   OH2 1544   1.923   2.214   1.479
  527TIP3    H1 1545   1.983   2.178   1.544
  527TIP3    H2 1546   1.967   2.201   1.395
  528TIP3   OH2 1547   0.071   6.238   0.858
  528TIP3    H1 1548   0.123   6.165   0.890
  528TIP3    H2 1549  -0.020   6.213   0.876
  529TIP3   OH2 1550   3.471   3.751   4.779
  529TIP3    H1 1551   3.548   3.709   4.818
  529TIP3    H2 1552   3.400   3.687   4.794
  530TIP3   OH2 1553   0.916   3.853   0.929
  530TIP3    H1 1554   0.995   3.799   0.923
  530TIP3    H2 1555   0.848   3.800   0.886
  531TIP3   OH2 1556   1.914   0.282   4.067
  531TIP3    H1 1557   1.884   0.201   4.108
  531TIP3    H2 1558   1.988   0.310   4.120
  532TIP3   OH2 1559   5.666   4.455   3.219
  532TIP3    H1 1560   5.659   4.548   3.239
  532TIP3    H2 1561   5.739   4.448   3.159
  533TIP3   OH2 1562   3.732   0.018   4.610
  533TIP3    H1 1563   3.638   0.013   4.596
  533TIP3    H2 1564   3.768   0.044   4.526
  534TIP3   OH2 1565   2.432   5.604   1.588
  534TIP3    H1 1566   2.351   5.650   1.565
  534TIP3    H2 1567   2.487   5.611   1.510
  535TIP3   OH2 1568   1.894   1.265   3.456
  535TIP3    H1 1569   1.830   1.197   3.473
  535TIP3    H2 1570   1.973   1.218   3.430
  536TIP3   OH2 1571   5.960   1.004   2.467
  536TIP3    H1 1572   6.040   0.981   2.419
  536TIP3    H2 1573   5.951   1.098   2.454
  537TIP3   OH2 1574   2.817   6.694   4.493
  537TIP3    H1 1575   2.817   6.701   4.589
  537TIP3    H2 1576   2.901   6.730   4.466
  538TIP3   OH2 1577   3.006   4.177   4.023
  538TIP3    H1 1578   3.093   4.154   4.057
  538TIP3    H2 1579   3.014   4.270   3.999
  539TIP3   OH2 1580   2.308   3.732   4.610
  539TIP3    H1 1581   2.399   3.702   4.610
  539TIP3    H2 1582   2.302   3.793   4.683
  540TIP3   OH2 1583   2.465   5.968   3.876
  540TIP3    H1 1584   2.428   6.053   3.898
  540TIP3    H2 1585   2.545   5.988   3.828
  541TIP3   OH2 1586   5.645   1.216   3.906
  541TIP3    H1 1587   5.564   1.258   3.879
  541TIP3    H2 1588   5.689   1.194   3.824
  542TIP3   OH2 1589   6.954   5.972   0.942
  542TIP3    H1 1590   6.881   5.950   1.000
  542TIP3    H2 1591   7.022   5.908   0.964
  543TIP3   OH2 1592   3.500   3.705   5.346
  543TIP3    H1 1593   3.449   3.628   5.372
  543TIP3    H2 1594   3.500   3.704   5.251
  544TIP3   OH2 1595   3.362   1.404   5.434
  544TIP3    H1 1596   3.405   1.338   5.378
  544TIP3    H2 1597   3.334   1.355   5.511
  545TIP3   OH2 1598   5.271   6.173   5.530
  545TIP3    H1 1599   5.181   6.188   5.498
  545TIP3    H2 1600   5.302   6.260   5.555
  546TIP3   OH2 1601   3.175   0.952   0.818
  546TIP3    H1 1602   3.170   0.876   0.760
  546TIP3    H2 1603   3.262   0.946   0.858
  547TIP3   OH2 1604   6.101   1.791   5.247
  547TIP3    H1 1605   6.166   1.823   5.309
  547TIP3    H2 1606   6.152   1.761   5.172
  548TIP3   OH2 1607   0.061   5.334   1.174
  548TIP3    H1 1608   0.027   5.245   1.170
  548TIP3    H2 1609   0.153   5.327   1.147
  549TIP3   OH2 1610   4.690   4.535   5.366
  549TIP3    H1 1611   4.655   4.624   5.358
  549TIP3    H2 1612   4.783   4.544   5.349
  550TIP3   OH2 1613   0.584   4.669   2.614
  550TIP3    H1 1614   0.590   4.605   2.542
  550TIP3    H2 1615   0.535   4.624   2.682
  551TIP3   OH2 1616   0.537   5.962   2.788
  551TIP3    H1 1617   0.500   5.882   2.824
  551TIP3    H2 1618   0.461   6.015   2.763
  552TIP3   OH2 1619   1.734   4.073   1.814
  552TIP3    H1 1620   1.688   3.989   1.807
  552TIP3    H2 1621   1.664   4.137   1.825
  553TIP3   OH2 1622   6.136   5.786   3.706
  553TIP3    H1 1623   6.096   5.808   3.622
  553TIP3    H2 1624   6.170   5.869   3.739
  554TIP3   OH2 1625   6.930   2.998   0.349
  554TIP3    H1 1626   6.894   2.913   0.376
  554TIP3    H2 1627   6.998   3.016   0.414
  555TIP3   OH2 1628   6.309   1.222   3.531
  555TIP3    H1 1629   6.255   1.294   3.563
  555TIP3    H2 1630   6.263   1.143   3.559
  556TIP3   OH2 1631   6.568   6.635   3.301
  556TIP3    H1 1632   6.638   6.673   3.355
  556TIP3    H2 1633   6.490   6.684   3.325
  557TIP3   OH2 1634   6.672   1.162   3.813
  557TIP3    H1 1635   6.651   1.252   3.834
  557TIP3    H2 1636   6.766   1.163   3.793
  558TIP3   OH2 1637   1.993   4.014   4.952
  558TIP3    H1 1638   1.954   3.932   4.982
  558TIP3    H2 1639   2.084   3.992   4.933
  559TIP3   OH2 1640   5.061   2.397   1.311
  559TIP3    H1 1641   4.982   2.441   1.280
  559TIP3    H2 1642   5.029   2.332   1.374
  560TIP3   OH2 1643   3.634   0.352   4.492
  560TIP3    H1 1644   3.595   0.437   4.475
  560TIP3    H2 1645   3.705   0.370   4.554
  561TIP3   OH2 1646   2.597   3.387   4.377
  561TIP3    H1 1647   2.614   3.464   4.322
  561TIP3    H2 1648   2.677   3.374   4.427
  562TIP3   OH2 1649   3.931   0.442   1.193
  562TIP3    H1 1650   4.009   0.407   1.235
  562TIP3    H2 1651   3.909   0.520   1.245
  563TIP3   OH2 1652   1.305   3.687   1.881
  563TIP3    H1 1653   1.246   3.662   1.811
  563TIP3    H2 1654   1.347   3.605   1.908
  564TIP3   OH2 1655   1.250   4.416   5.601
  564TIP3    H1 1656   1.218   4.326   5.608
  564TIP3    H2 1657   1.214   4.461   5.677
  565TIP3   OH2 1658   5.199   0.167   4.621
  565TIP3    H1 1659   5.200   0.154   4.526
  565TIP3    H2 1660   5.239   0.088   4.657
  566TIP3   OH2 1661   5.579   1.497   2.500
  566TIP3    H1 1662   5.516   1.507   2.428
  566TIP3    H2 1663   5.661   1.472   2.456
  567TIP3   OH2 1664   1.702   4.808   3.221
  567TIP3    H1 1665   1.752   4.730   3.197
  567TIP3    H2 1666   1.682   4.851   3.137
  568TIP3   OH2 1667   1.260   0.321   5.733
  568TIP3    H1 1668   1.261   0.290   5.823
  568TIP3    H2 1669   1.332   0.385   5.730
  569TIP3   OH2 1670   3.121   4.081   1.086
  569TIP3    H1 1671   3.058   4.056   1.153
  569TIP3    H2 1672   3.205   4.080   1.132
  570TIP3   OH2 1673   0.085   6.236   2.880
  570TIP3    H1 1674   0.072   6.305   2.815
  570TIP3    H2 1675   0.089   6.283   2.964
  571TIP3   OH2 1676   3.241   4.545   0.607
  571TIP3    H1 1677   3.151   4.555   0.638
  571TIP3    H2 1678   3.265   4.455   0.632
  572TIP3   OH2 1679   3.380   3.460   2.868
  572TIP3    H1 1680   3.441   3.390   2.847
  572TIP3    H2 1681   3.432   3.540   2.863
  573TIP3   OH2 1682   2.353   0.054   2.551
  573TIP3    H1 1683   2.336   0.138   2.509
  573TIP3    H2 1684   2.426   0.072   2.611
  574TIP3   OH2 1685   0.198   5.344   5.126
  574TIP3    H1 1686   0.248   5.313   5.050
  574TIP3    H2 1687   0.165   5.430   5.100
  575TIP3   OH2 1688   5.010   2.427   3.672
  575TIP3    H1 1689   5.003   2.332   3.676
  575TIP3    H2 1690   5.046   2.445   3.585
  576TIP3   OH2 1691   4.882   3.470   5.035
  576TIP3    H1 1692   4.967   3.503   5.007
  576TIP3    H2 1693   4.879   3.380   5.002
  577TIP3   OH2 1694   5.031   1.873   4.187
  577TIP3    H1 1695   5.012   1.921   4.107
  577TIP3    H2 1696   5.122   1.892   4.206
  578TIP3   OH2 1697   7.197   5.297   1.446
  578TIP3    H1 1698   7.254   5.316   1.373
  578TIP3    H2 1699   7.157   5.381   1.469
  579TIP3   OH2 1700   4.808   4.809   5.612
  579TIP3    H1 1701   4.793   4.719   5.641
  579TIP3    H2 1702   4.772   4.812   5.524
  580TIP3   OH2 1703   3.855   0.531   2.963
  580TIP3    H1 1704   3.877   0.593   3.033
  580TIP3    H2 1705   3.890   0.447   2.993
  581TIP3   OH2 1706   6.661   4.920   3.564
  581TIP3    H1 1707   6.747   4.880   3.576
  581TIP3    H2 1708   6.674   4.985   3.495
  582TIP3   OH2 1709   7.018   4.931   1.488
  582TIP3    H1 1710   6.996   4.996   1.422
  582TIP3    H2 1711   7.056   4.981   1.560
  583TIP3   OH2 1712   4.192   1.858   0.054
  583TIP3    H1 1713   4.152   1.809  -0.018
  583TIP3    H2 1714   4.276   1.814   0.069
  584TIP3   OH2 1715   1.332   4.412   3.076
  584TIP3    H1 1716   1.372   4.336   3.033
  584TIP3    H2 1717   1.239   4.406   3.053
  585TIP3   OH2 1718   4.512   2.953   4.671
  585TIP3    H1 1719   4.487   2.990   4.586
  585TIP3    H2 1720   4.516   2.858   4.655
  586TIP3   OH2 1721   5.136   1.963   1.135
  586TIP3    H1 1722   5.219   1.935   1.173
  586TIP3    H2 1723   5.142   2.058   1.133
  587TIP3   OH2 1724   6.418   2.812   2.677
  587TIP3    H1 1725   6.375   2.836   2.595
  587TIP3    H2 1726   6.453   2.724   2.662
  588TIP3   OH2 1727   5.422   3.563   0.627
  588TIP3    H1 1728   5.328   3.554   0.640
  588TIP3    H2 1729   5.432   3.646   0.580
  589TIP3   OH2 1730   6.889   4.182   3.352
  589TIP3    H1 1731   6.953   4.213   3.288
  589TIP3    H2 1732   6.850   4.261   3.388
  590TIP3   OH2 1733   2.240   5.195   4.980
  590TIP3    H1 1734   2.166   5.148   5.018
  590TIP3    H2 1735   2.278   5.242   5.053
  591TIP3   OH2 1736   5.646   5.497   3.863
  591TIP3    H1 1737   5.725   5.462   3.822
  591TIP3    H2 1738   5.676   5.544   3.940
  592TIP3   OH2 1739   1.117   0.311   3.486
  592TIP3    H1 1740   1.203   0.270   3.494
  592TIP3    H2 1741   1.056   0.247   3.521
  593TIP3   OH2 1742   5.727   1.254   1.437
  593TIP3    H1 1743   5.814   1.293   1.448
  593TIP3    H2 1744   5.730   1.214   1.350
  594TIP3   OH2 1745   5.703   1.871   3.011
  594TIP3    H1 1746   5.747   1.819   2.943
  594TIP3    H2 1747   5.652   1.935   2.964
  595TIP3   OH2 1748   4.123   6.169   5.605
  595TIP3    H1 1749   4.045   6.217   5.579
  595TIP3    H2 1750   4.145   6.202   5.692
  596TIP3   OH2 1751   1.308   3.478   2.881
  596TIP3    H1 1752   1.233   3.420   2.871
  596TIP3    H2 1753   1.282   3.540   2.950
  597TIP3   OH2 1754   3.962   5.359   2.092
  597TIP3    H1 1755   3.957   5.304   2.170
  597TIP3    H2 1756   3.958   5.298   2.018
  598TIP3   OH2 1757   7.025   5.032   2.674
  598TIP3    H1 1758   6.965   5.017   2.601
  598TIP3    H2 1759   7.088   5.096   2.641
  599TIP3   OH2 1760   1.508   3.287   4.787
  599TIP3    H1 1761   1.579   3.294   4.850
  599TIP3    H2 1762   1.486   3.378   4.765
  600TIP3   OH2 1763   3.625   3.402   4.604
  600TIP3    H1 1764   3.677   3.325   4.624
  600TIP3    H2 1765   3.686   3.463   4.563
  601TIP3   OH2 1766   2.579   6.226   0.683
  601TIP3    H1 1767   2.643   6.289   0.652
  601TIP3    H2 1768   2.560   6.172   0.606
  602TIP3   OH2 1769   3.013   3.539   2.006
  602TIP3    H1 1770   3.079   3.570   2.067
  602TIP3    H2 1771   2.932   3.537   2.056
  603TIP3   OH2 1772   7.186   0.486   5.652
  603TIP3    H1 1773   7.166   0.501   5.744
  603TIP3    H2 1774   7.125   0.543   5.605
  604TIP3   OH2 1775   0.397   0.484   1.426
  604TIP3    H1 1776   0.440   0.551   1.478
  604TIP3    H2 1777   0.468   0.442   1.377
  605TIP3   OH2 1778   0.323   5.202   4.116
  605TIP3    H1 1779   0.323   5.182   4.023
  605TIP3    H2 1780   0.403   5.253   4.130
  606TIP3   OH2 1781   6.052   5.019   2.274
  606TIP3    H1 1782   6.114   4.967   2.222
  606TIP3    H2 1783   6.103   5.093   2.305
  607TIP3   OH2 1784   5.864   4.750   0.285
  607TIP3    H1 1785   5.840   4.806   0.212
  607TIP3    H2 1786   5.934   4.694   0.250
  608TIP3   OH2 1787   2.178   0.004   3.924
  608TIP3    H1 1788   2.184   0.094   3.892
  608TIP3    H2 1789   2.264  -0.033   3.907
  609TIP3   OH2 1790   4.183   2.108   5.509
  609TIP3    H1 1791   4.186   2.112   5.605
  609TIP3    H2 1792   4.111   2.047   5.490
  610TIP3   OH2 1793   5.929   0.322   1.021
  610TIP3    H1 1794   5.834   0.315   1.025
  610TIP3    H2 1795   5.946   0.380   0.946
  611TIP3   OH2 1796   5.005   3.741   3.708
  611TIP3    H1 1797   5.080   3.798   3.689
  611TIP3    H2 1798   5.008   3.674   3.639
  612TIP3   OH2 1799   6.111   3.489   4.381
  612TIP3    H1 1800   6.160   3.416   4.344
  612TIP3    H2 1801   6.055   3.519   4.310
  613TIP3   OH2 1802   2.618   6.669   1.154
  613TIP3    H1 1803   2.644   6.749   1.201
  613TIP3    H2 1804   2.589   6.701   1.068
  614TIP3   OH2 1805   2.504   0.909   2.512
  614TIP3    H1 1806   2.477   0.843   2.576
  614TIP3    H2 1807   2.597   0.924   2.532
  615TIP3   OH2 1808   4.653   5.726   0.101
  615TIP3    H1 1809   4.664   5.643   0.147
  615TIP3    H2 1810   4.692   5.791   0.159
  616TIP3   OH2 1811   1.675   3.453   3.776
  616TIP3    H1 1812   1.741   3.387   3.754
  616TIP3    H2 1813   1.634   3.420   3.856
  617TIP3   OH2 1814   2.698   5.237   1.122
  617TIP3    H1 1815   2.659   5.203   1.203
  617TIP3    H2 1816   2.624   5.260   1.067
  618TIP3   OH2 1817   1.194   6.135   4.839
  618TIP3    H1 1818   1.283   6.111   4.813
  618TIP3    H2 1819   1.142   6.058   4.820
  619TIP3   OH2 1820   4.151   3.498   2.879
  619TIP3    H1 1821   4.190   3.500   2.791
  619TIP3    H2 1822   4.214   3.451   2.933
  620TIP3   OH2 1823   5.617   2.762   5.425
  620TIP3    H1 1824   5.534   2.805   5.404
  620TIP3    H2 1825   5.593   2.672   5.448
  621TIP3   OH2 1826   1.299   5.300   0.333
  621TIP3    H1 1827   1.298   5.275   0.425
  621TIP3    H2 1828   1.282   5.218   0.286
  622TIP3   OH2 1829   4.932   4.951   5.828
  622TIP3    H1 1830   4.889   4.893   5.765
  622TIP3    H2 1831   5.023   4.924   5.828
  623TIP3   OH2 1832   3.260   1.329   2.599
  623TIP3    H1 1833   3.296   1.334   2.687
  623TIP3    H2 1834   3.168   1.354   2.609
  624TIP3   OH2 1835   4.391   0.594   1.201
  624TIP3    H1 1836   4.369   0.527   1.136
  624TIP3    H2 1837   4.454   0.550   1.259
  625TIP3   OH2 1838   4.811   2.095   5.668
  625TIP3    H1 1839   4.890   2.146   5.686
  625TIP3    H2 1840   4.755   2.152   5.616
  626TIP3   OH2 1841   1.298   5.787   2.154
  626TIP3    H1 1842   1.276   5.695   2.162
  626TIP3    H2 1843   1.374   5.789   2.095
  627TIP3   OH2 1844   1.426   4.938   5.663
  627TIP3    H1 1845   1.517   4.929   5.692
  627TIP3    H2 1846   1.383   4.988   5.732
  628TIP3   OH2 1847   4.954   0.022   4.727
  628TIP3    H1 1848   4.974   0.035   4.634
  628TIP3    H2 1849   4.867  -0.019   4.727
  629TIP3   OH2 1850   2.780   4.000   1.825
  629TIP3    H1 1851   2.797   4.083   1.781
  629TIP3    H2 1852   2.694   3.973   1.794
  630TIP3   OH2 1853   2.035   6.556   5.855
  630TIP3    H1 1854   1.944   6.530   5.868
  630TIP3    H2 1855   2.075   6.481   5.811
  631TIP3   OH2 1856   6.109   3.414   1.393
  631TIP3    H1 1857   6.106   3.366   1.310
  631TIP3    H2 1858   6.074   3.352   1.458
  632TIP3   OH2 1859   2.549   3.591   4.199
  632TIP3    H1 1860   2.559   3.656   4.129
  632TIP3    H2 1861   2.559   3.507   4.156
  633TIP3   OH2 1862   5.817   4.459   2.317
  633TIP3    H1 1863   5.812   4.364   2.325
  633TIP3    H2 1864   5.877   4.473   2.244
  634TIP3   OH2 1865   3.857   0.802   4.964
  634TIP3    H1 1866   3.931   0.859   4.983
  634TIP3    H2 1867   3.895   0.726   4.921
  635TIP3   OH2 1868   0.047   3.561   1.825
  635TIP3    H1 1869   0.003   3.643   1.846
  635TIP3    H2 1870  -0.019   3.494   1.842
  636TIP3   OH2 1871   5.398   4.294   3.568
  636TIP3    H1 1872   5.393   4.355   3.495
  636TIP3    H2 1873   5.341   4.332   3.635
  637TIP3   OH2 1874   0.809   5.825   3.498
  637TIP3    H1 1875   0.767   5.908   3.521
  637TIP3    H2 1876   0.895   5.829   3.539
  638TIP3   OH2 1877   2.692   0.409   0.086
  638TIP3    H1 1878   2.786   0.401   0.069
  638TIP3    H2 1879   2.663   0.478   0.025
  639TIP3   OH2 1880   3.403   1.575   0.953
  639TIP3    H1 1881   3.394   1.649   0.892
  639TIP3    H2 1882   3.354   1.504   0.912
  640TIP3   OH2 1883   2.301   1.989   2.040
  640TIP3    H1 1884   2.387   2.014   2.008
  640TIP3    H2 1885   2.301   1.893   2.035
  641TIP3   OH2 1886   4.133   0.838   1.584
  641TIP3    H1 1887   4.137   0.747   1.612
  641TIP3    H2 1888   4.147   0.834   1.489
  642TIP3   OH2 1889   6.088   1.951   2.377
  642TIP3    H1 1890   6.070   2.011   2.305
  642TIP3    H2 1891   6.029   1.978   2.447
  643TIP3   OH2 1892   6.353   1.283   0.970
  643TIP3    H1 1893   6.373   1.299   1.062
  643TIP3    H2 1894   6.436   1.255   0.932
  644TIP3   OH2 1895   6.287   0.339   2.079
  644TIP3    H1 1896   6.280   0.288   2.159
  644TIP3    H2 1897   6.284   0.430   2.108
  645TIP3   OH2 1898   2.019   5.735   3.879
  645TIP3    H1 1899   2.083   5.803   3.898
  645TIP3    H2 1900   1.934   5.777   3.893
  646TIP3   OH2 1901   5.058   6.133   5.905
  646TIP3    H1 1902   5.070   6.075   5.830
  646TIP3    H2 1903   5.005   6.205   5.872
  647TIP3   OH2 1904   3.668   4.832   1.012
  647TIP3    H1 1905   3.600   4.874   0.960
  647TIP3    H2 1906   3.621   4.773   1.071
  648TIP3   OH2 1907   1.384   0.910   3.692
  648TIP3    H1 1908   1.300   0.954   3.677
  648TIP3    H2 1909   1.363   0.838   3.752
  649TIP3   OH2 1910   3.173   3.381   4.064
  649TIP3    H1 1911   3.199   3.427   4.144
  649TIP3    H2 1912   3.078   3.371   4.072
  650TIP3   OH2 1913   6.888   0.211   4.914
  650TIP3    H1 1914   6.958   0.208   4.849
  650TIP3    H2 1915   6.887   0.124   4.953
  651TIP3   OH2 1916   4.360   5.237   3.662
  651TIP3    H1 1917   4.385   5.328   3.647
  651TIP3    H2 1918   4.414   5.187   3.600
  652TIP3   OH2 1919   5.362   1.703   5.376
  652TIP3    H1 1920   5.379   1.711   5.470
  652TIP3    H2 1921   5.432   1.754   5.335
  653TIP3   OH2 1922   5.768   5.064   2.268
  653TIP3    H1 1923   5.734   5.078   2.357
  653TIP3    H2 1924   5.863   5.059   2.279
  654TIP3   OH2 1925   0.628   4.717   3.139
  654TIP3    H1 1926   0.600   4.789   3.082
  654TIP3    H2 1927   0.547   4.672   3.163
  655TIP3   OH2 1928   0.727   5.773   1.151
  655TIP3    H1 1929   0.758   5.852   1.108
  655TIP3    H2 1930   0.738   5.791   1.245
  656TIP3   OH2 1931   6.113   3.245   1.129
  656TIP3    H1 1932   6.031   3.201   1.150
  656TIP3    H2 1933   6.095   3.296   1.050
  657TIP3   OH2 1934   2.018   4.484   1.442
  657TIP3    H1 1935   2.019   4.404   1.495
  657TIP3    H2 1936   1.945   4.535   1.478
  658TIP3   OH2 1937   4.647   4.183   2.009
  658TIP3    H1 1938   4.580   4.130   1.966
  658TIP3    H2 1939   4.693   4.226   1.938
  659TIP3   OH2 1940   2.133   6.665   1.529
  659TIP3    H1 1941   2.102   6.698   1.445
  659TIP3    H2 1942   2.196   6.731   1.559
  660TIP3   OH2 1943   2.203   5.432   3.005
  660TIP3    H1 1944   2.109   5.446   3.015
  660TIP3    H2 1945   2.212   5.343   2.973
  661TIP3   OH2 1946   0.954   3.237   0.976
  661TIP3    H1 1947   1.015   3.251   0.905
  661TIP3    H2 1948   0.868   3.233   0.934
  662TIP3   OH2 1949   3.354   5.952   2.605
  662TIP3    H1 1950   3.304   5.875   2.633
  662TIP3    H2 1951   3.288   6.018   2.585
  663TIP3   OH2 1952   0.453   3.772   4.573
  663TIP3    H1 1953   0.546   3.748   4.577
  663TIP3    H2 1954   0.411   3.698   4.528
  664TIP3   OH2 1955   4.711   0.108   4.929
  664TIP3    H1 1956   4.780   0.174   4.932
  664TIP3    H2 1957   4.725   0.062   4.847
  665TIP3   OH2 1958   6.180   4.028   2.673
  665TIP3    H1 1959   6.104   4.022   2.731
  665TIP3    H2 1960   6.143   4.050   2.587
  666TIP3   OH2 1961   5.979   4.402   4.316
  666TIP3    H1 1962   5.970   4.312   4.347
  666TIP3    H2 1963   5.890   4.428   4.291
  667TIP3   OH2 1964   0.660   5.720   4.110
  667TIP3    H1 1965   0.668   5.634   4.069
  667TIP3    H2 1966   0.566   5.740   4.105
  668TIP3   OH2 1967   1.390   1.329   1.620
  668TIP3    H1 1968   1.385   1.265   1.691
  668TIP3    H2 1969   1.423   1.279   1.545
  669TIP3   OH2 1970   5.626   6.612   1.681
  669TIP3    H1 1971   5.601   6.526   1.714
  669TIP3    H2 1972   5.704   6.595   1.628
  670TIP3   OH2 1973   0.855   3.988   3.650
  670TIP3    H1 1974   0.846   4.079   3.624
  670TIP3    H2 1975   0.768   3.963   3.681
  671TIP3   OH2 1976  -0.011   6.201   4.871
  671TIP3    H1 1977   0.044   6.152   4.811
  671TIP3    H2 1978   0.036   6.200   4.954
  672TIP3   OH2 1979   3.145   1.759   4.888
  672TIP3    H1 1980   3.171   1.716   4.807
  672TIP3    H2 1981   3.196   1.714   4.956
  673TIP3   OH2 1982   5.317   2.403   2.082
  673TIP3    H1 1983   5.339   2.459   2.156
  673TIP3    H2 1984   5.321   2.314   2.117
  674TIP3   OH2 1985   5.340   3.922   4.913
  674TIP3    H1 1986   5.315   3.975   4.837
  674TIP3    H2 1987   5.361   3.836   4.876
  675TIP3   OH2 1988   6.366   6.119   3.310
  675TIP3    H1 1989   6.449   6.120   3.262
  675TIP3    H2 1990   6.375   6.188   3.375
  676TIP3   OH2 1991   5.896   3.405   0.422
  676TIP3    H1 1992   5.855   3.330   0.378
  676TIP3    H2 1993   5.960   3.438   0.359
  677TIP3   OH2 1994   3.094   6.431   4.542
  677TIP3    H1 1995   3.124   6.345   4.513
  677TIP3    H2 1996   3.165   6.490   4.518
  678TIP3   OH2 1997   0.188   6.077   3.599
  678TIP3    H1 1998   0.138   6.012   3.550
  678TIP3    H2 1999   0.259   6.028   3.641
  679TIP3   OH2 2000   3.170   6.542   4.217
  679TIP3    H1 2001   3.211   6.456   4.224
  679TIP3    H2 2002   3.080   6.529   4.247
  680TIP3   OH2 2003   0.788   6.232   5.352
  680TIP3    H1 2004   0.703   6.191   5.372
  680TIP3    H2 2005   0.768   6.295   5.282
  681TIP3   OH2 2006   1.695   3.396   2.844
  681TIP3    H1 2007   1.606   3.362   2.835
  681TIP3    H2 2008   1.732   3.389   2.756
  682TIP3   OH2 2009   2.499   3.288   5.828
  682TIP3    H1 2010   2.445   3.262   5.753
  682TIP3    H2 2011   2.580   3.239   5.818
  683TIP3   OH2 2012   5.234   0.495   4.018
  683TIP3    H1 2013   5.228   0.410   4.061
  683TIP3    H2 2014   5.306   0.486   3.956
  684TIP3   OH2 2015   6.103   0.389   0.593
  684TIP3    H1 2016   6.157   0.391   0.514
  684TIP3    H2 2017   6.058   0.473   0.594
  685TIP3   OH2 2018   3.441   3.878   3.065
  685TIP3    H1 2019   3.440   3.895   2.971
  685TIP3    H2 2020   3.494   3.798   3.074
  686TIP3   OH2 2021   3.900   5.068   5.692
  686TIP3    H1 2022   3.815   5.055   5.651
  686TIP3    H2 2023   3.958   5.093   5.620
  687TIP3   OH2 2024   4.941   2.563   0.020
  687TIP3    H1 2025   4.995   2.564  -0.059
  687TIP3    H2 2026   4.943   2.473   0.051
  688TIP3   OH2 2027   1.471   6.550   3.241
  688TIP3    H1 2028   1.551   6.599   3.260
  688TIP3    H2 2029   1.451   6.504   3.322
  689TIP3   OH2 2030   0.581   3.345   0.212
  689TIP3    H1 2031   0.613   3.345   0.302
  689TIP3    H2 2032   0.518   3.417   0.209
  690TIP3   OH2 2033   3.448   2.176   3.658
  690TIP3    H1 2034   3.483   2.141   3.576
  690TIP3    H2 2035   3.526   2.196   3.710
  691TIP3   OH2 2036   5.894   5.282   5.212
  691TIP3    H1 2037   5.973   5.331   5.235
  691TIP3    H2 2038   5.824   5.323   5.263
  692TIP3   OH2 2039   5.827   2.673   4.507
  692TIP3    H1 2040   5.821   2.755   4.555
  692TIP3    H2 2041   5.764   2.683   4.435
  693TIP3   OH2 2042   1.678   4.361   2.821
  693TIP3    H1 2043   1.764   4.347   2.782
  693TIP3    H2 2044   1.649   4.274   2.849
  694TIP3   OH2 2045   4.884   0.511   2.259
  694TIP3    H1 2046   4.934   0.494   2.339
  694TIP3    H2 2047   4.860   0.425   2.226
  695TIP3   OH2 2048   4.179   4.170   0.857
  695TIP3    H1 2049   4.090   4.168   0.893
  695TIP3    H2 2050   4.178   4.103   0.789
  696TIP3   OH2 2051   5.689   5.381   4.725
  696TIP3    H1 2052   5.751   5.348   4.790
  696TIP3    H2 2053   5.603   5.350   4.756
  697TIP3   OH2 2054   1.715   2.349   4.599
  697TIP3    H1 2055   1.678   2.414   4.659
  697TIP3    H2 2056   1.770   2.293   4.654
  698TIP3   OH2 2057   4.653   2.277   4.725
  698TIP3    H1 2058   4.719   2.345   4.711
  698TIP3    H2 2059   4.699   2.207   4.772
  699TIP3   OH2 2060   5.103   6.753   5.068
  699TIP3    H1 2061   5.161   6.759   4.992
  699TIP3    H2 2062   5.147   6.801   5.137
  700TIP3   OH2 2063   5.722   3.652   2.643
  700TIP3    H1 2064   5.668   3.590   2.693
  700TIP3    H2 2065   5.755   3.602   2.569
  701TIP3   OH2 2066   5.962   0.054   4.688
  701TIP3    H1 2067   5.895   0.081   4.752
  701TIP3    H2 2068   6.045   0.072   4.732
  702TIP3   OH2 2069   1.927   6.482   3.037
  702TIP3    H1 2070   1.920   6.430   2.957
  702TIP3    H2 2071   1.842   6.472   3.080
  703TIP3   OH2 2072   2.774   2.257   1.333
  703TIP3    H1 2073   2.687   2.258   1.372
  703TIP3    H2 2074   2.815   2.338   1.364
  704TIP3   OH2 2075   4.042   5.927   1.271
  704TIP3    H1 2076   4.003   5.849   1.310
  704TIP3    H2 2077   3.981   5.997   1.294
  705TIP3   OH2 2078   0.405   3.853   2.338
  705TIP3    H1 2079   0.473   3.811   2.390
  705TIP3    H2 2080   0.374   3.925   2.392
  706TIP3   OH2 2081   3.999   2.251   0.241
  706TIP3    H1 2082   3.962   2.191   0.306
  706TIP3    H2 2083   4.059   2.307   0.291
  707TIP3   OH2 2084   6.758   3.552   2.092
  707TIP3    H1 2085   6.782   3.499   2.168
  707TIP3    H2 2086   6.692   3.613   2.125
  708TIP3   OH2 2087   0.442   0.306   1.114
  708TIP3    H1 2088   0.492   0.248   1.056
  708TIP3    H2 2089   0.502   0.328   1.185
  709TIP3   OH2 2090   3.550   3.639   0.361
  709TIP3    H1 2091   3.498   3.719   0.359
  709TIP3    H2 2092   3.492   3.573   0.397
  710TIP3   OH2 2093   6.983   0.636   5.520
  710TIP3    H1 2094   6.987   0.710   5.460
  710TIP3    H2 2095   6.899   0.646   5.565
  711TIP3   OH2 2096   2.359   3.784   5.866
  711TIP3    H1 2097   2.434   3.837   5.893
  711TIP3    H2 2098   2.381   3.695   5.895
  712TIP3   OH2 2099   1.768   1.394   3.755
  712TIP3    H1 2100   1.772   1.349   3.670
  712TIP3    H2 2101   1.677   1.422   3.763
  713TIP3   OH2 2102   1.618   0.683   3.616
  713TIP3    H1 2103   1.621   0.587   3.621
  713TIP3    H2 2104   1.543   0.707   3.671
  714TIP3   OH2 2105   5.601   0.388   0.174
  714TIP3    H1 2106   5.590   0.311   0.230
  714TIP3    H2 2107   5.511   0.419   0.159
  715TIP3   OH2 2108   1.729   4.231   4.862
  715TIP3    H1 2109   1.815   4.207   4.897
  715TIP3    H2 2110   1.742   4.239   4.768
  716TIP3   OH2 2111   1.749   2.284   1.822
  716TIP3    H1 2112   1.771   2.351   1.757
  716TIP3    H2 2113   1.816   2.292   1.889
  717TIP3   OH2 2114   4.085   6.637   0.685
  717TIP3    H1 2115   4.169   6.592   0.680
  717TIP3    H2 2116   4.047   6.610   0.769
  718TIP3   OH2 2117   6.436   0.254   2.363
  718TIP3    H1 2118   6.342   0.236   2.362
  718TIP3    H2 2119   6.456   0.271   2.455
  719TIP3   OH2 2120   0.556   1.989   4.847
  719TIP3    H1 2121   0.617   1.915   4.838
  719TIP3    H2 2122   0.549   2.003   4.941
  720TIP3   OH2 2123   1.621   4.041   2.610
  720TIP3    H1 2124   1.526   4.032   2.603
  720TIP3    H2 2125   1.635   4.075   2.698
  721TIP3   OH2 2126   6.459   3.783   1.310
  721TIP3    H1 2127   6.542   3.766   1.356
  721TIP3    H2 2128   6.394   3.792   1.380
  722TIP3   OH2 2129   3.242   4.311   5.017
  722TIP3    H1 2130   3.248   4.317   4.922
  722TIP3    H2 2131   3.321   4.354   5.049
  723TIP3   OH2 2132   3.749   1.322   0.672
  723TIP3    H1 2133   3.689   1.277   0.730
  723TIP3    H2 2134   3.693   1.380   0.619
  724TIP3   OH2 2135   3.572   4.547   0.638
  724TIP3    H1 2136   3.606   4.576   0.553
  724TIP3    H2 2137   3.487   4.590   0.646
  725TIP3   OH2 2138   4.472   0.902   5.390
  725TIP3    H1 2139   4.538   0.856   5.441
  725TIP3    H2 2140   4.420   0.833   5.348
  726TIP3   OH2 2141   4.897   2.643   5.339
  726TIP3    H1 2142   4.810   2.675   5.362
  726TIP3    H2 2143   4.896   2.636   5.244
  727TIP3   OH2 2144   2.202   5.637   1.076
  727TIP3    H1 2145   2.201   5.547   1.108
  727TIP3    H2 2146   2.284   5.645   1.028
  728TIP3   OH2 2147   6.415   6.413   3.410
  728TIP3    H1 2148   6.461   6.497   3.410
  728TIP3    H2 2149   6.474   6.354   3.456
  729TIP3   OH2 2150   5.482   4.409   3.866
  729TIP3    H1 2151   5.549   4.361   3.817
  729TIP3    H2 2152   5.470   4.490   3.817
  730TIP3   OH2 2153   0.821   1.110   3.652
  730TIP3    H1 2154   0.759   1.068   3.713
  730TIP3    H2 2155   0.766   1.145   3.582
  731TIP3   OH2 2156   2.783   2.417   4.789
  731TIP3    H1 2157   2.801   2.478   4.861
  731TIP3    H2 2158   2.699   2.377   4.811
  732TIP3   OH2 2159   1.613   1.172   2.965
  732TIP3    H1 2160   1.536   1.188   3.019
  732TIP3    H2 2161   1.642   1.259   2.938
  733TIP3   OH2 2162   5.518   1.040   4.758
  733TIP3    H1 2163   5.610   1.032   4.784
  733TIP3    H2 2164   5.477   1.087   4.831
  734TIP3   OH2 2165   3.947   3.524   4.751
  734TIP3    H1 2166   4.018   3.586   4.734
  734TIP3    H2 2167   3.953   3.460   4.681
  735TIP3   OH2 2168   4.492   2.524   4.667
  735TIP3    H1 2169   4.572   2.493   4.710
  735TIP3    H2 2170   4.523   2.577   4.594
  736TIP3   OH2 2171   2.999   0.726   4.249
  736TIP3    H1 2172   3.022   0.766   4.165
  736TIP3    H2 2173   3.083   0.717   4.294
  737TIP3   OH2 2174   5.109   1.838   1.409
  737TIP3    H1 2175   5.188   1.824   1.357
  737TIP3    H2 2176   5.093   1.754   1.451
  738TIP3   OH2 2177   6.916   0.260   2.297
  738TIP3    H1 2178   6.903   0.186   2.238
  738TIP3    H2 2179   6.845   0.321   2.276
  739TIP3   OH2 2180   4.485   2.896   2.461
  739TIP3    H1 2181   4.569   2.852   2.450
  739TIP3    H2 2182   4.420   2.827   2.452
  740TIP3   OH2 2183   5.812   4.207   5.585
  740TIP3    H1 2184   5.797   4.278   5.647
  740TIP3    H2 2185   5.877   4.242   5.524
  741TIP3   OH2 2186   6.161   5.295   3.275
  741TIP3    H1 2187   6.102   5.228   3.308
  741TIP3    H2 2188   6.222   5.312   3.347
  742TIP3   OH2 2189   6.073   4.226   2.392
  742TIP3    H1 2190   6.117   4.252   2.311
  742TIP3    H2 2191   5.982   4.209   2.366
  743TIP3   OH2 2192   4.826   0.705   3.168
  743TIP3    H1 2193   4.814   0.733   3.259
  743TIP3    H2 2194   4.921   0.706   3.155
  744TIP3   OH2 2195   5.572   4.661   2.135
  744TIP3    H1 2196   5.568   4.656   2.231
  744TIP3    H2 2197   5.518   4.737   2.113
  745TIP3   OH2 2198   3.200   1.108   0.432
  745TIP3    H1 2199   3.136   1.101   0.361
  745TIP3    H2 2200   3.148   1.134   0.508
  746TIP3   OH2 2201   6.179   3.030   3.954
  746TIP3    H1 2202   6.215   2.977   4.025
  746TIP3    H2 2203   6.192   2.977   3.875
  747TIP3   OH2 2204   3.909   6.248   0.211
  747TIP3    H1 2205   3.834   6.193   0.236
  747TIP3    H2 2206   3.946   6.204   0.134
  748TIP3   OH2 2207   4.418   2.316   1.906
  748TIP3    H1 2208   4.415   2.245   1.841
  748TIP3    H2 2209   4.431   2.271   1.990
  749TIP3   OH2 2210   5.841   1.328   4.407
  749TIP3    H1 2211   5.818   1.243   4.446
  749TIP3    H2 2212   5.814   1.321   4.316
  750TIP3   OH2 2213   3.568   3.950   1.473
  750TIP3    H1 2214   3.528   3.987   1.552
  750TIP3    H2 2215   3.572   3.856   1.490
  751TIP3   OH2 2216   4.510   6.067   1.134
  751TIP3    H1 2217   4.592   6.025   1.109
  751TIP3    H2 2218   4.449   6.046   1.064
  752TIP3   OH2 2219   1.474   4.087   2.137
  752TIP3    H1 2220   1.538   4.129   2.195
  752TIP3    H2 2221   1.424   4.030   2.195
  753TIP3   OH2 2222   6.017   4.612   1.483
  753TIP3    H1 2223   5.947   4.615   1.418
  753TIP3    H2 2224   6.007   4.527   1.525
  754TIP3   OH2 2225   5.183   5.178   4.365
  754TIP3    H1 2226   5.262   5.214   4.325
  754TIP3    H2 2227   5.212   5.143   4.449
  755TIP3   OH2 2228   4.869   1.039   0.933
  755TIP3    H1 2229   4.887   0.993   0.851
  755TIP3    H2 2230   4.827   1.120   0.905
  756TIP3   OH2 2231   2.461   6.586   2.298
  756TIP3    H1 2232   2.540   6.547   2.260
  756TIP3    H2 2233   2.493   6.663   2.345
  757TIP3   OH2 2234   0.313   4.439   2.754
  757TIP3    H1 2235   0.298   4.531   2.775
  757TIP3    H2 2236   0.391   4.415   2.804
  758TIP3   OH2 2237   5.951   2.189   2.765
  758TIP3    H1 2238   6.041   2.218   2.749
  758TIP3    H2 2239   5.940   2.196   2.860
  759TIP3   OH2 2240   6.541   1.714   2.850
  759TIP3    H1 2241   6.450   1.698   2.825
  759TIP3    H2 2242   6.582   1.628   2.850
  760TIP3   OH2 2243   6.077   4.818   2.621
  760TIP3    H1 2244   6.143   4.876   2.582
  760TIP3    H2 2245   6.033   4.872   2.686
  761TIP3   OH2 2246   6.142   0.387   2.840
  761TIP3    H1 2247   6.128   0.294   2.859
  761TIP3    H2 2248   6.149   0.392   2.745
  762TIP3   OH2 2249   2.665   0.368   1.725
  762TIP3    H1 2250   2.614   0.449   1.730
  762TIP3    H2 2251   2.714   0.366   1.807
  763TIP3   OH2 2252   4.214   4.764   3.982
  763TIP3    H1 2253   4.196   4.726   4.068
  763TIP3    H2 2254   4.163   4.711   3.921
  764TIP3   OH2 2255   6.401   4.172   1.777
  764TIP3    H1 2256   6.320   4.211   1.743
  764TIP3    H2 2257   6.450   4.145   1.700
  765TIP3   OH2 2258   3.727   3.107   0.976
  765TIP3    H1 2259   3.741   3.158   0.896
  765TIP3    H2 2260   3.780   3.151   1.042
  766TIP3   OH2 2261   4.051   5.195   1.117
  766TIP3    H1 2262   4.117   5.176   1.050
  766TIP3    H2 2263   4.024   5.285   1.098
  767TIP3   OH2 2264   0.835   2.522   2.933
  767TIP3    H1 2265   0.781   2.486   2.863
  767TIP3    H2 2266   0.838   2.453   2.999
  768TIP3   OH2 2267   4.351   6.056   0.884
  768TIP3    H1 2268   4.340   6.150   0.901
  768TIP3    H2 2269   4.262   6.025   0.866
  769TIP3   OH2 2270   5.041   0.180   0.549
  769TIP3    H1 2271   5.031   0.234   0.470
  769TIP3    H2 2272   4.956   0.136   0.559
  770TIP3   OH2 2273   1.078   5.166   4.645
  770TIP3    H1 2274   1.154   5.225   4.648
  770TIP3    H2 2275   1.031   5.184   4.726
  771TIP3   OH2 2276   2.802   1.266   4.328
  771TIP3    H1 2277   2.775   1.333   4.265
  771TIP3    H2 2278   2.726   1.256   4.386
  772TIP3   OH2 2279   0.658   1.958   3.876
  772TIP3    H1 2280   0.658   1.868   3.842
  772TIP3    H2 2281   0.700   1.950   3.962
  773TIP3   OH2 2282   4.858   2.669   3.765
  773TIP3    H1 2283   4.855   2.746   3.709
  773TIP3    H2 2284   4.917   2.609   3.720
  774TIP3   OH2 2285   5.948   1.202   0.196
  774TIP3    H1 2286   6.025   1.220   0.250
  774TIP3    H2 2287   5.919   1.288   0.166
  775TIP3   OH2 2288   2.524   0.640   5.762
  775TIP3    H1 2289   2.481   0.603   5.685
  775TIP3    H2 2290   2.519   0.571   5.828
  776TIP3   OH2 2291   2.060   4.540   5.730
  776TIP3    H1 2292   2.126   4.605   5.753
  776TIP3    H2 2293   2.078   4.466   5.788
  777TIP3   OH2 2294   0.886   1.296   5.424
  777TIP3    H1 2295   0.802   1.251   5.426
  777TIP3    H2 2296   0.891   1.336   5.337
  778TIP3   OH2 2297   2.831   2.681   2.194
  778TIP3    H1 2298   2.849   2.775   2.190
  778TIP3    H2 2299   2.917   2.639   2.188
  779TIP3   OH2 2300   2.830   0.743   1.512
  779TIP3    H1 2301   2.742   0.759   1.477
  779TIP3    H2 2302   2.861   0.666   1.464
  780TIP3   OH2 2303   3.059   0.630   2.880
  780TIP3    H1 2304   3.090   0.720   2.887
  780TIP3    H2 2305   3.127   0.578   2.924
  781TIP3   OH2 2306   2.284   1.589   0.419
  781TIP3    H1 2307   2.361   1.580   0.476
  781TIP3    H2 2308   2.321   1.597   0.331
  782TIP3   OH2 2309   1.965   5.900   4.507
  782TIP3    H1 2310   1.982   5.987   4.471
  782TIP3    H2 2311   1.999   5.839   4.442
  783TIP3   OH2 2312   3.680   4.839   5.396
  783TIP3    H1 2313   3.730   4.763   5.425
  783TIP3    H2 2314   3.651   4.881   5.477
  784TIP3   OH2 2315   1.160   5.573   2.782
  784TIP3    H1 2316   1.150   5.518   2.860
  784TIP3    H2 2317   1.075   5.568   2.738
  785TIP3   OH2 2318   7.009   0.715   2.187
  785TIP3    H1 2319   7.056   0.633   2.180
  785TIP3    H2 2320   6.920   0.695   2.159
  786TIP3   OH2 2321   0.358   1.291   5.882
  786TIP3    H1 2322   0.270   1.329   5.876
  786TIP3    H2 2323   0.351   1.208   5.833
  787TIP3   OH2 2324   6.535   4.279   2.774
  787TIP3    H1 2325   6.466   4.259   2.837
  787TIP3    H2 2326   6.566   4.194   2.743
  788TIP3   OH2 2327   2.137   2.975   5.471
  788TIP3    H1 2328   2.083   3.053   5.464
  788TIP3    H2 2329   2.174   2.963   5.384
  789TIP3   OH2 2330   5.253   3.962   1.898
  789TIP3    H1 2331   5.177   3.967   1.839
  789TIP3    H2 2332   5.328   3.965   1.839
  790TIP3   OH2 2333   4.194   0.179   2.528
  790TIP3    H1 2334   4.228   0.263   2.559
  790TIP3    H2 2335   4.228   0.171   2.438
  791TIP3   OH2 2336   7.199   5.621   3.451
  791TIP3    H1 2337   7.115   5.648   3.489
  791TIP3    H2 2338   7.181   5.536   3.410
  792TIP3   OH2 2339   3.564   3.489   2.641
  792TIP3    H1 2340   3.636   3.499   2.579
  792TIP3    H2 2341   3.600   3.518   2.725
  793TIP3   OH2 2342   3.990   6.051   2.144
  793TIP3    H1 2343   4.081   6.043   2.174
  793TIP3    H2 2344   3.943   5.981   2.190
  794TIP3   OH2 2345   5.766   4.519   0.998
  794TIP3    H1 2346   5.711   4.449   1.034
  794TIP3    H2 2347   5.781   4.493   0.907
  795TIP3   OH2 2348   2.302   3.095   0.582
  795TIP3    H1 2349   2.325   3.033   0.652
  795TIP3    H2 2350   2.214   3.124   0.604
  796TIP3   OH2 2351   3.024   1.729   3.781
  796TIP3    H1 2352   3.087   1.685   3.725
  796TIP3    H2 2353   3.048   1.822   3.775
  797TIP3   OH2 2354   1.500   4.175   1.259
  797TIP3    H1 2355   1.473   4.117   1.330
  797TIP3    H2 2356   1.542   4.249   1.303
  798TIP3   OH2 2357   1.214   1.863   1.449
  798TIP3    H1 2358   1.246   1.939   1.498
  798TIP3    H2 2359   1.256   1.788   1.492
  799TIP3   OH2 2360   7.089   1.335   1.932
  799TIP3    H1 2361   7.029   1.288   1.874
  799TIP3    H2 2362   7.121   1.268   1.993
  800TIP3   OH2 2363   1.028   3.078   5.759
  800TIP3    H1 2364   0.952   3.059   5.705
  800TIP3    H2 2365   1.079   2.997   5.758
  801TIP3   OH2 2366   4.989   6.254   0.349
  801TIP3    H1 2367   5.043   6.286   0.421
  801TIP3    H2 2368   5.008   6.160   0.344
  802TIP3   OH2 2369   5.433   5.202   1.156
  802TIP3    H1 2370   5.437   5.292   1.126
  802TIP3    H2 2371   5.414   5.208   1.250
  803TIP3   OH2 2372   1.211   1.227   1.053
  803TIP3    H1 2373   1.224   1.271   1.137
  803TIP3    H2 2374   1.189   1.137   1.076
  804TIP3   OH2 2375   5.314   5.527   4.542
  804TIP3    H1 2376   5.344   5.444   4.578
  804TIP3    H2 2377   5.357   5.594   4.595
  805TIP3   OH2 2378   6.599   2.915   2.344
  805TIP3    H1 2379   6.671   2.920   2.407
  805TIP3    H2 2380   6.555   2.999   2.350
  806TIP3   OH2 2381   1.957   0.078   4.255
  806TIP3    H1 2382   2.018   0.146   4.286
  806TIP3    H2 2383   2.014   0.007   4.226
  807TIP3   OH2 2384   2.819   0.000   0.459
  807TIP3    H1 2385   2.838  -0.010   0.552
  807TIP3    H2 2386   2.727   0.027   0.456
  808TIP3   OH2 2387   5.257   4.998   0.222
  808TIP3    H1 2388   5.237   5.087   0.252
  808TIP3    H2 2389   5.335   4.974   0.271
  809TIP3   OH2 2390   6.370   1.650   5.590
  809TIP3    H1 2391   6.378   1.740   5.557
  809TIP3    H2 2392   6.364   1.596   5.511
  810TIP3   OH2 2393   3.847   4.816   4.568
  810TIP3    H1 2394   3.807   4.736   4.535
  810TIP3    H2 2395   3.780   4.883   4.558
  811TIP3   OH2 2396   7.034   0.255   4.530
  811TIP3    H1 2397   6.949   0.214   4.541
  811TIP3    H2 2398   7.097   0.183   4.540
  812TIP3   OH2 2399   5.054   2.934   2.656
  812TIP3    H1 2400   4.971   2.888   2.672
  812TIP3    H2 2401   5.100   2.879   2.593
  813TIP3   OH2 2402   5.888   1.736   1.627
  813TIP3    H1 2403   5.912   1.810   1.682
  813TIP3    H2 2404   5.802   1.759   1.592
  814TIP3   OH2 2405   0.764   0.700   5.740
  814TIP3    H1 2406   0.849   0.694   5.784
  814TIP3    H2 2407   0.785   0.729   5.651
  815TIP3   OH2 2408   5.876   1.708   2.839
  815TIP3    H1 2409   5.933   1.746   2.906
  815TIP3    H2 2410   5.911   1.741   2.756
  816TIP3   OH2 2411   6.343   5.908   3.497
  816TIP3    H1 2412   6.294   5.848   3.441
  816TIP3    H2 2413   6.376   5.975   3.438
  817TIP3   OH2 2414   4.136   3.343   3.415
  817TIP3    H1 2415   4.174   3.308   3.495
  817TIP3    H2 2416   4.143   3.438   3.423
  818TIP3   OH2 2417   5.543   1.082   1.500
  818TIP3    H1 2418   5.606   1.153   1.486
  818TIP3    H2 2419   5.585   1.026   1.566
  819TIP3   OH2 2420   3.779   0.324   4.237
  819TIP3    H1 2421   3.776   0.283   4.323
  819TIP3    H2 2422   3.694   0.367   4.228
  820TIP3   OH2 2423   6.185   1.742   3.836
  820TIP3    H1 2424   6.121   1.805   3.804
  820TIP3    H2 2425   6.261   1.795   3.859
  821TIP3   OH2 2426   6.587   1.229   0.849
  821TIP3    H1 2427   6.620   1.268   0.768
  821TIP3    H2 2428   6.666   1.205   0.897
  822TIP3   OH2 2429   2.679   0.427   2.974
  822TIP3    H1 2430   2.731   0.348   2.958
  822TIP3    H2 2431   2.619   0.432   2.899
  823TIP3   OH2 2432   5.189   4.350   1.464
  823TIP3    H1 2433   5.265   4.407   1.452
  823TIP3    H2 2434   5.114   4.408   1.449
  824TIP3   OH2 2435   3.713   2.683   3.730
  824TIP3    H1 2436   3.698   2.636   3.812
  824TIP3    H2 2437   3.627   2.686   3.688
  825TIP3   OH2 2438   1.312   1.498   0.421
  825TIP3    H1 2439   1.390   1.472   0.374
  825TIP3    H2 2440   1.341   1.511   0.511
  826TIP3   OH2 2441   4.771   2.442   2.443
  826TIP3    H1 2442   4.691   2.491   2.425
  826TIP3    H2 2443   4.797   2.406   2.358
  827TIP3   OH2 2444   2.570   3.297   1.023
  827TIP3    H1 2445   2.578   3.205   1.048
  827TIP3    H2 2446   2.497   3.298   0.961
  828TIP3   OH2 2447   2.561   2.351   2.845
  828TIP3    H1 2448   2.511   2.414   2.897
  828TIP3    H2 2449   2.504   2.329   2.772
  829TIP3   OH2 2450   4.228   3.956   0.675
  829TIP3    H1 2451   4.263   3.871   0.700
  829TIP3    H2 2452   4.255   3.968   0.584
  830TIP3   OH2 2453   6.384   3.393   2.648
  830TIP3    H1 2454   6.293   3.422   2.641
  830TIP3    H2 2455   6.429   3.466   2.691
  831TIP3   OH2 2456   1.422   3.327   3.486
  831TIP3    H1 2457   1.396   3.397   3.546
  831TIP3    H2 2458   1.341   3.302   3.442
  832TIP3   OH2 2459   3.391   5.860   4.976
  832TIP3    H1 2460   3.309   5.852   5.024
  832TIP3    H2 2461   3.439   5.780   4.997
  833TIP3   OH2 2462   1.581   1.463   2.886
  833TIP3    H1 2463   1.488   1.485   2.880
  833TIP3    H2 2464   1.611   1.508   2.965
  834TIP3   OH2 2465   2.077   1.245   2.549
  834TIP3    H1 2466   2.144   1.186   2.516
  834TIP3    H2 2467   2.125   1.323   2.576
  835TIP3   OH2 2468   4.430   0.679   3.896
  835TIP3    H1 2469   4.469   0.651   3.978
  835TIP3    H2 2470   4.439   0.604   3.838
  836TIP3   OH2 2471   1.696   6.682   3.654
  836TIP3    H1 2472   1.616   6.636   3.678
  836TIP3    H2 2473   1.762   6.613   3.645
  837TIP3   OH2 2474   1.340   2.429   4.911
  837TIP3    H1 2475   1.353   2.406   4.819
  837TIP3    H2 2476   1.287   2.359   4.947
  838TIP3   OH2 2477   2.055   5.384   1.952
  838TIP3    H1 2478   2.025   5.345   1.869
  838TIP3    H2 2479   2.110   5.316   1.991
  839TIP3   OH2 2480   1.905   3.541   5.681
  839TIP3    H1 2481   1.937   3.451   5.693
  839TIP3    H2 2482   1.983   3.595   5.685
  840TIP3   OH2 2483   6.183   1.319   3.220
  840TIP3    H1 2484   6.252   1.274   3.269
  840TIP3    H2 2485   6.229   1.380   3.163
  841TIP3   OH2 2486   1.509   2.336   1.630
  841TIP3    H1 2487   1.561   2.293   1.562
  841TIP3    H2 2488   1.572   2.356   1.700
  842TIP3   OH2 2489   0.090   3.075   3.503
  842TIP3    H1 2490   0.046   2.992   3.486
  842TIP3    H2 2491   0.105   3.076   3.597
  843TIP3   OH2 2492   4.036   6.047   4.737
  843TIP3    H1 2493   4.051   6.019   4.827
  843TIP3    H2 2494   4.095   5.993   4.684
  844TIP3   OH2 2495   2.628   1.789   1.436
  844TIP3    H1 2496   2.666   1.731   1.502
  844TIP3    H2 2497   2.594   1.863   1.486
  845TIP3   OH2 2498   4.422   0.083   4.626
  845TIP3    H1 2499   4.425   0.038   4.710
  845TIP3    H2 2500   4.419   0.176   4.648
  846TIP3   OH2 2501   2.661   4.542   5.510
  846TIP3    H1 2502   2.654   4.524   5.416
  846TIP3    H2 2503   2.664   4.456   5.551
  847TIP3   OH2 2504   0.222   3.532   2.063
  847TIP3    H1 2505   0.223   3.618   2.105
  847TIP3    H2 2506   0.136   3.526   2.022
  848TIP3   OH2 2507   5.281   3.380   1.953
  848TIP3    H1 2508   5.219   3.445   1.919
  848TIP3    H2 2509   5.338   3.431   2.011
  849TIP3   OH2 2510   3.555   3.237   5.131
  849TIP3    H1 2511   3.526   3.154   5.167
  849TIP3    H2 2512   3.645   3.247   5.162
  850TIP3   OH2 2513   3.318   4.754   5.347
  850TIP3    H1 2514   3.347   4.665   5.369
  850TIP3    H2 2515   3.263   4.780   5.420
  851TIP3   OH2 2516   6.149   2.081   4.592
  851TIP3    H1 2517   6.125   1.992   4.564
  851TIP3    H2 2518   6.128   2.136   4.517
  852TIP3   OH2 2519   1.987   5.800   4.766
  852TIP3    H1 2520   1.956   5.867   4.827
  852TIP3    H2 2521   1.971   5.838   4.679
  853TIP3   OH2 2522   2.629   6.136   5.764
  853TIP3    H1 2523   2.596   6.089   5.687
  853TIP3    H2 2524   2.647   6.224   5.732
  854TIP3   OH2 2525   1.764   0.353   2.296
  854TIP3    H1 2526   1.762   0.258   2.282
  854TIP3    H2 2527   1.737   0.390   2.212
  855TIP3   OH2 2528   5.809   0.555   1.349
  855TIP3    H1 2529   5.902   0.568   1.369
  855TIP3    H2 2530   5.797   0.460   1.356
  856TIP3   OH2 2531   6.121   5.738   5.303
  856TIP3    H1 2532   6.165   5.673   5.358
  856TIP3    H2 2533   6.031   5.705   5.294
  857TIP3   OH2 2534   0.970   4.132   0.066
  857TIP3    H1 2535   0.994   4.072   0.137
  857TIP3    H2 2536   0.874   4.137   0.072
  858TIP3   OH2 2537   6.024   3.433   5.798
  858TIP3    H1 2538   6.100   3.491   5.799
  858TIP3    H2 2539   6.047   3.365   5.735
  859TIP3   OH2 2540   1.361   2.269   1.830
  859TIP3    H1 2541   1.377   2.341   1.769
  859TIP3    H2 2542   1.341   2.312   1.913
  860TIP3   OH2 2543   3.574   1.323   4.010
  860TIP3    H1 2544   3.624   1.251   4.047
  860TIP3    H2 2545   3.615   1.402   4.046
  861TIP3   OH2 2546   1.272   6.784   1.775
  861TIP3    H1 2547   1.316   6.804   1.692
  861TIP3    H2 2548   1.314   6.704   1.806
  862TIP3   OH2 2549   5.670   2.847   1.378
  862TIP3    H1 2550   5.668   2.754   1.398
  862TIP3    H2 2551   5.581   2.868   1.352
  863TIP3   OH2 2552   3.615   5.473   0.781
  863TIP3    H1 2553   3.665   5.391   0.785
  863TIP3    H2 2554   3.636   5.518   0.862
  864TIP3   OH2 2555   4.054   3.168   5.604
  864TIP3    H1 2556   4.086   3.112   5.533
  864TIP3    H2 2557   4.015   3.244   5.559
  865TIP3   OH2 2558   5.398   3.160   3.913
  865TIP3    H1 2559   5.305   3.152   3.935
  865TIP3    H2 2560   5.416   3.253   3.921
  866TIP3   OH2 2561   3.011   3.643   0.511
  866TIP3    H1 2562   3.058   3.695   0.576
  866TIP3    H2 2563   2.937   3.607   0.558
  867TIP3   OH2 2564   2.698   5.895   1.626
  867TIP3    H1 2565   2.703   5.860   1.537
  867TIP3    H2 2566   2.605   5.885   1.649
  868TIP3   OH2 2567   3.600   2.453   2.547
  868TIP3    H1 2568   3.513   2.464   2.509
  868TIP3    H2 2569   3.584   2.402   2.627
  869TIP3   OH2 2570   1.408   0.275   2.788
  869TIP3    H1 2571   1.355   0.249   2.864
  869TIP3    H2 2572   1.418   0.195   2.737
  870TIP3   OH2 2573   6.631   3.497   0.262
  870TIP3    H1 2574   6.638   3.402   0.271
  870TIP3    H2 2575   6.645   3.531   0.350
  871TIP3   OH2 2576   5.334   2.564   3.200
  871TIP3    H1 2577   5.380   2.489   3.161
  871TIP3    H2 2578   5.386   2.640   3.173
  872TIP3   OH2 2579   1.583   4.176   5.085
  872TIP3    H1 2580   1.659   4.190   5.028
  872TIP3    H2 2581   1.568   4.082   5.082
  873TIP3   OH2 2582   2.563   0.585   0.291
  873TIP3    H1 2583   2.606   0.564   0.373
  873TIP3    H2 2584   2.597   0.520   0.229
  874TIP3   OH2 2585   1.905   5.237   5.922
  874TIP3    H1 2586   1.915   5.330   5.901
  874TIP3    H2 2587   1.856   5.201   5.848
  875TIP3   OH2 2588   0.048   4.494   3.011
  875TIP3    H1 2589   0.017   4.426   2.951
  875TIP3    H2 2590   0.132   4.462   3.042
  876TIP3   OH2 2591   1.593   2.914   0.938
  876TIP3    H1 2592   1.560   2.824   0.940
  876TIP3    H2 2593   1.540   2.961   1.003
  877TIP3   OH2 2594   3.336   4.897   1.094
  877TIP3    H1 2595   3.361   4.980   1.053
  877TIP3    H2 2596   3.316   4.839   1.020
  878TIP3   OH2 2597   2.630   5.559   3.056
  878TIP3    H1 2598   2.622   5.510   3.138
  878TIP3    H2 2599   2.620   5.651   3.082
  879TIP3   OH2 2600   4.888   6.790   2.784
  879TIP3    H1 2601   4.982   6.790   2.799
  879TIP3    H2 2602   4.850   6.756   2.866
  880TIP3   OH2 2603   0.394   3.207   5.378
  880TIP3    H1 2604   0.400   3.114   5.396
  880TIP3    H2 2605   0.472   3.227   5.325
  881TIP3   OH2 2606   1.600   0.769   4.025
  881TIP3    H1 2607   1.684   0.799   3.991
  881TIP3    H2 2608   1.592   0.679   3.993
  882TIP3   OH2 2609   2.230   2.712   0.915
  882TIP3    H1 2610   2.140   2.717   0.946
  882TIP3    H2 2611   2.275   2.658   0.980
  883TIP3   OH2 2612   3.557   0.808   1.861
  883TIP3    H1 2613   3.611   0.884   1.883
  883TIP3    H2 2614   3.619   0.746   1.822
  884TIP3   OH2 2615   3.221   3.372   3.801
  884TIP3    H1 2616   3.210   3.282   3.770
  884TIP3    H2 2617   3.209   3.366   3.896
  885TIP3   OH2 2618   3.872   0.144   0.007
  885TIP3    H1 2619   3.888   0.221  -0.048
  885TIP3    H2 2620   3.885   0.175   0.096
  886TIP3   OH2 2621   6.771   6.693   2.455
  886TIP3    H1 2622   6.753   6.608   2.497
  886TIP3    H2 2623   6.710   6.753   2.498
  887TIP3   OH2 2624   0.030   0.621   2.855
  887TIP3    H1 2625   0.050   0.540   2.901
  887TIP3    H2 2626   0.108   0.638   2.802
  888TIP3   OH2 2627   3.575   4.978   1.713
  888TIP3    H1 2628   3.505   4.914   1.729
  888TIP3    H2 2629   3.651   4.925   1.692
  889TIP3   OH2 2630   6.016   3.663   1.384
  889TIP3    H1 2631   5.997   3.693   1.295
  889TIP3    H2 2632   6.045   3.572   1.372
  890TIP3   OH2 2633   1.468   4.304   0.000
  890TIP3    H1 2634   1.510   4.366   0.060
  890TIP3    H2 2635   1.374   4.318   0.013
  891TIP3   OH2 2636   0.374   5.061   1.810
  891TIP3    H1 2637   0.318   5.043   1.735
  891TIP3    H2 2638   0.324   5.122   1.864
  892TIP3   OH2 2639   0.223   3.900   3.660
  892TIP3    H1 2640   0.298   3.864   3.707
  892TIP3    H2 2641   0.147   3.866   3.707
  893TIP3   OH2 2642   2.984   4.229   5.026
  893TIP3    H1 2643   3.076   4.251   5.041
  893TIP3    H2 2644   2.946   4.221   5.114
  894TIP3   OH2 2645   5.267   1.185   0.331
  894TIP3    H1 2646   5.296   1.216   0.417
  894TIP3    H2 2647   5.333   1.121   0.305
  895TIP3   OH2 2648   5.909   2.905   1.181
  895TIP3    H1 2649   5.995   2.870   1.160
  895TIP3    H2 2650   5.849   2.833   1.163
  896TIP3   OH2 2651   7.002   3.199   1.580
  896TIP3    H1 2652   7.069   3.147   1.535
  896TIP3    H2 2653   6.936   3.216   1.513
  897TIP3   OH2 2654   5.012   4.520   0.608
  897TIP3    H1 2655   4.967   4.600   0.583
  897TIP3    H2 2656   4.943   4.456   0.622
  898TIP3   OH2 2657   0.842   0.826   4.652
  898TIP3    H1 2658   0.840   0.819   4.747
  898TIP3    H2 2659   0.767   0.774   4.623
  899TIP3   OH2 2660   5.992   1.476   5.265
  899TIP3    H1 2661   6.053   1.550   5.263
  899TIP3    H2 2662   5.907   1.516   5.284
  900TIP3   OH2 2663   4.852   3.751   4.666
  900TIP3    H1 2664   4.856   3.845   4.683
  900TIP3    H2 2665   4.775   3.740   4.609
  901TIP3   OH2 2666   0.970   1.478   4.967
  901TIP3    H1 2667   0.888   1.462   4.918
  901TIP3    H2 2668   1.031   1.509   4.900
  902TIP3   OH2 2669   1.644   1.610   1.770
  902TIP3    H1 2670   1.634   1.648   1.683
  902TIP3    H2 2671   1.665   1.684   1.827
  903TIP3   OH2 2672   4.352   1.350   5.624
  903TIP3    H1 2673   4.273   1.343   5.571
  903TIP3    H2 2674   4.366   1.444   5.633
  904TIP3   OH2 2675   2.708   1.141   5.457
  904TIP3    H1 2676   2.640   1.182   5.511
  904TIP3    H2 2677   2.665   1.062   5.421
  905TIP3   OH2 2678   0.691   5.664   5.037
  905TIP3    H1 2679   0.653   5.610   4.968
  905TIP3    H2 2680   0.624   5.667   5.106
  906TIP3   OH2 2681   4.329   0.420   1.973
  906TIP3    H1 2682   4.421   0.398   1.959
  906TIP3    H2 2683   4.327   0.462   2.059
  907TIP3   OH2 2684   3.733   6.715   5.028
  907TIP3    H1 2685   3.660   6.715   4.966
  907TIP3    H2 2686   3.757   6.623   5.037
  908TIP3   OH2 2687   2.377   4.439   2.645
  908TIP3    H1 2688   2.295   4.486   2.661
  908TIP3    H2 2689   2.445   4.505   2.657
  909TIP3   OH2 2690   5.402   4.372   0.372
  909TIP3    H1 2691   5.401   4.283   0.336
  909TIP3    H2 2692   5.388   4.360   0.466
  910TIP3   OH2 2693   0.632   6.298   0.643
  910TIP3    H1 2694   0.685   6.271   0.568
  910TIP3    H2 2695   0.549   6.326   0.605
  911TIP3   OH2 2696   4.127   3.924   5.109
  911TIP3    H1 2697   4.086   3.906   5.024
  911TIP3    H2 2698   4.203   3.866   5.112
  912TIP3   OH2 2699   2.886   0.522   3.719
  912TIP3    H1 2700   2.869   0.439   3.763
  912TIP3    H2 2701   2.860   0.589   3.782
  913TIP3   OH2 2702   5.478   2.171   1.917
  913TIP3    H1 2703   5.462   2.229   1.842
  913TIP3    H2 2704   5.440   2.087   1.891
  914TIP3   OH2 2705   3.628   3.906   5.024
  914TIP3    H1 2706   3.695   3.891   5.090
  914TIP3    H2 2707   3.563   3.838   5.039
  915TIP3   OH2 2708   4.742   5.026   4.263
  915TIP3    H1 2709   4.705   4.960   4.203
  915TIP3    H2 2710   4.834   5.032   4.237
  916TIP3   OH2 2711   5.368   2.558   5.387
  916TIP3    H1 2712   5.360   2.607   5.469
  916TIP3    H2 2713   5.295   2.589   5.333
  917TIP3   OH2 2714   1.853   1.150   5.328
  917TIP3    H1 2715   1.765   1.123   5.300
  917TIP3    H2 2716   1.910   1.128   5.254
  918TIP3   OH2 2717   3.419   1.258   3.314
  918TIP3    H1 2718   3.445   1.256   3.406
  918TIP3    H2 2719   3.326   1.237   3.315
  919TIP3   OH2 2720   5.332   6.197   4.990
  919TIP3    H1 2721   5.396   6.246   4.938
  919TIP3    H2 2722   5.384   6.136   5.042
  920TIP3   OH2 2723   2.988   0.773   0.450
  920TIP3    H1 2724   3.005   0.817   0.367
  920TIP3    H2 2725   2.986   0.680   0.428
  921TIP3   OH2 2726   5.856   6.683   1.293
  921TIP3    H1 2727   5.769   6.703   1.257
  921TIP3    H2 2728   5.846   6.597   1.333
  922TIP3   OH2 2729   6.492   3.352   2.382
  922TIP3    H1 2730   6.403   3.343   2.349
  922TIP3    H2 2731   6.491   3.434   2.432
  923TIP3   OH2 2732  -0.018   2.182   1.734
  923TIP3    H1 2733   0.017   2.093   1.722
  923TIP3    H2 2734   0.047   2.239   1.692
  924TIP3   OH2 2735   7.039   2.492   5.358
  924TIP3    H1 2736   7.102   2.562   5.338
  924TIP3    H2 2737   7.070   2.417   5.307
  925TIP3   OH2 2738   6.084   0.099   2.948
  925TIP3    H1 2739   6.103   0.088   3.041
  925TIP3    H2 2740   5.998   0.059   2.936
  926TIP3   OH2 2741   0.105   0.149   0.004
  926TIP3    H1 2742   0.165   0.133   0.077
  926TIP3    H2 2743   0.080   0.062  -0.027
  927TIP3   OH2 2744   5.577   3.384   5.183
  927TIP3    H1 2745   5.616   3.437   5.252
  927TIP3    H2 2746   5.649   3.369   5.121
  928TIP3   OH2 2747   1.385   1.367   0.008
  928TIP3    H1 2748   1.329   1.376   0.085
  928TIP3    H2 2749   1.458   1.427   0.025
  929TIP3   OH2 2750   6.455   1.708   5.327
  929TIP3    H1 2751   6.485   1.756   5.250
  929TIP3    H2 2752   6.536   1.679   5.371
  930TIP3   OH2 2753   5.327   1.092   0.030
  930TIP3    H1 2754   5.411   1.047   0.036
  930TIP3    H2 2755   5.349   1.184   0.040
  931TIP3   OH2 2756   1.651   2.451   0.309
  931TIP3    H1 2757   1.614   2.441   0.397
  931TIP3    H2 2758   1.738   2.410   0.314
  932TIP3   OH2 2759   2.057   6.327   2.151
  932TIP3    H1 2760   2.115   6.399   2.176
  932TIP3    H2 2761   2.047   6.276   2.231
  933TIP3   OH2 2762   2.789   2.535   3.091
  933TIP3    H1 2763   2.774   2.567   3.180
  933TIP3    H2 2764   2.704   2.503   3.062
  934TIP3   OH2 2765   3.698   6.592   2.180
  934TIP3    H1 2766   3.785   6.621   2.156
  934TIP3    H2 2767   3.640   6.630   2.114
  935TIP3   OH2 2768   6.836   5.657   4.494
  935TIP3    H1 2769   6.785   5.688   4.569
  935TIP3    H2 2770   6.843   5.562   4.508
  936TIP3   OH2 2771   3.655   4.216   4.079
  936TIP3    H1 2772   3.627   4.200   3.989
  936TIP3    H2 2773   3.743   4.178   4.084
  937TIP3   OH2 2774   4.946   1.542   1.253
  937TIP3    H1 2775   4.861   1.585   1.256
  937TIP3    H2 2776   4.992   1.585   1.181
  938TIP3   OH2 2777   4.241   6.662   3.336
  938TIP3    H1 2778   4.220   6.658   3.429
  938TIP3    H2 2779   4.257   6.754   3.318
  939TIP3   OH2 2780   2.911   6.496   5.301
  939TIP3    H1 2781   2.870   6.582   5.290
  939TIP3    H2 2782   2.944   6.474   5.214
  940TIP3   OH2 2783   7.072   0.904   1.149
  940TIP3    H1 2784   7.117   0.922   1.066
  940TIP3    H2 2785   7.136   0.924   1.216
  941TIP3   OH2 2786   6.744   2.901   0.053
  941TIP3    H1 2787   6.771   2.891  -0.038
  941TIP3    H2 2788   6.823   2.929   0.099
  942TIP3   OH2 2789   2.688   4.280   5.653
  942TIP3    H1 2790   2.642   4.259   5.734
  942TIP3    H2 2791   2.625   4.258   5.584
  943TIP3   OH2 2792   5.297   5.898   0.971
  943TIP3    H1 2793   5.310   5.896   1.065
  943TIP3    H2 2794   5.334   5.981   0.943
  944TIP3   OH2 2795   4.062   1.918   4.926
  944TIP3    H1 2796   4.122   1.844   4.920
  944TIP3    H2 2797   4.071   1.949   5.016
  945TIP3   OH2 2798   0.861   2.935   1.714
  945TIP3    H1 2799   0.891   2.876   1.645
  945TIP3    H2 2800   0.926   2.926   1.783
  946TIP3   OH2 2801   5.700   3.405   4.480
  946TIP3    H1 2802   5.685   3.369   4.393
  946TIP3    H2 2803   5.759   3.479   4.465
  947TIP3   OH2 2804   6.213   6.283   2.942
  947TIP3    H1 2805   6.121   6.262   2.959
  947TIP3    H2 2806   6.249   6.303   3.028
  948TIP3   OH2 2807   3.788   5.782   1.248
  948TIP3    H1 2808   3.694   5.798   1.246
  948TIP3    H2 2809   3.799   5.711   1.311
  949TIP3   OH2 2810   6.683   0.087   0.459
  949TIP3    H1 2811   6.591   0.088   0.484
  949TIP3    H2 2812   6.689   0.016   0.395
  950TIP3   OH2 2813   3.566   2.268   0.764
  950TIP3    H1 2814   3.557   2.173   0.775
  950TIP3    H2 2815   3.476   2.301   0.766
  951TIP3   OH2 2816   6.721   1.328   2.491
  951TIP3    H1 2817   6.765   1.268   2.431
  951TIP3    H2 2818   6.628   1.305   2.485
  952TIP3   OH2 2819   7.198   2.403   5.712
  952TIP3    H1 2820   7.110   2.401   5.673
  952TIP3    H2 2821   7.201   2.324   5.766
  953TIP3   OH2 2822   5.457   1.292   3.171
  953TIP3    H1 2823   5.473   1.386   3.163
  953TIP3    H2 2824   5.539   1.257   3.206
  954TIP3   OH2 2825   3.328   2.465   2.436
  954TIP3    H1 2826   3.352   2.374   2.421
  954TIP3    H2 2827   3.240   2.460   2.474
  955TIP3   OH2 2828   2.017   6.626   3.948
  955TIP3    H1 2829   1.954   6.555   3.949
  955TIP3    H2 2830   1.964   6.705   3.941
  956TIP3   OH2 2831   3.819   5.133   1.850
  956TIP3    H1 2832   3.751   5.109   1.787
  956TIP3    H2 2833   3.835   5.054   1.901
  957TIP3   OH2 2834   6.570   4.374   1.811
  957TIP3    H1 2835   6.508   4.316   1.853
  957TIP3    H2 2836   6.562   4.355   1.718
  958TIP3   OH2 2837   0.918   5.073   1.195
  958TIP3    H1 2838   0.866   5.013   1.249
  958TIP3    H2 2839   0.982   5.111   1.256
  959TIP3   OH2 2840   6.456   5.113   3.259
  959TIP3    H1 2841   6.457   5.109   3.163
  959TIP3    H2 2842   6.548   5.118   3.284
  960TIP3   OH2 2843   1.336   0.658   0.718
  960TIP3    H1 2844   1.411   0.673   0.660
  960TIP3    H2 2845   1.336   0.563   0.732
  961TIP3   OH2 2846   1.437   1.403   5.222
  961TIP3    H1 2847   1.480   1.402   5.307
  961TIP3    H2 2848   1.434   1.311   5.196
  962TIP3   OH2 2849   6.900   1.993   0.679
  962TIP3    H1 2850   6.967   1.948   0.729
  962TIP3    H2 2851   6.822   1.990   0.734
  963TIP3   OH2 2852   4.375   6.058   2.553
  963TIP3    H1 2853   4.343   6.148   2.564
  963TIP3    H2 2854   4.447   6.052   2.616
  964TIP3   OH2 2855   7.028   3.704   5.777
  964TIP3    H1 2856   6.986   3.641   5.836
  964TIP3    H2 2857   6.985   3.788   5.798
  965TIP3   OH2 2858   7.134   0.988   3.203
  965TIP3    H1 2859   7.107   1.060   3.146
  965TIP3    H2 2860   7.052   0.956   3.241
  966TIP3   OH2 2861   6.995   4.959   2.165
  966TIP3    H1 2862   6.924   4.917   2.116
  966TIP3    H2 2863   7.042   4.887   2.207
  967TIP3   OH2 2864   5.157   1.241   4.846
  967TIP3    H1 2865   5.238   1.191   4.850
  967TIP3    H2 2866   5.101   1.203   4.913
  968TIP3   OH2 2867   3.451   2.076   5.498
  968TIP3    H1 2868   3.534   2.027   5.493
  968TIP3    H2 2869   3.384   2.008   5.494
  969TIP3   OH2 2870   7.048   6.245   3.124
  969TIP3    H1 2871   7.008   6.229   3.039
  969TIP3    H2 2872   7.084   6.160   3.151
  970TIP3   OH2 2873   0.242   0.041   1.604
  970TIP3    H1 2874   0.293   0.051   1.684
  970TIP3    H2 2875   0.245  -0.053   1.586
  971TIP3   OH2 2876   6.851   2.839   1.109
  971TIP3    H1 2877   6.899   2.882   1.181
  971TIP3    H2 2878   6.760   2.868   1.121
  972TIP3   OH2 2879   0.270   4.508   1.572
  972TIP3    H1 2880   0.357   4.467   1.576
  972TIP3    H2 2881   0.209   4.435   1.571
  973TIP3   OH2 2882   2.188   6.095   1.754
  973TIP3    H1 2883   2.201   6.170   1.812
  973TIP3    H2 2884   2.095   6.074   1.762
  974TIP3   OH2 2885   4.045   4.686   2.503
  974TIP3    H1 2886   4.114   4.627   2.531
  974TIP3    H2 2887   4.052   4.761   2.562
  975TIP3   OH2 2888   5.580   6.593   2.722
  975TIP3    H1 2889   5.582   6.573   2.815
  975TIP3    H2 2890   5.552   6.511   2.680
  976TIP3   OH2 2891   1.212   0.681   4.107
  976TIP3    H1 2892   1.184   0.706   4.019
  976TIP3    H2 2893   1.233   0.764   4.150
  977TIP3   OH2 2894   1.915   0.825   0.941
  977TIP3    H1 2895   1.839   0.879   0.918
  977TIP3    H2 2896   1.989   0.868   0.897
  978TIP3   OH2 2897   0.371   6.145   2.654
  978TIP3    H1 2898   0.305   6.077   2.665
  978TIP3    H2 2899   0.385   6.149   2.560
  979TIP3   OH2 2900   0.231   3.073   4.280
  979TIP3    H1 2901   0.203   3.078   4.189
  979TIP3    H2 2902   0.176   3.004   4.318
  980TIP3   OH2 2903   3.437   5.391   3.454
  980TIP3    H1 2904   3.351   5.365   3.419
  980TIP3    H2 2905   3.428   5.381   3.549
  981TIP3   OH2 2906   6.396   0.110   5.677
  981TIP3    H1 2907   6.352   0.188   5.643
  981TIP3    H2 2908   6.486   0.138   5.693
  982TIP3   OH2 2909   3.965   5.110   3.984
  982TIP3    H1 2910   3.932   5.068   3.904
  982TIP3    H2 2911   4.060   5.114   3.970
  983TIP3   OH2 2912   0.085   4.893   1.421
  983TIP3    H1 2913   0.060   4.941   1.342
  983TIP3    H2 2914   0.006   4.845   1.446
  984TIP3   OH2 2915   6.190   2.907   2.487
  984TIP3    H1 2916   6.161   2.932   2.399
  984TIP3    H2 2917   6.238   2.983   2.519
  985TIP3   OH2 2918   6.056   3.550   0.264
  985TIP3    H1 2919   6.038   3.568   0.172
  985TIP3    H2 2920   6.151   3.545   0.269
  986TIP3   OH2 2921   4.237   1.524   5.093
  986TIP3    H1 2922   4.304   1.466   5.054
  986TIP3    H2 2923   4.259   1.611   5.059
  987TIP3   OH2 2924   1.634   6.429   5.197
  987TIP3    H1 2925   1.628   6.362   5.130
  987TIP3    H2 2926   1.727   6.433   5.219
  988TIP3   OH2 2927   0.117   4.151   1.045
  988TIP3    H1 2928   0.200   4.183   1.009
  988TIP3    H2 2929   0.124   4.055   1.039
  989TIP3   OH2 2930   3.577   5.987   4.822
  989TIP3    H1 2931   3.514   5.928   4.864
  989TIP3    H2 2932   3.636   5.929   4.774
  990TIP3   OH2 2933   2.188   5.643   4.838
  990TIP3    H1 2934   2.115   5.702   4.817
  990TIP3    H2 2935   2.167   5.563   4.789
  991TIP3   OH2 2936   2.416   6.095   0.830
  991TIP3    H1 2937   2.344   6.111   0.769
  991TIP3    H2 2938   2.491   6.140   0.792
  992TIP3   OH2 2939   4.173   6.778   4.938
  992TIP3    H1 2940   4.268   6.768   4.930
  992TIP3    H2 2941   4.161   6.819   5.023
  993TIP3   OH2 2942   3.291   0.321   1.690
  993TIP3    H1 2943   3.269   0.411   1.668
  993TIP3    H2 2944   3.321   0.324   1.780
  994TIP3   OH2 2945   3.456   6.645   2.856
  994TIP3    H1 2946   3.545   6.628   2.825
  994TIP3    H2 2947   3.459   6.624   2.950
  995TIP3   OH2 2948   6.557   6.373   5.618
  995TIP3    H1 2949   6.580   6.280   5.625
  995TIP3    H2 2950   6.463   6.373   5.600
  996TIP3   OH2 2951   0.913   2.607   5.134
  996TIP3    H1 2952   0.911   2.683   5.076
  996TIP3    H2 2953   1.005   2.583   5.140
  997TIP3   OH2 2954   3.023   4.953   3.665
  997TIP3    H1 2955   3.027   5.033   3.613
  997TIP3    H2 2956   3.087   4.966   3.735
  998TIP3   OH2 2957   3.714   4.609   4.437
  998TIP3    H1 2958   3.628   4.651   4.433
  998TIP3    H2 2959   3.698   4.519   4.410
  999TIP3   OH2 2960   0.459   5.674   2.310
  999TIP3    H1 2961   0.480   5.763   2.339
  999TIP3    H2 2962   0.385   5.648   2.365
 1000TIP3   OH2 2963   6.465   0.943   2.199
 1000TIP3    H1 2964   6.451   0.864   2.147
 1000TIP3    H2 2965   6.546   0.926   2.247
 1001TIP3   OH2 2966   0.524   5.808   1.680
 1001TIP3    H1 2967   0.547   5.898   1.702
 1001TIP3    H2 2968   0.428   5.807   1.679
 1002TIP3   OH2 2969   0.707   0.555   3.967
 1002TIP3    H1 2970   0.648   0.590   4.033
 1002TIP3    H2 2971   0.785   0.610   3.973
 1003TIP3   OH2 2972   3.056   2.401   0.753
 1003TIP3    H1 2973   2.998   2.365   0.820
 1003TIP3    H2 2974   3.022   2.490   0.738
 1004TIP3   OH2 2975   3.074   5.965   4.339
 1004TIP3    H1 2976   3.108   5.887   4.296
 1004TIP3    H2 2977   3.022   5.932   4.412
 1005TIP3   OH2 2978   1.606   1.040   4.743
 1005TIP3    H1 2979   1.531   0.984   4.726
 1005TIP3    H2 2980   1.665   1.025   4.669
 1006TIP3   OH2 2981   1.055   1.151   5.215
 1006TIP3    H1 2982   1.121   1.218   5.236
 1006TIP3    H2 2983   1.080   1.120   5.128
 1007TIP3   OH2 2984   5.353   2.645   5.653
 1007TIP3    H1 2985   5.436   2.603   5.633
 1007TIP3    H2 2986   5.328   2.611   5.739
 1008TIP3   OH2 2987   4.150   6.156   1.454
 1008TIP3    H1 2988   4.170   6.175   1.362
 1008TIP3    H2 2989   4.185   6.231   1.502
 1009TIP3   OH2 2990   6.010   6.386   5.183
 1009TIP3    H1 2991   6.058   6.434   5.116
 1009TIP3    H2 2992   5.919   6.386   5.151
 1010TIP3   OH2 2993   6.266   6.589   0.547
 1010TIP3    H1 2994   6.292   6.636   0.468
 1010TIP3    H2 2995   6.197   6.530   0.518
 1011TIP3   OH2 2996   6.329   3.801   2.135
 1011TIP3    H1 2997   6.334   3.833   2.045
 1011TIP3    H2 2998   6.407   3.747   2.146
 1012TIP3   OH2 2999   5.174   3.717   4.622
 1012TIP3    H1 3000   5.103   3.741   4.682
 1012TIP3    H2 3001   5.164   3.776   4.547
 1013TIP3   OH2 3002   4.060   0.038   1.717
 1013TIP3    H1 3003   4.103   0.111   1.762
 1013TIP3    H2 3004   3.991   0.079   1.665
 1014TIP3   OH2 3005   5.761   1.400   5.016
 1014TIP3    H1 3006   5.806   1.335   5.070
 1014TIP3    H2 3007   5.829   1.463   4.992
 1015TIP3   OH2 3008   3.253   0.191   4.669
 1015TIP3    H1 3009   3.210   0.273   4.648
 1015TIP3    H2 3010   3.289   0.204   4.757
 1016TIP3   OH2 3011   3.039   3.263   1.009
 1016TIP3    H1 3012   3.035   3.345   0.959
 1016TIP3    H2 3013   3.023   3.195   0.943
 1017TIP3   OH2 3014   4.628   0.221   5.773
 1017TIP3    H1 3015   4.562   0.152   5.781
 1017TIP3    H2 3016   4.611   0.260   5.687
 1018TIP3   OH2 3017   6.998   4.169   5.689
 1018TIP3    H1 3018   7.093   4.162   5.677
 1018TIP3    H2 3019   6.988   4.216   5.772
 1019TIP3   OH2 3020   4.637   3.084   3.057
 1019TIP3    H1 3021   4.622   3.166   3.104
 1019TIP3    H2 3022   4.678   3.111   2.975
 1020TIP3   OH2 3023   0.377   3.160   0.501
 1020TIP3    H1 3024   0.468   3.130   0.510
 1020TIP3    H2 3025   0.380   3.253   0.521
 1021TIP3   OH2 3026   2.799   5.855   1.864
 1021TIP3    H1 3027   2.779   5.873   1.773
 1021TIP3    H2 3028   2.880   5.904   1.881
 1022TIP3   OH2 3029   5.223   5.488   5.215
 1022TIP3    H1 3030   5.261   5.410   5.255
 1022TIP3    H2 3031   5.153   5.514   5.274
 1023TIP3   OH2 3032   3.396   6.316   1.825
 1023TIP3    H1 3033   3.416   6.222   1.824
 1023TIP3    H2 3034   3.418   6.344   1.914
 1024TIP3   OH2 3035   3.617   5.345   1.512
 1024TIP3    H1 3036   3.526   5.321   1.528
 1024TIP3    H2 3037   3.666   5.264   1.528
 1025TIP3   OH2 3038   1.902  -0.001   0.589
 1025TIP3    H1 3039   1.874   0.083   0.551
 1025TIP3    H2 3040   1.823  -0.054   0.590
 1026TIP3   OH2 3041   0.660   4.094   0.573
 1026TIP3    H1 3042   0.593   4.153   0.539
 1026TIP3    H2 3043   0.644   4.091   0.667
 1027TIP3   OH2 3044   3.580   1.579   1.940
 1027TIP3    H1 3045   3.571   1.484   1.931
 1027TIP3    H2 3046   3.653   1.590   2.001
 1028TIP3   OH2 3047   0.565   4.677   0.625
 1028TIP3    H1 3048   0.514   4.667   0.706
 1028TIP3    H2 3049   0.654   4.695   0.655
 1029TIP3   OH2 3050   0.080   1.558   5.343
 1029TIP3    H1 3051   0.109   1.478   5.386
 1029TIP3    H2 3052   0.146   1.574   5.275
 1030TIP3   OH2 3053   0.402   1.684   0.306
 1030TIP3    H1 3054   0.332   1.719   0.252
 1030TIP3    H2 3055   0.397   1.589   0.294
 1031TIP3   OH2 3056   4.859   6.723   0.609
 1031TIP3    H1 3057   4.793   6.771   0.558
 1031TIP3    H2 3058   4.819   6.712   0.695
 1032TIP3   OH2 3059   1.918   3.250   2.952
 1032TIP3    H1 3060   1.940   3.274   3.042
 1032TIP3    H2 3061   1.854   3.315   2.924
 1033TIP3   OH2 3062   0.476   5.691   4.760
 1033TIP3    H1 3063   0.530   5.757   4.804
 1033TIP3    H2 3064   0.513   5.608   4.789
 1034TIP3   OH2 3065   5.220   4.365   2.802
 1034TIP3    H1 3066   5.160   4.438   2.817
 1034TIP3    H2 3067   5.297   4.387   2.853
 1035TIP3   OH2 3068   3.494   0.444   4.143
 1035TIP3    H1 3069   3.420   0.383   4.145
 1035TIP3    H2 3070   3.485   0.490   4.059
 1036TIP3   OH2 3071   1.818   0.246   0.905
 1036TIP3    H1 3072   1.857   0.263   0.991
 1036TIP3    H2 3073   1.892   0.227   0.848
 1037TIP3   OH2 3074   6.538   5.763   4.723
 1037TIP3    H1 3075   6.532   5.710   4.644
 1037TIP3    H2 3076   6.463   5.735   4.777
 1038TIP3   OH2 3077   2.321   5.443   1.203
 1038TIP3    H1 3078   2.349   5.529   1.235
 1038TIP3    H2 3079   2.354   5.381   1.268
 1039TIP3   OH2 3080   4.216   2.817   4.014
 1039TIP3    H1 3081   4.141   2.877   4.021
 1039TIP3    H2 3082   4.176   2.731   4.002
 1040TIP3   OH2 3083   1.399   5.070   1.662
 1040TIP3    H1 3084   1.409   5.080   1.567
 1040TIP3    H2 3085   1.315   5.112   1.681
 1041TIP3   OH2 3086   5.028   3.948   0.157
 1041TIP3    H1 3087   5.018   3.873   0.099
 1041TIP3    H2 3088   5.071   3.912   0.235
 1042TIP3   OH2 3089   1.561   3.038   5.504
 1042TIP3    H1 3090   1.598   2.965   5.554
 1042TIP3    H2 3091   1.618   3.112   5.524
 1043TIP3   OH2 3092   1.049   0.237   2.871
 1043TIP3    H1 3093   1.133   0.247   2.915
 1043TIP3    H2 3094   0.984   0.239   2.942
 1044TIP3   OH2 3095   0.505   6.600   0.904
 1044TIP3    H1 3096   0.567   6.528   0.915
 1044TIP3    H2 3097   0.425   6.569   0.945
 1045TIP3   OH2 3098   1.750   6.641   5.403
 1045TIP3    H1 3099   1.788   6.709   5.348
 1045TIP3    H2 3100   1.825   6.591   5.435
 1046TIP3   OH2 3101   0.969   1.118   2.900
 1046TIP3    H1 3102   0.892   1.172   2.912
 1046TIP3    H2 3103   0.936   1.028   2.901
 1047TIP3   OH2 3104   4.171   4.478   2.608
 1047TIP3    H1 3105   4.250   4.423   2.607
 1047TIP3    H2 3106   4.104   4.422   2.648
 1048TIP3   OH2 3107   2.099   6.466   4.315
 1048TIP3    H1 3108   2.145   6.498   4.393
 1048TIP3    H2 3109   2.115   6.372   4.315
 1049TIP3   OH2 3110   1.176   0.689   1.711
 1049TIP3    H1 3111   1.081   0.677   1.713
 1049TIP3    H2 3112   1.198   0.686   1.618
 1050TIP3   OH2 3113   1.314   2.913   2.233
 1050TIP3    H1 3114   1.246   2.946   2.292
 1050TIP3    H2 3115   1.350   2.837   2.279
 1051TIP3   OH2 3116   6.398   0.082   0.504
 1051TIP3    H1 3117   6.404   0.168   0.462
 1051TIP3    H2 3118   6.366   0.101   0.592
 1052TIP3   OH2 3119   0.397   0.577   3.017
 1052TIP3    H1 3120   0.454   0.570   3.095
 1052TIP3    H2 3121   0.455   0.610   2.949
 1053TIP3   OH2 3122   6.740   4.033   0.801
 1053TIP3    H1 3123   6.689   3.953   0.807
 1053TIP3    H2 3124   6.827   4.004   0.771
 1054TIP3   OH2 3125   2.928   0.191   4.303
 1054TIP3    H1 3126   3.005   0.245   4.285
 1054TIP3    H2 3127   2.963   0.108   4.334
 1055TIP3   OH2 3128   1.492   5.235   2.192
 1055TIP3    H1 3129   1.461   5.146   2.205
 1055TIP3    H2 3130   1.581   5.226   2.158
 1056TIP3   OH2 3131   4.425   6.823   2.168
 1056TIP3    H1 3132   4.361   6.789   2.231
 1056TIP3    H2 3133   4.428   6.756   2.099
 1057TIP3   OH2 3134   2.474   1.621   5.373
 1057TIP3    H1 3135   2.456   1.534   5.338
 1057TIP3    H2 3136   2.568   1.621   5.392
 1058TIP3   OH2 3137   1.999   2.845   1.066
 1058TIP3    H1 3138   1.957   2.796   1.137
 1058TIP3    H2 3139   1.935   2.912   1.042
 1059TIP3   OH2 3140   0.461   5.812   0.410
 1059TIP3    H1 3141   0.407   5.807   0.489
 1059TIP3    H2 3142   0.417   5.755   0.346
 1060TIP3   OH2 3143   0.598   1.492   5.270
 1060TIP3    H1 3144   0.653   1.434   5.217
 1060TIP3    H2 3145   0.638   1.492   5.356
 1061TIP3   OH2 3146   6.805   2.277   0.819
 1061TIP3    H1 3147   6.893   2.262   0.786
 1061TIP3    H2 3148   6.755   2.307   0.743
 1062TIP3   OH2 3149   4.603   2.652   0.053
 1062TIP3    H1 3150   4.627   2.583  -0.010
 1062TIP3    H2 3151   4.533   2.613   0.106
 1063TIP3   OH2 3152   6.520   1.411   3.854
 1063TIP3    H1 3153   6.564   1.446   3.932
 1063TIP3    H2 3154   6.528   1.480   3.789
 1064TIP3   OH2 3155   3.339   6.598   0.746
 1064TIP3    H1 3156   3.295   6.619   0.828
 1064TIP3    H2 3157   3.416   6.547   0.772
 1065TIP3   OH2 3158   0.319   5.333   2.298
 1065TIP3    H1 3159   0.388   5.289   2.347
 1065TIP3    H2 3160   0.282   5.397   2.360
 1066TIP3   OH2 3161   0.096   5.120   2.596
 1066TIP3    H1 3162   0.126   5.189   2.655
 1066TIP3    H2 3163   0.147   5.043   2.621
 1067TIP3   OH2 3164   3.195   5.400   1.561
 1067TIP3    H1 3165   3.185   5.423   1.654
 1067TIP3    H2 3166   3.192   5.485   1.516
 1068TIP3   OH2 3167   6.855   5.892   1.273
 1068TIP3    H1 3168   6.791   5.959   1.248
 1068TIP3    H2 3169   6.880   5.915   1.363
 1069TIP3   OH2 3170   6.559   5.175   2.657
 1069TIP3    H1 3171   6.635   5.218   2.697
 1069TIP3    H2 3172   6.562   5.085   2.691
 1070TIP3   OH2 3173   2.896   6.731   4.744
 1070TIP3    H1 3174   2.977   6.684   4.765
 1070TIP3    H2 3175   2.852   6.741   4.828
 1071TIP3   OH2 3176   1.912   1.711   0.644
 1071TIP3    H1 3177   1.825   1.687   0.611
 1071TIP3    H2 3178   1.964   1.631   0.636
 1072TIP3   OH2 3179   0.025   3.924   4.976
 1072TIP3    H1 3180   0.110   3.880   4.972
 1072TIP3    H2 3181   0.033   3.997   4.915
 1073TIP3   OH2 3182   3.380   3.378   0.373
 1073TIP3    H1 3183   3.390   3.337   0.287
 1073TIP3    H2 3184   3.294   3.420   0.369
 1074TIP3   OH2 3185   2.582   2.397   3.782
 1074TIP3    H1 3186   2.667   2.399   3.737
 1074TIP3    H2 3187   2.593   2.333   3.851
 1075TIP3   OH2 3188   6.592   3.818   4.365
 1075TIP3    H1 3189   6.660   3.881   4.341
 1075TIP3    H2 3190   6.517   3.872   4.391
 1076TIP3   OH2 3191   0.983   5.098   1.728
 1076TIP3    H1 3192   0.943   5.170   1.680
 1076TIP3    H2 3193   0.957   5.019   1.681
 1077TIP3   OH2 3194   1.942   1.041   0.671
 1077TIP3    H1 3195   1.988   1.073   0.748
 1077TIP3    H2 3196   2.009   1.036   0.603
 1078TIP3   OH2 3197   3.021   3.325   0.627
 1078TIP3    H1 3198   3.066   3.405   0.653
 1078TIP3    H2 3199   2.928   3.348   0.628
 1079TIP3   OH2 3200   0.068   3.329   4.951
 1079TIP3    H1 3201   0.132   3.360   5.015
 1079TIP3    H2 3202   0.008   3.404   4.940
 1080TIP3   OH2 3203   1.404   1.136   5.155
 1080TIP3    H1 3204   1.421   1.180   5.071
 1080TIP3    H2 3205   1.365   1.052   5.130
 1081TIP3   OH2 3206   5.364   6.535   4.119
 1081TIP3    H1 3207   5.284   6.587   4.122
 1081TIP3    H2 3208   5.360   6.489   4.036
 1082TIP3   OH2 3209   1.579   4.871   2.988
 1082TIP3    H1 3210   1.521   4.795   2.991
 1082TIP3    H2 3211   1.531   4.936   2.937
 1083TIP3   OH2 3212   1.974   2.823   0.642
 1083TIP3    H1 3213   1.909   2.811   0.711
 1083TIP3    H2 3214   2.041   2.757   0.660
 1084TIP3   OH2 3215   6.265   5.925   4.083
 1084TIP3    H1 3216   6.211   5.950   4.007
 1084TIP3    H2 3217   6.287   5.833   4.066
 1085TIP3   OH2 3218   1.289   5.694   3.708
 1085TIP3    H1 3219   1.260   5.684   3.799
 1085TIP3    H2 3220   1.259   5.614   3.665
 1086TIP3   OH2 3221   2.559   4.895   3.607
 1086TIP3    H1 3222   2.592   4.985   3.601
 1086TIP3    H2 3223   2.515   4.891   3.692
 1087TIP3   OH2 3224   6.004   3.645   5.058
 1087TIP3    H1 3225   6.047   3.564   5.086
 1087TIP3    H2 3226   5.969   3.682   5.139
 1088TIP3   OH2 3227   6.674   3.456   5.225
 1088TIP3    H1 3228   6.741   3.506   5.270
 1088TIP3    H2 3229   6.593   3.475   5.273
 1089TIP3   OH2 3230   0.569   1.631   2.412
 1089TIP3    H1 3231   0.594   1.557   2.357
 1089TIP3    H2 3232   0.651   1.661   2.451
 1090TIP3   OH2 3233   2.817   0.602   2.540
 1090TIP3    H1 3234   2.816   0.556   2.456
 1090TIP3    H2 3235   2.767   0.545   2.599
 1091TIP3   OH2 3236   1.383   0.524   1.482
 1091TIP3    H1 3237   1.352   0.549   1.569
 1091TIP3    H2 3238   1.473   0.557   1.478
 1092TIP3   OH2 3239   6.936   5.000   1.849
 1092TIP3    H1 3240   7.014   4.953   1.878
 1092TIP3    H2 3241   6.960   5.037   1.764
 1093TIP3   OH2 3242   1.238   1.966   3.277
 1093TIP3    H1 3243   1.170   2.024   3.311
 1093TIP3    H2 3244   1.287   2.021   3.215
 1094TIP3   OH2 3245   3.594   5.971   2.724
 1094TIP3    H1 3246   3.554   6.026   2.791
 1094TIP3    H2 3247   3.529   5.966   2.654
 1095TIP3   OH2 3248   1.419   1.995   5.549
 1095TIP3    H1 3249   1.503   2.013   5.506
 1095TIP3    H2 3250   1.378   1.928   5.495
 1096TIP3   OH2 3251   1.469   6.308   3.962
 1096TIP3    H1 3252   1.412   6.381   3.985
 1096TIP3    H2 3253   1.515   6.286   4.043
 1097TIP3   OH2 3254   4.227   2.588   1.298
 1097TIP3    H1 3255   4.170   2.662   1.317
 1097TIP3    H2 3256   4.308   2.628   1.265
 1098TIP3   OH2 3257   1.060   6.380   3.416
 1098TIP3    H1 3258   0.965   6.386   3.425
 1098TIP3    H2 3259   1.090   6.471   3.421
 1099TIP3   OH2 3260   3.030   5.820   4.572
 1099TIP3    H1 3261   3.068   5.856   4.653
 1099TIP3    H2 3262   2.955   5.768   4.602
 1100TIP3   OH2 3263   5.745   6.515   4.334
 1100TIP3    H1 3264   5.731   6.429   4.294
 1100TIP3    H2 3265   5.778   6.569   4.263
 1101TIP3   OH2 3266   5.788   1.283   5.406
 1101TIP3    H1 3267   5.831   1.360   5.441
 1101TIP3    H2 3268   5.858   1.219   5.396
 1102TIP3   OH2 3269   0.450   6.117   1.794
 1102TIP3    H1 3270   0.469   6.065   1.872
 1102TIP3    H2 3271   0.354   6.119   1.789
 1103TIP3   OH2 3272   3.586   0.612   4.379
 1103TIP3    H1 3273   3.551   0.628   4.291
 1103TIP3    H2 3274   3.577   0.696   4.424
 1104TIP3   OH2 3275   1.143   1.197   4.928
 1104TIP3    H1 3276   1.086   1.205   4.851
 1104TIP3    H2 3277   1.127   1.277   4.978
 1105TIP3   OH2 3278   6.934   3.507   1.582
 1105TIP3    H1 3279   6.991   3.431   1.599
 1105TIP3    H2 3280   6.871   3.505   1.654
 1106TIP3   OH2 3281   4.259   4.256   0.507
 1106TIP3    H1 3282   4.195   4.290   0.444
 1106TIP3    H2 3283   4.270   4.164   0.483
 1107TIP3   OH2 3284   4.889   4.434   3.627
 1107TIP3    H1 3285   4.869   4.342   3.647
 1107TIP3    H2 3286   4.803   4.476   3.626
 1108TIP3   OH2 3287   2.410   4.824   3.355
 1108TIP3    H1 3288   2.335   4.883   3.344
 1108TIP3    H2 3289   2.459   4.862   3.428
 1109TIP3   OH2 3290   4.210   1.418   0.502
 1109TIP3    H1 3291   4.122   1.456   0.511
 1109TIP3    H2 3292   4.200   1.328   0.532
 1110TIP3   OH2 3293   7.079   0.209   3.361
 1110TIP3    H1 3294   6.997   0.186   3.318
 1110TIP3    H2 3295   7.143   0.216   3.290
 1111TIP3   OH2 3296   4.197   0.324   1.325
 1111TIP3    H1 3297   4.276   0.377   1.334
 1111TIP3    H2 3298   4.219   0.257   1.261
 1112TIP3   OH2 3299   0.600   4.146   2.738
 1112TIP3    H1 3300   0.584   4.163   2.645
 1112TIP3    H2 3301   0.621   4.232   2.775
 1113TIP3   OH2 3302   3.420   0.419   2.255
 1113TIP3    H1 3303   3.463   0.462   2.181
 1113TIP3    H2 3304   3.342   0.379   2.218
 1114TIP3   OH2 3305   0.942   6.051   5.527
 1114TIP3    H1 3306   0.901   6.132   5.498
 1114TIP3    H2 3307   0.870   5.994   5.551
 1115TIP3   OH2 3308   1.235   4.564   4.416
 1115TIP3    H1 3309   1.202   4.550   4.504
 1115TIP3    H2 3310   1.314   4.511   4.411
 1116TIP3   OH2 3311   2.516   3.972   1.438
 1116TIP3    H1 3312   2.554   3.942   1.520
 1116TIP3    H2 3313   2.427   3.998   1.459
 1117TIP3   OH2 3314   4.929   6.329   4.214
 1117TIP3    H1 3315   4.943   6.278   4.134
 1117TIP3    H2 3316   5.005   6.309   4.268
 1118TIP3   OH2 3317   2.635   2.154   3.030
 1118TIP3    H1 3318   2.592   2.209   2.964
 1118TIP3    H2 3319   2.604   2.188   3.114
 1119TIP3   OH2 3320   3.899   5.938   1.005
 1119TIP3    H1 3321   3.885   5.874   1.075
 1119TIP3    H2 3322   3.817   5.988   1.002
 1120TIP3   OH2 3323   1.164   6.407   4.873
 1120TIP3    H1 3324   1.193   6.449   4.792
 1120TIP3    H2 3325   1.167   6.313   4.854
 1121TIP3   OH2 3326   0.063   5.606   5.109
 1121TIP3    H1 3327   0.117   5.654   5.046
 1121TIP3    H2 3328   0.066   5.659   5.189
 1122TIP3   OH2 3329   5.555   2.256   0.284
 1122TIP3    H1 3330   5.528   2.214   0.202
 1122TIP3    H2 3331   5.480   2.245   0.342
 1123TIP3   OH2 3332   4.801   3.071   5.182
 1123TIP3    H1 3333   4.847   3.013   5.122
 1123TIP3    H2 3334   4.748   3.128   5.126
 1124TIP3   OH2 3335   0.663   0.891   0.955
 1124TIP3    H1 3336   0.650   0.920   0.865
 1124TIP3    H2 3337   0.656   0.795   0.951
 1125TIP3   OH2 3338   7.052   1.532   5.203
 1125TIP3    H1 3339   7.108   1.562   5.275
 1125TIP3    H2 3340   7.112   1.488   5.142
 1126TIP3   OH2 3341   5.838   6.365   2.024
 1126TIP3    H1 3342   5.795   6.282   2.003
 1126TIP3    H2 3343   5.904   6.375   1.955
 1127TIP3   OH2 3344   6.545   1.672   4.906
 1127TIP3    H1 3345   6.530   1.657   4.813
 1127TIP3    H2 3346   6.593   1.594   4.935
 1128TIP3   OH2 3347   1.262   0.285   3.088
 1128TIP3    H1 3348   1.243   0.347   3.159
 1128TIP3    H2 3349   1.262   0.199   3.130
 1129TIP3   OH2 3350   3.397   1.670   5.065
 1129TIP3    H1 3351   3.390   1.647   5.157
 1129TIP3    H2 3352   3.446   1.752   5.064
 1130TIP3   OH2 3353   4.912   5.639   3.299
 1130TIP3    H1 3354   4.873   5.649   3.386
 1130TIP3    H2 3355   4.901   5.724   3.257
 1131TIP3   OH2 3356   2.802   0.477   1.123
 1131TIP3    H1 3357   2.823   0.384   1.119
 1131TIP3    H2 3358   2.815   0.509   1.033
 1132TIP3   OH2 3359   5.589   2.888   4.744
 1132TIP3    H1 3360   5.678   2.881   4.710
 1132TIP3    H2 3361   5.574   2.805   4.789
 1133TIP3   OH2 3362   0.038   6.566   2.153
 1133TIP3    H1 3363  -0.034   6.586   2.213
 1133TIP3    H2 3364   0.113   6.614   2.189
 1134TIP3   OH2 3365   6.976   3.357   1.176
 1134TIP3    H1 3366   6.998   3.299   1.248
 1134TIP3    H2 3367   6.911   3.309   1.125
 1135TIP3   OH2 3368   5.520   0.859   2.692
 1135TIP3    H1 3369   5.429   0.889   2.697
 1135TIP3    H2 3370   5.535   0.816   2.776
 1136TIP3   OH2 3371   4.237   3.478   0.200
 1136TIP3    H1 3372   4.198   3.541   0.261
 1136TIP3    H2 3373   4.260   3.403   0.255
 1137TIP3   OH2 3374   3.968   4.094   0.555
 1137TIP3    H1 3375   4.048   4.045   0.576
 1137TIP3    H2 3376   3.898   4.029   0.563
 1138TIP3   OH2 3377   5.639   2.309   1.347
 1138TIP3    H1 3378   5.577   2.255   1.396
 1138TIP3    H2 3379   5.623   2.287   1.256
 1139TIP3   OH2 3380   5.021   2.299   0.129
 1139TIP3    H1 3381   5.085   2.255   0.073
 1139TIP3    H2 3382   4.962   2.229   0.157
 1140TIP3   OH2 3383   3.772   0.894   0.869
 1140TIP3    H1 3384   3.748   0.860   0.783
 1140TIP3    H2 3385   3.774   0.817   0.926
 1141TIP3   OH2 3386   0.840   0.085   0.613
 1141TIP3    H1 3387   0.921   0.110   0.569
 1141TIP3    H2 3388   0.771   0.111   0.553
 1142TIP3   OH2 3389   1.456   1.389   3.789
 1142TIP3    H1 3390   1.379   1.370   3.735
 1142TIP3    H2 3391   1.441   1.478   3.822
 1143TIP3   OH2 3392   2.892   6.346   3.772
 1143TIP3    H1 3393   2.969   6.377   3.821
 1143TIP3    H2 3394   2.836   6.424   3.764
 1144TIP3   OH2 3395   4.745   0.195   2.794
 1144TIP3    H1 3396   4.829   0.229   2.763
 1144TIP3    H2 3397   4.762   0.103   2.814
 1145TIP3   OH2 3398   1.500   6.050   3.090
 1145TIP3    H1 3399   1.494   6.043   3.186
 1145TIP3    H2 3400   1.410   6.038   3.059
 1146TIP3   OH2 3401   0.087   1.534   3.673
 1146TIP3    H1 3402   0.119   1.619   3.644
 1146TIP3    H2 3403   0.136   1.515   3.753
 1147TIP3   OH2 3404   0.870   6.386   3.760
 1147TIP3    H1 3405   0.845   6.475   3.786
 1147TIP3    H2 3406   0.943   6.364   3.818
 1148TIP3   OH2 3407   1.247   0.387   0.219
 1148TIP3    H1 3408   1.245   0.460   0.156
 1148TIP3    H2 3409   1.161   0.388   0.259
 1149TIP3   OH2 3410   7.173   3.910   2.428
 1149TIP3    H1 3411   7.188   3.956   2.511
 1149TIP3    H2 3412   7.243   3.941   2.371
 1150TIP3   OH2 3413   1.468   5.939   4.451
 1150TIP3    H1 3414   1.549   5.891   4.435
 1150TIP3    H2 3415   1.449   5.983   4.368
 1151TIP3   OH2 3416   6.257   3.886   0.013
 1151TIP3    H1 3417   6.223   3.935  -0.062
 1151TIP3    H2 3418   6.260   3.950   0.084
 1152TIP3   OH2 3419   5.571   6.774   0.260
 1152TIP3    H1 3420   5.550   6.748   0.170
 1152TIP3    H2 3421   5.612   6.697   0.298
 1153TIP3   OH2 3422   4.081   4.514   4.711
 1153TIP3    H1 3423   4.116   4.568   4.641
 1153TIP3    H2 3424   4.004   4.561   4.742
 1154TIP3   OH2 3425   2.698   1.526   5.025
 1154TIP3    H1 3426   2.636   1.459   4.996
 1154TIP3    H2 3427   2.773   1.477   5.057
 1155TIP3   OH2 3428   2.581   0.096   1.763
 1155TIP3    H1 3429   2.635   0.060   1.833
 1155TIP3    H2 3430   2.621   0.180   1.742
 1156TIP3   OH2 3431   4.396   0.815   3.572
 1156TIP3    H1 3432   4.345   0.796   3.650
 1156TIP3    H2 3433   4.395   0.733   3.522
 1157TIP3   OH2 3434   2.502   1.530   3.192
 1157TIP3    H1 3435   2.575   1.470   3.206
 1157TIP3    H2 3436   2.474   1.555   3.281
 1158TIP3   OH2 3437   2.490   2.584   4.605
 1158TIP3    H1 3438   2.467   2.618   4.691
 1158TIP3    H2 3439   2.439   2.503   4.597
 1159TIP3   OH2 3440   6.463   2.766   4.559
 1159TIP3    H1 3441   6.465   2.764   4.654
 1159TIP3    H2 3442   6.444   2.676   4.533
 1160TIP3   OH2 3443   3.248   6.356   2.421
 1160TIP3    H1 3444   3.306   6.292   2.381
 1160TIP3    H2 3445   3.275   6.440   2.383
 1161TIP3   OH2 3446   6.431   4.644   3.777
 1161TIP3    H1 3447   6.522   4.674   3.772
 1161TIP3    H2 3448   6.423   4.580   3.707
 1162TIP3   OH2 3449   0.376   4.457   1.143
 1162TIP3    H1 3450   0.283   4.478   1.132
 1162TIP3    H2 3451   0.415   4.538   1.177
 1163TIP3   OH2 3452   3.634   3.623   3.156
 1163TIP3    H1 3453   3.656   3.667   3.239
 1163TIP3    H2 3454   3.657   3.531   3.171
 1164TIP3   OH2 3455   1.159   2.798   5.850
 1164TIP3    H1 3456   1.201   2.882   5.870
 1164TIP3    H2 3457   1.218   2.755   5.788
 1165TIP3   OH2 3458   5.203   3.404   5.482
 1165TIP3    H1 3459   5.191   3.333   5.418
 1165TIP3    H2 3460   5.131   3.392   5.544
 1166TIP3   OH2 3461   4.649   3.003   3.971
 1166TIP3    H1 3462   4.622   2.911   3.969
 1166TIP3    H2 3463   4.681   3.020   3.882
 1167TIP3   OH2 3464   3.130   2.584   4.693
 1167TIP3    H1 3465   3.042   2.617   4.709
 1167TIP3    H2 3466   3.121   2.488   4.697
 1168TIP3   OH2 3467   0.206   0.888   2.988
 1168TIP3    H1 3468   0.190   0.849   2.902
 1168TIP3    H2 3469   0.188   0.817   3.050
 1169TIP3   OH2 3470   4.874   4.727   4.568
 1169TIP3    H1 3471   4.889   4.821   4.557
 1169TIP3    H2 3472   4.806   4.722   4.636
 1170TIP3   OH2 3473   2.017   2.640   2.142
 1170TIP3    H1 3474   1.999   2.734   2.145
 1170TIP3    H2 3475   2.050   2.619   2.230
 1171TIP3   OH2 3476   4.185   0.607   2.985
 1171TIP3    H1 3477   4.232   0.644   3.061
 1171TIP3    H2 3478   4.237   0.634   2.910
 1172TIP3   OH2 3479   3.776   3.360   3.027
 1172TIP3    H1 3480   3.772   3.353   3.123
 1172TIP3    H2 3481   3.823   3.442   3.011
 1173TIP3   OH2 3482   2.613   5.516   5.755
 1173TIP3    H1 3483   2.689   5.474   5.715
 1173TIP3    H2 3484   2.568   5.446   5.802
 1174TIP3   OH2 3485   1.203   6.411   5.851
 1174TIP3    H1 3486   1.142   6.482   5.866
 1174TIP3    H2 3487   1.215   6.409   5.756
 1175TIP3   OH2 3488   1.409   0.108   4.758
 1175TIP3    H1 3489   1.469   0.174   4.722
 1175TIP3    H2 3490   1.423   0.031   4.703
 1176TIP3   OH2 3491   1.856   2.452   3.000
 1176TIP3    H1 3492   1.822   2.541   2.990
 1176TIP3    H2 3493   1.945   2.463   3.033
 1177TIP3   OH2 3494   1.815   0.954   3.926
 1177TIP3    H1 3495   1.847   0.945   3.837
 1177TIP3    H2 3496   1.754   1.028   3.922
 1178TIP3   OH2 3497   1.608   1.540   3.534
 1178TIP3    H1 3498   1.531   1.580   3.576
 1178TIP3    H2 3499   1.576   1.456   3.500
 1179TIP3   OH2 3500   2.321   1.705   5.823
 1179TIP3    H1 3501   2.335   1.778   5.763
 1179TIP3    H2 3502   2.261   1.740   5.889
 1180TIP3   OH2 3503   1.532   5.878   4.836
 1180TIP3    H1 3504   1.532   5.957   4.781
 1180TIP3    H2 3505   1.586   5.815   4.788
 1181TIP3   OH2 3506   1.062   3.941   0.626
 1181TIP3    H1 3507   0.980   3.905   0.592
 1181TIP3    H2 3508   1.034   3.999   0.697
 1182TIP3   OH2 3509   4.550   6.759   1.191
 1182TIP3    H1 3510   4.530   6.853   1.190
 1182TIP3    H2 3511   4.602   6.747   1.271
 1183TIP3   OH2 3512   3.715   5.279   0.159
 1183TIP3    H1 3513   3.621   5.276   0.142
 1183TIP3    H2 3514   3.734   5.198   0.206
 1184TIP3   OH2 3515   0.978   2.847   2.558
 1184TIP3    H1 3516   0.940   2.918   2.610
 1184TIP3    H2 3517   0.980   2.772   2.617
 1185TIP3   OH2 3518   5.635   5.123   0.072
 1185TIP3    H1 3519   5.660   5.173   0.150
 1185TIP3    H2 3520   5.683   5.164   0.000
 1186TIP3   OH2 3521   5.088   3.658   2.931
 1186TIP3    H1 3522   5.172   3.616   2.949
 1186TIP3    H2 3523   5.111   3.743   2.894
 1187TIP3   OH2 3524   6.217   1.422   2.379
 1187TIP3    H1 3525   6.243   1.513   2.364
 1187TIP3    H2 3526   6.299   1.375   2.390
 1188TIP3   OH2 3527   6.547   6.398   1.440
 1188TIP3    H1 3528   6.564   6.480   1.487
 1188TIP3    H2 3529   6.608   6.335   1.478
 1189TIP3   OH2 3530   0.206   5.830   2.060
 1189TIP3    H1 3531   0.180   5.781   1.982
 1189TIP3    H2 3532   0.125   5.843   2.110
 1190TIP3   OH2 3533   5.678   3.979   5.518
 1190TIP3    H1 3534   5.706   3.997   5.428
 1190TIP3    H2 3535   5.716   4.050   5.570
 1191TIP3   OH2 3536   0.671   5.980   0.347
 1191TIP3    H1 3537   0.591   5.927   0.357
 1191TIP3    H2 3538   0.720   5.937   0.277
 1192TIP3   OH2 3539   5.673   0.292   1.039
 1192TIP3    H1 3540   5.635   0.370   1.079
 1192TIP3    H2 3541   5.606   0.259   0.980
 1193TIP3   OH2 3542   4.815   4.338   0.652
 1193TIP3    H1 3543   4.748   4.405   0.639
 1193TIP3    H2 3544   4.767   4.263   0.688
 1194TIP3   OH2 3545   6.057   3.706   1.908
 1194TIP3    H1 3546   6.120   3.773   1.882
 1194TIP3    H2 3547   6.106   3.624   1.905
 1195TIP3   OH2 3548   0.226   4.994   2.109
 1195TIP3    H1 3549   0.305   5.046   2.099
 1195TIP3    H2 3550   0.154   5.054   2.090
 1196TIP3   OH2 3551   5.746   0.736   2.178
 1196TIP3    H1 3552   5.749   0.686   2.096
 1196TIP3    H2 3553   5.655   0.762   2.187
 1197TIP3   OH2 3554   4.351   3.322   3.031
 1197TIP3    H1 3555   4.433   3.303   2.986
 1197TIP3    H2 3556   4.313   3.235   3.048
 1198TIP3   OH2 3557   0.927   3.318   1.266
 1198TIP3    H1 3558   0.856   3.278   1.316
 1198TIP3    H2 3559   0.905   3.301   1.175
 1199TIP3   OH2 3560   4.665   0.807   0.489
 1199TIP3    H1 3561   4.702   0.893   0.469
 1199TIP3    H2 3562   4.714   0.778   0.566
 1200TIP3   OH2 3563   0.129   3.430   3.711
 1200TIP3    H1 3564   0.071   3.369   3.756
 1200TIP3    H2 3565   0.171   3.479   3.782
 1201TIP3   OH2 3566   5.204   4.407   4.739
 1201TIP3    H1 3567   5.118   4.399   4.699
 1201TIP3    H2 3568   5.260   4.439   4.668
 1202TIP3   OH2 3569   2.961   4.422   0.418
 1202TIP3    H1 3570   2.970   4.477   0.496
 1202TIP3    H2 3571   2.971   4.333   0.451
 1203TIP3   OH2 3572   0.766   5.062   4.679
 1203TIP3    H1 3573   0.750   5.022   4.765
 1203TIP3    H2 3574   0.763   5.156   4.695
 1204TIP3   OH2 3575   3.574   3.260   2.863
 1204TIP3    H1 3576   3.555   3.202   2.937
 1204TIP3    H2 3577   3.655   3.305   2.888
 1205TIP3   OH2 3578   4.445   5.130   2.188
 1205TIP3    H1 3579   4.464   5.200   2.251
 1205TIP3    H2 3580   4.497   5.056   2.219
 1206TIP3   OH2 3581   2.798   3.306   1.212
 1206TIP3    H1 3582   2.854   3.243   1.166
 1206TIP3    H2 3583   2.713   3.298   1.169
 1207TIP3   OH2 3584   3.586   5.313   3.704
 1207TIP3    H1 3585   3.646   5.366   3.757
 1207TIP3    H2 3586   3.630   5.305   3.620
 1208TIP3   OH2 3587   1.699   1.449   4.839
 1208TIP3    H1 3588   1.751   1.504   4.781
 1208TIP3    H2 3589   1.758   1.428   4.912
 1209TIP3   OH2 3590   3.408   6.136   3.422
 1209TIP3    H1 3591   3.431   6.044   3.435
 1209TIP3    H2 3592   3.489   6.177   3.391
 1210TIP3   OH2 3593   4.166   2.643   4.901
 1210TIP3    H1 3594   4.199   2.555   4.887
 1210TIP3    H2 3595   4.079   2.643   4.863
 1211TIP3   OH2 3596   0.550   2.424   4.368
 1211TIP3    H1 3597   0.472   2.451   4.417
 1211TIP3    H2 3598   0.623   2.463   4.416
 1212TIP3   OH2 3599   6.029   1.970   4.306
 1212TIP3    H1 3600   6.083   2.048   4.319
 1212TIP3    H2 3601   6.080   1.915   4.246
 1213TIP3   OH2 3602   2.817   4.068   2.093
 1213TIP3    H1 3603   2.812   4.031   2.004
 1213TIP3    H2 3604   2.759   4.144   2.090
 1214TIP3   OH2 3605   0.061   1.904   5.744
 1214TIP3    H1 3606   0.096   1.837   5.686
 1214TIP3    H2 3607   0.096   1.882   5.830
 1215TIP3   OH2 3608   4.383   2.215   3.118
 1215TIP3    H1 3609   4.347   2.299   3.090
 1215TIP3    H2 3610   4.397   2.226   3.213
 1216TIP3   OH2 3611   4.717   1.938   0.778
 1216TIP3    H1 3612   4.710   1.965   0.870
 1216TIP3    H2 3613   4.688   2.015   0.729
 1217TIP3   OH2 3614   2.769   3.488   5.512
 1217TIP3    H1 3615   2.835   3.557   5.518
 1217TIP3    H2 3616   2.731   3.499   5.425
 1218TIP3   OH2 3617   2.868   5.647   1.496
 1218TIP3    H1 3618   2.912   5.584   1.439
 1218TIP3    H2 3619   2.821   5.594   1.560
 1219TIP3   OH2 3620   2.842   0.181   3.617
 1219TIP3    H1 3621   2.871   0.238   3.546
 1219TIP3    H2 3622   2.922   0.136   3.645
 1220TIP3   OH2 3623   0.694   4.678   0.328
 1220TIP3    H1 3624   0.640   4.601   0.310
 1220TIP3    H2 3625   0.660   4.713   0.410
 1221TIP3   OH2 3626   5.796   4.717   3.171
 1221TIP3    H1 3627   5.749   4.792   3.136
 1221TIP3    H2 3628   5.881   4.719   3.127
 1222TIP3   OH2 3629   4.596   6.141   5.351
 1222TIP3    H1 3630   4.506   6.121   5.374
 1222TIP3    H2 3631   4.644   6.135   5.434
 1223TIP3   OH2 3632   3.084   4.360   3.652
 1223TIP3    H1 3633   3.082   4.266   3.637
 1223TIP3    H2 3634   2.995   4.383   3.678
 1224TIP3   OH2 3635   1.917   5.125   3.545
 1224TIP3    H1 3636   1.979   5.120   3.619
 1224TIP3    H2 3637   1.881   5.036   3.539
 1225TIP3   OH2 3638   4.939   2.594   5.040
 1225TIP3    H1 3639   4.877   2.565   4.972
 1225TIP3    H2 3640   4.983   2.670   5.002
 1226TIP3   OH2 3641   4.292   0.652   0.863
 1226TIP3    H1 3642   4.377   0.689   0.840
 1226TIP3    H2 3643   4.313   0.570   0.909
 1227TIP3   OH2 3644   7.175   0.040   2.038
 1227TIP3    H1 3645   7.154  -0.053   2.039
 1227TIP3    H2 3646   7.238   0.052   2.110
 1228TIP3   OH2 3647   3.896   5.599   5.812
 1228TIP3    H1 3648   3.801   5.603   5.799
 1228TIP3    H2 3649   3.923   5.689   5.825
 1229TIP3   OH2 3650   5.429   3.422   3.485
 1229TIP3    H1 3651   5.358   3.427   3.420
 1229TIP3    H2 3652   5.436   3.328   3.504
 1230TIP3   OH2 3653   2.841   1.520   2.255
 1230TIP3    H1 3654   2.783   1.555   2.324
 1230TIP3    H2 3655   2.823   1.426   2.254
 1231TIP3   OH2 3656   1.080   3.309   5.079
 1231TIP3    H1 3657   1.059   3.222   5.046
 1231TIP3    H2 3658   1.012   3.328   5.144
 1232TIP3   OH2 3659   0.860   4.659   2.579
 1232TIP3    H1 3660   0.900   4.606   2.648
 1232TIP3    H2 3661   0.810   4.725   2.626
 1233TIP3   OH2 3662   6.364   1.516   3.065
 1233TIP3    H1 3663   6.444   1.566   3.082
 1233TIP3    H2 3664   6.293   1.577   3.081
 1234TIP3   OH2 3665   6.427   2.074   5.046
 1234TIP3    H1 3666   6.401   2.086   4.955
 1234TIP3    H2 3667   6.468   1.987   5.048
 1235TIP3   OH2 3668   3.997   3.604   4.094
 1235TIP3    H1 3669   4.073   3.585   4.149
 1235TIP3    H2 3670   3.985   3.698   4.101
 1236TIP3   OH2 3671   6.192   2.897   1.379
 1236TIP3    H1 3672   6.098   2.913   1.382
 1236TIP3    H2 3673   6.229   2.979   1.346
 1237TIP3   OH2 3674   4.118   1.309   3.237
 1237TIP3    H1 3675   4.068   1.227   3.235
 1237TIP3    H2 3676   4.122   1.333   3.330
 1238TIP3   OH2 3677   2.446   5.284   1.896
 1238TIP3    H1 3678   2.457   5.253   1.986
 1238TIP3    H2 3679   2.413   5.373   1.906
 1239TIP3   OH2 3680   3.139   6.078   2.463
 1239TIP3    H1 3681   3.158   6.059   2.371
 1239TIP3    H2 3682   3.166   6.169   2.475
 1240TIP3   OH2 3683   5.375   1.429   3.658
 1240TIP3    H1 3684   5.401   1.466   3.742
 1240TIP3    H2 3685   5.283   1.452   3.649
 1241TIP3   OH2 3686   2.151   2.600   0.676
 1241TIP3    H1 3687   2.090   2.540   0.719
 1241TIP3    H2 3688   2.191   2.648   0.748
 1242TIP3   OH2 3689   4.006   0.435   2.721
 1242TIP3    H1 3690   4.084   0.460   2.671
 1242TIP3    H2 3691   4.007   0.491   2.798
 1243TIP3   OH2 3692   5.121   2.080   5.109
 1243TIP3    H1 3693   5.201   2.028   5.100
 1243TIP3    H2 3694   5.070   2.061   5.030
 1244TIP3   OH2 3695   5.860   5.117   5.684
 1244TIP3    H1 3696   5.765   5.111   5.682
 1244TIP3    H2 3697   5.881   5.195   5.633
 1245TIP3   OH2 3698   2.922   6.415   0.030
 1245TIP3    H1 3699   2.859   6.346   0.048
 1245TIP3    H2 3700   2.980   6.414   0.106
 1246TIP3   OH2 3701   2.246   1.487   2.105
 1246TIP3    H1 3702   2.271   1.467   2.196
 1246TIP3    H2 3703   2.169   1.432   2.089
 1247TIP3   OH2 3704   4.421   5.616   5.649
 1247TIP3    H1 3705   4.467   5.655   5.723
 1247TIP3    H2 3706   4.396   5.529   5.680
 1248TIP3   OH2 3707   2.019   5.393   5.277
 1248TIP3    H1 3708   2.068   5.433   5.349
 1248TIP3    H2 3709   2.004   5.465   5.216
 1249TIP3   OH2 3710   1.017   0.034   3.560
 1249TIP3    H1 3711   1.088  -0.023   3.589
 1249TIP3    H2 3712   0.958   0.039   3.636
 1250TIP3   OH2 3713   5.898   6.070   3.095
 1250TIP3    H1 3714   5.894   6.118   3.012
 1250TIP3    H2 3715   5.968   6.114   3.144
 1251TIP3   OH2 3716   0.043   5.796   5.327
 1251TIP3    H1 3717  -0.017   5.779   5.400
 1251TIP3    H2 3718   0.020   5.884   5.298
 1252TIP3   OH2 3719   6.475   3.681   0.598
 1252TIP3    H1 3720   6.563   3.666   0.562
 1252TIP3    H2 3721   6.438   3.750   0.543
 1253TIP3   OH2 3722   3.967   4.349   0.692
 1253TIP3    H1 3723   3.902   4.325   0.758
 1253TIP3    H2 3724   3.998   4.266   0.657
 1254TIP3   OH2 3725   1.547   4.454   0.215
 1254TIP3    H1 3726   1.577   4.542   0.235
 1254TIP3    H2 3727   1.477   4.437   0.278
 1255TIP3   OH2 3728   3.215   0.528   3.431
 1255TIP3    H1 3729   3.253   0.494   3.350
 1255TIP3    H2 3730   3.193   0.619   3.412
 1256TIP3   OH2 3731   2.028   5.722   2.575
 1256TIP3    H1 3732   2.003   5.631   2.588
 1256TIP3    H2 3733   2.123   5.721   2.570
 1257TIP3   OH2 3734   3.744   0.996   1.864
 1257TIP3    H1 3735   3.820   1.005   1.807
 1257TIP3    H2 3736   3.781   0.998   1.953
 1258TIP3   OH2 3737   2.834   1.071   5.155
 1258TIP3    H1 3738   2.885   1.069   5.074
 1258TIP3    H2 3739   2.858   1.153   5.197
 1259TIP3   OH2 3740   1.023   5.531   3.672
 1259TIP3    H1 3741   1.006   5.622   3.647
 1259TIP3    H2 3742   1.018   5.530   3.767
 1260TIP3   OH2 3743   2.613   6.004   3.251
 1260TIP3    H1 3744   2.679   5.991   3.183
 1260TIP3    H2 3745   2.561   6.078   3.219
 1261TIP3   OH2 3746   3.822   2.726   1.739
 1261TIP3    H1 3747   3.839   2.808   1.693
 1261TIP3    H2 3748   3.842   2.658   1.675
 1262TIP3   OH2 3749   2.784   6.815   1.432
 1262TIP3    H1 3750   2.745   6.783   1.513
 1262TIP3    H2 3751   2.839   6.743   1.402
 1263TIP3   OH2 3752   2.050   1.054   3.297
 1263TIP3    H1 3753   2.136   1.023   3.266
 1263TIP3    H2 3754   2.002   1.072   3.217
 1264TIP3   OH2 3755   3.026   2.730   0.277
 1264TIP3    H1 3756   3.067   2.804   0.320
 1264TIP3    H2 3757   2.936   2.758   0.260
 1265TIP3   OH2 3758   0.460   3.355   0.664
 1265TIP3    H1 3759   0.436   3.292   0.732
 1265TIP3    H2 3760   0.383   3.411   0.655
 1266TIP3   OH2 3761   3.908   3.874   4.142
 1266TIP3    H1 3762   3.832   3.910   4.186
 1266TIP3    H2 3763   3.899   3.902   4.051
 1267TIP3   OH2 3764   5.884   2.805   5.344
 1267TIP3    H1 3765   5.804   2.764   5.377
 1267TIP3    H2 3766   5.872   2.810   5.249
 1268TIP3   OH2 3767   5.423   3.572   5.091
 1268TIP3    H1 3768   5.468   3.490   5.109
 1268TIP3    H2 3769   5.462   3.603   5.009
 1269TIP3   OH2 3770   2.559   2.208   1.484
 1269TIP3    H1 3771   2.536   2.255   1.563
 1269TIP3    H2 3772   2.530   2.118   1.499
 1270TIP3   OH2 3773   3.974   2.476   3.036
 1270TIP3    H1 3774   3.926   2.484   3.119
 1270TIP3    H2 3775   4.017   2.560   3.025
 1271TIP3   OH2 3776   3.671   3.377   1.663
 1271TIP3    H1 3777   3.596   3.357   1.607
 1271TIP3    H2 3778   3.633   3.420   1.739
 1272TIP3   OH2 3779   4.044   5.399   2.891
 1272TIP3    H1 3780   4.110   5.344   2.933
 1272TIP3    H2 3781   4.008   5.345   2.822
 1273TIP3   OH2 3782   1.994   1.245   3.819
 1273TIP3    H1 3783   2.020   1.200   3.739
 1273TIP3    H2 3784   1.906   1.278   3.801
 1274TIP3   OH2 3785   6.542   5.696   0.339
 1274TIP3    H1 3786   6.605   5.767   0.355
 1274TIP3    H2 3787   6.586   5.640   0.274
 1275TIP3   OH2 3788   2.946   5.887   1.003
 1275TIP3    H1 3789   2.926   5.958   0.942
 1275TIP3    H2 3790   3.029   5.851   0.972
 1276TIP3   OH2 3791   4.696   1.790   4.034
 1276TIP3    H1 3792   4.668   1.817   4.122
 1276TIP3    H2 3793   4.664   1.860   3.977
 1277TIP3   OH2 3794   3.875   2.991   1.653
 1277TIP3    H1 3795   3.878   3.039   1.736
 1277TIP3    H2 3796   3.954   3.017   1.606
 1278TIP3   OH2 3797   6.536   4.364   4.262
 1278TIP3    H1 3798   6.570   4.417   4.334
 1278TIP3    H2 3799   6.477   4.422   4.214
 1279TIP3   OH2 3800   6.465   3.923   4.105
 1279TIP3    H1 3801   6.557   3.898   4.099
 1279TIP3    H2 3802   6.465   4.018   4.100
 1280TIP3   OH2 3803   3.346   0.190   2.805
 1280TIP3    H1 3804   3.415   0.133   2.770
 1280TIP3    H2 3805   3.343   0.264   2.744
 1281TIP3   OH2 3806   0.473   4.565   0.134
 1281TIP3    H1 3807   0.435   4.652   0.122
 1281TIP3    H2 3808   0.499   4.539   0.046
 1282TIP3   OH2 3809   5.018   2.390   4.233
 1282TIP3    H1 3810   5.066   2.328   4.179
 1282TIP3    H2 3811   5.071   2.470   4.232
 1283TIP3   OH2 3812   4.212   4.594   4.988
 1283TIP3    H1 3813   4.136   4.605   4.931
 1283TIP3    H2 3814   4.187   4.523   5.047
 1284TIP3   OH2 3815   0.436   4.269   5.123
 1284TIP3    H1 3816   0.507   4.282   5.060
 1284TIP3    H2 3817   0.372   4.337   5.100
 1285TIP3   OH2 3818   5.517   2.072   3.400
 1285TIP3    H1 3819   5.503   2.156   3.444
 1285TIP3    H2 3820   5.451   2.069   3.331
 1286TIP3   OH2 3821   2.312   4.090   0.604
 1286TIP3    H1 3822   2.298   4.106   0.511
 1286TIP3    H2 3823   2.399   4.126   0.622
 1287TIP3   OH2 3824   4.759   5.449   4.401
 1287TIP3    H1 3825   4.757   5.502   4.321
 1287TIP3    H2 3826   4.851   5.445   4.425
 1288TIP3   OH2 3827   2.708   0.947   3.852
 1288TIP3    H1 3828   2.629   0.925   3.802
 1288TIP3    H2 3829   2.675   0.977   3.936
 1289TIP3   OH2 3830   5.886   1.403   1.728
 1289TIP3    H1 3831   5.935   1.409   1.646
 1289TIP3    H2 3832   5.948   1.364   1.790
 1290TIP3   OH2 3833   5.350   2.165   2.205
 1290TIP3    H1 3834   5.363   2.081   2.160
 1290TIP3    H2 3835   5.425   2.174   2.263
 1291TIP3   OH2 3836   5.435   6.417   0.876
 1291TIP3    H1 3837   5.351   6.435   0.833
 1291TIP3    H2 3838   5.453   6.325   0.856
 1292TIP3   OH2 3839   0.667   2.830   5.119
 1292TIP3    H1 3840   0.659   2.754   5.177
 1292TIP3    H2 3841   0.709   2.897   5.172
 1293TIP3   OH2 3842   3.692   1.490   5.716
 1293TIP3    H1 3843   3.771   1.498   5.769
 1293TIP3    H2 3844   3.676   1.578   5.682
 1294TIP3   OH2 3845   2.194   1.912   1.242
 1294TIP3    H1 3846   2.208   1.875   1.330
 1294TIP3    H2 3847   2.265   1.876   1.189
 1295TIP3   OH2 3848   4.667   1.306   2.940
 1295TIP3    H1 3849   4.753   1.340   2.965
 1295TIP3    H2 3850   4.653   1.341   2.851
 1296TIP3   OH2 3851   5.852   2.025   5.539
 1296TIP3    H1 3852   5.884   2.101   5.588
 1296TIP3    H2 3853   5.813   2.062   5.460
 1297TIP3   OH2 3854   4.499   2.699   5.578
 1297TIP3    H1 3855   4.431   2.766   5.580
 1297TIP3    H2 3856   4.529   2.692   5.668
 1298TIP3   OH2 3857   0.535   5.697   0.022
 1298TIP3    H1 3858   0.600   5.691   0.092
 1298TIP3    H2 3859   0.546   5.615  -0.028
 1299TIP3   OH2 3860   1.375   1.216   3.076
 1299TIP3    H1 3861   1.291   1.231   3.119
 1299TIP3    H2 3862   1.352   1.179   2.990
 1300TIP3   OH2 3863   4.534   4.429   5.069
 1300TIP3    H1 3864   4.479   4.374   5.014
 1300TIP3    H2 3865   4.550   4.507   5.017
 1301TIP3   OH2 3866   0.296   6.363   4.212
 1301TIP3    H1 3867   0.301   6.453   4.245
 1301TIP3    H2 3868   0.212   6.360   4.166
 1302TIP3   OH2 3869   4.652   3.798   3.233
 1302TIP3    H1 3870   4.677   3.714   3.272
 1302TIP3    H2 3871   4.723   3.857   3.256
 1303TIP3   OH2 3872   7.096   6.630   0.134
 1303TIP3    H1 3873   7.038   6.611   0.061
 1303TIP3    H2 3874   7.057   6.584   0.209
 1304TIP3   OH2 3875   4.186   5.612   1.331
 1304TIP3    H1 3876   4.219   5.603   1.242
 1304TIP3    H2 3877   4.237   5.683   1.369
 1305TIP3   OH2 3878   0.264   0.314   1.878
 1305TIP3    H1 3879   0.223   0.393   1.915
 1305TIP3    H2 3880   0.193   0.269   1.832
 1306TIP3   OH2 3881   3.304   3.656   0.603
 1306TIP3    H1 3882   3.289   3.674   0.510
 1306TIP3    H2 3883   3.376   3.714   0.627
 1307TIP3   OH2 3884   1.492   5.791   5.284
 1307TIP3    H1 3885   1.406   5.833   5.286
 1307TIP3    H2 3886   1.554   5.863   5.273
 1308TIP3   OH2 3887   4.326   1.692   2.223
 1308TIP3    H1 3888   4.291   1.698   2.133
 1308TIP3    H2 3889   4.405   1.639   2.214
 1309TIP3   OH2 3890   0.233   4.879   2.655
 1309TIP3    H1 3891   0.197   4.807   2.707
 1309TIP3    H2 3892   0.256   4.839   2.571
 1310TIP3   OH2 3893   0.189   1.799   0.171
 1310TIP3    H1 3894   0.189   1.895   0.160
 1310TIP3    H2 3895   0.217   1.766   0.085
 1311TIP3   OH2 3896   4.756   4.229   2.271
 1311TIP3    H1 3897   4.719   4.313   2.301
 1311TIP3    H2 3898   4.768   4.240   2.177
 1312TIP3   OH2 3899   6.085   0.926   5.095
 1312TIP3    H1 3900   6.124   0.839   5.088
 1312TIP3    H2 3901   6.083   0.959   5.006
 1313TIP3   OH2 3902   7.219   5.824   2.876
 1313TIP3    H1 3903   7.283   5.874   2.927
 1313TIP3    H2 3904   7.134   5.852   2.911
 1314TIP3   OH2 3905   1.789   6.552   1.350
 1314TIP3    H1 3906   1.817   6.604   1.426
 1314TIP3    H2 3907   1.869   6.508   1.321
 1315TIP3   OH2 3908   0.748   5.483   4.413
 1315TIP3    H1 3909   0.748   5.400   4.460
 1315TIP3    H2 3910   0.659   5.491   4.379
 1316TIP3   OH2 3911   0.615   2.489   0.413
 1316TIP3    H1 3912   0.571   2.530   0.339
 1316TIP3    H2 3913   0.707   2.488   0.389
 1317TIP3   OH2 3914   1.007   5.234   2.787
 1317TIP3    H1 3915   1.038   5.144   2.772
 1317TIP3    H2 3916   1.075   5.274   2.840
 1318TIP3   OH2 3917   0.397   2.529   1.917
 1318TIP3    H1 3918   0.331   2.547   1.984
 1318TIP3    H2 3919   0.445   2.453   1.951
 1319TIP3   OH2 3920   7.099   4.261   3.186
 1319TIP3    H1 3921   7.127   4.251   3.095
 1319TIP3    H2 3922   7.181   4.269   3.235
 1320TIP3   OH2 3923   1.426   1.268   2.716
 1320TIP3    H1 3924   1.379   1.351   2.709
 1320TIP3    H2 3925   1.473   1.274   2.799
 1321TIP3   OH2 3926   4.530   0.331   4.153
 1321TIP3    H1 3927   4.583   0.315   4.231
 1321TIP3    H2 3928   4.541   0.424   4.135
 1322TIP3   OH2 3929   4.739   6.193   5.121
 1322TIP3    H1 3930   4.694   6.180   5.205
 1322TIP3    H2 3931   4.811   6.131   5.122
 1323TIP3   OH2 3932   5.251   3.840   1.534
 1323TIP3    H1 3933   5.174   3.790   1.507
 1323TIP3    H2 3934   5.236   3.928   1.501
 1324TIP3   OH2 3935   2.740   3.825   0.078
 1324TIP3    H1 3936   2.732   3.893   0.012
 1324TIP3    H2 3937   2.819   3.848   0.127
 1325TIP3   OH2 3938   1.160   2.105   0.284
 1325TIP3    H1 3939   1.149   2.133   0.375
 1325TIP3    H2 3940   1.174   2.186   0.236
 1326TIP3   OH2 3941   0.286   2.542   0.978
 1326TIP3    H1 3942   0.344   2.608   1.017
 1326TIP3    H2 3943   0.318   2.459   1.013
 1327TIP3   OH2 3944   1.746   3.595   5.237
 1327TIP3    H1 3945   1.778   3.685   5.227
 1327TIP3    H2 3946   1.739   3.583   5.332
 1328TIP3   OH2 3947   5.321   5.028   3.084
 1328TIP3    H1 3948   5.331   5.083   3.007
 1328TIP3    H2 3949   5.410   5.013   3.115
 1329TIP3   OH2 3950   5.904   0.052   3.510
 1329TIP3    H1 3951   5.952   0.130   3.481
 1329TIP3    H2 3952   5.824   0.087   3.549
 1330TIP3   OH2 3953   3.471   0.287   5.336
 1330TIP3    H1 3954   3.405   0.241   5.389
 1330TIP3    H2 3955   3.544   0.302   5.396
 1331TIP3   OH2 3956   2.046   5.414   3.334
 1331TIP3    H1 3957   2.028   5.467   3.255
 1331TIP3    H2 3958   1.959   5.391   3.367
 1332TIP3   OH2 3959   5.979   6.094   3.556
 1332TIP3    H1 3960   5.987   6.014   3.505
 1332TIP3    H2 3961   5.985   6.064   3.647
 1333TIP3   OH2 3962   0.574   3.465   3.577
 1333TIP3    H1 3963   0.614   3.460   3.490
 1333TIP3    H2 3964   0.503   3.400   3.574
 1334TIP3   OH2 3965   5.577   2.839   0.939
 1334TIP3    H1 3966   5.581   2.892   1.018
 1334TIP3    H2 3967   5.522   2.765   0.962
 1335TIP3   OH2 3968   3.403   0.795   4.774
 1335TIP3    H1 3969   3.487   0.801   4.728
 1335TIP3    H2 3970   3.361   0.718   4.737
 1336TIP3   OH2 3971   5.329   2.949   4.637
 1336TIP3    H1 3972   5.417   2.949   4.675
 1336TIP3    H2 3973   5.323   3.033   4.591
 1337TIP3   OH2 3974   4.431   6.143   5.910
 1337TIP3    H1 3975   4.520   6.148   5.944
 1337TIP3    H2 3976   4.437   6.179   5.821
 1338TIP3   OH2 3977   2.444   3.140   3.998
 1338TIP3    H1 3978   2.364   3.166   4.044
 1338TIP3    H2 3979   2.418   3.066   3.944
 1339TIP3   OH2 3980   4.743   0.376   4.338
 1339TIP3    H1 3981   4.723   0.375   4.432
 1339TIP3    H2 3982   4.817   0.436   4.330
 1340TIP3   OH2 3983   3.547  -0.028   1.194
 1340TIP3    H1 3984   3.639  -0.002   1.196
 1340TIP3    H2 3985   3.505   0.036   1.136
 1341TIP3   OH2 3986   2.654   0.875   1.891
 1341TIP3    H1 3987   2.732   0.854   1.941
 1341TIP3    H2 3988   2.586   0.890   1.957
 1342TIP3   OH2 3989   5.004   3.706   0.047
 1342TIP3    H1 3990   5.060   3.630   0.028
 1342TIP3    H2 3991   4.916   3.671   0.049
 1343TIP3   OH2 3992   6.143   0.905   1.525
 1343TIP3    H1 3993   6.130   0.815   1.495
 1343TIP3    H2 3994   6.055   0.942   1.526
 1344TIP3   OH2 3995   5.814   2.071   1.470
 1344TIP3    H1 3996   5.792   1.987   1.430
 1344TIP3    H2 3997   5.855   2.121   1.399
 1345TIP3   OH2 3998   4.273   2.777   0.945
 1345TIP3    H1 3999   4.209   2.712   0.917
 1345TIP3    H2 4000   4.226   2.829   1.011
 1346TIP3   OH2 4001   0.318   2.191   3.153
 1346TIP3    H1 4002   0.402   2.150   3.172
 1346TIP3    H2 4003   0.323   2.277   3.197
 1347TIP3   OH2 4004   5.907   2.385   1.048
 1347TIP3    H1 4005   5.857   2.466   1.054
 1347TIP3    H2 4006   5.998   2.412   1.059
 1348TIP3   OH2 4007   0.847   5.082   3.356
 1348TIP3    H1 4008   0.814   4.995   3.331
 1348TIP3    H2 4009   0.840   5.083   3.452
 1349TIP3   OH2 4010   2.394   3.706   2.993
 1349TIP3    H1 4011   2.324   3.649   2.962
 1349TIP3    H2 4012   2.350   3.767   3.052
 1350TIP3   OH2 4013   2.322   5.685   2.141
 1350TIP3    H1 4014   2.244   5.663   2.091
 1350TIP3    H2 4015   2.289   5.701   2.230
 1351TIP3   OH2 4016   2.795   1.336   4.695
 1351TIP3    H1 4017   2.793   1.249   4.656
 1351TIP3    H2 4018   2.862   1.383   4.645
 1352TIP3   OH2 4019   3.829   0.623   0.734
 1352TIP3    H1 4020   3.874   0.544   0.703
 1352TIP3    H2 4021   3.862   0.693   0.679
 1353TIP3   OH2 4022   5.577   2.495   5.607
 1353TIP3    H1 4023   5.597   2.420   5.662
 1353TIP3    H2 4024   5.656   2.509   5.555
 1354TIP3   OH2 4025   3.096   3.712   4.031
 1354TIP3    H1 4026   3.020   3.655   4.025
 1354TIP3    H2 4027   3.141   3.702   3.947
 1355TIP3   OH2 4028   3.307   5.618   4.740
 1355TIP3    H1 4029   3.228   5.564   4.748
 1355TIP3    H2 4030   3.340   5.626   4.829
 1356TIP3   OH2 4031   1.119   3.438   1.908
 1356TIP3    H1 4032   1.090   3.405   1.823
 1356TIP3    H2 4033   1.200   3.390   1.925
 1357TIP3   OH2 4034   5.685   0.795   4.001
 1357TIP3    H1 4035   5.721   0.838   3.923
 1357TIP3    H2 4036   5.745   0.722   4.017
 1358TIP3   OH2 4037   3.792   6.014   4.998
 1358TIP3    H1 4038   3.833   5.937   4.958
 1358TIP3    H2 4039   3.713   6.028   4.948
 1359TIP3   OH2 4040   4.087   2.022   0.715
 1359TIP3    H1 4041   4.154   2.082   0.679
 1359TIP3    H2 4042   4.062   1.967   0.641
 1360TIP3   OH2 4043   5.963   1.585   2.486
 1360TIP3    H1 4044   5.911   1.653   2.444
 1360TIP3    H2 4045   6.033   1.566   2.423
 1361TIP3   OH2 4046   6.100   3.036   1.647
 1361TIP3    H1 4047   6.009   3.049   1.675
 1361TIP3    H2 4048   6.094   2.965   1.583
 1362TIP3   OH2 4049   6.376   0.948   1.393
 1362TIP3    H1 4050   6.300   0.921   1.444
 1362TIP3    H2 4051   6.349   0.935   1.302
 1363TIP3   OH2 4052   1.709   3.800   4.470
 1363TIP3    H1 4053   1.711   3.839   4.558
 1363TIP3    H2 4054   1.779   3.845   4.422
 1364TIP3   OH2 4055   1.450   6.714   1.524
 1364TIP3    H1 4056   1.498   6.631   1.518
 1364TIP3    H2 4057   1.468   6.759   1.442
 1365TIP3   OH2 4058   1.695   1.056   2.728
 1365TIP3    H1 4059   1.655   0.975   2.698
 1365TIP3    H2 4060   1.646   1.079   2.808
 1366TIP3   OH2 4061   3.144   0.425   1.326
 1366TIP3    H1 4062   3.202   0.359   1.363
 1366TIP3    H2 4063   3.129   0.396   1.236
 1367TIP3   OH2 4064   5.364   1.049   3.977
 1367TIP3    H1 4065   5.391   0.961   3.953
 1367TIP3    H2 4066   5.442   1.088   4.017
 1368TIP3   OH2 4067   6.019   5.881   2.172
 1368TIP3    H1 4068   6.070   5.811   2.213
 1368TIP3    H2 4069   6.072   5.960   2.184
 1369TIP3   OH2 4070   3.262   6.780   3.124
 1369TIP3    H1 4071   3.282   6.730   3.203
 1369TIP3    H2 4072   3.208   6.721   3.071
 1370TIP3   OH2 4073   0.434   0.836   3.961
 1370TIP3    H1 4074   0.361   0.897   3.974
 1370TIP3    H2 4075   0.476   0.830   4.047
 1371TIP3   OH2 4076   2.329   4.436   3.489
 1371TIP3    H1 4077   2.339   4.344   3.462
 1371TIP3    H2 4078   2.253   4.467   3.439
 1372TIP3   OH2 4079   4.401   3.449   5.369
 1372TIP3    H1 4080   4.457   3.466   5.294
 1372TIP3    H2 4081   4.347   3.528   5.378
 1373TIP3   OH2 4082   7.048   1.577   2.445
 1373TIP3    H1 4083   7.076   1.641   2.381
 1373TIP3    H2 4084   7.123   1.518   2.456
 1374TIP3   OH2 4085   6.093   4.260   5.502
 1374TIP3    H1 4086   6.148   4.325   5.458
 1374TIP3    H2 4087   6.139   4.240   5.583
 1375TIP3   OH2 4088   4.107   0.427   4.915
 1375TIP3    H1 4089   4.154   0.457   4.837
 1375TIP3    H2 4090   4.092   0.334   4.899
 1376TIP3   OH2 4091   5.951   6.225   2.893
 1376TIP3    H1 4092   5.907   6.308   2.908
 1376TIP3    H2 4093   5.897   6.181   2.827
 1377TIP3   OH2 4094   5.942   4.140   3.025
 1377TIP3    H1 4095   5.986   4.122   3.108
 1377TIP3    H2 4096   5.912   4.231   3.033
 1378TIP3   OH2 4097   6.925   5.503   5.247
 1378TIP3    H1 4098   6.996   5.481   5.187
 1378TIP3    H2 4099   6.851   5.452   5.217
 1379TIP3   OH2 4100   3.680   3.841   3.393
 1379TIP3    H1 4101   3.734   3.833   3.472
 1379TIP3    H2 4102   3.736   3.888   3.331
 1380TIP3   OH2 4103   0.529   6.638   2.364
 1380TIP3    H1 4104   0.495   6.640   2.453
 1380TIP3    H2 4105   0.593   6.567   2.365
 1381TIP3   OH2 4106   4.387   5.433   3.120
 1381TIP3    H1 4107   4.428   5.512   3.156
 1381TIP3    H2 4108   4.427   5.361   3.169
 1382TIP3   OH2 4109   1.177   2.495   5.572
 1382TIP3    H1 4110   1.111   2.476   5.639
 1382TIP3    H2 4111   1.209   2.410   5.544
 1383TIP3   OH2 4112   2.180   0.121   2.962
 1383TIP3    H1 4113   2.216   0.042   3.003
 1383TIP3    H2 4114   2.147   0.092   2.877
 1384TIP3   OH2 4115   2.541   2.684   1.596
 1384TIP3    H1 4116   2.587   2.716   1.673
 1384TIP3    H2 4117   2.610   2.676   1.529
 1385TIP3   OH2 4118   3.681   1.584   5.415
 1385TIP3    H1 4119   3.732   1.517   5.370
 1385TIP3    H2 4120   3.641   1.539   5.489
 1386TIP3   OH2 4121   2.418   1.646   0.170
 1386TIP3    H1 4122   2.501   1.692   0.183
 1386TIP3    H2 4123   2.422   1.613   0.081
 1387TIP3   OH2 4124   6.705   2.756   5.259
 1387TIP3    H1 4125   6.644   2.702   5.210
 1387TIP3    H2 4126   6.661   2.841   5.266
 1388TIP3   OH2 4127   6.501   3.889   2.422
 1388TIP3    H1 4128   6.418   3.918   2.385
 1388TIP3    H2 4129   6.484   3.881   2.515
 1389TIP3   OH2 4130   0.810   2.458   0.830
 1389TIP3    H1 4131   0.840   2.463   0.740
 1389TIP3    H2 4132   0.825   2.367   0.856
 1390TIP3   OH2 4133   0.493   1.904   1.096
 1390TIP3    H1 4134   0.533   1.952   1.169
 1390TIP3    H2 4135   0.403   1.891   1.123
 1391TIP3   OH2 4136   3.803   3.426   1.060
 1391TIP3    H1 4137   3.849   3.480   0.995
 1391TIP3    H2 4138   3.722   3.400   1.015
 1392TIP3   OH2 4139   6.974   2.165   1.900
 1392TIP3    H1 4140   6.958   2.259   1.912
 1392TIP3    H2 4141   7.040   2.160   1.831
 1393TIP3   OH2 4142   3.287   0.154   2.223
 1393TIP3    H1 4143   3.216   0.119   2.170
 1393TIP3    H2 4144   3.362   0.098   2.203
 1394TIP3   OH2 4145   0.813   3.593   0.137
 1394TIP3    H1 4146   0.739   3.566   0.082
 1394TIP3    H2 4147   0.823   3.522   0.200
 1395TIP3   OH2 4148   5.609   5.444   1.612
 1395TIP3    H1 4149   5.543   5.508   1.586
 1395TIP3    H2 4150   5.686   5.466   1.559
 1396TIP3   OH2 4151   1.108   1.207   3.200
 1396TIP3    H1 4152   1.143   1.120   3.220
 1396TIP3    H2 4153   1.052   1.228   3.274
 1397TIP3   OH2 4154   7.084   6.732   1.620
 1397TIP3    H1 4155   7.137   6.782   1.682
 1397TIP3    H2 4156   7.022   6.797   1.585
 1398TIP3   OH2 4157   1.141   1.147   1.418
 1398TIP3    H1 4158   1.162   1.241   1.421
 1398TIP3    H2 4159   1.208   1.109   1.361
 1399TIP3   OH2 4160   2.154   2.935   4.840
 1399TIP3    H1 4161   2.183   2.872   4.905
 1399TIP3    H2 4162   2.206   2.915   4.762
 1400TIP3   OH2 4163   2.028   6.264   2.420
 1400TIP3    H1 4164   2.052   6.344   2.467
 1400TIP3    H2 4165   2.030   6.195   2.486
 1401TIP3   OH2 4166   0.855   5.375   4.681
 1401TIP3    H1 4167   0.922   5.443   4.668
 1401TIP3    H2 4168   0.875   5.339   4.768
 1402TIP3   OH2 4169   1.843   6.307   4.415
 1402TIP3    H1 4170   1.811   6.372   4.477
 1402TIP3    H2 4171   1.939   6.315   4.419
 1403TIP3   OH2 4172   6.863   5.064   0.296
 1403TIP3    H1 4173   6.957   5.080   0.291
 1403TIP3    H2 4174   6.850   5.019   0.380
 1404TIP3   OH2 4175   3.709   5.417   5.510
 1404TIP3    H1 4176   3.679   5.329   5.490
 1404TIP3    H2 4177   3.804   5.408   5.519
 1405TIP3   OH2 4178   6.408   2.519   3.476
 1405TIP3    H1 4179   6.495   2.544   3.506
 1405TIP3    H2 4180   6.349   2.583   3.517
 1406TIP3   OH2 4181   4.580   1.837   0.402
 1406TIP3    H1 4182   4.512   1.874   0.346
 1406TIP3    H2 4183   4.553   1.858   0.491
 1407TIP3   OH2 4184   1.354   5.861   3.345
 1407TIP3    H1 4185   1.385   5.945   3.380
 1407TIP3    H2 4186   1.433   5.818   3.313
 1408TIP3   OH2 4187   1.069   3.336   4.502
 1408TIP3    H1 4188   1.009   3.274   4.544
 1408TIP3    H2 4189   1.092   3.294   4.419
 1409TIP3   OH2 4190   3.906   6.103   3.213
 1409TIP3    H1 4191   3.836   6.165   3.235
 1409TIP3    H2 4192   3.924   6.057   3.295
 1410TIP3   OH2 4193   3.153   2.243   4.164
 1410TIP3    H1 4194   3.082   2.254   4.227
 1410TIP3    H2 4195   3.132   2.161   4.119
 1411TIP3   OH2 4196   6.064   4.355   3.618
 1411TIP3    H1 4197   6.058   4.387   3.528
 1411TIP3    H2 4198   6.012   4.275   3.619
 1412TIP3   OH2 4199   3.918   6.431   2.619
 1412TIP3    H1 4200   3.884   6.413   2.531
 1412TIP3    H2 4201   3.937   6.525   2.618
 1413TIP3   OH2 4202   2.272   0.808   3.537
 1413TIP3    H1 4203   2.196   0.849   3.495
 1413TIP3    H2 4204   2.272   0.719   3.504
 1414TIP3   OH2 4205   5.975   5.232   0.598
 1414TIP3    H1 4206   5.981   5.137   0.587
 1414TIP3    H2 4207   5.918   5.261   0.527
 1415TIP3   OH2 4208   3.185   2.623   5.799
 1415TIP3    H1 4209   3.248   2.578   5.854
 1415TIP3    H2 4210   3.118   2.654   5.860
 1416TIP3   OH2 4211   7.104   4.931   2.920
 1416TIP3    H1 4212   7.076   4.845   2.888
 1416TIP3    H2 4213   7.088   4.989   2.846
 1417TIP3   OH2 4214   3.295   3.533   0.997
 1417TIP3    H1 4215   3.200   3.521   0.992
 1417TIP3    H2 4216   3.307   3.623   1.025
 1418TIP3   OH2 4217   4.213   5.482   5.059
 1418TIP3    H1 4218   4.153   5.519   5.124
 1418TIP3    H2 4219   4.155   5.445   4.992
 1419TIP3   OH2 4220   3.441   6.359   0.456
 1419TIP3    H1 4221   3.525   6.357   0.409
 1419TIP3    H2 4222   3.391   6.429   0.413
 1420TIP3   OH2 4223   6.929   1.702   3.174
 1420TIP3    H1 4224   6.882   1.750   3.106
 1420TIP3    H2 4225   6.910   1.750   3.255
 1421TIP3   OH2 4226   1.519   0.047   1.207
 1421TIP3    H1 4227   1.540   0.128   1.161
 1421TIP3    H2 4228   1.424   0.040   1.199
 1422TIP3   OH2 4229   4.727   5.296   3.129
 1422TIP3    H1 4230   4.756   5.384   3.155
 1422TIP3    H2 4231   4.695   5.257   3.210
 1423TIP3   OH2 4232   2.933   4.459   3.952
 1423TIP3    H1 4233   2.950   4.521   3.880
 1423TIP3    H2 4234   2.846   4.425   3.934
 1424TIP3   OH2 4235   3.439   0.457   5.886
 1424TIP3    H1 4236   3.529   0.484   5.902
 1424TIP3    H2 4237   3.427   0.465   5.791
 1425TIP3   OH2 4238   4.687   1.364   0.443
 1425TIP3    H1 4239   4.629   1.297   0.408
 1425TIP3    H2 4240   4.629   1.425   0.489
 1426TIP3   OH2 4241   4.294   6.586   2.900
 1426TIP3    H1 4242   4.299   6.535   2.981
 1426TIP3    H2 4243   4.380   6.575   2.860
 1427TIP3   OH2 4244   5.900   2.481   4.160
 1427TIP3    H1 4245   5.891   2.431   4.241
 1427TIP3    H2 4246   5.887   2.416   4.090
 1428TIP3   OH2 4247   7.084   6.573   4.197
 1428TIP3    H1 4248   7.136   6.626   4.257
 1428TIP3    H2 4249   7.025   6.635   4.154
 1429TIP3   OH2 4250   3.288   1.266   5.666
 1429TIP3    H1 4251   3.232   1.196   5.700
 1429TIP3    H2 4252   3.374   1.247   5.701
 1430TIP3   OH2 4253   5.454   5.084   5.433
 1430TIP3    H1 4254   5.380   5.077   5.494
 1430TIP3    H2 4255   5.416   5.124   5.355
 1431TIP3   OH2 4256   3.954   2.730   0.289
 1431TIP3    H1 4257   3.996   2.666   0.232
 1431TIP3    H2 4258   3.868   2.745   0.249
 1432TIP3   OH2 4259   2.232   4.262   1.526
 1432TIP3    H1 4260   2.225   4.179   1.479
 1432TIP3    H2 4261   2.322   4.261   1.560
 1433TIP3   OH2 4262   1.525   4.540   4.631
 1433TIP3    H1 4263   1.490   4.628   4.614
 1433TIP3    H2 4264   1.487   4.515   4.715
 1434TIP3   OH2 4265   2.282   3.460   3.550
 1434TIP3    H1 4266   2.311   3.548   3.575
 1434TIP3    H2 4267   2.266   3.415   3.633
 1435TIP3   OH2 4268   0.139   3.680   1.016
 1435TIP3    H1 4269   0.130   3.600   1.068
 1435TIP3    H2 4270   0.078   3.668   0.943
 1436TIP3   OH2 4271   1.744   3.277   1.553
 1436TIP3    H1 4272   1.746   3.360   1.505
 1436TIP3    H2 4273   1.671   3.228   1.514
 1437TIP3   OH2 4274   5.415   0.359   4.603
 1437TIP3    H1 4275   5.511   0.364   4.601
 1437TIP3    H2 4276   5.396   0.286   4.662
 1438TIP3   OH2 4277   0.938   5.562   3.947
 1438TIP3    H1 4278   0.926   5.503   4.021
 1438TIP3    H2 4279   0.975   5.642   3.985
 1439TIP3   OH2 4280   1.669   1.674   0.490
 1439TIP3    H1 4281   1.742   1.629   0.448
 1439TIP3    H2 4282   1.623   1.606   0.539
 1440TIP3   OH2 4283   5.026   2.261   0.841
 1440TIP3    H1 4284   4.950   2.261   0.783
 1440TIP3    H2 4285   5.022   2.345   0.887
 1441TIP3   OH2 4286   1.002   3.627   3.512
 1441TIP3    H1 4287   0.950   3.652   3.436
 1441TIP3    H2 4288   0.971   3.539   3.533
 1442TIP3   OH2 4289   4.912   2.351   5.240
 1442TIP3    H1 4290   4.938   2.378   5.152
 1442TIP3    H2 4291   4.823   2.384   5.250
 1443TIP3   OH2 4292   1.144   0.650   0.519
 1443TIP3    H1 4293   1.200   0.642   0.596
 1443TIP3    H2 4294   1.200   0.627   0.446
 1444TIP3   OH2 4295   0.412   4.607   2.258
 1444TIP3    H1 4296   0.364   4.569   2.184
 1444TIP3    H2 4297   0.447   4.532   2.305
 1445TIP3   OH2 4298   7.178   5.642   4.375
 1445TIP3    H1 4299   7.113   5.708   4.353
 1445TIP3    H2 4300   7.222   5.675   4.453
 1446TIP3   OH2 4301   5.589   5.704   3.157
 1446TIP3    H1 4302   5.526   5.664   3.217
 1446TIP3    H2 4303   5.662   5.732   3.212
 1447TIP3   OH2 4304   4.074   6.119   4.114
 1447TIP3    H1 4305   4.044   6.079   4.032
 1447TIP3    H2 4306   4.169   6.123   4.106
 1448TIP3   OH2 4307   3.137   3.496   0.301
 1448TIP3    H1 4308   3.156   3.558   0.231
 1448TIP3    H2 4309   3.090   3.547   0.366
 1449TIP3   OH2 4310   3.662   2.767   5.428
 1449TIP3    H1 4311   3.662   2.832   5.359
 1449TIP3    H2 4312   3.616   2.809   5.501
 1450TIP3   OH2 4313   4.825   0.089   1.355
 1450TIP3    H1 4314   4.917   0.065   1.347
 1450TIP3    H2 4315   4.799   0.058   1.441
 1451TIP3   OH2 4316   1.468   3.976   4.912
 1451TIP3    H1 4317   1.462   3.965   4.817
 1451TIP3    H2 4318   1.459   3.888   4.947
 1452TIP3   OH2 4319   6.534   6.051   4.718
 1452TIP3    H1 4320   6.523   5.960   4.747
 1452TIP3    H2 4321   6.446   6.089   4.727
 1453TIP3   OH2 4322   4.108   1.040   3.392
 1453TIP3    H1 4323   4.145   1.087   3.466
 1453TIP3    H2 4324   4.164   0.963   3.381
 1454TIP3   OH2 4325   4.296   1.723   0.393
 1454TIP3    H1 4326   4.317   1.726   0.299
 1454TIP3    H2 4327   4.261   1.635   0.407
 1455TIP3   OH2 4328   6.010   0.068   5.506
 1455TIP3    H1 4329   6.002   0.014   5.585
 1455TIP3    H2 4330   5.937   0.041   5.451
 1456TIP3   OH2 4331   2.206   4.858   4.770
 1456TIP3    H1 4332   2.127   4.874   4.822
 1456TIP3    H2 4333   2.272   4.916   4.808
 1457TIP3   OH2 4334   3.581   3.326   4.149
 1457TIP3    H1 4335   3.496   3.367   4.168
 1457TIP3    H2 4336   3.644   3.380   4.196
 1458TIP3   OH2 4337   6.154   6.438   3.295
 1458TIP3    H1 4338   6.164   6.517   3.242
 1458TIP3    H2 4339   6.231   6.437   3.351
 1459TIP3   OH2 4340   3.755   6.380   1.591
 1459TIP3    H1 4341   3.822   6.400   1.526
 1459TIP3    H2 4342   3.785   6.299   1.633
 1460TIP3   OH2 4343   6.380   2.179   1.467
 1460TIP3    H1 4344   6.299   2.137   1.498
 1460TIP3    H2 4345   6.449   2.138   1.520
 1461TIP3   OH2 4346   3.709   5.007   0.229
 1461TIP3    H1 4347   3.681   4.918   0.207
 1461TIP3    H2 4348   3.758   4.997   0.311
 1462TIP3   OH2 4349   6.756   2.830   4.853
 1462TIP3    H1 4350   6.753   2.897   4.921
 1462TIP3    H2 4351   6.672   2.839   4.808
 1463TIP3   OH2 4352   0.104   2.362   4.274
 1463TIP3    H1 4353   0.042   2.298   4.309
 1463TIP3    H2 4354   0.177   2.309   4.242
 1464TIP3   OH2 4355   4.615   1.634   5.574
 1464TIP3    H1 4356   4.612   1.569   5.644
 1464TIP3    H2 4357   4.678   1.699   5.604
 1465TIP3   OH2 4358   4.341   3.155   3.343
 1465TIP3    H1 4359   4.324   3.120   3.256
 1465TIP3    H2 4360   4.284   3.233   3.349
 1466TIP3   OH2 4361   0.788   5.659   0.128
 1466TIP3    H1 4362   0.834   5.629   0.206
 1466TIP3    H2 4363   0.815   5.750   0.118
 1467TIP3   OH2 4364   6.475   6.703   2.599
 1467TIP3    H1 4365   6.466   6.680   2.506
 1467TIP3    H2 4366   6.452   6.623   2.646
 1468TIP3   OH2 4367   4.486   5.812   0.558
 1468TIP3    H1 4368   4.457   5.729   0.596
 1468TIP3    H2 4369   4.561   5.788   0.504
 1469TIP3   OH2 4370   0.946   0.932   1.311
 1469TIP3    H1 4371   0.945   1.027   1.324
 1469TIP3    H2 4372   0.869   0.900   1.357
 1470TIP3   OH2 4373   0.189   1.886   0.986
 1470TIP3    H1 4374   0.134   1.818   0.947
 1470TIP3    H2 4375   0.144   1.910   1.067
 1471TIP3   OH2 4376   6.569   2.803   0.576
 1471TIP3    H1 4377   6.586   2.745   0.502
 1471TIP3    H2 4378   6.638   2.782   0.639
 1472TIP3   OH2 4379   6.990   6.322   4.529
 1472TIP3    H1 4380   7.073   6.358   4.496
 1472TIP3    H2 4381   7.016   6.265   4.602
 1473TIP3   OH2 4382   1.616   6.489   2.496
 1473TIP3    H1 4383   1.623   6.571   2.546
 1473TIP3    H2 4384   1.530   6.495   2.454
 1474TIP3   OH2 4385   6.174   4.468   1.720
 1474TIP3    H1 4386   6.259   4.481   1.679
 1474TIP3    H2 4387   6.132   4.399   1.668
 1475TIP3   OH2 4388   2.228   4.654   4.599
 1475TIP3    H1 4389   2.317   4.654   4.563
 1475TIP3    H2 4390   2.232   4.717   4.672
 1476TIP3   OH2 4391   3.358   3.760   4.106
 1476TIP3    H1 4392   3.275   3.713   4.115
 1476TIP3    H2 4393   3.347   3.814   4.028
 1477TIP3   OH2 4394   1.087   5.161   0.860
 1477TIP3    H1 4395   1.075   5.134   0.951
 1477TIP3    H2 4396   1.014   5.120   0.813
 1478TIP3   OH2 4397   0.689   0.283   3.960
 1478TIP3    H1 4398   0.652   0.264   4.047
 1478TIP3    H2 4399   0.716   0.374   3.966
 1479TIP3   OH2 4400   5.359   5.137   3.872
 1479TIP3    H1 4401   5.320   5.070   3.927
 1479TIP3    H2 4402   5.433   5.094   3.829
 1480TIP3   OH2 4403   5.894   6.533   4.005
 1480TIP3    H1 4404   5.951   6.585   3.949
 1480TIP3    H2 4405   5.897   6.445   3.968
 1481TIP3   OH2 4406   1.109   1.413   2.983
 1481TIP3    H1 4407   1.076   1.344   3.041
 1481TIP3    H2 4408   1.120   1.489   3.039
 1482TIP3   OH2 4409   5.058   4.350   2.098
 1482TIP3    H1 4410   5.006   4.367   2.019
 1482TIP3    H2 4411   5.092   4.262   2.086
 1483TIP3   OH2 4412   2.544   0.634   1.780
 1483TIP3    H1 4413   2.618   0.693   1.794
 1483TIP3    H2 4414   2.491   0.642   1.859
 1484TIP3   OH2 4415   2.659   1.966   3.445
 1484TIP3    H1 4416   2.723   1.899   3.468
 1484TIP3    H2 4417   2.711   2.043   3.424
 1485TIP3   OH2 4418   0.584   3.418   2.751
 1485TIP3    H1 4419   0.531   3.339   2.761
 1485TIP3    H2 4420   0.523   3.490   2.765
 1486TIP3   OH2 4421   0.092   5.834   2.597
 1486TIP3    H1 4422   0.176   5.788   2.595
 1486TIP3    H2 4423   0.055   5.813   2.683
 1487TIP3   OH2 4424   2.810   6.655   3.439
 1487TIP3    H1 4425   2.802   6.748   3.418
 1487TIP3    H2 4426   2.727   6.617   3.411
 1488TIP3   OH2 4427   3.821   5.946   2.412
 1488TIP3    H1 4428   3.762   6.021   2.418
 1488TIP3    H2 4429   3.763   5.870   2.416
 1489TIP3   OH2 4430   1.225   3.810   3.999
 1489TIP3    H1 4431   1.241   3.847   4.086
 1489TIP3    H2 4432   1.202   3.886   3.945
 1490TIP3   OH2 4433   5.883   0.283   3.951
 1490TIP3    H1 4434   5.872   0.193   3.922
 1490TIP3    H2 4435   5.937   0.277   4.030
 1491TIP3   OH2 4436   5.640  -0.012   1.173
 1491TIP3    H1 4437   5.633   0.048   1.099
 1491TIP3    H2 4438   5.601   0.036   1.247
 1492TIP3   OH2 4439   3.012   0.462   1.914
 1492TIP3    H1 4440   3.020   0.524   1.842
 1492TIP3    H2 4441   2.965   0.387   1.876
 1493TIP3   OH2 4442   0.177   2.951   0.581
 1493TIP3    H1 4443   0.227   3.028   0.553
 1493TIP3    H2 4444   0.234   2.877   0.561
 1494TIP3   OH2 4445   7.166   2.823   3.514
 1494TIP3    H1 4446   7.191   2.731   3.505
 1494TIP3    H2 4447   7.070   2.823   3.504
 1495TIP3   OH2 4448   2.375   4.170   3.777
 1495TIP3    H1 4449   2.300   4.148   3.832
 1495TIP3    H2 4450   2.430   4.227   3.831
 1496TIP3   OH2 4451   2.637   0.427   5.460
 1496TIP3    H1 4452   2.554   0.457   5.497
 1496TIP3    H2 4453   2.698   0.499   5.477
 1497TIP3   OH2 4454   4.220   3.977   1.630
 1497TIP3    H1 4455   4.177   4.047   1.680
 1497TIP3    H2 4456   4.192   3.992   1.540
 1498TIP3   OH2 4457   1.269   2.385   3.795
 1498TIP3    H1 4458   1.301   2.413   3.709
 1498TIP3    H2 4459   1.346   2.391   3.852
 1499TIP3   OH2 4460   6.489   4.290   0.519
 1499TIP3    H1 4461   6.524   4.346   0.587
 1499TIP3    H2 4462   6.420   4.342   0.478
 1500TIP3   OH2 4463   5.396   3.880   0.114
 1500TIP3    H1 4464   5.474   3.889   0.058
 1500TIP3    H2 4465   5.326   3.858   0.053
 1501TIP3   OH2 4466   5.694   2.039   4.804
 1501TIP3    H1 4467   5.672   2.001   4.888
 1501TIP3    H2 4468   5.699   1.964   4.744
 1502TIP3   OH2 4469   4.393   6.047   3.490
 1502TIP3    H1 4470   4.355   6.025   3.405
 1502TIP3    H2 4471   4.486   6.026   3.482
 1503TIP3   OH2 4472   6.211   3.864   4.225
 1503TIP3    H1 4473   6.156   3.925   4.175
 1503TIP3    H2 4474   6.290   3.854   4.172
 1504TIP3   OH2 4475   0.637   1.539   1.086
 1504TIP3    H1 4476   0.601   1.550   0.998
 1504TIP3    H2 4477   0.569   1.491   1.133
 1505TIP3   OH2 4478   2.833   1.923   3.176
 1505TIP3    H1 4479   2.804   1.839   3.210
 1505TIP3    H2 4480   2.895   1.955   3.242
 1506TIP3   OH2 4481   2.767   4.838   3.355
 1506TIP3    H1 4482   2.713   4.817   3.432
 1506TIP3    H2 4483   2.855   4.810   3.380
 1507TIP3   OH2 4484   0.455   4.702   1.213
 1507TIP3    H1 4485   0.416   4.731   1.295
 1507TIP3    H2 4486   0.389   4.722   1.147
 1508TIP3   OH2 4487   4.415   5.680   2.808
 1508TIP3    H1 4488   4.319   5.676   2.804
 1508TIP3    H2 4489   4.441   5.712   2.721
 1509TIP3   OH2 4490   1.333   4.461   2.210
 1509TIP3    H1 4491   1.296   4.429   2.128
 1509TIP3    H2 4492   1.296   4.404   2.278
 1510TIP3   OH2 4493   3.530   5.228   4.086
 1510TIP3    H1 4494   3.471   5.209   4.013
 1510TIP3    H2 4495   3.606   5.171   4.070
 1511TIP3   OH2 4496   2.246   2.401   2.877
 1511TIP3    H1 4497   2.250   2.478   2.820
 1511TIP3    H2 4498   2.182   2.424   2.944
 1512TIP3   OH2 4499   2.439   5.808   0.206
 1512TIP3    H1 4500   2.430   5.737   0.271
 1512TIP3    H2 4501   2.358   5.804   0.156
 1513TIP3   OH2 4502   0.142   0.891   0.658
 1513TIP3    H1 4503   0.072   0.826   0.667
 1513TIP3    H2 4504   0.199   0.876   0.733
 1514TIP3   OH2 4505   3.397   3.217   2.043
 1514TIP3    H1 4506   3.391   3.189   2.135
 1514TIP3    H2 4507   3.490   3.214   2.023
 1515TIP3   OH2 4508   2.794   0.670   2.872
 1515TIP3    H1 4509   2.750   0.590   2.899
 1515TIP3    H2 4510   2.886   0.654   2.890
 1516TIP3   OH2 4511   2.180   1.562   1.828
 1516TIP3    H1 4512   2.230   1.499   1.777
 1516TIP3    H2 4513   2.201   1.543   1.919
 1517TIP3   OH2 4514   2.997   4.671   3.800
 1517TIP3    H1 4515   2.923   4.722   3.767
 1517TIP3    H2 4516   3.074   4.720   3.771
 1518TIP3   OH2 4517   3.584   4.113   3.237
 1518TIP3    H1 4518   3.645   4.098   3.309
 1518TIP3    H2 4519   3.599   4.041   3.177
 1519TIP3   OH2 4520   3.547   5.944   5.292
 1519TIP3    H1 4521   3.526   5.992   5.212
 1519TIP3    H2 4522   3.608   6.001   5.339
 1520TIP3   OH2 4523   0.297   0.297   3.984
 1520TIP3    H1 4524   0.319   0.235   4.053
 1520TIP3    H2 4525   0.362   0.280   3.916
 1521TIP3   OH2 4526   0.543   0.988   4.355
 1521TIP3    H1 4527   0.461   0.981   4.403
 1521TIP3    H2 4528   0.541   0.915   4.293
 1522TIP3   OH2 4529   2.996   0.643   1.724
 1522TIP3    H1 4530   2.923   0.697   1.692
 1522TIP3    H2 4531   3.057   0.642   1.651
 1523TIP3   OH2 4532   1.689   3.214   5.678
 1523TIP3    H1 4533   1.658   3.165   5.754
 1523TIP3    H2 4534   1.782   3.227   5.694
 1524TIP3   OH2 4535   6.584   4.189   0.990
 1524TIP3    H1 4536   6.638   4.155   0.919
 1524TIP3    H2 4537   6.531   4.115   1.019
 1525TIP3   OH2 4538   4.690   0.699   2.331
 1525TIP3    H1 4539   4.744   0.645   2.273
 1525TIP3    H2 4540   4.745   0.713   2.408
 1526TIP3   OH2 4541   4.501   2.561   1.996
 1526TIP3    H1 4542   4.524   2.628   1.932
 1526TIP3    H2 4543   4.451   2.496   1.947
 1527TIP3   OH2 4544   5.722   1.548   0.949
 1527TIP3    H1 4545   5.683   1.631   0.976
 1527TIP3    H2 4546   5.739   1.559   0.855
 1528TIP3   OH2 4547   2.560   3.936   0.743
 1528TIP3    H1 4548   2.528   4.014   0.788
 1528TIP3    H2 4549   2.511   3.933   0.661
 1529TIP3   OH2 4550   1.974   0.843   5.765
 1529TIP3    H1 4551   1.930   0.852   5.681
 1529TIP3    H2 4552   2.065   0.866   5.747
 1530TIP3   OH2 4553   6.427   0.635   5.488
 1530TIP3    H1 4554   6.372   0.562   5.461
 1530TIP3    H2 4555   6.508   0.624   5.438
 1531TIP3   OH2 4556   6.876   4.980   2.458
 1531TIP3    H1 4557   6.883   4.889   2.429
 1531TIP3    H2 4558   6.858   5.030   2.378
 1532TIP3   OH2 4559   5.395   6.042   1.882
 1532TIP3    H1 4560   5.324   6.001   1.932
 1532TIP3    H2 4561   5.454   6.078   1.949
 1533TIP3   OH2 4562   0.208   6.339   3.621
 1533TIP3    H1 4563   0.199   6.245   3.608
 1533TIP3    H2 4564   0.200   6.351   3.715
 1534TIP3   OH2 4565   3.509   5.824   3.138
 1534TIP3    H1 4566   3.508   5.839   3.233
 1534TIP3    H2 4567   3.602   5.818   3.117
 1535TIP3   OH2 4568   3.372   2.200   2.435
 1535TIP3    H1 4569   3.434   2.130   2.414
 1535TIP3    H2 4570   3.296   2.155   2.472
 1536TIP3   OH2 4571   2.344   3.451   5.430
 1536TIP3    H1 4572   2.348   3.503   5.510
 1536TIP3    H2 4573   2.274   3.492   5.378
 1537TIP3   OH2 4574   5.178   3.545   1.520
 1537TIP3    H1 4575   5.104   3.538   1.460
 1537TIP3    H2 4576   5.231   3.468   1.503
 1538TIP3   OH2 4577   1.699   0.247   3.005
 1538TIP3    H1 4578   1.611   0.210   3.007
 1538TIP3    H2 4579   1.707   0.284   2.917
 1539TIP3   OH2 4580   4.771   3.784   4.058
 1539TIP3    H1 4581   4.732   3.704   4.023
 1539TIP3    H2 4582   4.857   3.758   4.089
 1540TIP3   OH2 4583   2.566   6.597   2.011
 1540TIP3    H1 4584   2.471   6.610   2.014
 1540TIP3    H2 4585   2.584   6.536   2.083
 1541TIP3   OH2 4586   0.983   2.479   1.038
 1541TIP3    H1 4587   1.047   2.549   1.024
 1541TIP3    H2 4588   0.928   2.481   0.960
 1542TIP3   OH2 4589   0.528   0.211   0.747
 1542TIP3    H1 4590   0.560   0.126   0.777
 1542TIP3    H2 4591   0.453   0.191   0.691
 1543TIP3   OH2 4592   7.183   4.357   1.755
 1543TIP3    H1 4593   7.258   4.317   1.799
 1543TIP3    H2 4594   7.185   4.321   1.666
 1544TIP3   OH2 4595   0.261   6.681   4.329
 1544TIP3    H1 4596   0.195   6.724   4.384
 1544TIP3    H2 4597   0.292   6.750   4.270
 1545TIP3   OH2 4598   4.987   0.265   2.735
 1545TIP3    H1 4599   5.023   0.277   2.823
 1545TIP3    H2 4600   5.045   0.201   2.694
 1546TIP3   OH2 4601   0.811  -0.024   5.724
 1546TIP3    H1 4602   0.889   0.011   5.680
 1546TIP3    H2 4603   0.802   0.031   5.803
 1547TIP3   OH2 4604   2.214   0.191   0.530
 1547TIP3    H1 4605   2.264   0.123   0.575
 1547TIP3    H2 4606   2.262   0.272   0.548
 1548TIP3   OH2 4607   3.828   6.539   0.668
 1548TIP3    H1 4608   3.900   6.588   0.629
 1548TIP3    H2 4609   3.842   6.449   0.641
 1549TIP3   OH2 4610   5.895   1.676   3.206
 1549TIP3    H1 4611   5.875   1.765   3.235
 1549TIP3    H2 4612   5.810   1.640   3.181
 1550TIP3   OH2 4613   3.803   0.446   3.822
 1550TIP3    H1 4614   3.850   0.485   3.748
 1550TIP3    H2 4615   3.784   0.520   3.879
 1551TIP3   OH2 4616   5.539   2.313   4.609
 1551TIP3    H1 4617   5.506   2.301   4.520
 1551TIP3    H2 4618   5.621   2.264   4.611
 1552TIP3   OH2 4619   1.832   3.788   5.462
 1552TIP3    H1 4620   1.770   3.726   5.499
 1552TIP3    H2 4621   1.887   3.815   5.536
 1553TIP3   OH2 4622   0.482   3.160   4.266
 1553TIP3    H1 4623   0.492   3.194   4.177
 1553TIP3    H2 4624   0.402   3.108   4.263
 1554TIP3   OH2 4625   4.294   2.940   0.707
 1554TIP3    H1 4626   4.280   2.906   0.796
 1554TIP3    H2 4627   4.287   2.863   0.651
 1555TIP3   OH2 4628   1.520   5.495   2.733
 1555TIP3    H1 4629   1.430   5.505   2.704
 1555TIP3    H2 4630   1.569   5.473   2.654
 1556TIP3   OH2 4631   0.258   0.403   0.503
 1556TIP3    H1 4632   0.340   0.394   0.551
 1556TIP3    H2 4633   0.284   0.442   0.419
 1557TIP3   OH2 4634   4.103   4.344   0.279
 1557TIP3    H1 4635   4.124   4.422   0.332
 1557TIP3    H2 4636   4.021   4.367   0.236
 1558TIP3   OH2 4637   4.354   1.476   2.606
 1558TIP3    H1 4638   4.300   1.493   2.683
 1558TIP3    H2 4639   4.361   1.561   2.562
 1559TIP3   OH2 4640   5.734   1.245   3.312
 1559TIP3    H1 4641   5.784   1.252   3.231
 1559TIP3    H2 4642   5.792   1.281   3.379
 1560TIP3   OH2 4643   0.862   2.458   2.047
 1560TIP3    H1 4644   0.789   2.514   2.073
 1560TIP3    H2 4645   0.913   2.446   2.127
 1561TIP3   OH2 4646   0.341   6.592   2.167
 1561TIP3    H1 4647   0.321   6.664   2.107
 1561TIP3    H2 4648   0.422   6.618   2.210
 1562TIP3   OH2 4649   0.560   1.838   2.806
 1562TIP3    H1 4650   0.487   1.828   2.744
 1562TIP3    H2 4651   0.597   1.924   2.786
 1563TIP3   OH2 4652   3.375   6.644   0.071
 1563TIP3    H1 4653   3.414   6.573   0.020
 1563TIP3    H2 4654   3.343   6.706   0.005
 1564TIP3   OH2 4655   5.905   2.416   1.429
 1564TIP3    H1 4656   5.876   2.496   1.473
 1564TIP3    H2 4657   5.825   2.381   1.389
 1565TIP3   OH2 4658   4.635   5.669   2.083
 1565TIP3    H1 4659   4.600   5.601   2.141
 1565TIP3    H2 4660   4.596   5.650   1.998
 1566TIP3   OH2 4661   5.441   3.425   3.953
 1566TIP3    H1 4662   5.469   3.498   3.898
 1566TIP3    H2 4663   5.388   3.466   4.021
 1567TIP3   OH2 4664   3.677   1.889   3.911
 1567TIP3    H1 4665   3.753   1.844   3.875
 1567TIP3    H2 4666   3.693   1.982   3.892
 1568TIP3   OH2 4667   2.526   6.403   4.169
 1568TIP3    H1 4668   2.590   6.357   4.114
 1568TIP3    H2 4669   2.513   6.487   4.125
 1569TIP3   OH2 4670   5.068   0.277   1.933
 1569TIP3    H1 4671   5.092   0.184   1.937
 1569TIP3    H2 4672   5.152   0.323   1.927
 1570TIP3   OH2 4673   4.346   4.834   2.285
 1570TIP3    H1 4674   4.437   4.812   2.307
 1570TIP3    H2 4675   4.304   4.849   2.370
 1571TIP3   OH2 4676   3.362   5.906   5.651
 1571TIP3    H1 4677   3.453   5.935   5.639
 1571TIP3    H2 4678   3.326   5.904   5.562
 1572TIP3   OH2 4679   2.755   5.090   1.917
 1572TIP3    H1 4680   2.683   5.087   1.979
 1572TIP3    H2 4681   2.722   5.140   1.843
 1573TIP3   OH2 4682   1.802   1.323   4.019
 1573TIP3    H1 4683   1.790   1.350   3.928
 1573TIP3    H2 4684   1.717   1.287   4.045
 1574TIP3   OH2 4685   6.042   0.980   3.887
 1574TIP3    H1 4686   5.964   0.930   3.863
 1574TIP3    H2 4687   6.008   1.056   3.935
 1575TIP3   OH2 4688   5.644   0.272   5.111
 1575TIP3    H1 4689   5.677   0.335   5.175
 1575TIP3    H2 4690   5.561   0.310   5.081
 1576TIP3   OH2 4691   1.891   5.986   5.479
 1576TIP3    H1 4692   1.897   5.893   5.459
 1576TIP3    H2 4693   1.903   5.991   5.574
 1577TIP3   OH2 4694   0.892   2.105   0.549
 1577TIP3    H1 4695   0.847   2.154   0.618
 1577TIP3    H2 4696   0.985   2.115   0.570
 1578TIP3   OH2 4697   0.885   2.586   3.375
 1578TIP3    H1 4698   0.888   2.669   3.422
 1578TIP3    H2 4699   0.946   2.597   3.303
 1579TIP3   OH2 4700   6.769   0.273   0.283
 1579TIP3    H1 4701   6.714   0.238   0.352
 1579TIP3    H2 4702   6.847   0.305   0.328
 1580TIP3   OH2 4703   3.722   0.230   5.891
 1580TIP3    H1 4704   3.757   0.179   5.819
 1580TIP3    H2 4705   3.768   0.313   5.888
 1581TIP3   OH2 4706   4.977   0.824   0.553
 1581TIP3    H1 4707   4.926   0.890   0.507
 1581TIP3    H2 4708   4.930   0.808   0.635
 1582TIP3   OH2 4709   1.696   6.674   2.900
 1582TIP3    H1 4710   1.740   6.625   2.970
 1582TIP3    H2 4711   1.751   6.751   2.887
 1583TIP3   OH2 4712   0.917   5.125   5.392
 1583TIP3    H1 4713   0.852   5.054   5.386
 1583TIP3    H2 4714   0.886   5.191   5.329
 1584TIP3   OH2 4715   6.009   4.189   1.840
 1584TIP3    H1 4716   5.941   4.249   1.871
 1584TIP3    H2 4717   5.978   4.102   1.864
 1585TIP3   OH2 4718   3.993   5.831   5.494
 1585TIP3    H1 4719   3.904   5.808   5.469
 1585TIP3    H2 4720   3.989   5.844   5.589
 1586TIP3   OH2 4721   0.111   4.388   2.545
 1586TIP3    H1 4722   0.178   4.370   2.611
 1586TIP3    H2 4723   0.112   4.483   2.535
 1587TIP3   OH2 4724   6.861   1.043   1.314
 1587TIP3    H1 4725   6.918   1.019   1.241
 1587TIP3    H2 4726   6.863   0.967   1.372
 1588TIP3   OH2 4727   7.227   6.625   4.886
 1588TIP3    H1 4728   7.132   6.609   4.886
 1588TIP3    H2 4729   7.236   6.719   4.902
 1589TIP3   OH2 4730   2.419   6.716   2.745
 1589TIP3    H1 4731   2.471   6.729   2.666
 1589TIP3    H2 4732   2.428   6.623   2.764
 1590TIP3   OH2 4733   4.347   3.795   1.770
 1590TIP3    H1 4734   4.425   3.775   1.718
 1590TIP3    H2 4735   4.291   3.845   1.711
 1591TIP3   OH2 4736   1.992   1.382   2.146
 1591TIP3    H1 4737   1.935   1.437   2.092
 1591TIP3    H2 4738   1.966   1.403   2.236
 1592TIP3   OH2 4739   1.953   4.272   3.520
 1592TIP3    H1 4740   1.892   4.346   3.521
 1592TIP3    H2 4741   2.036   4.310   3.490
 1593TIP3   OH2 4742   2.439   5.984   1.424
 1593TIP3    H1 4743   2.467   5.959   1.512
 1593TIP3    H2 4744   2.473   6.073   1.413
 1594TIP3   OH2 4745   2.581   5.792   3.441
 1594TIP3    H1 4746   2.491   5.760   3.441
 1594TIP3    H2 4747   2.586   5.848   3.364
 1595TIP3   OH2 4748   4.894   3.123   3.397
 1595TIP3    H1 4749   4.960   3.099   3.332
 1595TIP3    H2 4750   4.944   3.160   3.470
 1596TIP3   OH2 4751   5.546   4.167   1.193
 1596TIP3    H1 4752   5.593   4.119   1.124
 1596TIP3    H2 4753   5.453   4.155   1.171
 1597TIP3   OH2 4754   3.275   2.128   0.560
 1597TIP3    H1 4755   3.340   2.061   0.581
 1597TIP3    H2 4756   3.211   2.082   0.505
 1598TIP3   OH2 4757   3.098   5.154   4.900
 1598TIP3    H1 4758   3.109   5.083   4.963
 1598TIP3    H2 4759   3.162   5.136   4.831
 1599TIP3   OH2 4760   0.486   2.324   2.068
 1599TIP3    H1 4761   0.402   2.289   2.097
 1599TIP3    H2 4762   0.521   2.257   2.010
 1600TIP3   OH2 4763   5.861   0.609   4.545
 1600TIP3    H1 4764   5.935   0.634   4.490
 1600TIP3    H2 4765   5.792   0.672   4.523
 1601TIP3   OH2 4766   5.503   6.345   1.713
 1601TIP3    H1 4767   5.499   6.341   1.809
 1601TIP3    H2 4768   5.588   6.307   1.691
 1602TIP3   OH2 4769   2.108   3.694   3.290
 1602TIP3    H1 4770   2.016   3.682   3.313
 1602TIP3    H2 4771   2.133   3.611   3.249
 1603TIP3   OH2 4772   5.291   6.070   2.996
 1603TIP3    H1 4773   5.264   6.030   3.079
 1603TIP3    H2 4774   5.319   6.159   3.020
 1604TIP3   OH2 4775   0.799   2.982   5.602
 1604TIP3    H1 4776   0.831   2.899   5.637
 1604TIP3    H2 4777   0.719   3.000   5.652
 1605TIP3   OH2 4778   5.735   5.828   5.844
 1605TIP3    H1 4779   5.662   5.826   5.906
 1605TIP3    H2 4780   5.782   5.909   5.865
 1606TIP3   OH2 4781   6.469   4.194   4.786
 1606TIP3    H1 4782   6.538   4.241   4.741
 1606TIP3    H2 4783   6.391   4.248   4.774
 1607TIP3   OH2 4784   0.743   3.114   1.344
 1607TIP3    H1 4785   0.693   3.082   1.420
 1607TIP3    H2 4786   0.716   3.056   1.272
 1608TIP3   OH2 4787   7.050   2.876   3.063
 1608TIP3    H1 4788   7.063   2.782   3.064
 1608TIP3    H2 4789   6.955   2.888   3.062
 1609TIP3   OH2 4790   0.091   1.448   2.426
 1609TIP3    H1 4791   0.047   1.387   2.485
 1609TIP3    H2 4792   0.182   1.450   2.455
 1610TIP3   OH2 4793   6.416   0.130   3.297
 1610TIP3    H1 4794   6.395   0.150   3.206
 1610TIP3    H2 4795   6.342   0.079   3.329
 1611TIP3   OH2 4796   5.769   2.566   0.556
 1611TIP3    H1 4797   5.758   2.644   0.610
 1611TIP3    H2 4798   5.688   2.516   0.570
 1612TIP3   OH2 4799   4.054   5.233   2.665
 1612TIP3    H1 4800   4.119   5.209   2.599
 1612TIP3    H2 4801   4.020   5.149   2.697
 1613TIP3   OH2 4802   0.804   1.728   2.502
 1613TIP3    H1 4803   0.846   1.647   2.532
 1613TIP3    H2 4804   0.841   1.796   2.559
 1614TIP3   OH2 4805   1.879   3.914   3.555
 1614TIP3    H1 4806   1.819   3.858   3.605
 1614TIP3    H2 4807   1.823   3.953   3.487
 1615TIP3   OH2 4808   2.697   5.036   0.120
 1615TIP3    H1 4809   2.761   4.971   0.149
 1615TIP3    H2 4810   2.624   4.985   0.085
 1616TIP3   OH2 4811   6.570   2.816   4.242
 1616TIP3    H1 4812   6.638   2.869   4.202
 1616TIP3    H2 4813   6.596   2.809   4.334
 1617TIP3   OH2 4814   3.370   2.602   0.397
 1617TIP3    H1 4815   3.326   2.516   0.397
 1617TIP3    H2 4816   3.339   2.644   0.477
 1618TIP3   OH2 4817   5.124   3.172   4.027
 1618TIP3    H1 4818   5.108   3.101   3.964
 1618TIP3    H2 4819   5.037   3.199   4.054
 1619TIP3   OH2 4820   6.586   3.705   5.385
 1619TIP3    H1 4821   6.618   3.752   5.462
 1619TIP3    H2 4822   6.541   3.629   5.420
 1620TIP3   OH2 4823   4.697   4.240   4.843
 1620TIP3    H1 4824   4.626   4.177   4.832
 1620TIP3    H2 4825   4.667   4.318   4.797
 1621TIP3   OH2 4826   5.222   2.866   3.636
 1621TIP3    H1 4827   5.313   2.865   3.667
 1621TIP3    H2 4828   5.228   2.840   3.544
 1622TIP3   OH2 4829   0.298   5.780   3.259
 1622TIP3    H1 4830   0.307   5.875   3.250
 1622TIP3    H2 4831   0.368   5.756   3.320
 1623TIP3   OH2 4832   5.044   5.427   1.072
 1623TIP3    H1 4833   5.097   5.498   1.107
 1623TIP3    H2 4834   5.105   5.377   1.017
 1624TIP3   OH2 4835   2.057   6.791   1.286
 1624TIP3    H1 4836   2.047   6.719   1.223
 1624TIP3    H2 4837   2.024   6.868   1.239
 1625TIP3   OH2 4838   3.308   3.497   5.417
 1625TIP3    H1 4839   3.248   3.490   5.343
 1625TIP3    H2 4840   3.255   3.533   5.488
 1626TIP3   OH2 4841   0.470   3.455   1.939
 1626TIP3    H1 4842   0.380   3.479   1.961
 1626TIP3    H2 4843   0.473   3.360   1.950
 1627TIP3   OH2 4844   4.675   3.296   2.123
 1627TIP3    H1 4845   4.723   3.318   2.043
 1627TIP3    H2 4846   4.650   3.380   2.160
 1628TIP3   OH2 4847   5.522   5.708   1.645
 1628TIP3    H1 4848   5.503   5.802   1.646
 1628TIP3    H2 4849   5.617   5.702   1.639
 1629TIP3   OH2 4850   1.706   2.083   5.063
 1629TIP3    H1 4851   1.723   1.994   5.094
 1629TIP3    H2 4852   1.792   2.124   5.059
 1630TIP3   OH2 4853   4.144   3.548   2.565
 1630TIP3    H1 4854   4.116   3.457   2.556
 1630TIP3    H2 4855   4.223   3.555   2.510
 1631TIP3   OH2 4856   2.418   3.306   3.020
 1631TIP3    H1 4857   2.501   3.287   3.065
 1631TIP3    H2 4858   2.367   3.225   3.028
 1632TIP3   OH2 4859   5.090   6.581   5.335
 1632TIP3    H1 4860   5.178   6.609   5.312
 1632TIP3    H2 4861   5.057   6.648   5.394
 1633TIP3   OH2 4862   2.545   0.746   5.120
 1633TIP3    H1 4863   2.604   0.762   5.046
 1633TIP3    H2 4864   2.460   0.775   5.089
 1634TIP3   OH2 4865   2.754   5.422   3.698
 1634TIP3    H1 4866   2.680   5.380   3.741
 1634TIP3    H2 4867   2.722   5.509   3.674
 1635TIP3   OH2 4868   6.418   1.152   3.042
 1635TIP3    H1 4869   6.365   1.080   3.076
 1635TIP3    H2 4870   6.493   1.109   3.001
 1636TIP3   OH2 4871   0.465   2.683   2.980
 1636TIP3    H1 4872   0.402   2.716   2.917
 1636TIP3    H2 4873   0.462   2.588   2.971
 1637TIP3   OH2 4874   4.216   1.221   4.233
 1637TIP3    H1 4875   4.184   1.232   4.323
 1637TIP3    H2 4876   4.171   1.143   4.201
 1638TIP3   OH2 4877   5.414   4.556   5.310
 1638TIP3    H1 4878   5.435   4.645   5.339
 1638TIP3    H2 4879   5.481   4.501   5.352
 1639TIP3   OH2 4880   2.827   0.209   2.876
 1639TIP3    H1 4881   2.878   0.259   2.813
 1639TIP3    H2 4882   2.879   0.130   2.892
 1640TIP3   OH2 4883   2.756   1.067   3.111
 1640TIP3    H1 4884   2.720   1.103   3.030
 1640TIP3    H2 4885   2.679   1.042   3.163
 1641TIP3   OH2 4886   1.526   5.221   0.087
 1641TIP3    H1 4887   1.543   5.255   0.175
 1641TIP3    H2 4888   1.580   5.276   0.030
 1642TIP3   OH2 4889   2.503   6.281   1.407
 1642TIP3    H1 4890   2.566   6.252   1.341
 1642TIP3    H2 4891   2.537   6.365   1.438
 1643TIP3   OH2 4892   0.487   2.863   0.779
 1643TIP3    H1 4893   0.499   2.776   0.741
 1643TIP3    H2 4894   0.513   2.923   0.709
 1644TIP3   OH2 4895   0.612   4.785   5.210
 1644TIP3    H1 4896   0.706   4.805   5.207
 1644TIP3    H2 4897   0.580   4.831   5.288
 1645TIP3   OH2 4898   2.963   5.432   3.172
 1645TIP3    H1 4899   2.903   5.421   3.247
 1645TIP3    H2 4900   2.963   5.526   3.155
 1646TIP3   OH2 4901   4.455   4.163   3.371
 1646TIP3    H1 4902   4.499   4.149   3.287
 1646TIP3    H2 4903   4.366   4.132   3.356
 1647TIP3   OH2 4904   6.783   6.799   1.923
 1647TIP3    H1 4905   6.718   6.729   1.920
 1647TIP3    H2 4906   6.861   6.759   1.962
 1648TIP3   OH2 4907   5.880   3.708   3.709
 1648TIP3    H1 4908   5.823   3.750   3.644
 1648TIP3    H2 4909   5.950   3.668   3.658
 1649TIP3   OH2 4910   0.428   2.758   3.255
 1649TIP3    H1 4911   0.498   2.701   3.289
 1649TIP3    H2 4912   0.436   2.750   3.160
 1650TIP3   OH2 4913   6.866   3.682   4.179
 1650TIP3    H1 4914   6.814   3.758   4.151
 1650TIP3    H2 4915   6.896   3.642   4.097
 1651TIP3   OH2 4916   6.257   0.966   1.809
 1651TIP3    H1 4917   6.239   0.953   1.716
 1651TIP3    H2 4918   6.244   1.060   1.823
 1652TIP3   OH2 4919   2.136   1.516   5.229
 1652TIP3    H1 4920   2.157   1.490   5.318
 1652TIP3    H2 4921   2.215   1.494   5.179
 1653TIP3   OH2 4922   4.517   5.250   3.315
 1653TIP3    H1 4923   4.431   5.212   3.334
 1653TIP3    H2 4924   4.576   5.207   3.378
 1654TIP3   OH2 4925   2.223   3.876   5.301
 1654TIP3    H1 4926   2.191   3.964   5.322
 1654TIP3    H2 4927   2.249   3.839   5.386
 1655TIP3   OH2 4928   3.379   4.698   3.999
 1655TIP3    H1 4929   3.428   4.757   4.056
 1655TIP3    H2 4930   3.419   4.612   4.014
 1656TIP3   OH2 4931   3.945   1.838   0.247
 1656TIP3    H1 4932   3.998   1.887   0.184
 1656TIP3    H2 4933   3.860   1.827   0.203
 1657TIP3   OH2 4934   0.165   5.185   0.032
 1657TIP3    H1 4935   0.208   5.269   0.016
 1657TIP3    H2 4936   0.213   5.147   0.105
 1658TIP3   OH2 4937   2.032   0.343   4.608
 1658TIP3    H1 4938   2.117   0.350   4.563
 1658TIP3    H2 4939   1.979   0.413   4.570
 1659TIP3   OH2 4940   1.865   0.555   2.482
 1659TIP3    H1 4941   1.800   0.520   2.421
 1659TIP3    H2 4942   1.918   0.615   2.429
 1660TIP3   OH2 4943   1.295   4.817   1.789
 1660TIP3    H1 4944   1.315   4.901   1.749
 1660TIP3    H2 4945   1.265   4.839   1.877
 1661TIP3   OH2 4946   6.517   2.396   3.026
 1661TIP3    H1 4947   6.556   2.317   3.063
 1661TIP3    H2 4948   6.572   2.417   2.950
 1662TIP3   OH2 4949   4.601   6.293   2.054
 1662TIP3    H1 4950   4.600   6.305   1.959
 1662TIP3    H2 4951   4.509   6.301   2.080
 1663TIP3   OH2 4952   0.772   0.787   5.476
 1663TIP3    H1 4953   0.836   0.852   5.449
 1663TIP3    H2 4954   0.744   0.745   5.395
 1664TIP3   OH2 4955   3.994   1.741   1.323
 1664TIP3    H1 4956   3.982   1.678   1.394
 1664TIP3    H2 4957   4.055   1.806   1.359
 1665TIP3   OH2 4958   6.305   3.764   2.635
 1665TIP3    H1 4959   6.261   3.849   2.642
 1665TIP3    H2 4960   6.251   3.714   2.574
 1666TIP3   OH2 4961   0.985   3.283   3.825
 1666TIP3    H1 4962   0.975   3.361   3.880
 1666TIP3    H2 4963   0.930   3.217   3.867
 1667TIP3   OH2 4964   5.330   1.272   5.227
 1667TIP3    H1 4965   5.414   1.259   5.270
 1667TIP3    H2 4966   5.265   1.237   5.288
 1668TIP3   OH2 4967   2.510   6.670   4.076
 1668TIP3    H1 4968   2.501   6.762   4.101
 1668TIP3    H2 4969   2.473   6.665   3.988
 1669TIP3   OH2 4970   6.479   6.010   0.079
 1669TIP3    H1 4971   6.566   6.047   0.094
 1669TIP3    H2 4972   6.483   5.975  -0.010
 1670TIP3   OH2 4973   0.135   6.207   0.098
 1670TIP3    H1 4974   0.169   6.274   0.039
 1670TIP3    H2 4975   0.211   6.178   0.148
 1671TIP3   OH2 4976   1.433   4.585   5.475
 1671TIP3    H1 4977   1.401   4.502   5.510
 1671TIP3    H2 4978   1.523   4.591   5.507
 1672TIP3   OH2 4979   0.489   2.620   0.208
 1672TIP3    H1 4980   0.457   2.710   0.213
 1672TIP3    H2 4981   0.506   2.605   0.115
 1673TIP3   OH2 4982   4.218   1.330   2.133
 1673TIP3    H1 4983   4.292   1.352   2.190
 1673TIP3    H2 4984   4.140   1.358   2.182
 1674TIP3   OH2 4985   6.459   5.215   5.050
 1674TIP3    H1 4986   6.416   5.132   5.031
 1674TIP3    H2 4987   6.390   5.281   5.042
 1675TIP3   OH2 4988   3.320   0.431   0.559
 1675TIP3    H1 4989   3.377   0.417   0.482
 1675TIP3    H2 4990   3.362   0.503   0.606
 1676TIP3   OH2 4991   2.597   1.166   0.475
 1676TIP3    H1 4992   2.536   1.174   0.549
 1676TIP3    H2 4993   2.682   1.190   0.512
 1677TIP3   OH2 4994   0.586   3.692   1.091
 1677TIP3    H1 4995   0.625   3.621   1.142
 1677TIP3    H2 4996   0.532   3.739   1.155
 1678TIP3   OH2 4997   6.403   5.957   2.986
 1678TIP3    H1 4998   6.449   6.022   3.039
 1678TIP3    H2 4999   6.472   5.912   2.937
 1679TIP3   OH2 5000   4.424   2.405   5.011
 1679TIP3    H1 5001   4.345   2.371   5.053
 1679TIP3    H2 5002   4.427   2.361   4.926
 1680TIP3   OH2 5003   2.082   4.257   4.406
 1680TIP3    H1 5004   2.141   4.197   4.452
 1680TIP3    H2 5005   2.111   4.344   4.432
 1681TIP3   OH2 5006   4.450   6.727   3.142
 1681TIP3    H1 5007   4.355   6.721   3.136
 1681TIP3    H2 5008   4.472   6.679   3.222
 1682TIP3   OH2 5009   5.507   3.992   4.460
 1682TIP3    H1 5010   5.511   3.898   4.478
 1682TIP3    H2 5011   5.415   4.008   4.438
 1683TIP3   OH2 5012   1.788   3.824   0.941
 1683TIP3    H1 5013   1.824   3.902   0.985
 1683TIP3    H2 5014   1.787   3.757   1.009
 1684TIP3   OH2 5015   0.520   0.089   3.017
 1684TIP3    H1 5016   0.579   0.075   3.091
 1684TIP3    H2 5017   0.532   0.181   2.994
 1685TIP3   OH2 5018   4.656   1.669   2.772
 1685TIP3    H1 5019   4.605   1.593   2.745
 1685TIP3    H2 5020   4.745   1.652   2.739
 1686TIP3   OH2 5021   7.128   3.958   0.925
 1686TIP3    H1 5022   7.057   3.918   0.875
 1686TIP3    H2 5023   7.180   4.004   0.860
 1687TIP3   OH2 5024   0.897   1.664   4.342
 1687TIP3    H1 5025   0.894   1.637   4.250
 1687TIP3    H2 5026   0.990   1.661   4.366
 1688TIP3   OH2 5027   0.082   4.176   2.298
 1688TIP3    H1 5028   0.132   4.134   2.228
 1688TIP3    H2 5029   0.006   4.215   2.254
 1689TIP3   OH2 5030   2.136   0.127   3.283
 1689TIP3    H1 5031   2.138   0.222   3.293
 1689TIP3    H2 5032   2.096   0.112   3.197
 1690TIP3   OH2 5033   4.572   4.186   3.769
 1690TIP3    H1 5034   4.546   4.222   3.854
 1690TIP3    H2 5035   4.545   4.253   3.705
 1691TIP3   OH2 5036   1.458   1.079   4.389
 1691TIP3    H1 5037   1.460   0.984   4.391
 1691TIP3    H2 5038   1.377   1.100   4.342
 1692TIP3   OH2 5039   5.562   2.038   1.651
 1692TIP3    H1 5040   5.526   2.125   1.668
 1692TIP3    H2 5041   5.647   2.054   1.611
 1693TIP3   OH2 5042   5.345   0.614   2.231
 1693TIP3    H1 5043   5.257   0.585   2.208
 1693TIP3    H2 5044   5.350   0.602   2.326
 1694TIP3   OH2 5045   5.535   5.663   5.529
 1694TIP3    H1 5046   5.445   5.635   5.512
 1694TIP3    H2 5047   5.533   5.758   5.519
 1695TIP3   OH2 5048   6.867   0.697   3.819
 1695TIP3    H1 5049   6.929   0.695   3.892
 1695TIP3    H2 5050   6.837   0.607   3.810
 1696TIP3   OH2 5051   2.514   1.000   0.186
 1696TIP3    H1 5052   2.568   1.079   0.193
 1696TIP3    H2 5053   2.434   1.030   0.142
 1697TIP3   OH2 5054   0.070   3.580   0.332
 1697TIP3    H1 5055   0.077   3.671   0.359
 1697TIP3    H2 5056  -0.014   3.574   0.286
 1698TIP3   OH2 5057   4.195   3.581   3.547
 1698TIP3    H1 5058   4.288   3.569   3.528
 1698TIP3    H2 5059   4.192   3.655   3.608
 1699TIP3   OH2 5060   5.312   0.370   1.177
 1699TIP3    H1 5061   5.254   0.301   1.209
 1699TIP3    H2 5062   5.304   0.364   1.082
 1700TIP3   OH2 5063   5.389   0.605   5.049
 1700TIP3    H1 5064   5.451   0.565   4.988
 1700TIP3    H2 5065   5.437   0.613   5.131
 1701TIP3   OH2 5066   3.164   0.711   0.685
 1701TIP3    H1 5067   3.122   0.744   0.605
 1701TIP3    H2 5068   3.110   0.637   0.712
 1702TIP3   OH2 5069   3.873   5.012   3.500
 1702TIP3    H1 5070   3.873   5.056   3.585
 1702TIP3    H2 5071   3.966   5.005   3.477
 1703TIP3   OH2 5072   0.205   4.452   2.108
 1703TIP3    H1 5073   0.163   4.505   2.041
 1703TIP3    H2 5074   0.244   4.379   2.060
 1704TIP3   OH2 5075   3.501   2.017   0.789
 1704TIP3    H1 5076   3.502   1.926   0.758
 1704TIP3    H2 5077   3.485   2.009   0.884
 1705TIP3   OH2 5078   6.658   0.839   5.090
 1705TIP3    H1 5079   6.665   0.808   5.000
 1705TIP3    H2 5080   6.572   0.879   5.095
 1706TIP3   OH2 5081   6.824   5.588   4.782
 1706TIP3    H1 5082   6.742   5.552   4.817
 1706TIP3    H2 5083   6.892   5.535   4.823
 1707TIP3   OH2 5084   1.230   3.623   2.596
 1707TIP3    H1 5085   1.179   3.639   2.676
 1707TIP3    H2 5086   1.171   3.571   2.541
 1708TIP3   OH2 5087   3.394   4.379   4.521
 1708TIP3    H1 5088   3.470   4.370   4.464
 1708TIP3    H2 5089   3.320   4.393   4.461
 1709TIP3   OH2 5090   4.040   5.202   0.281
 1709TIP3    H1 5091   4.102   5.269   0.254
 1709TIP3    H2 5092   4.001   5.170   0.200
 1710TIP3   OH2 5093   1.707   1.640   5.892
 1710TIP3    H1 5094   1.622   1.644   5.848
 1710TIP3    H2 5095   1.722   1.546   5.906
 1711TIP3   OH2 5096   2.256   2.329   5.688
 1711TIP3    H1 5097   2.247   2.410   5.739
 1711TIP3    H2 5098   2.325   2.280   5.732
 1712TIP3   OH2 5099   4.310   4.998   4.628
 1712TIP3    H1 5100   4.283   4.951   4.707
 1712TIP3    H2 5101   4.363   5.071   4.660
 1713TIP3   OH2 5102   2.133   2.121   4.616
 1713TIP3    H1 5103   2.146   2.090   4.706
 1713TIP3    H2 5104   2.038   2.129   4.608
 1714TIP3   OH2 5105   4.546   4.437   4.681
 1714TIP3    H1 5106   4.559   4.522   4.639
 1714TIP3    H2 5107   4.469   4.449   4.737
 1715TIP3   OH2 5108   5.027   3.632   5.286
 1715TIP3    H1 5109   5.049   3.644   5.378
 1715TIP3    H2 5110   4.994   3.542   5.280
 1716TIP3   OH2 5111   1.000   1.789   0.266
 1716TIP3    H1 5112   0.979   1.865   0.212
 1716TIP3    H2 5113   0.961   1.809   0.351
 1717TIP3   OH2 5114   6.346   6.773   0.355
 1717TIP3    H1 5115   6.422   6.747   0.304
 1717TIP3    H2 5116   6.278   6.792   0.291
 1718TIP3   OH2 5117   5.168   4.069   1.378
 1718TIP3    H1 5118   5.185   4.148   1.430
 1718TIP3    H2 5119   5.140   4.101   1.293
 1719TIP3   OH2 5120   6.205   6.308   4.941
 1719TIP3    H1 5121   6.220   6.399   4.966
 1719TIP3    H2 5122   6.235   6.302   4.850
 1720TIP3   OH2 5123   5.830   4.646   4.468
 1720TIP3    H1 5124   5.850   4.739   4.457
 1720TIP3    H2 5125   5.805   4.616   4.381
 1721TIP3   OH2 5126   0.595   4.069   0.902
 1721TIP3    H1 5127   0.531   4.131   0.868
 1721TIP3    H2 5128   0.617   4.102   0.989
 1722TIP3   OH2 5129   2.807   4.310   4.834
 1722TIP3    H1 5130   2.832   4.397   4.803
 1722TIP3    H2 5131   2.873   4.288   4.900
 1723TIP3   OH2 5132   3.722   1.796   1.309
 1723TIP3    H1 5133   3.808   1.755   1.299
 1723TIP3    H2 5134   3.661   1.735   1.268
 1724TIP3   OH2 5135   3.472   3.230   2.516
 1724TIP3    H1 5136   3.499   3.253   2.605
 1724TIP3    H2 5137   3.391   3.180   2.527
 1725TIP3   OH2 5138   6.279   4.990   5.038
 1725TIP3    H1 5139   6.217   5.063   5.033
 1725TIP3    H2 5140   6.224   4.914   5.055
 1726TIP3   OH2 5141   6.807   5.458   1.949
 1726TIP3    H1 5142   6.804   5.478   1.856
 1726TIP3    H2 5143   6.896   5.482   1.976
 1727TIP3   OH2 5144   1.550   5.613   4.320
 1727TIP3    H1 5145   1.598   5.689   4.286
 1727TIP3    H2 5146   1.607   5.577   4.388
 1728TIP3   OH2 5147   6.029   4.981   4.694
 1728TIP3    H1 5148   6.032   4.889   4.666
 1728TIP3    H2 5149   6.121   5.006   4.702
 1729TIP3   OH2 5150   2.554   3.236   0.675
 1729TIP3    H1 5151   2.591   3.151   0.697
 1729TIP3    H2 5152   2.471   3.239   0.722
 1730TIP3   OH2 5153   6.411   5.306   1.759
 1730TIP3    H1 5154   6.492   5.344   1.726
 1730TIP3    H2 5155   6.420   5.212   1.742
 1731TIP3   OH2 5156   5.007   5.027   4.199
 1731TIP3    H1 5157   5.061   5.056   4.272
 1731TIP3    H2 5158   5.069   4.992   4.135
 1732TIP3   OH2 5159   4.109   0.863   0.222
 1732TIP3    H1 5160   4.167   0.930   0.259
 1732TIP3    H2 5161   4.150   0.839   0.139
 1733TIP3   OH2 5162   2.679   1.483   0.243
 1733TIP3    H1 5163   2.656   1.486   0.336
 1733TIP3    H2 5164   2.703   1.573   0.221
 1734TIP3   OH2 5165   5.913   2.473   4.659
 1734TIP3    H1 5166   6.004   2.500   4.670
 1734TIP3    H2 5167   5.878   2.532   4.592
 1735TIP3   OH2 5168   0.930   4.294   4.923
 1735TIP3    H1 5169   0.901   4.380   4.891
 1735TIP3    H2 5170   0.849   4.245   4.934
 1736TIP3   OH2 5171   5.551   5.355   3.545
 1736TIP3    H1 5172   5.585   5.305   3.619
 1736TIP3    H2 5173   5.469   5.311   3.523
 1737TIP3   OH2 5174   3.246   4.077   4.534
 1737TIP3    H1 5175   3.288   4.032   4.462
 1737TIP3    H2 5176   3.238   4.168   4.505
 1738TIP3   OH2 5177   0.387   6.412   0.572
 1738TIP3    H1 5178   0.323   6.473   0.608
 1738TIP3    H2 5179   0.335   6.343   0.530
 1739TIP3   OH2 5180   4.874   5.432   1.434
 1739TIP3    H1 5181   4.853   5.444   1.527
 1739TIP3    H2 5182   4.918   5.513   1.409
 1740TIP3   OH2 5183   2.652   1.010   1.639
 1740TIP3    H1 5184   2.690   0.955   1.707
 1740TIP3    H2 5185   2.664   1.100   1.670
 1741TIP3   OH2 5186   6.186   3.093   5.319
 1741TIP3    H1 5187   6.223   3.011   5.287
 1741TIP3    H2 5188   6.092   3.075   5.328
 1742TIP3   OH2 5189   2.124   2.120   5.543
 1742TIP3    H1 5190   2.069   2.185   5.500
 1742TIP3    H2 5191   2.208   2.164   5.554
 1743TIP3   OH2 5192   5.374   3.105   2.646
 1743TIP3    H1 5193   5.431   3.099   2.723
 1743TIP3    H2 5194   5.289   3.132   2.682
 1744TIP3   OH2 5195   1.261   3.952   1.830
 1744TIP3    H1 5196   1.248   3.872   1.881
 1744TIP3    H2 5197   1.297   3.921   1.747
 1745TIP3   OH2 5198   6.619   6.334   0.494
 1745TIP3    H1 5199   6.667   6.265   0.447
 1745TIP3    H2 5200   6.632   6.313   0.586
 1746TIP3   OH2 5201   5.568   4.996   1.541
 1746TIP3    H1 5202   5.542   5.083   1.511
 1746TIP3    H2 5203   5.568   5.003   1.636
 1747TIP3   OH2 5204   1.099   1.971   0.046
 1747TIP3    H1 5205   1.151   1.892   0.061
 1747TIP3    H2 5206   1.120   2.027   0.120
 1748TIP3   OH2 5207   0.037   2.501   5.111
 1748TIP3    H1 5208   0.111   2.541   5.155
 1748TIP3    H2 5209   0.001   2.440   5.176
 1749TIP3   OH2 5210   4.964   1.667   1.762
 1749TIP3    H1 5211   4.869   1.679   1.757
 1749TIP3    H2 5212   4.987   1.621   1.681
 1750TIP3   OH2 5213   1.321   6.601   1.982
 1750TIP3    H1 5214   1.266   6.606   2.061
 1750TIP3    H2 5215   1.285   6.527   1.933
 1751TIP3   OH2 5216   1.448   6.130   1.384
 1751TIP3    H1 5217   1.375   6.079   1.420
 1751TIP3    H2 5218   1.420   6.221   1.393
 1752TIP3   OH2 5219   4.393   1.294   3.268
 1752TIP3    H1 5220   4.300   1.289   3.247
 1752TIP3    H2 5221   4.409   1.218   3.323
 1753TIP3   OH2 5222   1.796   1.837   5.120
 1753TIP3    H1 5223   1.780   1.760   5.175
 1753TIP3    H2 5224   1.860   1.807   5.056
 1754TIP3   OH2 5225   3.436   6.040   4.364
 1754TIP3    H1 5226   3.476   6.105   4.421
 1754TIP3    H2 5227   3.409   5.970   4.424
 1755TIP3   OH2 5228   5.101   0.703   1.769
 1755TIP3    H1 5229   5.140   0.675   1.686
 1755TIP3    H2 5230   5.047   0.629   1.797
 1756TIP3   OH2 5231   1.112   6.295   3.148
 1756TIP3    H1 5232   1.024   6.293   3.111
 1756TIP3    H2 5233   1.098   6.318   3.240
 1757TIP3   OH2 5234   2.291   0.647   1.598
 1757TIP3    H1 5235   2.381   0.629   1.624
 1757TIP3    H2 5236   2.292   0.643   1.502
 1758TIP3   OH2 5237   0.236   2.185   2.003
 1758TIP3    H1 5238   0.303   2.117   2.001
 1758TIP3    H2 5239   0.234   2.220   1.914
 1759TIP3   OH2 5240   0.619   0.317   1.319
 1759TIP3    H1 5241   0.659   0.235   1.349
 1759TIP3    H2 5242   0.642   0.381   1.386
 1760TIP3   OH2 5243   1.882   1.588   5.226
 1760TIP3    H1 5244   1.978   1.592   5.218
 1760TIP3    H2 5245   1.868   1.533   5.304
 1761TIP3   OH2 5246   6.575   5.108   1.498
 1761TIP3    H1 5247   6.532   5.062   1.570
 1761TIP3    H2 5248   6.615   5.039   1.445
 1762TIP3   OH2 5249   1.657   2.869   3.371
 1762TIP3    H1 5250   1.587   2.805   3.358
 1762TIP3    H2 5251   1.613   2.944   3.412
 1763TIP3   OH2 5252   4.243   4.474   1.677
 1763TIP3    H1 5253   4.338   4.469   1.664
 1763TIP3    H2 5254   4.215   4.548   1.624
 1764TIP3   OH2 5255   6.898   5.909   3.060
 1764TIP3    H1 5256   6.982   5.945   3.086
 1764TIP3    H2 5257   6.878   5.842   3.126
 1765TIP3   OH2 5258   3.719   5.025   2.883
 1765TIP3    H1 5259   3.640   5.011   2.829
 1765TIP3    H2 5260   3.687   5.075   2.958
 1766TIP3   OH2 5261   1.804   2.614   1.103
 1766TIP3    H1 5262   1.854   2.549   1.153
 1766TIP3    H2 5263   1.721   2.621   1.149
 1767TIP3   OH2 5264   3.836   3.655   1.678
 1767TIP3    H1 5265   3.876   3.577   1.641
 1767TIP3    H2 5266   3.743   3.635   1.681
 1768TIP3   OH2 5267   4.117   4.613   1.125
 1768TIP3    H1 5268   4.128   4.628   1.031
 1768TIP3    H2 5269   4.069   4.690   1.157
 1769TIP3   OH2 5270   3.912   4.154   0.945
 1769TIP3    H1 5271   3.838   4.211   0.923
 1769TIP3    H2 5272   3.892   4.122   1.033
 1770TIP3   OH2 5273   6.908   4.950   4.631
 1770TIP3    H1 5274   6.978   5.013   4.615
 1770TIP3    H2 5275   6.834   4.984   4.581
 1771TIP3   OH2 5276   0.781   4.963   2.576
 1771TIP3    H1 5277   0.733   4.962   2.493
 1771TIP3    H2 5278   0.720   5.004   2.637
 1772TIP3   OH2 5279   5.033   1.019   5.803
 1772TIP3    H1 5280   5.117   1.058   5.775
 1772TIP3    H2 5281   5.002   0.972   5.726
 1773TIP3   OH2 5282   4.817   3.979   2.941
 1773TIP3    H1 5283   4.765   4.051   2.978
 1773TIP3    H2 5284   4.903   3.989   2.981
 1774TIP3   OH2 5285   6.297   2.006   3.538
 1774TIP3    H1 5286   6.281   2.044   3.452
 1774TIP3    H2 5287   6.270   2.074   3.600
 1775TIP3   OH2 5288   7.122   1.132   2.097
 1775TIP3    H1 5289   7.109   1.096   2.185
 1775TIP3    H2 5290   7.069   1.076   2.040
 1776TIP3   OH2 5291   7.004   1.583   0.746
 1776TIP3    H1 5292   7.033   1.497   0.776
 1776TIP3    H2 5293   6.956   1.620   0.820
 1777TIP3   OH2 5294   0.503   5.883   5.082
 1777TIP3    H1 5295   0.592   5.869   5.048
 1777TIP3    H2 5296   0.470   5.957   5.030
 1778TIP3   OH2 5297   5.493   3.930   3.410
 1778TIP3    H1 5298   5.426   3.862   3.409
 1778TIP3    H2 5299   5.454   4.002   3.360
 1779TIP3   OH2 5300   3.748   5.428   1.889
 1779TIP3    H1 5301   3.828   5.455   1.934
 1779TIP3    H2 5302   3.771   5.346   1.845
 1780TIP3   OH2 5303   3.065   2.137   5.516
 1780TIP3    H1 5304   3.042   2.050   5.549
 1780TIP3    H2 5305   3.009   2.149   5.440
 1781TIP3   OH2 5306   4.378   2.822   1.952
 1781TIP3    H1 5307   4.378   2.917   1.938
 1781TIP3    H2 5308   4.432   2.787   1.882
 1782TIP3   OH2 5309   5.516   3.933   1.378
 1782TIP3    H1 5310   5.468   3.857   1.411
 1782TIP3    H2 5311   5.469   4.008   1.413
 1783TIP3   OH2 5312   3.456   1.051   2.507
 1783TIP3    H1 5313   3.383   1.070   2.448
 1783TIP3    H2 5314   3.528   1.026   2.449
 1784TIP3   OH2 5315   1.260   6.317   5.581
 1784TIP3    H1 5316   1.189   6.288   5.523
 1784TIP3    H2 5317   1.316   6.240   5.590
 1785TIP3   OH2 5318   1.431   5.695   5.543
 1785TIP3    H1 5319   1.465   5.714   5.456
 1785TIP3    H2 5320   1.509   5.688   5.599
 1786TIP3   OH2 5321   3.681   4.640   3.074
 1786TIP3    H1 5322   3.745   4.698   3.115
 1786TIP3    H2 5323   3.656   4.579   3.143
 1787TIP3   OH2 5324   3.126   6.378   0.613
 1787TIP3    H1 5325   3.118   6.396   0.520
 1787TIP3    H2 5326   3.159   6.459   0.651
 1788TIP3   OH2 5327   1.501   0.507   1.218
 1788TIP3    H1 5328   1.417   0.501   1.171
 1788TIP3    H2 5329   1.476   0.521   1.310
 1789TIP3   OH2 5330   2.149   1.343   4.568
 1789TIP3    H1 5331   2.054   1.346   4.583
 1789TIP3    H2 5332   2.158   1.294   4.486
 1790TIP3   OH2 5333   0.177   5.391   5.417
 1790TIP3    H1 5334   0.176   5.313   5.471
 1790TIP3    H2 5335   0.173   5.359   5.327
 1791TIP3   OH2 5336   0.727   4.185   2.220
 1791TIP3    H1 5337   0.690   4.101   2.191
 1791TIP3    H2 5338   0.712   4.244   2.146
 1792TIP3   OH2 5339   3.049   4.852   4.861
 1792TIP3    H1 5340   3.101   4.778   4.890
 1792TIP3    H2 5341   3.049   4.846   4.765
 1793TIP3   OH2 5342   0.011   2.293   5.309
 1793TIP3    H1 5343   0.047   2.263   5.393
 1793TIP3    H2 5344   0.069   2.254   5.243
 1794TIP3   OH2 5345   7.057   2.446   1.209
 1794TIP3    H1 5346   6.973   2.485   1.235
 1794TIP3    H2 5347   7.099   2.512   1.155
 1795TIP3   OH2 5348   1.216   6.047   3.004
 1795TIP3    H1 5349   1.227   6.026   2.911
 1795TIP3    H2 5350   1.182   6.136   3.005
 1796TIP3   OH2 5351   3.709   6.713   0.147
 1796TIP3    H1 5352   3.636   6.756   0.103
 1796TIP3    H2 5353   3.699   6.735   0.239
 1797TIP3   OH2 5354   6.321   6.584   1.285
 1797TIP3    H1 5355   6.401   6.559   1.238
 1797TIP3    H2 5356   6.327   6.680   1.293
 1798TIP3   OH2 5357   6.636   1.056   0.389
 1798TIP3    H1 5358   6.680   1.136   0.415
 1798TIP3    H2 5359   6.545   1.068   0.416
 1799TIP3   OH2 5360   4.905   5.953   4.215
 1799TIP3    H1 5361   4.942   6.035   4.248
 1799TIP3    H2 5362   4.979   5.892   4.214
 1800TIP3   OH2 5363   6.319   2.386   1.754
 1800TIP3    H1 5364   6.295   2.315   1.695
 1800TIP3    H2 5365   6.317   2.346   1.841
 1801TIP3   OH2 5366   3.519   5.619   5.623
 1801TIP3    H1 5367   3.573   5.675   5.679
 1801TIP3    H2 5368   3.581   5.558   5.583
 1802TIP3   OH2 5369   3.153   3.186   2.996
 1802TIP3    H1 5370   3.154   3.102   2.951
 1802TIP3    H2 5371   3.182   3.249   2.930
 1803TIP3   OH2 5372   0.918   2.462   0.583
 1803TIP3    H1 5373   0.986   2.397   0.566
 1803TIP3    H2 5374   0.898   2.500   0.498
 1804TIP3   OH2 5375   0.372   6.609   0.147
 1804TIP3    H1 5376   0.455   6.562   0.154
 1804TIP3    H2 5377   0.324   6.585   0.227
 1805TIP3   OH2 5378   4.374   3.537   2.208
 1805TIP3    H1 5379   4.365   3.630   2.186
 1805TIP3    H2 5380   4.397   3.537   2.301
 1806TIP3   OH2 5381   1.043   1.810   0.783
 1806TIP3    H1 5382   1.002   1.725   0.771
 1806TIP3    H2 5383   1.006   1.843   0.865
 1807TIP3   OH2 5384   3.755   0.420   1.911
 1807TIP3    H1 5385   3.700   0.349   1.943
 1807TIP3    H2 5386   3.841   0.402   1.949
 1808TIP3   OH2 5387   0.442   1.002   2.663
 1808TIP3    H1 5388   0.508   1.003   2.732
 1808TIP3    H2 5389   0.366   0.962   2.704
 1809TIP3   OH2 5390   1.215   4.761   3.111
 1809TIP3    H1 5391   1.224   4.855   3.094
 1809TIP3    H2 5392   1.251   4.719   3.033
 1810TIP3   OH2 5393   0.424   0.447   0.270
 1810TIP3    H1 5394   0.465   0.446   0.357
 1810TIP3    H2 5395   0.495   0.467   0.210
 1811TIP3   OH2 5396   2.775   1.006   4.280
 1811TIP3    H1 5397   2.721   1.009   4.201
 1811TIP3    H2 5398   2.785   1.098   4.305
 1812TIP3   OH2 5399   1.417   5.113   5.451
 1812TIP3    H1 5400   1.420   5.055   5.527
 1812TIP3    H2 5401   1.356   5.182   5.476
 1813TIP3   OH2 5402   4.425   1.761   3.604
 1813TIP3    H1 5403   4.405   1.796   3.517
 1813TIP3    H2 5404   4.472   1.679   3.587
 1814TIP3   OH2 5405   2.034   4.967   1.507
 1814TIP3    H1 5406   1.979   4.929   1.439
 1814TIP3    H2 5407   2.050   4.895   1.568
 1815TIP3   OH2 5408   3.771   4.388   5.447
 1815TIP3    H1 5409   3.830   4.435   5.506
 1815TIP3    H2 5410   3.721   4.329   5.504
 1816TIP3   OH2 5411   1.041   4.907   1.910
 1816TIP3    H1 5412   1.043   4.959   1.990
 1816TIP3    H2 5413   1.048   4.972   1.839
 1817TIP3   OH2 5414   5.100   2.305   0.394
 1817TIP3    H1 5415   5.064   2.287   0.307
 1817TIP3    H2 5416   5.070   2.233   0.448
 1818TIP3   OH2 5417   3.686   2.288   4.928
 1818TIP3    H1 5418   3.624   2.357   4.905
 1818TIP3    H2 5419   3.647   2.245   5.004
 1819TIP3   OH2 5420   1.069   5.909   3.189
 1819TIP3    H1 5421   1.135   5.897   3.257
 1819TIP3    H2 5422   1.112   5.965   3.124
 1820TIP3   OH2 5423   4.657   2.439   2.959
 1820TIP3    H1 5424   4.596   2.512   2.955
 1820TIP3    H2 5425   4.634   2.392   3.039
 1821TIP3   OH2 5426   6.066   2.059   3.067
 1821TIP3    H1 5427   6.123   2.136   3.058
 1821TIP3    H2 5428   6.093   2.001   2.996
 1822TIP3   OH2 5429   5.082   4.078   2.377
 1822TIP3    H1 5430   5.131   4.091   2.295
 1822TIP3    H2 5431   5.019   4.010   2.356
 1823TIP3   OH2 5432   3.736   1.282   5.485
 1823TIP3    H1 5433   3.763   1.298   5.395
 1823TIP3    H2 5434   3.810   1.315   5.538
 1824TIP3   OH2 5435   6.361   4.481   0.126
 1824TIP3    H1 5436   6.411   4.408   0.162
 1824TIP3    H2 5437   6.326   4.448   0.043
 1825TIP3   OH2 5438   4.534   5.900   5.606
 1825TIP3    H1 5439   4.518   5.856   5.689
 1825TIP3    H2 5440   4.446   5.918   5.571
 1826TIP3   OH2 5441   5.897   0.661   2.797
 1826TIP3    H1 5442   5.842   0.732   2.765
 1826TIP3    H2 5443   5.986   0.690   2.780
 1827TIP3   OH2 5444   4.766   2.691   1.230
 1827TIP3    H1 5445   4.777   2.745   1.151
 1827TIP3    H2 5446   4.854   2.678   1.263
 1828TIP3   OH2 5447   0.195   5.976   3.005
 1828TIP3    H1 5448   0.244   6.003   3.082
 1828TIP3    H2 5449   0.184   6.056   2.954
 1829TIP3   OH2 5450   7.223  -0.001   5.348
 1829TIP3    H1 5451   7.130   0.001   5.326
 1829TIP3    H2 5452   7.263   0.063   5.289
 1830TIP3   OH2 5453   6.655   3.150   0.752
 1830TIP3    H1 5454   6.749   3.144   0.772
 1830TIP3    H2 5455   6.612   3.148   0.838
 1831TIP3   OH2 5456   2.113   4.685   3.192
 1831TIP3    H1 5457   2.131   4.776   3.167
 1831TIP3    H2 5458   2.046   4.656   3.131
 1832TIP3   OH2 5459   3.082   5.896   0.436
 1832TIP3    H1 5460   3.128   5.979   0.422
 1832TIP3    H2 5461   3.152   5.832   0.452
 1833TIP3   OH2 5462   5.061   1.945   2.949
 1833TIP3    H1 5463   4.977   1.991   2.945
 1833TIP3    H2 5464   5.037   1.855   2.970
 1834TIP3   OH2 5465   1.699   2.046   3.325
 1834TIP3    H1 5466   1.779   2.073   3.371
 1834TIP3    H2 5467   1.686   2.113   3.258
 1835TIP3   OH2 5468   6.495   6.179   4.177
 1835TIP3    H1 5469   6.496   6.116   4.248
 1835TIP3    H2 5470   6.449   6.134   4.106
 1836TIP3   OH2 5471   0.145   4.874   0.637
 1836TIP3    H1 5472   0.224   4.911   0.675
 1836TIP3    H2 5473   0.101   4.948   0.594
 1837TIP3   OH2 5474   5.234   0.487   1.922
 1837TIP3    H1 5475   5.293   0.556   1.893
 1837TIP3    H2 5476   5.171   0.532   1.978
 1838TIP3   OH2 5477   6.388   0.052   0.205
 1838TIP3    H1 5478   6.302   0.012   0.217
 1838TIP3    H2 5479   6.402   0.104   0.284
 1839TIP3   OH2 5480   2.554   4.652   2.598
 1839TIP3    H1 5481   2.559   4.717   2.668
 1839TIP3    H2 5482   2.621   4.588   2.620
 1840TIP3   OH2 5483   5.782   4.247   2.060
 1840TIP3    H1 5484   5.736   4.193   1.995
 1840TIP3    H2 5485   5.769   4.201   2.143
 1841TIP3   OH2 5486   4.172   4.654   3.531
 1841TIP3    H1 5487   4.208   4.736   3.499
 1841TIP3    H2 5488   4.231   4.586   3.499
 1842TIP3   OH2 5489   6.131   2.285   0.651
 1842TIP3    H1 5490   6.129   2.327   0.737
 1842TIP3    H2 5491   6.039   2.281   0.624
 1843TIP3   OH2 5492   6.488   2.368   5.102
 1843TIP3    H1 5493   6.489   2.272   5.100
 1843TIP3    H2 5494   6.555   2.392   5.165
 1844TIP3   OH2 5495   3.831   5.655   3.924
 1844TIP3    H1 5496   3.770   5.720   3.889
 1844TIP3    H2 5497   3.878   5.622   3.848
 1845TIP3   OH2 5498   5.189   3.501   0.005
 1845TIP3    H1 5499   5.246   3.488   0.080
 1845TIP3    H2 5500   5.200   3.422  -0.048
 1846TIP3   OH2 5501   6.583   3.018   1.121
 1846TIP3    H1 5502   6.491   3.044   1.125
 1846TIP3    H2 5503   6.582   2.925   1.143
 1847TIP3   OH2 5504   4.681   4.516   1.431
 1847TIP3    H1 5505   4.637   4.539   1.350
 1847TIP3    H2 5506   4.689   4.599   1.479
 1848TIP3   OH2 5507   3.414   2.743   2.452
 1848TIP3    H1 5508   3.386   2.802   2.382
 1848TIP3    H2 5509   3.390   2.656   2.420
 1849TIP3   OH2 5510   4.143   5.859   0.015
 1849TIP3    H1 5511   4.107   5.806  -0.056
 1849TIP3    H2 5512   4.195   5.798   0.067
 1850TIP3   OH2 5513   3.919   0.657   1.393
 1850TIP3    H1 5514   3.995   0.605   1.420
 1850TIP3    H2 5515   3.955   0.740   1.365
 1851TIP3   OH2 5516   1.663   5.242   3.733
 1851TIP3    H1 5517   1.579   5.277   3.761
 1851TIP3    H2 5518   1.663   5.253   3.638
 1852TIP3   OH2 5519   6.040   4.819   0.770
 1852TIP3    H1 5520   5.978   4.889   0.787
 1852TIP3    H2 5521   6.062   4.829   0.677
 1853TIP3   OH2 5522   1.020   4.957   5.067
 1853TIP3    H1 5523   1.007   5.046   5.033
 1853TIP3    H2 5524   1.089   4.967   5.133
 1854TIP3   OH2 5525   3.241   6.110   1.307
 1854TIP3    H1 5526   3.259   6.059   1.387
 1854TIP3    H2 5527   3.315   6.090   1.249
 1855TIP3   OH2 5528   7.142   0.818   0.211
 1855TIP3    H1 5529   7.214   0.792   0.268
 1855TIP3    H2 5530   7.110   0.736   0.173
 1856TIP3   OH2 5531   0.418   1.122   1.338
 1856TIP3    H1 5532   0.460   1.121   1.424
 1856TIP3    H2 5533   0.445   1.039   1.299
 1857TIP3   OH2 5534   6.457   2.065   1.219
 1857TIP3    H1 5535   6.382   2.076   1.161
 1857TIP3    H2 5536   6.438   2.122   1.294
 1858TIP3   OH2 5537   1.477   3.868   5.624
 1858TIP3    H1 5538   1.464   3.962   5.630
 1858TIP3    H2 5539   1.571   3.855   5.637
 1859TIP3   OH2 5540   6.325   5.799   1.606
 1859TIP3    H1 5541   6.364   5.716   1.577
 1859TIP3    H2 5542   6.249   5.811   1.550
 1860TIP3   OH2 5543   6.707   3.317   5.704
 1860TIP3    H1 5544   6.615   3.313   5.678
 1860TIP3    H2 5545   6.708   3.374   5.780
 1861TIP3   OH2 5546   6.850   2.651   1.309
 1861TIP3    H1 5547   6.887   2.696   1.233
 1861TIP3    H2 5548   6.755   2.660   1.299
 1862TIP3   OH2 5549   7.095   2.324   0.700
 1862TIP3    H1 5550   7.126   2.244   0.656
 1862TIP3    H2 5551   7.174   2.377   0.711
 1863TIP3   OH2 5552   2.768   5.301   2.721
 1863TIP3    H1 5553   2.848   5.292   2.773
 1863TIP3    H2 5554   2.790   5.265   2.635
 1864TIP3   OH2 5555   5.724   0.438   3.473
 1864TIP3    H1 5556   5.780   0.495   3.526
 1864TIP3    H2 5557   5.762   0.442   3.385
 1865TIP3   OH2 5558   0.460   0.764   4.900
 1865TIP3    H1 5559   0.375   0.801   4.876
 1865TIP3    H2 5560   0.510   0.764   4.818
 1866TIP3   OH2 5561   6.183   0.154   2.296
 1866TIP3    H1 5562   6.130   0.199   2.361
 1866TIP3    H2 5563   6.123   0.094   2.252
 1867TIP3   OH2 5564   4.120   6.300   3.376
 1867TIP3    H1 5565   4.100   6.209   3.353
 1867TIP3    H2 5566   4.214   6.301   3.393
 1868TIP3   OH2 5567   0.824   3.837   4.916
 1868TIP3    H1 5568   0.848   3.761   4.968
 1868TIP3    H2 5569   0.902   3.857   4.864
 1869TIP3   OH2 5570   1.712   3.189   1.179
 1869TIP3    H1 5571   1.686   3.123   1.243
 1869TIP3    H2 5572   1.746   3.139   1.105
 1870TIP3   OH2 5573   7.101   6.761   0.645
 1870TIP3    H1 5574   7.039   6.721   0.583
 1870TIP3    H2 5575   7.118   6.692   0.709
 1871TIP3   OH2 5576   2.461   0.190   2.038
 1871TIP3    H1 5577   2.523   0.134   2.085
 1871TIP3    H2 5578   2.431   0.136   1.965
 1872TIP3   OH2 5579   7.012   4.504   2.470
 1872TIP3    H1 5580   7.090   4.526   2.419
 1872TIP3    H2 5581   7.023   4.411   2.491
 1873TIP3   OH2 5582   6.058   5.873   0.930
 1873TIP3    H1 5583   6.055   5.956   0.883
 1873TIP3    H2 5584   6.144   5.872   0.973
 1874TIP3   OH2 5585   4.405   4.843   4.429
 1874TIP3    H1 5586   4.370   4.914   4.483
 1874TIP3    H2 5587   4.387   4.870   4.339
 1875TIP3   OH2 5588   2.879   2.604   0.754
 1875TIP3    H1 5589   2.801   2.637   0.798
 1875TIP3    H2 5590   2.929   2.682   0.729
 1876TIP3   OH2 5591   4.658   5.289   3.818
 1876TIP3    H1 5592   4.589   5.353   3.834
 1876TIP3    H2 5593   4.734   5.324   3.865
 1877TIP3   OH2 5594   6.507   4.595   2.484
 1877TIP3    H1 5595   6.522   4.523   2.423
 1877TIP3    H2 5596   6.435   4.566   2.540
 1878TIP3   OH2 5597   4.840   5.097   0.989
 1878TIP3    H1 5598   4.876   5.117   0.903
 1878TIP3    H2 5599   4.845   5.180   1.037
 1879TIP3   OH2 5600   1.586   5.392   5.632
 1879TIP3    H1 5601   1.602   5.457   5.564
 1879TIP3    H2 5602   1.673   5.367   5.662
 1880TIP3   OH2 5603   4.248   2.138   4.098
 1880TIP3    H1 5604   4.237   2.133   4.193
 1880TIP3    H2 5605   4.201   2.061   4.065
 1881TIP3   OH2 5606   1.185   2.352   3.508
 1881TIP3    H1 5607   1.152   2.436   3.542
 1881TIP3    H2 5608   1.275   2.369   3.484
 1882TIP3   OH2 5609   6.048   5.042   3.362
 1882TIP3    H1 5610   6.110   5.013   3.295
 1882TIP3    H2 5611   6.099   5.047   3.442
 1883TIP3   OH2 5612   6.376   4.615   2.044
 1883TIP3    H1 5613   6.468   4.600   2.068
 1883TIP3    H2 5614   6.379   4.653   1.956
 1884TIP3   OH2 5615   5.004   1.197   0.304
 1884TIP3    H1 5616   5.097   1.182   0.319
 1884TIP3    H2 5617   4.982   1.267   0.366
 1885TIP3   OH2 5618   0.436   3.280   4.002
 1885TIP3    H1 5619   0.472   3.207   3.952
 1885TIP3    H2 5620   0.458   3.357   3.949
 1886TIP3   OH2 5621   1.241   3.043  -0.018
 1886TIP3    H1 5622   1.286   3.106   0.039
 1886TIP3    H2 5623   1.243   2.961   0.031
 1887TIP3   OH2 5624   3.941   4.984   0.396
 1887TIP3    H1 5625   3.991   5.059   0.363
 1887TIP3    H2 5626   3.942   4.994   0.491
 1888TIP3   OH2 5627   0.193   0.803   0.032
 1888TIP3    H1 5628   0.149   0.879   0.070
 1888TIP3    H2 5629   0.198   0.739   0.104
 1889TIP3   OH2 5630   1.450   1.227   4.895
 1889TIP3    H1 5631   1.374   1.186   4.853
 1889TIP3    H2 5632   1.515   1.235   4.826
 1890TIP3   OH2 5633   0.278   5.647   5.424
 1890TIP3    H1 5634   0.242   5.559   5.422
 1890TIP3    H2 5635   0.202   5.704   5.415
 1891TIP3   OH2 5636   5.308   0.063   1.765
 1891TIP3    H1 5637   5.254   0.024   1.834
 1891TIP3    H2 5638   5.397   0.063   1.800
 1892TIP3   OH2 5639   0.984   1.623   5.647
 1892TIP3    H1 5640   0.896   1.644   5.617
 1892TIP3    H2 5641   0.976   1.535   5.684
 1893TIP3   OH2 5642   3.087   2.344   1.530
 1893TIP3    H1 5643   3.129   2.354   1.445
 1893TIP3    H2 5644   3.004   2.390   1.522
 1894TIP3   OH2 5645   2.450   5.515   5.424
 1894TIP3    H1 5646   2.495   5.509   5.340
 1894TIP3    H2 5647   2.493   5.450   5.480
 1895TIP3   OH2 5648   2.902   2.189   5.303
 1895TIP3    H1 5649   2.894   2.095   5.283
 1895TIP3    H2 5650   2.881   2.232   5.220
 1896TIP3   OH2 5651   6.369   4.021   4.389
 1896TIP3    H1 5652   6.332   4.107   4.410
 1896TIP3    H2 5653   6.306   3.982   4.328
 1897TIP3   OH2 5654   4.336   1.860   5.308
 1897TIP3    H1 5655   4.411   1.919   5.312
 1897TIP3    H2 5656   4.371   1.774   5.331
 1898TIP3   OH2 5657   2.238   2.576   5.825
 1898TIP3    H1 5658   2.304   2.585   5.893
 1898TIP3    H2 5659   2.156   2.603   5.866
 1899TIP3   OH2 5660   0.571   2.562   0.917
 1899TIP3    H1 5661   0.643   2.500   0.933
 1899TIP3    H2 5662   0.578   2.583   0.824
 1900TIP3   OH2 5663   7.158   1.067   3.490
 1900TIP3    H1 5664   7.191   1.019   3.414
 1900TIP3    H2 5665   7.179   1.159   3.472
 1901TIP3   OH2 5666   1.607   2.821   4.050
 1901TIP3    H1 5667   1.702   2.810   4.053
 1901TIP3    H2 5668   1.594   2.915   4.055
 1902TIP3   OH2 5669   4.136   3.089   2.532
 1902TIP3    H1 5670   4.060   3.057   2.485
 1902TIP3    H2 5671   4.165   3.015   2.586
 1903TIP3   OH2 5672   1.031   4.569   3.238
 1903TIP3    H1 5673   1.070   4.569   3.325
 1903TIP3    H2 5674   1.075   4.640   3.191
 1904TIP3   OH2 5675   0.091   1.906   2.027
 1904TIP3    H1 5676   0.038   1.881   2.103
 1904TIP3    H2 5677   0.130   1.989   2.051
 1905TIP3   OH2 5678   5.277   3.870   4.177
 1905TIP3    H1 5679   5.295   3.946   4.122
 1905TIP3    H2 5680   5.254   3.907   4.262
 1906TIP3   OH2 5681   7.017   6.495   1.525
 1906TIP3    H1 5682   7.042   6.578   1.566
 1906TIP3    H2 5683   6.970   6.448   1.594
 1907TIP3   OH2 5684   1.661   6.520   1.101
 1907TIP3    H1 5685   1.647   6.615   1.094
 1907TIP3    H2 5686   1.688   6.507   1.192
 1908TIP3   OH2 5687   2.623   5.489   5.203
 1908TIP3    H1 5688   2.700   5.534   5.171
 1908TIP3    H2 5689   2.596   5.432   5.132
 1909TIP3   OH2 5690   1.564   4.592   2.281
 1909TIP3    H1 5691   1.606   4.609   2.197
 1909TIP3    H2 5692   1.483   4.547   2.260
 1910TIP3   OH2 5693   0.466   0.900   1.198
 1910TIP3    H1 5694   0.538   0.882   1.138
 1910TIP3    H2 5695   0.423   0.815   1.210
 1911TIP3   OH2 5696   1.273   2.363   0.777
 1911TIP3    H1 5697   1.328   2.303   0.728
 1911TIP3    H2 5698   1.203   2.308   0.813
 1912TIP3   OH2 5699   4.430   3.694   0.033
 1912TIP3    H1 5700   4.406   3.613   0.076
 1912TIP3    H2 5701   4.495   3.734   0.091
 1913TIP3   OH2 5702   5.676   3.715   5.493
 1913TIP3    H1 5703   5.594   3.668   5.477
 1913TIP3    H2 5704   5.649   3.802   5.523
 1914TIP3   OH2 5705   4.697   4.751   0.323
 1914TIP3    H1 5706   4.779   4.753   0.373
 1914TIP3    H2 5707   4.660   4.839   0.336
 1915TIP3   OH2 5708   5.267   6.102   0.038
 1915TIP3    H1 5709   5.335   6.035   0.045
 1915TIP3    H2 5710   5.185   6.054   0.035
 1916TIP3   OH2 5711   5.390   3.480   2.207
 1916TIP3    H1 5712   5.414   3.415   2.272
 1916TIP3    H2 5713   5.474   3.512   2.172
 1917TIP3   OH2 5714   3.280   4.340   4.167
 1917TIP3    H1 5715   3.285   4.246   4.152
 1917TIP3    H2 5716   3.243   4.375   4.086
 1918TIP3   OH2 5717   5.042   3.099   4.382
 1918TIP3    H1 5718   5.118   3.149   4.413
 1918TIP3    H2 5719   4.966   3.148   4.416
 1919TIP3   OH2 5720   2.423   1.177   2.209
 1919TIP3    H1 5721   2.400   1.253   2.262
 1919TIP3    H2 5722   2.488   1.209   2.147
 1920TIP3   OH2 5723   1.175   4.783   5.532
 1920TIP3    H1 5724   1.184   4.766   5.625
 1920TIP3    H2 5725   1.260   4.759   5.495
 1921TIP3   OH2 5726   5.816   6.016   3.800
 1921TIP3    H1 5727   5.743   5.973   3.756
 1921TIP3    H2 5728   5.807   6.108   3.778
 1922TIP3   OH2 5729   0.854   3.176   4.677
 1922TIP3    H1 5730   0.817   3.204   4.761
 1922TIP3    H2 5731   0.789   3.203   4.612
 1923TIP3   OH2 5732   6.333   1.240   5.776
 1923TIP3    H1 5733   6.423   1.268   5.788
 1923TIP3    H2 5734   6.297   1.235   5.864
 1924TIP3   OH2 5735   1.163   2.754   2.061
 1924TIP3    H1 5736   1.224   2.826   2.079
 1924TIP3    H2 5737   1.120   2.736   2.144
 1925TIP3   OH2 5738   5.219   2.146   4.608
 1925TIP3    H1 5739   5.207   2.215   4.673
 1925TIP3    H2 5740   5.174   2.070   4.644
 1926TIP3   OH2 5741   0.898   4.764   1.378
 1926TIP3    H1 5742   0.806   4.772   1.356
 1926TIP3    H2 5743   0.915   4.670   1.376
 1927TIP3   OH2 5744   4.648   1.055   1.988
 1927TIP3    H1 5745   4.684   1.005   1.915
 1927TIP3    H2 5746   4.653   1.147   1.959
 1928TIP3   OH2 5747   4.604   6.267   3.837
 1928TIP3    H1 5748   4.562   6.212   3.903
 1928TIP3    H2 5749   4.620   6.351   3.881
 1929TIP3   OH2 5750   0.320   6.733   3.147
 1929TIP3    H1 5751   0.254   6.721   3.215
 1929TIP3    H2 5752   0.403   6.722   3.192
 1930TIP3   OH2 5753   0.117   0.401   0.829
 1930TIP3    H1 5754   0.167   0.438   0.756
 1930TIP3    H2 5755   0.027   0.398   0.797
 1931TIP3   OH2 5756   1.997   6.103   2.648
 1931TIP3    H1 5757   1.957   6.029   2.693
 1931TIP3    H2 5758   2.091   6.085   2.652
 1932TIP3   OH2 5759   6.574   5.847   2.218
 1932TIP3    H1 5760   6.538   5.926   2.258
 1932TIP3    H2 5761   6.502   5.784   2.219
 1933TIP3   OH2 5762   1.568   3.813   1.921
 1933TIP3    H1 5763   1.589   3.831   2.013
 1933TIP3    H2 5764   1.475   3.791   1.921
 1934TIP3   OH2 5765   4.625   4.752   2.325
 1934TIP3    H1 5766   4.691   4.685   2.344
 1934TIP3    H2 5767   4.635   4.816   2.395
 1935TIP3   OH2 5768   4.942   0.512   2.935
 1935TIP3    H1 5769   5.004   0.519   2.863
 1935TIP3    H2 5770   4.981   0.562   3.006
 1936TIP3   OH2 5771   0.751   5.244   3.138
 1936TIP3    H1 5772   0.819   5.221   3.201
 1936TIP3    H2 5773   0.680   5.182   3.154
 1937TIP3   OH2 5774   3.351   5.014   3.463
 1937TIP3    H1 5775   3.420   4.952   3.440
 1937TIP3    H2 5776   3.294   5.017   3.386
 1938TIP3   OH2 5777   2.910   5.600   2.337
 1938TIP3    H1 5778   2.817   5.621   2.327
 1938TIP3    H2 5779   2.927   5.608   2.431
 1939TIP3   OH2 5780   0.439   1.335   4.986
 1939TIP3    H1 5781   0.419   1.330   5.080
 1939TIP3    H2 5782   0.417   1.248   4.953
 1940TIP3   OH2 5783   4.815   4.615   2.024
 1940TIP3    H1 5784   4.840   4.619   1.932
 1940TIP3    H2 5785   4.895   4.638   2.072
 1941TIP3   OH2 5786   0.129   4.646   0.488
 1941TIP3    H1 5787   0.052   4.590   0.502
 1941TIP3    H2 5788   0.129   4.706   0.562
 1942TIP3   OH2 5789   2.366   6.206   5.505
 1942TIP3    H1 5790   2.344   6.254   5.425
 1942TIP3    H2 5791   2.287   6.156   5.525
 1943TIP3   OH2 5792   6.928   1.038   5.273
 1943TIP3    H1 5793   6.870   1.098   5.320
 1943TIP3    H2 5794   6.988   1.095   5.225
 1944TIP3   OH2 5795   0.165   2.061   0.140
 1944TIP3    H1 5796   0.159   2.109   0.222
 1944TIP3    H2 5797   0.207   2.123   0.079
 1945TIP3   OH2 5798   6.346   3.012   4.233
 1945TIP3    H1 5799   6.304   2.988   4.315
 1945TIP3    H2 5800   6.413   2.945   4.220
 1946TIP3   OH2 5801   6.862   2.850   1.704
 1946TIP3    H1 5802   6.956   2.859   1.718
 1946TIP3    H2 5803   6.822   2.893   1.780
 1947TIP3   OH2 5804   0.391   0.170   5.239
 1947TIP3    H1 5805   0.374   0.141   5.328
 1947TIP3    H2 5806   0.337   0.249   5.228
 1948TIP3   OH2 5807   5.209   3.213   3.027
 1948TIP3    H1 5808   5.211   3.179   2.937
 1948TIP3    H2 5809   5.139   3.279   3.027
 1949TIP3   OH2 5810   1.776   3.300   4.355
 1949TIP3    H1 5811   1.823   3.329   4.277
 1949TIP3    H2 5812   1.724   3.376   4.382
 1950TIP3   OH2 5813   2.974   6.598   1.388
 1950TIP3    H1 5814   3.030   6.576   1.462
 1950TIP3    H2 5815   3.008   6.546   1.315
 1951TIP3   OH2 5816   4.703   2.980   2.022
 1951TIP3    H1 5817   4.637   2.969   1.954
 1951TIP3    H2 5818   4.653   2.987   2.103
 1952TIP3   OH2 5819   1.252   1.702   1.924
 1952TIP3    H1 5820   1.163   1.693   1.959
 1952TIP3    H2 5821   1.241   1.745   1.840
 1953TIP3   OH2 5822   3.773   4.105   1.883
 1953TIP3    H1 5823   3.799   4.016   1.910
 1953TIP3    H2 5824   3.731   4.093   1.798
 1954TIP3   OH2 5825   6.793   3.063   5.656
 1954TIP3    H1 5826   6.753   3.149   5.642
 1954TIP3    H2 5827   6.843   3.072   5.737
 1955TIP3   OH2 5828   3.984   1.540   4.720
 1955TIP3    H1 5829   3.892   1.521   4.702
 1955TIP3    H2 5830   4.017   1.460   4.762
 1956TIP3   OH2 5831   4.427   3.913   2.775
 1956TIP3    H1 5832   4.473   3.836   2.809
 1956TIP3    H2 5833   4.429   3.976   2.847
 1957TIP3   OH2 5834   1.539   0.835   2.637
 1957TIP3    H1 5835   1.506   0.832   2.726
 1957TIP3    H2 5836   1.612   0.773   2.637
 1958TIP3   OH2 5837   6.944   3.357   4.502
 1958TIP3    H1 5838   7.015   3.358   4.566
 1958TIP3    H2 5839   6.867   3.387   4.550
 1959TIP3   OH2 5840   3.564   3.432   0.914
 1959TIP3    H1 5841   3.478   3.460   0.947
 1959TIP3    H2 5842   3.592   3.503   0.856
 1960TIP3   OH2 5843   1.690   6.289   0.455
 1960TIP3    H1 5844   1.677   6.206   0.410
 1960TIP3    H2 5845   1.606   6.335   0.446
 1961TIP3   OH2 5846   5.027   2.963   2.981
 1961TIP3    H1 5847   5.112   2.934   2.948
 1961TIP3    H2 5848   5.046   3.007   3.063
 1962TIP3   OH2 5849   1.665   1.959   0.141
 1962TIP3    H1 5850   1.746   1.956   0.193
 1962TIP3    H2 5851   1.607   2.017   0.191
 1963TIP3   OH2 5852   4.712   2.164   2.670
 1963TIP3    H1 5853   4.720   2.183   2.577
 1963TIP3    H2 5854   4.663   2.082   2.674
 1964TIP3   OH2 5855   3.591   5.610   3.350
 1964TIP3    H1 5856   3.670   5.616   3.404
 1964TIP3    H2 5857   3.536   5.547   3.397
 1965TIP3   OH2 5858   0.411   6.152   0.147
 1965TIP3    H1 5859   0.432   6.078   0.090
 1965TIP3    H2 5860   0.439   6.229   0.098
 1966TIP3   OH2 5861   3.282   0.255   0.821
 1966TIP3    H1 5862   3.313   0.317   0.755
 1966TIP3    H2 5863   3.200   0.220   0.786
 1967TIP3   OH2 5864   5.428   1.371   0.035
 1967TIP3    H1 5865   5.424   1.432   0.109
 1967TIP3    H2 5866   5.520   1.370   0.010
 1968TIP3   OH2 5867   5.794   2.314   3.986
 1968TIP3    H1 5868   5.843   2.235   3.966
 1968TIP3    H2 5869   5.703   2.285   3.994
 1969TIP3   OH2 5870   3.236   2.598   3.728
 1969TIP3    H1 5871   3.181   2.594   3.650
 1969TIP3    H2 5872   3.220   2.516   3.774
 1970TIP3   OH2 5873   5.884   0.247   0.622
 1970TIP3    H1 5874   5.968   0.290   0.607
 1970TIP3    H2 5875   5.819   0.309   0.589
 1971TIP3   OH2 5876   1.226   0.947   4.235
 1971TIP3    H1 5877   1.242   0.919   4.325
 1971TIP3    H2 5878   1.177   1.029   4.243
 1972TIP3   OH2 5879   6.308   1.313   0.615
 1972TIP3    H1 5880   6.389   1.358   0.592
 1972TIP3    H2 5881   6.333   1.252   0.684
 1973TIP3   OH2 5882   1.138   2.080   3.994
 1973TIP3    H1 5883   1.201   2.008   3.986
 1973TIP3    H2 5884   1.192   2.158   4.002
 1974TIP3   OH2 5885   0.369   0.001   4.502
 1974TIP3    H1 5886   0.302  -0.041   4.556
 1974TIP3    H2 5887   0.320   0.061   4.445
 1975TIP3   OH2 5888   2.580   3.984   4.010
 1975TIP3    H1 5889   2.641   3.952   4.076
 1975TIP3    H2 5890   2.513   3.916   4.005
 1976TIP3   OH2 5891   0.670   4.188   3.413
 1976TIP3    H1 5892   0.615   4.264   3.393
 1976TIP3    H2 5893   0.734   4.222   3.476
 1977TIP3   OH2 5894   3.296   0.752   4.382
 1977TIP3    H1 5895   3.316   0.845   4.369
 1977TIP3    H2 5896   3.337   0.708   4.308
 1978TIP3   OH2 5897   2.975   1.078   1.053
 1978TIP3    H1 5898   2.951   0.991   1.083
 1978TIP3    H2 5899   3.038   1.062   0.982
 1979TIP3   OH2 5900   5.811   5.400   0.429
 1979TIP3    H1 5901   5.833   5.429   0.341
 1979TIP3    H2 5902   5.738   5.339   0.417
 1980TIP3   OH2 5903   6.068   5.629   0.399
 1980TIP3    H1 5904   6.126   5.633   0.475
 1980TIP3    H2 5905   6.090   5.545   0.358
 1981TIP3   OH2 5906   6.355   3.268   2.980
 1981TIP3    H1 5907   6.418   3.331   2.943
 1981TIP3    H2 5908   6.376   3.266   3.074
 1982TIP3   OH2 5909   4.823   2.445   0.740
 1982TIP3    H1 5910   4.844   2.484   0.656
 1982TIP3    H2 5911   4.829   2.516   0.803
 1983TIP3   OH2 5912   6.114   4.148   5.771
 1983TIP3    H1 5913   6.066   4.087   5.715
 1983TIP3    H2 5914   6.166   4.092   5.828
 1984TIP3   OH2 5915   1.851   2.870   3.826
 1984TIP3    H1 5916   1.901   2.952   3.836
 1984TIP3    H2 5917   1.855   2.830   3.913
 1985TIP3   OH2 5918   0.552   6.233   0.365
 1985TIP3    H1 5919   0.496   6.208   0.291
 1985TIP3    H2 5920   0.611   6.159   0.376
 1986TIP3   OH2 5921   1.397   4.396   2.760
 1986TIP3    H1 5922   1.489   4.370   2.766
 1986TIP3    H2 5923   1.396   4.466   2.695
 1987TIP3   OH2 5924   4.986   2.750   3.213
 1987TIP3    H1 5925   5.001   2.786   3.126
 1987TIP3    H2 5926   4.924   2.810   3.253
 1988TIP3   OH2 5927   6.704   3.707   0.488
 1988TIP3    H1 5928   6.693   3.802   0.479
 1988TIP3    H2 5929   6.797   3.695   0.506
 1989TIP3   OH2 5930   3.105   3.818   4.345
 1989TIP3    H1 5931   3.063   3.881   4.287
 1989TIP3    H2 5932   3.075   3.841   4.432
 1990TIP3   OH2 5933   5.868   0.799   5.300
 1990TIP3    H1 5934   5.851   0.795   5.206
 1990TIP3    H2 5935   5.963   0.787   5.308
 1991TIP3   OH2 5936   0.044   5.756   5.657
 1991TIP3    H1 5937   0.029   5.663   5.641
 1991TIP3    H2 5938   0.139   5.763   5.671
 1992TIP3   OH2 5939   4.669   3.698   0.708
 1992TIP3    H1 5940   4.694   3.679   0.798
 1992TIP3    H2 5941   4.707   3.627   0.657
 1993TIP3   OH2 5942   6.630   0.733   4.831
 1993TIP3    H1 5943   6.557   0.671   4.826
 1993TIP3    H2 5944   6.621   0.786   4.752
 1994TIP3   OH2 5945   1.398   2.172   0.609
 1994TIP3    H1 5946   1.466   2.104   0.609
 1994TIP3    H2 5947   1.316   2.124   0.613
 1995TIP3   OH2 5948   5.542   3.889   3.105
 1995TIP3    H1 5949   5.585   3.867   3.023
 1995TIP3    H2 5950   5.613   3.894   3.169
 1996TIP3   OH2 5951   6.972   5.748   5.452
 1996TIP3    H1 5952   6.968   5.666   5.402
 1996TIP3    H2 5953   6.915   5.808   5.403
 1997TIP3   OH2 5954   5.396   6.793   0.886
 1997TIP3    H1 5955   5.423   6.702   0.874
 1997TIP3    H2 5956   5.332   6.790   0.957
 1998TIP3   OH2 5957   2.599   3.524   5.299
 1998TIP3    H1 5958   2.623   3.613   5.325
 1998TIP3    H2 5959   2.512   3.510   5.337
 1999TIP3   OH2 5960   4.038   5.730   2.254
 1999TIP3    H1 5961   3.949   5.695   2.265
 1999TIP3    H2 5962   4.039   5.809   2.309
 2000TIP3   OH2 5963   1.654   4.220   2.348
 2000TIP3    H1 5964   1.707   4.299   2.340
 2000TIP3    H2 5965   1.667   4.191   2.438
 2001TIP3   OH2 5966   4.520   5.676   3.177
 2001TIP3    H1 5967   4.519   5.733   3.254
 2001TIP3    H2 5968   4.545   5.733   3.104
 2002TIP3   OH2 5969   3.002   3.995   0.272
 2002TIP3    H1 5970   3.034   3.959   0.189
 2002TIP3    H2 5971   3.081   4.013   0.323
 2003TIP3   OH2 5972   5.456   6.419   3.668
 2003TIP3    H1 5973   5.508   6.371   3.604
 2003TIP3    H2 5974   5.366   6.416   3.634
 2004TIP3   OH2 5975   1.762   1.632   4.632
 2004TIP3    H1 5976   1.836   1.611   4.575
 2004TIP3    H2 5977   1.702   1.682   4.576
 2005TIP3   OH2 5978   0.742   2.130   1.421
 2005TIP3    H1 5979   0.796   2.055   1.395
 2005TIP3    H2 5980   0.775   2.202   1.368
 2006TIP3   OH2 5981   5.288   5.510   4.263
 2006TIP3    H1 5982   5.322   5.501   4.352
 2006TIP3    H2 5983   5.359   5.554   4.215
 2007TIP3   OH2 5984   6.238   0.154   2.700
 2007TIP3    H1 5985   6.187   0.097   2.757
 2007TIP3    H2 5986   6.198   0.146   2.614
 2008TIP3   OH2 5987   5.308   0.389   2.959
 2008TIP3    H1 5988   5.239   0.328   2.988
 2008TIP3    H2 5989   5.326   0.443   3.036
 2009TIP3   OH2 5990   5.036   2.520   0.956
 2009TIP3    H1 5991   5.102   2.582   0.987
 2009TIP3    H2 5992   4.954   2.569   0.958
 2010TIP3   OH2 5993   1.903   5.206   1.441
 2010TIP3    H1 5994   1.951   5.123   1.451
 2010TIP3    H2 5995   1.969   5.274   1.452
 2011TIP3   OH2 5996   0.043   5.781   1.843
 2011TIP3    H1 5997   0.018   5.735   1.763
 2011TIP3    H2 5998  -0.040   5.802   1.885
 2012TIP3   OH2 5999   2.570   4.541   5.192
 2012TIP3    H1 6000   2.648   4.486   5.194
 2012TIP3    H2 6001   2.497   4.479   5.191
 2013TIP3   OH2 6002   3.882   1.088   0.646
 2013TIP3    H1 6003   3.831   1.162   0.612
 2013TIP3    H2 6004   3.824   1.046   0.709
 2014TIP3   OH2 6005   3.941   5.008   2.150
 2014TIP3    H1 6006   3.908   5.077   2.207
 2014TIP3    H2 6007   3.902   4.928   2.185
 2015TIP3   OH2 6008   4.279   2.884   5.891
 2015TIP3    H1 6009   4.250   2.975   5.885
 2015TIP3    H2 6010   4.277   2.851   5.801
 2016TIP3   OH2 6011   4.596   1.434   2.114
 2016TIP3    H1 6012   4.663   1.402   2.054
 2016TIP3    H2 6013   4.566   1.356   2.160
 2017TIP3   OH2 6014   4.813   6.590   3.341
 2017TIP3    H1 6015   4.869   6.517   3.317
 2017TIP3    H2 6016   4.870   6.667   3.339
 2018TIP3   OH2 6017   3.294   4.664   2.674
 2018TIP3    H1 6018   3.220   4.642   2.730
 2018TIP3    H2 6019   3.370   4.628   2.721
 2019TIP3   OH2 6020   3.604   0.987   3.133
 2019TIP3    H1 6021   3.612   1.082   3.123
 2019TIP3    H2 6022   3.675   0.951   3.080
 2020TIP3   OH2 6023   5.450   1.932   2.715
 2020TIP3    H1 6024   5.465   1.840   2.735
 2020TIP3    H2 6025   5.426   1.934   2.622
 2021TIP3   OH2 6026   6.276   2.935   4.475
 2021TIP3    H1 6027   6.351   2.887   4.510
 2021TIP3    H2 6028   6.207   2.869   4.467
 2022TIP3   OH2 6029   3.479   5.620   2.693
 2022TIP3    H1 6030   3.514   5.534   2.666
 2022TIP3    H2 6031   3.547   5.656   2.750
 2023TIP3   OH2 6032   4.541   1.496   4.550
 2023TIP3    H1 6033   4.620   1.550   4.550
 2023TIP3    H2 6034   4.574   1.406   4.563
 2024TIP3   OH2 6035   0.628   3.247   5.250
 2024TIP3    H1 6036   0.702   3.307   5.255
 2024TIP3    H2 6037   0.665   3.161   5.267
 2025TIP3   OH2 6038   5.190   0.146   2.612
 2025TIP3    H1 6039   5.223   0.070   2.660
 2025TIP3    H2 6040   5.263   0.209   2.614
 2026TIP3   OH2 6041   6.172   2.741   1.900
 2026TIP3    H1 6042   6.230   2.715   1.828
 2026TIP3    H2 6043   6.229   2.746   1.977
 2027TIP3   OH2 6044   4.099   4.944   3.326
 2027TIP3    H1 6045   4.143   4.861   3.310
 2027TIP3    H2 6046   4.080   4.979   3.239
 2028TIP3   OH2 6047   5.379   2.928   3.053
 2028TIP3    H1 6048   5.449   2.975   3.008
 2028TIP3    H2 6049   5.345   2.868   2.987
 2029TIP3   OH2 6050   7.247   2.603   1.664
 2029TIP3    H1 6051   7.164   2.598   1.618
 2029TIP3    H2 6052   7.224   2.629   1.753
 2030TIP3   OH2 6053   5.719   0.152   0.304
 2030TIP3    H1 6054   5.729   0.107   0.388
 2030TIP3    H2 6055   5.806   0.184   0.283
 2031TIP3   OH2 6056   3.166   4.359   4.733
 2031TIP3    H1 6057   3.104   4.321   4.671
 2031TIP3    H2 6058   3.250   4.356   4.687
 2032TIP3   OH2 6059   6.105   2.229   4.371
 2032TIP3    H1 6060   6.156   2.296   4.325
 2032TIP3    H2 6061   6.014   2.253   4.356
 2033TIP3   OH2 6062   0.260   1.032   1.980
 2033TIP3    H1 6063   0.251   1.093   2.053
 2033TIP3    H2 6064   0.195   0.964   1.996
 2034TIP3   OH2 6065   4.232   2.047   5.775
 2034TIP3    H1 6066   4.227   2.100   5.855
 2034TIP3    H2 6067   4.209   1.959   5.803
 2035TIP3   OH2 6068   6.809   6.754   3.438
 2035TIP3    H1 6069   6.854   6.825   3.393
 2035TIP3    H2 6070   6.879   6.697   3.468
 2036TIP3   OH2 6071   6.017   5.387   3.085
 2036TIP3    H1 6072   6.007   5.482   3.095
 2036TIP3    H2 6073   6.079   5.362   3.153
 2037TIP3   OH2 6074   0.190   5.623   4.212
 2037TIP3    H1 6075   0.167   5.694   4.273
 2037TIP3    H2 6076   0.107   5.580   4.192
 2038TIP3   OH2 6077   5.732   2.976   3.583
 2038TIP3    H1 6078   5.818   2.949   3.552
 2038TIP3    H2 6079   5.720   3.064   3.546
 2039TIP3   OH2 6080   0.906   6.439   0.806
 2039TIP3    H1 6081   0.813   6.419   0.811
 2039TIP3    H2 6082   0.910   6.534   0.791
 2040TIP3   OH2 6083   4.219   0.524   2.322
 2040TIP3    H1 6084   4.232   0.438   2.283
 2040TIP3    H2 6085   4.289   0.578   2.285
 2041TIP3   OH2 6086   2.002   1.910   3.938
 2041TIP3    H1 6087   2.017   1.864   3.855
 2041TIP3    H2 6088   2.040   1.997   3.925
 2042TIP3   OH2 6089   2.284   3.178   2.249
 2042TIP3    H1 6090   2.366   3.146   2.289
 2042TIP3    H2 6091   2.219   3.169   2.318
 2043TIP3   OH2 6092   1.227   5.423   1.524
 2043TIP3    H1 6093   1.213   5.369   1.602
 2043TIP3    H2 6094   1.261   5.506   1.558
 2044TIP3   OH2 6095   4.793   5.669   4.206
 2044TIP3    H1 6096   4.815   5.760   4.229
 2044TIP3    H2 6097   4.876   5.630   4.181
 2045TIP3   OH2 6098   1.490   4.075   4.656
 2045TIP3    H1 6099   1.510   4.102   4.566
 2045TIP3    H2 6100   1.573   4.081   4.702
 2046TIP3   OH2 6101   0.415   6.371   3.202
 2046TIP3    H1 6102   0.458   6.359   3.287
 2046TIP3    H2 6103   0.439   6.460   3.175
 2047TIP3   OH2 6104   4.272   5.234   0.978
 2047TIP3    H1 6105   4.325   5.299   0.931
 2047TIP3    H2 6106   4.320   5.152   0.968
 2048TIP3   OH2 6107   5.731   5.013   5.321
 2048TIP3    H1 6108   5.676   5.047   5.392
 2048TIP3    H2 6109   5.779   5.090   5.290
 2049TIP3   OH2 6110   1.550   0.818   4.277
 2049TIP3    H1 6111   1.579   0.813   4.186
 2049TIP3    H2 6112   1.510   0.733   4.295
 2050TIP3   OH2 6113   6.127   3.440   1.953
 2050TIP3    H1 6114   6.082   3.378   1.896
 2050TIP3    H2 6115   6.107   3.410   2.042
 2051TIP3   OH2 6116   6.186   5.337   5.259
 2051TIP3    H1 6117   6.239   5.372   5.187
 2051TIP3    H2 6118   6.199   5.399   5.331
 2052TIP3   OH2 6119   4.821   6.312   2.234
 2052TIP3    H1 6120   4.794   6.325   2.325
 2052TIP3    H2 6121   4.739   6.305   2.185
 2053TIP3   OH2 6122   4.315   2.715   0.315
 2053TIP3    H1 6123   4.377   2.787   0.326
 2053TIP3    H2 6124   4.263   2.740   0.238
 2054TIP3   OH2 6125   6.474   2.319   0.672
 2054TIP3    H1 6126   6.445   2.276   0.592
 2054TIP3    H2 6127   6.548   2.373   0.645
 2055TIP3   OH2 6128   5.905   3.741   5.317
 2055TIP3    H1 6129   5.955   3.819   5.342
 2055TIP3    H2 6130   5.828   3.743   5.372
 2056TIP3   OH2 6131   0.084   3.327   0.697
 2056TIP3    H1 6132   0.055   3.314   0.607
 2056TIP3    H2 6133   0.066   3.244   0.741
 2057TIP3   OH2 6134   4.655   4.395   4.257
 2057TIP3    H1 6135   4.684   4.368   4.345
 2057TIP3    H2 6136   4.619   4.483   4.270
 2058TIP3   OH2 6137   6.717   2.768   3.695
 2058TIP3    H1 6138   6.733   2.674   3.685
 2058TIP3    H2 6139   6.669   2.776   3.777
 2059TIP3   OH2 6140   4.146   1.886   1.134
 2059TIP3    H1 6141   4.119   1.857   1.221
 2059TIP3    H2 6142   4.069   1.871   1.079
 2060TIP3   OH2 6143   1.097   0.488   2.506
 2060TIP3    H1 6144   1.122   0.398   2.529
 2060TIP3    H2 6145   1.173   0.541   2.529
 2061TIP3   OH2 6146   6.330   1.115   4.535
 2061TIP3    H1 6147   6.420   1.145   4.528
 2061TIP3    H2 6148   6.320   1.050   4.465
 2062TIP3   OH2 6149   0.637   6.696   5.015
 2062TIP3    H1 6150   0.599   6.658   4.935
 2062TIP3    H2 6151   0.641   6.623   5.076
 2063TIP3   OH2 6152   0.518   1.679   1.764
 2063TIP3    H1 6153   0.436   1.669   1.812
 2063TIP3    H2 6154   0.492   1.718   1.681
 2064TIP3   OH2 6155   3.877   4.220   4.867
 2064TIP3    H1 6156   3.830   4.235   4.949
 2064TIP3    H2 6157   3.964   4.257   4.882
 2065TIP3   OH2 6158   1.007   0.489   3.052
 2065TIP3    H1 6159   1.047   0.524   2.973
 2065TIP3    H2 6160   1.079   0.486   3.116
 2066TIP3   OH2 6161   5.999   4.572   2.828
 2066TIP3    H1 6162   5.992   4.607   2.739
 2066TIP3    H2 6163   6.006   4.477   2.816
 2067TIP3   OH2 6164   6.606   0.069   4.000
 2067TIP3    H1 6165   6.526   0.116   3.977
 2067TIP3    H2 6166   6.657   0.069   3.919
 2068TIP3   OH2 6167   2.247   6.427   1.742
 2068TIP3    H1 6168   2.212   6.402   1.828
 2068TIP3    H2 6169   2.339   6.401   1.746
 2069TIP3   OH2 6170   5.029   1.908   1.900
 2069TIP3    H1 6171   5.023   1.968   1.825
 2069TIP3    H2 6172   5.019   1.821   1.862
 2070TIP3   OH2 6173   0.961   0.018   3.290
 2070TIP3    H1 6174   0.983   0.042   3.380
 2070TIP3    H2 6175   1.041   0.033   3.240
 2071TIP3   OH2 6176   7.226   0.368   2.971
 2071TIP3    H1 6177   7.139   0.339   2.996
 2071TIP3    H2 6178   7.280   0.351   3.048
 2072TIP3   OH2 6179   0.291   1.336   4.412
 2072TIP3    H1 6180   0.198   1.324   4.393
 2072TIP3    H2 6181   0.301   1.429   4.429
 2073TIP3   OH2 6182   4.572   2.689   0.550
 2073TIP3    H1 6183   4.565   2.755   0.481
 2073TIP3    H2 6184   4.641   2.723   0.608
 2074TIP3   OH2 6185   1.690   4.979   1.045
 2074TIP3    H1 6186   1.780   4.996   1.018
 2074TIP3    H2 6187   1.681   5.026   1.128
 2075TIP3   OH2 6188   6.025   1.827   0.530
 2075TIP3    H1 6189   5.969   1.809   0.455
 2075TIP3    H2 6190   6.114   1.829   0.495
 2076TIP3   OH2 6191   6.713   5.480   1.690
 2076TIP3    H1 6192   6.736   5.549   1.628
 2076TIP3    H2 6193   6.750   5.400   1.651
 2077TIP3   OH2 6194   0.399   3.465   4.691
 2077TIP3    H1 6195   0.424   3.372   4.693
 2077TIP3    H2 6196   0.443   3.503   4.767
 2078TIP3   OH2 6197   4.805   6.385   0.716
 2078TIP3    H1 6198   4.718   6.354   0.741
 2078TIP3    H2 6199   4.850   6.402   0.799
 2079TIP3   OH2 6200   2.368   5.118   2.761
 2079TIP3    H1 6201   2.281   5.128   2.801
 2079TIP3    H2 6202   2.429   5.140   2.831
 2080TIP3   OH2 6203   0.343   0.754   0.869
 2080TIP3    H1 6204   0.376   0.667   0.848
 2080TIP3    H2 6205   0.416   0.797   0.913
 2081TIP3   OH2 6206   4.782   1.190   0.681
 2081TIP3    H1 6207   4.771   1.277   0.642
 2081TIP3    H2 6208   4.703   1.177   0.733
 2082TIP3   OH2 6209   2.530   1.079   4.720
 2082TIP3    H1 6210   2.553   0.995   4.760
 2082TIP3    H2 6211   2.435   1.084   4.728
 2083TIP3   OH2 6212   1.425   1.783   4.866
 2083TIP3    H1 6213   1.423   1.791   4.770
 2083TIP3    H2 6214   1.437   1.690   4.882
 2084TIP3   OH2 6215   0.411   6.344   3.967
 2084TIP3    H1 6216   0.465   6.423   3.974
 2084TIP3    H2 6217   0.368   6.337   4.053
 2085TIP3   OH2 6218   6.980   4.509   1.253
 2085TIP3    H1 6219   6.945   4.546   1.334
 2085TIP3    H2 6220   7.035   4.579   1.217
 2086TIP3   OH2 6221   2.182   0.188   5.134
 2086TIP3    H1 6222   2.100   0.234   5.152
 2086TIP3    H2 6223   2.162   0.096   5.152
 2087TIP3   OH2 6224   1.693   6.077   5.289
 2087TIP3    H1 6225   1.753   6.035   5.350
 2087TIP3    H2 6226   1.697   6.024   5.210
 2088TIP3   OH2 6227   0.290   3.634   1.707
 2088TIP3    H1 6228   0.201   3.619   1.739
 2088TIP3    H2 6229   0.345   3.578   1.762
 2089TIP3   OH2 6230   0.066   5.373   5.885
 2089TIP3    H1 6231   0.056   5.395   5.792
 2089TIP3    H2 6232  -0.002   5.424   5.929
 2090TIP3   OH2 6233   1.680   5.812   1.868
 2090TIP3    H1 6234   1.745   5.867   1.912
 2090TIP3    H2 6235   1.636   5.766   1.939
 2091TIP3   OH2 6236   0.970   0.308   1.857
 2091TIP3    H1 6237   1.040   0.318   1.921
 2091TIP3    H2 6238   0.942   0.217   1.866
 2092TIP3   OH2 6239   1.168   6.491   0.425
 2092TIP3    H1 6240   1.170   6.488   0.329
 2092TIP3    H2 6241   1.102   6.557   0.445
 2093TIP3   OH2 6242   2.493   2.617   3.474
 2093TIP3    H1 6243   2.410   2.579   3.505
 2093TIP3    H2 6244   2.473   2.651   3.387
 2094TIP3   OH2 6245   5.880   6.663   0.082
 2094TIP3    H1 6246   5.945   6.598   0.110
 2094TIP3    H2 6247   5.903   6.743   0.129
 2095TIP3   OH2 6248   1.030   6.064   1.179
 2095TIP3    H1 6249   0.966   6.060   1.250
 2095TIP3    H2 6250   0.988   6.120   1.113
 2096TIP3   OH2 6251   4.857   5.332   1.986
 2096TIP3    H1 6252   4.928   5.270   2.006
 2096TIP3    H2 6253   4.889   5.416   2.018
 2097TIP3   OH2 6254   3.477   3.853   4.529
 2097TIP3    H1 6255   3.481   3.829   4.621
 2097TIP3    H2 6256   3.568   3.850   4.500
 2098TIP3   OH2 6257   0.981   2.769   4.932
 2098TIP3    H1 6258   0.916   2.804   4.871
 2098TIP3    H2 6259   1.055   2.743   4.877
 2099TIP3   OH2 6260   6.456   2.739   4.836
 2099TIP3    H1 6261   6.456   2.832   4.811
 2099TIP3    H2 6262   6.455   2.741   4.931
 2100TIP3   OH2 6263   5.682   5.738   4.352
 2100TIP3    H1 6264   5.693   5.682   4.429
 2100TIP3    H2 6265   5.771   5.755   4.322
 2101TIP3   OH2 6266   1.643   4.621   0.843
 2101TIP3    H1 6267   1.569   4.654   0.792
 2101TIP3    H2 6268   1.617   4.532   0.867
 2102TIP3   OH2 6269   5.335   1.044   3.143
 2102TIP3    H1 6270   5.387   1.124   3.138
 2102TIP3    H2 6271   5.398   0.973   3.129
 2103TIP3   OH2 6272   5.750   4.513   4.204
 2103TIP3    H1 6273   5.679   4.449   4.203
 2103TIP3    H2 6274   5.715   4.588   4.156
 2104TIP3   OH2 6275   3.852   0.563   0.048
 2104TIP3    H1 6276   3.787   0.548   0.116
 2104TIP3    H2 6277   3.907   0.485   0.050
 2105TIP3   OH2 6278   6.552   6.454   1.192
 2105TIP3    H1 6279   6.518   6.380   1.141
 2105TIP3    H2 6280   6.559   6.420   1.281
 2106TIP3   OH2 6281   3.371   1.095   5.120
 2106TIP3    H1 6282   3.391   1.161   5.185
 2106TIP3    H2 6283   3.448   1.038   5.117
 2107TIP3   OH2 6284   3.027   6.170   1.147
 2107TIP3    H1 6285   3.095   6.166   1.214
 2107TIP3    H2 6286   3.049   6.100   1.086
 2108TIP3   OH2 6287   2.929   1.683   2.068
 2108TIP3    H1 6288   3.020   1.657   2.077
 2108TIP3    H2 6289   2.881   1.626   2.128
 2109TIP3   OH2 6290   3.442   4.207   5.196
 2109TIP3    H1 6291   3.501   4.154   5.250
 2109TIP3    H2 6292   3.477   4.198   5.107
 2110TIP3   OH2 6293   5.865   6.220   0.888
 2110TIP3    H1 6294   5.847   6.278   0.962
 2110TIP3    H2 6295   5.959   6.202   0.894
 2111TIP3   OH2 6296   0.694   2.074   2.701
 2111TIP3    H1 6297   0.685   2.070   2.606
 2111TIP3    H2 6298   0.782   2.112   2.715
 2112TIP3   OH2 6299   3.021   3.934   4.609
 2112TIP3    H1 6300   2.972   3.979   4.678
 2112TIP3    H2 6301   3.105   3.979   4.605
 2113TIP3   OH2 6302   3.520   3.794   0.733
 2113TIP3    H1 6303   3.595   3.765   0.785
 2113TIP3    H2 6304   3.491   3.875   0.776
 2114TIP3   OH2 6305   2.726   1.561   1.585
 2114TIP3    H1 6306   2.774   1.494   1.537
 2114TIP3    H2 6307   2.789   1.598   1.646
 2115TIP3   OH2 6308   3.890   6.137   1.380
 2115TIP3    H1 6309   3.841   6.136   1.462
 2115TIP3    H2 6310   3.982   6.143   1.408
 2116TIP3   OH2 6311   3.158   0.354   4.321
 2116TIP3    H1 6312   3.115   0.390   4.398
 2116TIP3    H2 6313   3.218   0.288   4.355
 2117TIP3   OH2 6314   3.696   0.689   5.780
 2117TIP3    H1 6315   3.666   0.762   5.726
 2117TIP3    H2 6316   3.659   0.706   5.866
 2118TIP3   OH2 6317   3.953   4.986   2.727
 2118TIP3    H1 6318   3.885   4.992   2.795
 2118TIP3    H2 6319   3.904   4.970   2.646
 2119TIP3   OH2 6320   5.412   5.311   0.052
 2119TIP3    H1 6321   5.453   5.392   0.083
 2119TIP3    H2 6322   5.478   5.243   0.066
 2120TIP3   OH2 6323   3.373   1.929   2.619
 2120TIP3    H1 6324   3.387   1.836   2.633
 2120TIP3    H2 6325   3.282   1.944   2.645
 2121TIP3   OH2 6326   4.886   1.749   0.658
 2121TIP3    H1 6327   4.815   1.804   0.691
 2121TIP3    H2 6328   4.875   1.751   0.563
 2122TIP3   OH2 6329   2.546   1.939   5.480
 2122TIP3    H1 6330   2.625   1.962   5.528
 2122TIP3    H2 6331   2.566   1.960   5.388
 2123TIP3   OH2 6332   2.245   2.529   1.981
 2123TIP3    H1 6333   2.186   2.569   2.045
 2123TIP3    H2 6334   2.302   2.472   2.033
 2124TIP3   OH2 6335   5.517   2.123   0.057
 2124TIP3    H1 6336   5.553   2.195   0.005
 2124TIP3    H2 6337   5.567   2.046   0.029
 2125TIP3   OH2 6338   2.244   4.557   0.151
 2125TIP3    H1 6339   2.221   4.516   0.235
 2125TIP3    H2 6340   2.329   4.598   0.168
 2126TIP3   OH2 6341   5.981   2.072   5.168
 2126TIP3    H1 6342   6.019   1.992   5.205
 2126TIP3    H2 6343   5.998   2.065   5.074
 2127TIP3   OH2 6344   3.471   5.599   1.578
 2127TIP3    H1 6345   3.500   5.541   1.508
 2127TIP3    H2 6346   3.482   5.548   1.658
 2128TIP3   OH2 6347   3.092   0.084   3.968
 2128TIP3    H1 6348   3.055   0.171   3.984
 2128TIP3    H2 6349   3.176   0.085   4.015
 2129TIP3   OH2 6350   3.176   3.613   5.639
 2129TIP3    H1 6351   3.169   3.534   5.692
 2129TIP3    H2 6352   3.191   3.683   5.702
 2130TIP3   OH2 6353   0.481   2.935   5.380
 2130TIP3    H1 6354   0.517   2.943   5.468
 2130TIP3    H2 6355   0.502   2.846   5.353
 2131TIP3   OH2 6356   4.957   5.492   4.785
 2131TIP3    H1 6357   5.046   5.527   4.785
 2131TIP3    H2 6358   4.961   5.419   4.723
 2132TIP3   OH2 6359   6.844   6.297   5.409
 2132TIP3    H1 6360   6.772   6.245   5.372
 2132TIP3    H2 6361   6.902   6.233   5.450
 2133TIP3   OH2 6362   6.511   5.474   0.505
 2133TIP3    H1 6363   6.523   5.553   0.453
 2133TIP3    H2 6364   6.598   5.433   0.507
 2134TIP3   OH2 6365   6.204   2.056   3.869
 2134TIP3    H1 6366   6.209   2.017   3.956
 2134TIP3    H2 6367   6.278   2.116   3.864
 2135TIP3   OH2 6368   0.956   2.946   3.689
 2135TIP3    H1 6369   1.048   2.970   3.701
 2135TIP3    H2 6370   0.952   2.854   3.715
 2136TIP3   OH2 6371   3.267   4.591   0.174
 2136TIP3    H1 6372   3.176   4.620   0.171
 2136TIP3    H2 6373   3.296   4.611   0.263
 2137TIP3   OH2 6374   6.465   6.620   2.996
 2137TIP3    H1 6375   6.533   6.669   2.950
 2137TIP3    H2 6376   6.485   6.634   3.089
 2138TIP3   OH2 6377   7.113   6.016   0.426
 2138TIP3    H1 6378   7.068   6.095   0.457
 2138TIP3    H2 6379   7.110   6.022   0.331
 2139TIP3   OH2 6380   4.703   1.307   1.286
 2139TIP3    H1 6381   4.694   1.374   1.354
 2139TIP3    H2 6382   4.737   1.355   1.211
 2140TIP3   OH2 6383   3.385   2.850   2.203
 2140TIP3    H1 6384   3.451   2.815   2.144
 2140TIP3    H2 6385   3.307   2.861   2.149
 2141TIP3   OH2 6386   2.000   0.350   2.610
 2141TIP3    H1 6387   1.951   0.271   2.588
 2141TIP3    H2 6388   1.944   0.422   2.578
 2142TIP3   OH2 6389   4.811   6.784   1.379
 2142TIP3    H1 6390   4.875   6.793   1.451
 2142TIP3    H2 6391   4.804   6.689   1.366
 2143TIP3   OH2 6392   1.596   2.330   4.926
 2143TIP3    H1 6393   1.586   2.235   4.918
 2143TIP3    H2 6394   1.508   2.364   4.911
 2144TIP3   OH2 6395   7.085   2.941   4.613
 2144TIP3    H1 6396   7.064   2.858   4.656
 2144TIP3    H2 6397   7.162   2.973   4.659
 2145TIP3   OH2 6398   2.531   5.631   4.932
 2145TIP3    H1 6399   2.466   5.656   4.998
 2145TIP3    H2 6400   2.613   5.672   4.962
 2146TIP3   OH2 6401   6.567   6.146   3.122
 2146TIP3    H1 6402   6.600   6.158   3.033
 2146TIP3    H2 6403   6.606   6.217   3.173
 2147TIP3   OH2 6404   0.453   6.060   4.680
 2147TIP3    H1 6405   0.516   5.998   4.717
 2147TIP3    H2 6406   0.497   6.145   4.685
 2148TIP3   OH2 6407   5.861   3.154   1.290
 2148TIP3    H1 6408   5.846   3.156   1.385
 2148TIP3    H2 6409   5.865   3.061   1.269
 2149TIP3   OH2 6410   6.975   4.686   2.899
 2149TIP3    H1 6411   6.975   4.682   2.804
 2149TIP3    H2 6412   6.888   4.655   2.925
 2150TIP3   OH2 6413   1.384   2.396   1.014
 2150TIP3    H1 6414   1.358   2.485   1.038
 2150TIP3    H2 6415   1.344   2.382   0.928
 2151TIP3   OH2 6416   4.438   5.336   0.497
 2151TIP3    H1 6417   4.441   5.421   0.542
 2151TIP3    H2 6418   4.409   5.357   0.408
 2152TIP3   OH2 6419   6.053   1.135   2.141
 2152TIP3    H1 6420   6.013   1.075   2.077
 2152TIP3    H2 6421   6.122   1.083   2.182
 2153TIP3   OH2 6422   0.345   2.867   3.542
 2153TIP3    H1 6423   0.266   2.862   3.597
 2153TIP3    H2 6424   0.327   2.938   3.481
 2154TIP3   OH2 6425   1.640   0.996   1.919
 2154TIP3    H1 6426   1.576   1.064   1.939
 2154TIP3    H2 6427   1.722   1.044   1.904
 2155TIP3   OH2 6428   2.570   3.206   1.629
 2155TIP3    H1 6429   2.652   3.183   1.673
 2155TIP3    H2 6430   2.503   3.161   1.679
 2156TIP3   OH2 6431   5.523   3.252   1.838
 2156TIP3    H1 6432   5.459   3.297   1.894
 2156TIP3    H2 6433   5.570   3.323   1.794
 2157TIP3   OH2 6434   2.682   3.843   3.416
 2157TIP3    H1 6435   2.619   3.881   3.355
 2157TIP3    H2 6436   2.763   3.837   3.365
 2158TIP3   OH2 6437   6.226   1.051   0.908
 2158TIP3    H1 6438   6.280   1.022   0.834
 2158TIP3    H2 6439   6.246   1.144   0.917
 2159TIP3   OH2 6440   2.043   6.621   1.075
 2159TIP3    H1 6441   2.096   6.542   1.062
 2159TIP3    H2 6442   1.973   6.614   1.011
 2160TIP3   OH2 6443   3.923   3.284   1.996
 2160TIP3    H1 6444   3.858   3.221   1.965
 2160TIP3    H2 6445   3.872   3.351   2.042
 2161TIP3   OH2 6446   0.763   1.395   5.686
 2161TIP3    H1 6447   0.846   1.373   5.728
 2161TIP3    H2 6448   0.731   1.311   5.654
 2162TIP3   OH2 6449   1.125   3.338   0.444
 2162TIP3    H1 6450   1.128   3.420   0.394
 2162TIP3    H2 6451   1.211   3.299   0.432
 2163TIP3   OH2 6452   0.878   5.585   0.815
 2163TIP3    H1 6453   0.958   5.562   0.863
 2163TIP3    H2 6454   0.905   5.656   0.757
 2164TIP3   OH2 6455   5.686   5.594   2.313
 2164TIP3    H1 6456   5.761   5.654   2.312
 2164TIP3    H2 6457   5.718   5.518   2.361
 2165TIP3   OH2 6458   5.894   3.039   4.282
 2165TIP3    H1 6459   5.925   2.955   4.248
 2165TIP3    H2 6460   5.906   3.100   4.210
 2166TIP3   OH2 6461   3.844   3.438   2.552
 2166TIP3    H1 6462   3.889   3.514   2.516
 2166TIP3    H2 6463   3.816   3.388   2.475
 2167TIP3   OH2 6464   1.203   5.928   4.539
 2167TIP3    H1 6465   1.293   5.913   4.511
 2167TIP3    H2 6466   1.162   5.841   4.537
 2168TIP3   OH2 6467   4.679   5.535   0.578
 2168TIP3    H1 6468   4.650   5.544   0.669
 2168TIP3    H2 6469   4.693   5.625   0.549
 2169TIP3   OH2 6470   4.299   1.788   0.756
 2169TIP3    H1 6471   4.219   1.834   0.780
 2169TIP3    H2 6472   4.273   1.697   0.743
 2170TIP3   OH2 6473   6.855   1.977   0.365
 2170TIP3    H1 6474   6.886   2.021   0.445
 2170TIP3    H2 6475   6.820   2.048   0.312
 2171TIP3   OH2 6476   2.544   2.590   2.288
 2171TIP3    H1 6477   2.638   2.605   2.287
 2171TIP3    H2 6478   2.522   2.576   2.380
 2172TIP3   OH2 6479   5.788   5.696   1.614
 2172TIP3    H1 6480   5.817   5.776   1.571
 2172TIP3    H2 6481   5.868   5.659   1.653
 2173TIP3   OH2 6482   0.951   0.459   4.673
 2173TIP3    H1 6483   1.036   0.479   4.712
 2173TIP3    H2 6484   0.887   0.486   4.738
 2174TIP3   OH2 6485   4.765   1.294   1.834
 2174TIP3    H1 6486   4.821   1.302   1.756
 2174TIP3    H2 6487   4.782   1.375   1.883
 2175TIP3   OH2 6488   6.571   2.813   3.916
 2175TIP3    H1 6489   6.598   2.735   3.964
 2175TIP3    H2 6490   6.528   2.869   3.981
 2176TIP3   OH2 6491   3.440   3.248   5.449
 2176TIP3    H1 6492   3.478   3.258   5.537
 2176TIP3    H2 6493   3.438   3.337   5.414
 2177TIP3   OH2 6494   4.694   6.766   1.687
 2177TIP3    H1 6495   4.716   6.691   1.742
 2177TIP3    H2 6496   4.615   6.739   1.641
 2178TIP3   OH2 6497   1.357   6.775   3.144
 2178TIP3    H1 6498   1.380   6.705   3.206
 2178TIP3    H2 6499   1.400   6.750   3.062
 2179TIP3   OH2 6500   4.315   5.816   3.993
 2179TIP3    H1 6501   4.316   5.911   4.007
 2179TIP3    H2 6502   4.306   5.778   4.080
 2180TIP3   OH2 6503   5.782   3.441   5.387
 2180TIP3    H1 6504   5.787   3.522   5.438
 2180TIP3    H2 6505   5.756   3.374   5.451
 2181TIP3   OH2 6506   4.481   3.701   3.498
 2181TIP3    H1 6507   4.523   3.786   3.509
 2181TIP3    H2 6508   4.505   3.652   3.577
 2182TIP3   OH2 6509   3.278   5.058   2.409
 2182TIP3    H1 6510   3.235   5.042   2.493
 2182TIP3    H2 6511   3.345   5.124   2.428
 2183TIP3   OH2 6512   6.701   0.886   2.326
 2183TIP3    H1 6513   6.767   0.844   2.271
 2183TIP3    H2 6514   6.702   0.837   2.408
 2184TIP3   OH2 6515   7.096   5.034   5.504
 2184TIP3    H1 6516   7.157   5.031   5.577
 2184TIP3    H2 6517   7.036   4.961   5.519
 2185TIP3   OH2 6518   6.399   4.594   1.131
 2185TIP3    H1 6519   6.339   4.549   1.190
 2185TIP3    H2 6520   6.418   4.677   1.174
 2186TIP3   OH2 6521   5.681   1.849   3.454
 2186TIP3    H1 6522   5.727   1.915   3.505
 2186TIP3    H2 6523   5.631   1.899   3.389
 2187TIP3   OH2 6524   4.489   4.611   4.093
 2187TIP3    H1 6525   4.427   4.648   4.031
 2187TIP3    H2 6526   4.439   4.599   4.173
 2188TIP3   OH2 6527   5.053   1.578   1.492
 2188TIP3    H1 6528   5.001   1.572   1.412
 2188TIP3    H2 6529   5.132   1.528   1.474
 2189TIP3   OH2 6530   4.256   4.328   1.417
 2189TIP3    H1 6531   4.244   4.233   1.425
 2189TIP3    H2 6532   4.306   4.353   1.494
 2190TIP3   OH2 6533   3.793   1.368   2.422
 2190TIP3    H1 6534   3.727   1.335   2.483
 2190TIP3    H2 6535   3.846   1.428   2.475
 2191TIP3   OH2 6536   0.113   3.708   5.688
 2191TIP3    H1 6537   0.053   3.728   5.616
 2191TIP3    H2 6538   0.179   3.777   5.684
 2192TIP3   OH2 6539   3.312   6.595   0.322
 2192TIP3    H1 6540   3.347   6.627   0.239
 2192TIP3    H2 6541   3.336   6.663   0.386
 2193TIP3   OH2 6542   2.719   5.306   1.431
 2193TIP3    H1 6543   2.776   5.362   1.378
 2193TIP3    H2 6544   2.778   5.265   1.494
 2194TIP3   OH2 6545   0.779   5.683   4.609
 2194TIP3    H1 6546   0.868   5.650   4.621
 2194TIP3    H2 6547   0.742   5.627   4.541
 2195TIP3   OH2 6548   4.190   3.233   0.393
 2195TIP3    H1 6549   4.148   3.149   0.414
 2195TIP3    H2 6550   4.126   3.299   0.417
 2196TIP3   OH2 6551   0.722   1.800   3.569
 2196TIP3    H1 6552   0.633   1.835   3.566
 2196TIP3    H2 6553   0.776   1.875   3.594
 2197TIP3   OH2 6554   3.874   0.969   0.321
 2197TIP3    H1 6555   3.809   0.910   0.283
 2197TIP3    H2 6556   3.956   0.947   0.276
 2198TIP3   OH2 6557   7.150   3.810   4.130
 2198TIP3    H1 6558   7.106   3.870   4.191
 2198TIP3    H2 6559   7.085   3.741   4.114
 2199TIP3   OH2 6560   7.033   4.223   0.758
 2199TIP3    H1 6561   7.047   4.140   0.711
 2199TIP3    H2 6562   7.121   4.253   0.780
 2200TIP3   OH2 6563   6.907   3.476   3.236
 2200TIP3    H1 6564   6.850   3.474   3.312
 2200TIP3    H2 6565   6.926   3.569   3.222
 2201TIP3   OH2 6566   0.939   0.656   2.666
 2201TIP3    H1 6567   0.906   0.727   2.611
 2201TIP3    H2 6568   0.977   0.594   2.604
 2202TIP3   OH2 6569   5.473   0.347   3.381
 2202TIP3    H1 6570   5.558   0.379   3.410
 2202TIP3    H2 6571   5.487   0.253   3.366
 2203TIP3   OH2 6572   1.692   3.919   1.346
 2203TIP3    H1 6573   1.631   3.977   1.301
 2203TIP3    H2 6574   1.650   3.833   1.343
 2204TIP3   OH2 6575   2.563   4.564   4.788
 2204TIP3    H1 6576   2.510   4.511   4.848
 2204TIP3    H2 6577   2.627   4.607   4.844
 2205TIP3   OH2 6578   1.835   5.341   5.501
 2205TIP3    H1 6579   1.862   5.390   5.423
 2205TIP3    H2 6580   1.778   5.272   5.466
 2206TIP3   OH2 6581   0.791   2.361   3.515
 2206TIP3    H1 6582   0.804   2.285   3.459
 2206TIP3    H2 6583   0.834   2.433   3.469
 2207TIP3   OH2 6584   1.324   0.792   1.914
 2207TIP3    H1 6585   1.295   0.882   1.901
 2207TIP3    H2 6586   1.279   0.742   1.846
 2208TIP3   OH2 6587   2.945   5.096   5.674
 2208TIP3    H1 6588   3.010   5.078   5.741
 2208TIP3    H2 6589   2.987   5.070   5.592
 2209TIP3   OH2 6590   5.556   4.341   4.238
 2209TIP3    H1 6591   5.566   4.259   4.190
 2209TIP3    H2 6592   5.580   4.319   4.328
 2210TIP3   OH2 6593   1.727   3.968   5.674
 2210TIP3    H1 6594   1.673   4.029   5.623
 2210TIP3    H2 6595   1.808   4.016   5.690
 2211TIP3   OH2 6596   2.624   2.832   5.472
 2211TIP3    H1 6597   2.651   2.923   5.485
 2211TIP3    H2 6598   2.614   2.823   5.377
 2212TIP3   OH2 6599   0.101   6.618   5.876
 2212TIP3    H1 6600   0.152   6.675   5.820
 2212TIP3    H2 6601   0.013   6.619   5.838
 2213TIP3   OH2 6602   5.927   6.829   1.508
 2213TIP3    H1 6603   5.983   6.783   1.570
 2213TIP3    H2 6604   5.908   6.764   1.440
 2214TIP3   OH2 6605   6.539   0.602   2.254
 2214TIP3    H1 6606   6.453   0.588   2.214
 2214TIP3    H2 6607   6.520   0.636   2.341
 2215TIP3   OH2 6608   2.976   5.757   3.694
 2215TIP3    H1 6609   3.054   5.716   3.656
 2215TIP3    H2 6610   2.960   5.833   3.640
 2216TIP3   OH2 6611   4.326   4.495   3.784
 2216TIP3    H1 6612   4.236   4.465   3.793
 2216TIP3    H2 6613   4.362   4.443   3.712
 2217TIP3   OH2 6614   2.793   1.397   1.190
 2217TIP3    H1 6615   2.791   1.340   1.113
 2217TIP3    H2 6616   2.872   1.371   1.237
 2218TIP3   OH2 6617   0.012   3.043   4.826
 2218TIP3    H1 6618   0.003   3.031   4.921
 2218TIP3    H2 6619   0.032   3.136   4.816
 2219TIP3   OH2 6620   2.951   2.900   2.804
 2219TIP3    H1 6621   2.926   2.808   2.791
 2219TIP3    H2 6622   2.915   2.923   2.889
 2220TIP3   OH2 6623   6.294   0.963   3.219
 2220TIP3    H1 6624   6.231   0.972   3.290
 2220TIP3    H2 6625   6.335   0.878   3.235
 2221TIP3   OH2 6626   3.270   3.761   3.258
 2221TIP3    H1 6627   3.295   3.820   3.187
 2221TIP3    H2 6628   3.227   3.687   3.214
 2222TIP3   OH2 6629   6.802   2.963   2.540
 2222TIP3    H1 6630   6.747   3.036   2.569
 2222TIP3    H2 6631   6.891   2.988   2.565
 2223TIP3   OH2 6632   4.679   2.658   2.189
 2223TIP3    H1 6633   4.618   2.696   2.127
 2223TIP3    H2 6634   4.628   2.592   2.236
 2224TIP3   OH2 6635   4.767   5.997   1.060
 2224TIP3    H1 6636   4.775   5.953   0.975
 2224TIP3    H2 6637   4.854   6.034   1.076
 2225TIP3   OH2 6638   4.092   3.454   2.201
 2225TIP3    H1 6639   4.166   3.459   2.141
 2225TIP3    H2 6640   4.091   3.363   2.231
 2226TIP3   OH2 6641   3.466   1.675   4.541
 2226TIP3    H1 6642   3.510   1.649   4.622
 2226TIP3    H2 6643   3.537   1.686   4.478
 2227TIP3   OH2 6644   1.234   6.014   5.487
 2227TIP3    H1 6645   1.213   5.998   5.578
 2227TIP3    H2 6646   1.153   6.049   5.449
 2228TIP3   OH2 6647   0.836   1.404   4.230
 2228TIP3    H1 6648   0.779   1.329   4.214
 2228TIP3    H2 6649   0.777   1.473   4.260
 2229TIP3   OH2 6650   6.134   6.248   1.796
 2229TIP3    H1 6651   6.120   6.340   1.775
 2229TIP3    H2 6652   6.046   6.209   1.796
 2230TIP3   OH2 6653   1.524   3.068   3.498
 2230TIP3    H1 6654   1.459   3.138   3.490
 2230TIP3    H2 6655   1.549   3.069   3.590
 2231TIP3   OH2 6656   5.189   3.182   5.304
 2231TIP3    H1 6657   5.201   3.208   5.213
 2231TIP3    H2 6658   5.160   3.090   5.300
 2232TIP3   OH2 6659   2.438   5.965   1.732
 2232TIP3    H1 6660   2.429   5.930   1.821
 2232TIP3    H2 6661   2.368   6.030   1.725
 2233TIP3   OH2 6662   0.756   0.754   0.479
 2233TIP3    H1 6663   0.677   0.770   0.427
 2233TIP3    H2 6664   0.743   0.807   0.558
 2234TIP3   OH2 6665   0.571   0.634   1.080
 2234TIP3    H1 6666   0.478   0.622   1.100
 2234TIP3    H2 6667   0.596   0.554   1.033
 2235TIP3   OH2 6668   6.994   3.744   3.197
 2235TIP3    H1 6669   7.031   3.826   3.163
 2235TIP3    H2 6670   6.922   3.773   3.254
 2236TIP3   OH2 6671   1.366   6.232   2.823
 2236TIP3    H1 6672   1.365   6.222   2.918
 2236TIP3    H2 6673   1.393   6.323   2.809
 2237TIP3   OH2 6674   2.950   1.922   5.648
 2237TIP3    H1 6675   2.964   1.829   5.629
 2237TIP3    H2 6676   2.982   1.933   5.738
 2238TIP3   OH2 6677   1.322   0.465   4.826
 2238TIP3    H1 6678   1.392   0.455   4.891
 2238TIP3    H2 6679   1.259   0.397   4.849
 2239TIP3   OH2 6680   1.803   0.988   2.444
 2239TIP3    H1 6681   1.780   1.070   2.400
 2239TIP3    H2 6682   1.814   1.013   2.536
 2240TIP3   OH2 6683   5.102   3.059   3.253
 2240TIP3    H1 6684   5.156   3.109   3.192
 2240TIP3    H2 6685   5.165   3.013   3.309
 2241TIP3   OH2 6686   6.664   1.251   1.332
 2241TIP3    H1 6687   6.746   1.205   1.316
 2241TIP3    H2 6688   6.689   1.343   1.337
 2242TIP3   OH2 6689   2.297   6.348   3.095
 2242TIP3    H1 6690   2.249   6.298   3.029
 2242TIP3    H2 6691   2.234   6.415   3.124
 2243TIP3   OH2 6692   4.178   1.856   4.079
 2243TIP3    H1 6693   4.194   1.843   4.173
 2243TIP3    H2 6694   4.241   1.797   4.036
 2244TIP3   OH2 6695   1.422   6.437   1.205
 2244TIP3    H1 6696   1.357   6.404   1.143
 2244TIP3    H2 6697   1.501   6.451   1.152
 2245TIP3   OH2 6698   3.681   2.742   0.237
 2245TIP3    H1 6699   3.705   2.652   0.259
 2245TIP3    H2 6700   3.606   2.733   0.178
 2246TIP3   OH2 6701   2.071   3.280   5.426
 2246TIP3    H1 6702   2.049   3.373   5.423
 2246TIP3    H2 6703   2.162   3.278   5.456
 2247TIP3   OH2 6704   1.290   4.599   1.548
 2247TIP3    H1 6705   1.283   4.505   1.535
 2247TIP3    H2 6706   1.306   4.635   1.461
 2248TIP3   OH2 6707   0.755   6.395   2.896
 2248TIP3    H1 6708   0.806   6.378   2.975
 2248TIP3    H2 6709   0.713   6.311   2.876
 2249TIP3   OH2 6710   2.361   2.255   2.651
 2249TIP3    H1 6711   2.282   2.282   2.700
 2249TIP3    H2 6712   2.327   2.202   2.579
 2250TIP3   OH2 6713   4.373   2.162   1.640
 2250TIP3    H1 6714   4.338   2.190   1.556
 2250TIP3    H2 6715   4.315   2.091   1.668
 2251TIP3   OH2 6716   0.294   4.202   4.026
 2251TIP3    H1 6717   0.281   4.229   3.935
 2251TIP3    H2 6718   0.231   4.132   4.039
 2252TIP3   OH2 6719   3.713   1.743   3.619
 2252TIP3    H1 6720   3.778   1.812   3.636
 2252TIP3    H2 6721   3.757   1.683   3.560
 2253TIP3   OH2 6722   4.842   4.181   3.734
 2253TIP3    H1 6723   4.856   4.105   3.791
 2253TIP3    H2 6724   4.749   4.202   3.744
 2254TIP3   OH2 6725   4.176   1.420   5.355
 2254TIP3    H1 6726   4.139   1.456   5.274
 2254TIP3    H2 6727   4.264   1.392   5.331
 2255TIP3   OH2 6728   3.288   3.650   4.441
 2255TIP3    H1 6729   3.220   3.701   4.397
 2255TIP3    H2 6730   3.349   3.716   4.474
 2256TIP3   OH2 6731   3.114   6.020   3.126
 2256TIP3    H1 6732   3.093   5.976   3.209
 2256TIP3    H2 6733   3.160   5.954   3.075
 2257TIP3   OH2 6734   0.223   3.738   1.328
 2257TIP3    H1 6735   0.167   3.718   1.252
 2257TIP3    H2 6736   0.306   3.766   1.289
 2258TIP3   OH2 6737   3.707   6.533   2.807
 2258TIP3    H1 6738   3.754   6.505   2.729
 2258TIP3    H2 6739   3.773   6.576   2.862
 2259TIP3   OH2 6740   1.021   3.209   2.608
 2259TIP3    H1 6741   1.000   3.298   2.637
 2259TIP3    H2 6742   1.074   3.172   2.680
 2260TIP3   OH2 6743   6.614   5.588   2.572
 2260TIP3    H1 6744   6.526   5.612   2.602
 2260TIP3    H2 6745   6.604   5.503   2.531
 2261TIP3   OH2 6746   5.947   0.632   1.701
 2261TIP3    H1 6747   5.898   0.655   1.622
 2261TIP3    H2 6748   5.980   0.544   1.685
 2262TIP3   OH2 6749   3.598   5.446   1.207
 2262TIP3    H1 6750   3.643   5.448   1.291
 2262TIP3    H2 6751   3.566   5.356   1.197
 2263TIP3   OH2 6752   4.832   4.184   1.575
 2263TIP3    H1 6753   4.747   4.144   1.556
 2263TIP3    H2 6754   4.860   4.144   1.657
 2264TIP3   OH2 6755   0.115   3.968   4.035
 2264TIP3    H1 6756   0.065   3.896   4.073
 2264TIP3    H2 6757   0.058   4.002   3.966
 2265TIP3   OH2 6758   2.659   0.479   4.627
 2265TIP3    H1 6759   2.711   0.553   4.659
 2265TIP3    H2 6760   2.571   0.495   4.663
 2266TIP3   OH2 6761   6.254   1.395   0.113
 2266TIP3    H1 6762   6.335   1.370   0.157
 2266TIP3    H2 6763   6.266   1.487   0.090
 2267TIP3   OH2 6764   4.971   6.545   4.987
 2267TIP3    H1 6765   4.893   6.522   5.038
 2267TIP3    H2 6766   4.998   6.630   5.021
 2268TIP3   OH2 6767   2.668   6.173   1.228
 2268TIP3    H1 6768   2.715   6.097   1.262
 2268TIP3    H2 6769   2.698   6.182   1.138
 2269TIP3   OH2 6770   0.699   4.672   2.163
 2269TIP3    H1 6771   0.659   4.642   2.082
 2269TIP3    H2 6772   0.637   4.646   2.231
 2270TIP3   OH2 6773   4.130   0.033   0.718
 2270TIP3    H1 6774   4.122   0.115   0.669
 2270TIP3    H2 6775   4.090  -0.033   0.662
 2271TIP3   OH2 6776   4.132   3.988   2.885
 2271TIP3    H1 6777   4.132   3.893   2.876
 2271TIP3    H2 6778   4.216   4.008   2.926
 2272TIP3   OH2 6779   6.160   3.075   0.200
 2272TIP3    H1 6780   6.110   3.028   0.134
 2272TIP3    H2 6781   6.252   3.059   0.177
 2273TIP3   OH2 6782   3.096   5.418   4.819
 2273TIP3    H1 6783   3.006   5.449   4.804
 2273TIP3    H2 6784   3.086   5.325   4.839
 2274TIP3   OH2 6785   5.356   5.617   3.274
 2274TIP3    H1 6786   5.326   5.529   3.251
 2274TIP3    H2 6787   5.322   5.674   3.205
 2275TIP3   OH2 6788   3.367   5.136   0.988
 2275TIP3    H1 6789   3.411   5.161   1.069
 2275TIP3    H2 6790   3.306   5.208   0.971
 2276TIP3   OH2 6791   2.534   3.100   4.300
 2276TIP3    H1 6792   2.625   3.096   4.330
 2276TIP3    H2 6793   2.515   3.194   4.294
 2277TIP3   OH2 6794   3.817   0.219   3.987
 2277TIP3    H1 6795   3.777   0.253   4.067
 2277TIP3    H2 6796   3.829   0.297   3.932
 2278TIP3   OH2 6797   4.614   2.086   1.918
 2278TIP3    H1 6798   4.536   2.042   1.885
 2278TIP3    H2 6799   4.669   2.016   1.952
 2279TIP3   OH2 6800   1.898   2.962   0.384
 2279TIP3    H1 6801   1.919   2.933   0.473
 2279TIP3    H2 6802   1.981   2.962   0.338
 2280TIP3   OH2 6803   5.947   4.168   4.448
 2280TIP3    H1 6804   5.978   4.208   4.529
 2280TIP3    H2 6805   5.864   4.126   4.472
 2281TIP3   OH2 6806   7.010   1.897   5.314
 2281TIP3    H1 6807   6.914   1.891   5.321
 2281TIP3    H2 6808   7.038   1.930   5.399
 2282TIP3   OH2 6809   1.447   3.847   2.933
 2282TIP3    H1 6810   1.498   3.800   2.867
 2282TIP3    H2 6811   1.463   3.800   3.014
 2283TIP3   OH2 6812   7.069   4.910   4.099
 2283TIP3    H1 6813   6.975   4.893   4.110
 2283TIP3    H2 6814   7.110   4.866   4.173
 2284TIP3   OH2 6815   7.184   1.169   4.769
 2284TIP3    H1 6816   7.260   1.183   4.713
 2284TIP3    H2 6817   7.136   1.097   4.727
 2285TIP3   OH2 6818   5.902   2.420   5.230
 2285TIP3    H1 6819   5.930   2.498   5.183
 2285TIP3    H2 6820   5.880   2.357   5.161
 2286TIP3   OH2 6821   1.465   5.297   3.086
 2286TIP3    H1 6822   1.414   5.241   3.144
 2286TIP3    H2 6823   1.447   5.386   3.116
 2287TIP3   OH2 6824   0.473   1.074   1.613
 2287TIP3    H1 6825   0.390   1.052   1.656
 2287TIP3    H2 6826   0.486   1.167   1.632
 2288TIP3   OH2 6827   5.569   2.790   0.303
 2288TIP3    H1 6828   5.595   2.737   0.228
 2288TIP3    H2 6829   5.506   2.734   0.350
 2289TIP3   OH2 6830   5.144   4.386   4.352
 2289TIP3    H1 6831   5.084   4.435   4.409
 2289TIP3    H2 6832   5.202   4.452   4.315
 2290TIP3   OH2 6833   7.127   4.731   2.229
 2290TIP3    H1 6834   7.217   4.755   2.252
 2290TIP3    H2 6835   7.124   4.636   2.241
 2291TIP3   OH2 6836   7.082   4.601   4.146
 2291TIP3    H1 6837   7.108   4.618   4.055
 2291TIP3    H2 6838   7.138   4.529   4.174
 2292TIP3   OH2 6839   5.351   4.829   4.508
 2292TIP3    H1 6840   5.361   4.810   4.414
 2292TIP3    H2 6841   5.383   4.750   4.552
 2293TIP3   OH2 6842   5.611   1.954   4.139
 2293TIP3    H1 6843   5.581   1.960   4.048
 2293TIP3    H2 6844   5.613   1.860   4.158
 2294TIP3   OH2 6845   3.811   2.048   2.291
 2294TIP3    H1 6846   3.845   1.981   2.350
 2294TIP3    H2 6847   3.836   2.131   2.331
 2295TIP3   OH2 6848   4.587   6.227   0.830
 2295TIP3    H1 6849   4.657   6.196   0.887
 2295TIP3    H2 6850   4.530   6.151   0.818
 2296TIP3   OH2 6851   2.539   0.688   0.910
 2296TIP3    H1 6852   2.620   0.644   0.884
 2296TIP3    H2 6853   2.473   0.656   0.848
 2297TIP3   OH2 6854   3.542   0.290   0.235
 2297TIP3    H1 6855   3.513   0.229   0.303
 2297TIP3    H2 6856   3.637   0.278   0.231
 2298TIP3   OH2 6857   4.567   4.459   1.815
 2298TIP3    H1 6858   4.521   4.542   1.806
 2298TIP3    H2 6859   4.526   4.417   1.891
 2299TIP3   OH2 6860   5.775   4.958   4.079
 2299TIP3    H1 6861   5.742   5.047   4.090
 2299TIP3    H2 6862   5.810   4.957   3.989
 2300TIP3   OH2 6863   2.620   6.017   2.922
 2300TIP3    H1 6864   2.627   6.102   2.877
 2300TIP3    H2 6865   2.709   5.998   2.951
 2301TIP3   OH2 6866   1.212   2.292   5.826
 2301TIP3    H1 6867   1.284   2.232   5.805
 2301TIP3    H2 6868   1.251   2.379   5.819
 2302TIP3   OH2 6869   2.889   6.023   5.807
 2302TIP3    H1 6870   2.944   6.101   5.803
 2302TIP3    H2 6871   2.800   6.055   5.789
 2303TIP3   OH2 6872   3.707   0.529   0.288
 2303TIP3    H1 6873   3.749   0.450   0.323
 2303TIP3    H2 6874   3.654   0.561   0.361
 2304TIP3   OH2 6875   2.093   4.486   3.371
 2304TIP3    H1 6876   2.102   4.574   3.335
 2304TIP3    H2 6877   2.005   4.459   3.348
 2305TIP3   OH2 6878   1.621   3.410   4.038
 2305TIP3    H1 6879   1.707   3.386   4.071
 2305TIP3    H2 6880   1.610   3.502   4.063
 2306TIP3   OH2 6881   0.433   5.052   4.679
 2306TIP3    H1 6882   0.486   4.995   4.734
 2306TIP3    H2 6883   0.495   5.118   4.647
 2307TIP3   OH2 6884   1.157   4.916   0.344
 2307TIP3    H1 6885   1.180   4.937   0.253
 2307TIP3    H2 6886   1.136   4.823   0.342
 2308TIP3   OH2 6887   1.819   2.455   4.998
 2308TIP3    H1 6888   1.830   2.526   4.934
 2308TIP3    H2 6889   1.743   2.406   4.967
 2309TIP3   OH2 6890   4.005   5.154   1.402
 2309TIP3    H1 6891   4.011   5.175   1.309
 2309TIP3    H2 6892   4.059   5.220   1.445
 2310TIP3   OH2 6893   6.939   5.656   1.178
 2310TIP3    H1 6894   7.023   5.696   1.153
 2310TIP3    H2 6895   6.877   5.729   1.174
 2311TIP3   OH2 6896   0.708   2.278   0.165
 2311TIP3    H1 6897   0.775   2.339   0.134
 2311TIP3    H2 6898   0.635   2.289   0.104
 2312TIP3   OH2 6899   0.016   4.467   2.306
 2312TIP3    H1 6900   0.070   4.466   2.227
 2312TIP3    H2 6901   0.063   4.411   2.368
 2313TIP3   OH2 6902   5.032   5.423   4.425
 2313TIP3    H1 6903   5.070   5.350   4.377
 2313TIP3    H2 6904   5.073   5.419   4.511
 2314TIP3   OH2 6905   5.484   4.155   5.848
 2314TIP3    H1 6906   5.471   4.249   5.857
 2314TIP3    H2 6907   5.579   4.145   5.839
 2315TIP3   OH2 6908   0.308   5.566   2.061
 2315TIP3    H1 6909   0.286   5.657   2.078
 2315TIP3    H2 6910   0.282   5.519   2.140
 2316TIP3   OH2 6911   4.997   3.532   2.151
 2316TIP3    H1 6912   4.906   3.559   2.140
 2316TIP3    H2 6913   5.048   3.596   2.100
 2317TIP3   OH2 6914   2.059   3.000   3.458
 2317TIP3    H1 6915   2.004   2.924   3.443
 2317TIP3    H2 6916   2.007   3.074   3.426
 2318TIP3   OH2 6917   5.626   2.161   2.621
 2318TIP3    H1 6918   5.622   2.233   2.683
 2318TIP3    H2 6919   5.563   2.097   2.654
 2319TIP3   OH2 6920   1.234   4.716   5.805
 2319TIP3    H1 6921   1.227   4.621   5.814
 2319TIP3    H2 6922   1.306   4.740   5.863
 2320TIP3   OH2 6923   0.557   0.924   0.264
 2320TIP3    H1 6924   0.548   0.900   0.172
 2320TIP3    H2 6925   0.486   0.878   0.308
 2321TIP3   OH2 6926   6.153   5.095   3.042
 2321TIP3    H1 6927   6.197   5.029   3.096
 2321TIP3    H2 6928   6.183   5.179   3.077
 2322TIP3   OH2 6929   6.170   4.019   3.862
 2322TIP3    H1 6930   6.257   4.052   3.842
 2322TIP3    H2 6931   6.127   4.090   3.909
 2323TIP3   OH2 6932   0.534   0.311   1.924
 2323TIP3    H1 6933   0.549   0.338   2.015
 2323TIP3    H2 6934   0.440   0.299   1.918
 2324TIP3   OH2 6935   1.640   1.089   3.552
 2324TIP3    H1 6936   1.609   1.163   3.499
 2324TIP3    H2 6937   1.581   1.087   3.627
 2325TIP3   OH2 6938   3.868   5.841   3.411
 2325TIP3    H1 6939   3.942   5.795   3.451
 2325TIP3    H2 6940   3.851   5.914   3.469
 2326TIP3   OH2 6941   1.500   5.861   0.040
 2326TIP3    H1 6942   1.522   5.869  -0.053
 2326TIP3    H2 6943   1.583   5.839   0.083
 2327TIP3   OH2 6944   3.416   1.664   5.393
 2327TIP3    H1 6945   3.376   1.581   5.419
 2327TIP3    H2 6946   3.493   1.639   5.342
 2328TIP3   OH2 6947   4.542   0.111   3.289
 2328TIP3    H1 6948   4.494   0.192   3.310
 2328TIP3    H2 6949   4.561   0.118   3.196
 2329TIP3   OH2 6950   2.990   0.290   2.609
 2329TIP3    H1 6951   2.925   0.294   2.539
 2329TIP3    H2 6952   3.072   0.315   2.568
 2330TIP3   OH2 6953   3.787   1.060   5.748
 2330TIP3    H1 6954   3.767   1.147   5.712
 2330TIP3    H2 6955   3.731   1.052   5.824
 2331TIP3   OH2 6956   1.673   1.973   4.740
 2331TIP3    H1 6957   1.585   1.974   4.779
 2331TIP3    H2 6958   1.657   1.965   4.646
 2332TIP3   OH2 6959   3.246   5.667   0.518
 2332TIP3    H1 6960   3.232   5.593   0.458
 2332TIP3    H2 6961   3.247   5.626   0.605
 2333TIP3   OH2 6962   1.375   1.250   1.893
 2333TIP3    H1 6963   1.390   1.277   1.983
 2333TIP3    H2 6964   1.308   1.183   1.898
 2334TIP3   OH2 6965   0.754   2.245   2.201
 2334TIP3    H1 6966   0.707   2.307   2.145
 2334TIP3    H2 6967   0.771   2.295   2.282
 2335TIP3   OH2 6968   4.902   3.601   1.438
 2335TIP3    H1 6969   4.819   3.566   1.471
 2335TIP3    H2 6970   4.939   3.648   1.512
 2336TIP3   OH2 6971   3.248   1.873   5.487
 2336TIP3    H1 6972   3.203   1.823   5.554
 2336TIP3    H2 6973   3.264   1.811   5.416
 2337TIP3   OH2 6974   6.749   1.268   4.999
 2337TIP3    H1 6975   6.827   1.273   4.945
 2337TIP3    H2 6976   6.701   1.192   4.965
 2338TIP3   OH2 6977   1.448   5.452   4.800
 2338TIP3    H1 6978   1.454   5.499   4.883
 2338TIP3    H2 6979   1.458   5.519   4.733
 2339TIP3   OH2 6980   3.039   4.022   1.730
 2339TIP3    H1 6981   3.087   4.013   1.813
 2339TIP3    H2 6982   2.955   3.980   1.747
 2340TIP3   OH2 6983   5.351   0.883   1.948
 2340TIP3    H1 6984   5.273   0.934   1.929
 2340TIP3    H2 6985   5.350   0.812   1.884
 2341TIP3   OH2 6986   6.033   3.309   0.627
 2341TIP3    H1 6987   5.977   3.360   0.568
 2341TIP3    H2 6988   5.993   3.223   0.630
 2342TIP3   OH2 6989   4.676   4.889   3.354
 2342TIP3    H1 6990   4.692   4.877   3.448
 2342TIP3    H2 6991   4.711   4.976   3.335
 2343TIP3   OH2 6992   4.495   4.844   3.139
 2343TIP3    H1 6993   4.497   4.749   3.126
 2343TIP3    H2 6994   4.546   4.858   3.219
 2344TIP3   OH2 6995   4.023   1.791   2.621
 2344TIP3    H1 6996   4.083   1.850   2.667
 2344TIP3    H2 6997   4.004   1.722   2.684
 2345TIP3   OH2 6998   0.479   1.037   5.176
 2345TIP3    H1 6999   0.469   1.023   5.082
 2345TIP3    H2 7000   0.413   1.103   5.197
 2346TIP3   OH2 7001   4.608   4.630   4.419
 2346TIP3    H1 7002   4.560   4.708   4.391
 2346TIP3    H2 7003   4.654   4.657   4.498
 2347TIP3   OH2 7004   1.446   1.530   4.930
 2347TIP3    H1 7005   1.446   1.470   5.005
 2347TIP3    H2 7006   1.538   1.535   4.904
 2348TIP3   OH2 7007   0.838   2.341   5.480
 2348TIP3    H1 7008   0.861   2.407   5.544
 2348TIP3    H2 7009   0.915   2.283   5.476
 2349TIP3   OH2 7010   0.595   3.008   1.094
 2349TIP3    H1 7011   0.506   3.039   1.108
 2349TIP3    H2 7012   0.628   3.061   1.021
 2350TIP3   OH2 7013   1.286   4.866   1.022
 2350TIP3    H1 7014   1.311   4.805   0.953
 2350TIP3    H2 7015   1.221   4.819   1.074
 2351TIP3   OH2 7016   3.255   5.131   4.685
 2351TIP3    H1 7017   3.252   5.040   4.655
 2351TIP3    H2 7018   3.330   5.169   4.641
 2352TIP3   OH2 7019   6.145   1.346   4.520
 2352TIP3    H1 7020   6.063   1.300   4.535
 2352TIP3    H2 7021   6.211   1.276   4.517
 2353TIP3   OH2 7022   3.784   5.084   3.776
 2353TIP3    H1 7023   3.731   5.006   3.764
 2353TIP3    H2 7024   3.723   5.157   3.768
 2354TIP3   OH2 7025   5.898   2.104   3.844
 2354TIP3    H1 7026   5.869   2.138   3.760
 2354TIP3    H2 7027   5.990   2.080   3.830
 2355TIP3   OH2 7028   6.375   2.435   1.373
 2355TIP3    H1 7029   6.449   2.466   1.425
 2355TIP3    H2 7030   6.372   2.341   1.388
 2356TIP3   OH2 7031   5.431   5.898   2.822
 2356TIP3    H1 7032   5.423   5.947   2.740
 2356TIP3    H2 7033   5.384   5.951   2.886
 2357TIP3   OH2 7034   3.439   4.731   1.794
 2357TIP3    H1 7035   3.397   4.767   1.873
 2357TIP3    H2 7036   3.475   4.647   1.821
 2358TIP3   OH2 7037   5.269   6.010   0.408
 2358TIP3    H1 7038   5.265   5.984   0.500
 2358TIP3    H2 7039   5.182   5.990   0.373
 2359TIP3   OH2 7040   6.193   2.697   4.181
 2359TIP3    H1 7041   6.188   2.697   4.277
 2359TIP3    H2 7042   6.132   2.765   4.154
 2360TIP3   OH2 7043   6.169   5.457   2.827
 2360TIP3    H1 7044   6.204   5.372   2.799
 2360TIP3    H2 7045   6.164   5.452   2.922
 2361TIP3   OH2 7046   6.789   3.418   4.275
 2361TIP3    H1 7047   6.808   3.505   4.240
 2361TIP3    H2 7048   6.846   3.410   4.352
 2362TIP3   OH2 7049   3.019   4.469   2.545
 2362TIP3    H1 7050   2.979   4.386   2.570
 2362TIP3    H2 7051   3.082   4.486   2.615
 2363TIP3   OH2 7052   3.454   3.394   4.827
 2363TIP3    H1 7053   3.533   3.389   4.774
 2363TIP3    H2 7054   3.384   3.408   4.764
 2364TIP3   OH2 7055   0.136   1.150   1.193
 2364TIP3    H1 7056   0.171   1.062   1.207
 2364TIP3    H2 7057   0.213   1.205   1.183
 2365TIP3   OH2 7058   3.323   6.335   4.946
 2365TIP3    H1 7059   3.374   6.272   4.895
 2365TIP3    H2 7060   3.340   6.419   4.904
 2366TIP3   OH2 7061   3.417   1.890   0.509
 2366TIP3    H1 7062   3.506   1.910   0.481
 2366TIP3    H2 7063   3.387   1.823   0.447
 2367TIP3   OH2 7064   5.805   0.370   2.572
 2367TIP3    H1 7065   5.772   0.301   2.515
 2367TIP3    H2 7066   5.730   0.428   2.585
 2368TIP3   OH2 7067   1.373   6.743   0.409
 2368TIP3    H1 7068   1.409   6.826   0.440
 2368TIP3    H2 7069   1.431   6.717   0.338
 2369TIP3   OH2 7070   4.779   2.528   4.745
 2369TIP3    H1 7071   4.753   2.614   4.779
 2369TIP3    H2 7072   4.871   2.537   4.722
 2370TIP3   OH2 7073   2.753   0.317   0.854
 2370TIP3    H1 7074   2.818   0.253   0.884
 2370TIP3    H2 7075   2.764   0.321   0.759
 2371TIP3   OH2 7076   0.426   0.638   1.915
 2371TIP3    H1 7077   0.346   0.622   1.966
 2371TIP3    H2 7078   0.480   0.691   1.973
 2372TIP3   OH2 7079   6.836   2.204   5.167
 2372TIP3    H1 7080   6.817   2.126   5.218
 2372TIP3    H2 7081   6.815   2.277   5.224
 2373TIP3   OH2 7082   2.354   1.927   5.679
 2373TIP3    H1 7083   2.424   1.949   5.619
 2373TIP3    H2 7084   2.297   2.004   5.680
 2374TIP3   OH2 7085   2.847   1.916   0.729
 2374TIP3    H1 7086   2.769   1.889   0.776
 2374TIP3    H2 7087   2.820   1.994   0.680
 2375TIP3   OH2 7088   2.288   2.453   3.330
 2375TIP3    H1 7089   2.238   2.514   3.384
 2375TIP3    H2 7090   2.301   2.377   3.387
 2376TIP3   OH2 7091   6.726   0.808   2.609
 2376TIP3    H1 7092   6.773   0.753   2.671
 2376TIP3    H2 7093   6.657   0.849   2.660
 2377TIP3   OH2 7094   2.752   6.636   5.879
 2377TIP3    H1 7095   2.767   6.699   5.808
 2377TIP3    H2 7096   2.804   6.669   5.952
 2378TIP3   OH2 7097   0.341   2.900   4.656
 2378TIP3    H1 7098   0.252   2.864   4.649
 2378TIP3    H2 7099   0.386   2.841   4.716
 2379TIP3   OH2 7100   0.276   5.956   5.663
 2379TIP3    H1 7101   0.284   6.051   5.667
 2379TIP3    H2 7102   0.335   5.930   5.592
 2380TIP3   OH2 7103   3.339   5.285   5.429
 2380TIP3    H1 7104   3.325   5.379   5.420
 2380TIP3    H2 7105   3.359   5.273   5.522
 2381TIP3   OH2 7106   2.894   4.293   5.869
 2381TIP3    H1 7107   2.807   4.254   5.865
 2381TIP3    H2 7108   2.916   4.315   5.778
 2382TIP3   OH2 7109   0.050   1.812   0.422
 2382TIP3    H1 7110   0.078   1.835   0.333
 2382TIP3    H2 7111   0.110   1.859   0.479
 2383TIP3   OH2 7112   6.885   1.266   5.652
 2383TIP3    H1 7113   6.975   1.289   5.629
 2383TIP3    H2 7114   6.846   1.350   5.678
 2384TIP3   OH2 7115   6.092   6.319   3.877
 2384TIP3    H1 7116   6.156   6.300   3.808
 2384TIP3    H2 7117   6.146   6.333   3.955
 2385TIP3   OH2 7118   4.684   6.286   1.161
 2385TIP3    H1 7119   4.610   6.229   1.141
 2385TIP3    H2 7120   4.734   6.239   1.228
 2386TIP3   OH2 7121   5.378   3.501   0.194
 2386TIP3    H1 7122   5.446   3.437   0.216
 2386TIP3    H2 7123   5.421   3.564   0.137
 2387TIP3   OH2 7124   3.118   2.815   4.911
 2387TIP3    H1 7125   3.152   2.759   4.842
 2387TIP3    H2 7126   3.100   2.898   4.868
 2388TIP3   OH2 7127   0.235   4.307   4.793
 2388TIP3    H1 7128   0.278   4.337   4.713
 2388TIP3    H2 7129   0.255   4.375   4.857
 2389TIP3   OH2 7130   2.094   5.358   4.034
 2389TIP3    H1 7131   2.034   5.413   3.985
 2389TIP3    H2 7132   2.137   5.417   4.096
 2390TIP3   OH2 7133   6.412   5.941   2.552
 2390TIP3    H1 7134   6.324   5.970   2.574
 2390TIP3    H2 7135   6.464   6.022   2.550
 2391TIP3   OH2 7136   5.337   0.187   5.523
 2391TIP3    H1 7137   5.411   0.248   5.527
 2391TIP3    H2 7138   5.291   0.211   5.443
 2392TIP3   OH2 7139   6.890   0.840   3.284
 2392TIP3    H1 7140   6.920   0.750   3.300
 2392TIP3    H2 7141   6.868   0.841   3.191
 2393TIP3   OH2 7142   2.983   0.482   0.727
 2393TIP3    H1 7143   3.009   0.479   0.635
 2393TIP3    H2 7144   3.014   0.399   0.764
 2394TIP3   OH2 7145   0.842   6.299   2.088
 2394TIP3    H1 7146   0.894   6.296   2.169
 2394TIP3    H2 7147   0.906   6.308   2.018
 2395TIP3   OH2 7148   0.474   1.391   0.618
 2395TIP3    H1 7149   0.389   1.388   0.662
 2395TIP3    H2 7150   0.462   1.338   0.539
 2396TIP3   OH2 7151   0.880   4.797   3.236
 2396TIP3    H1 7152   0.926   4.719   3.266
 2396TIP3    H2 7153   0.795   4.765   3.206
 2397TIP3   OH2 7154   2.902   6.086   1.683
 2397TIP3    H1 7155   2.817   6.045   1.671
 2397TIP3    H2 7156   2.926   6.118   1.596
 2398TIP3   OH2 7157   4.943   3.505   0.741
 2398TIP3    H1 7158   5.038   3.495   0.754
 2398TIP3    H2 7159   4.915   3.558   0.816
 2399TIP3   OH2 7160   1.684   3.727   1.667
 2399TIP3    H1 7161   1.664   3.755   1.756
 2399TIP3    H2 7162   1.773   3.757   1.652
 2400TIP3   OH2 7163   3.103   5.177   3.518
 2400TIP3    H1 7164   3.147   5.197   3.436
 2400TIP3    H2 7165   3.057   5.258   3.541
 2401TIP3   OH2 7166   5.773   5.596   4.549
 2401TIP3    H1 7167   5.853   5.559   4.512
 2401TIP3    H2 7168   5.758   5.545   4.628
 2402TIP3   OH2 7169   1.858   0.898   5.505
 2402TIP3    H1 7170   1.767   0.884   5.530
 2402TIP3    H2 7171   1.854   0.962   5.434
 2403TIP3   OH2 7172   3.264   5.092   0.734
 2403TIP3    H1 7173   3.305   5.108   0.819
 2403TIP3    H2 7174   3.292   5.004   0.709
 2404TIP3   OH2 7175   2.575   4.960   5.100
 2404TIP3    H1 7176   2.667   4.980   5.086
 2404TIP3    H2 7177   2.538   4.955   5.012
 2405TIP3   OH2 7178   3.777   4.522   2.646
 2405TIP3    H1 7179   3.867   4.513   2.613
 2405TIP3    H2 7180   3.778   4.603   2.696
 2406TIP3   OH2 7181   2.278   5.774   2.555
 2406TIP3    H1 7182   2.326   5.757   2.636
 2406TIP3    H2 7183   2.343   5.761   2.486
 2407TIP3   OH2 7184   0.774   5.465   3.298
 2407TIP3    H1 7185   0.763   5.419   3.215
 2407TIP3    H2 7186   0.807   5.551   3.273
 2408TIP3   OH2 7187   4.352   6.071   4.116
 2408TIP3    H1 7188   4.427   6.117   4.155
 2408TIP3    H2 7189   4.321   6.012   4.185
 2409TIP3   OH2 7190   1.041   6.361   5.409
 2409TIP3    H1 7191   0.949   6.337   5.393
 2409TIP3    H2 7192   1.071   6.396   5.325
 2410TIP3   OH2 7193   2.523   2.312   4.824
 2410TIP3    H1 7194   2.509   2.219   4.841
 2410TIP3    H2 7195   2.447   2.338   4.771
 2411TIP3   OH2 7196   4.029   0.503   5.451
 2411TIP3    H1 7197   4.110   0.459   5.478
 2411TIP3    H2 7198   4.019   0.479   5.359
 2412TIP3   OH2 7199   5.000   5.909   3.445
 2412TIP3    H1 7200   5.011   5.999   3.476
 2412TIP3    H2 7201   5.085   5.868   3.462
 2413TIP3   OH2 7202   2.589   4.263   2.081
 2413TIP3    H1 7203   2.558   4.295   2.166
 2413TIP3    H2 7204   2.548   4.177   2.071
 2414TIP3   OH2 7205   2.046   2.225   1.219
 2414TIP3    H1 7206   1.989   2.169   1.167
 2414TIP3    H2 7207   2.125   2.174   1.232
 2415TIP3   OH2 7208   0.191   2.018   2.767
 2415TIP3    H1 7209   0.199   2.110   2.742
 2415TIP3    H2 7210   0.209   1.969   2.687
 2416TIP3   OH2 7211   3.186   3.304   2.721
 2416TIP3    H1 7212   3.258   3.366   2.732
 2416TIP3    H2 7213   3.112   3.359   2.696
 2417TIP3   OH2 7214   4.541   5.438   1.672
 2417TIP3    H1 7215   4.628   5.426   1.711
 2417TIP3    H2 7216   4.555   5.426   1.578
 2418TIP3   OH2 7217   6.872   1.817   4.463
 2418TIP3    H1 7218   6.855   1.883   4.530
 2418TIP3    H2 7219   6.846   1.734   4.503
 2419TIP3   OH2 7220   4.809   4.236   1.064
 2419TIP3    H1 7221   4.775   4.309   1.116
 2419TIP3    H2 7222   4.834   4.170   1.129
 2420TIP3   OH2 7223   4.800   1.829   5.639
 2420TIP3    H1 7224   4.809   1.924   5.632
 2420TIP3    H2 7225   4.886   1.799   5.667
 2421TIP3   OH2 7226   2.734   5.519   4.428
 2421TIP3    H1 7227   2.792   5.474   4.366
 2421TIP3    H2 7228   2.706   5.598   4.382
 2422TIP3   OH2 7229   0.917   0.047   1.815
 2422TIP3    H1 7230   0.879  -0.026   1.767
 2422TIP3    H2 7231   0.971   0.006   1.882
 2423TIP3   OH2 7232   1.893   2.058   1.082
 2423TIP3    H1 7233   1.865   2.059   0.991
 2423TIP3    H2 7234   1.830   2.001   1.126
 2424TIP3   OH2 7235   4.990   1.679   2.946
 2424TIP3    H1 7236   4.955   1.664   2.858
 2424TIP3    H2 7237   5.046   1.603   2.963
 2425TIP3   OH2 7238   2.864   3.095   0.161
 2425TIP3    H1 7239   2.904   3.134   0.239
 2425TIP3    H2 7240   2.791   3.153   0.140
 2426TIP3   OH2 7241   1.789   6.300   3.968
 2426TIP3    H1 7242   1.776   6.387   4.004
 2426TIP3    H2 7243   1.712   6.285   3.913
 2427TIP3   OH2 7244   0.249   5.125   0.982
 2427TIP3    H1 7245   0.176   5.101   1.039
 2427TIP3    H2 7246   0.319   5.152   1.043
 2428TIP3   OH2 7247   0.665   6.425   5.895
 2428TIP3    H1 7248   0.601   6.495   5.912
 2428TIP3    H2 7249   0.624   6.371   5.828
 2429TIP3   OH2 7250   5.837   4.351   0.654
 2429TIP3    H1 7251   5.855   4.423   0.593
 2429TIP3    H2 7252   5.900   4.363   0.725
 2430TIP3   OH2 7253   6.565   0.108   5.197
 2430TIP3    H1 7254   6.556   0.077   5.287
 2430TIP3    H2 7255   6.554   0.203   5.202
 2431TIP3   OH2 7256   5.775   6.206   3.427
 2431TIP3    H1 7257   5.858   6.172   3.460
 2431TIP3    H2 7258   5.800   6.285   3.378
 2432TIP3   OH2 7259   3.198   4.113   3.299
 2432TIP3    H1 7260   3.274   4.092   3.354
 2432TIP3    H2 7261   3.176   4.203   3.322
 2433TIP3   OH2 7262   0.812   6.754   0.574
 2433TIP3    H1 7263   0.829   6.669   0.534
 2433TIP3    H2 7264   0.745   6.794   0.518
 2434TIP3   OH2 7265   6.560   5.686   5.510
 2434TIP3    H1 7266   6.590   5.626   5.578
 2434TIP3    H2 7267   6.604   5.656   5.430
 2435TIP3   OH2 7268   0.328   6.038   4.909
 2435TIP3    H1 7269   0.368   6.046   4.823
 2435TIP3    H2 7270   0.251   5.982   4.895
 2436TIP3   OH2 7271   3.552   2.145   5.144
 2436TIP3    H1 7272   3.469   2.186   5.118
 2436TIP3    H2 7273   3.581   2.195   5.220
 2437TIP3   OH2 7274   2.744   2.589   5.507
 2437TIP3    H1 7275   2.675   2.549   5.560
 2437TIP3    H2 7276   2.721   2.682   5.504
 2438TIP3   OH2 7277   1.627   4.778   0.604
 2438TIP3    H1 7278   1.655   4.840   0.537
 2438TIP3    H2 7279   1.651   4.692   0.570
 2439TIP3   OH2 7280   2.186   6.025   5.874
 2439TIP3    H1 7281   2.212   6.077   5.950
 2439TIP3    H2 7282   2.253   6.043   5.808
 2440TIP3   OH2 7283   2.252   6.071   2.143
 2440TIP3    H1 7284   2.187   6.012   2.180
 2440TIP3    H2 7285   2.281   6.124   2.217
 2441TIP3   OH2 7286   3.883   3.079   5.804
 2441TIP3    H1 7287   3.930   3.009   5.849
 2441TIP3    H2 7288   3.937   3.100   5.728
 2442TIP3   OH2 7289   0.317   2.527   4.529
 2442TIP3    H1 7290   0.331   2.576   4.449
 2442TIP3    H2 7291   0.339   2.589   4.599
 2443TIP3   OH2 7292   5.828   5.063   3.188
 2443TIP3    H1 7293   5.877   5.067   3.270
 2443TIP3    H2 7294   5.891   5.087   3.120
 2444TIP3   OH2 7295   3.737   4.220   3.478
 2444TIP3    H1 7296   3.659   4.255   3.521
 2444TIP3    H2 7297   3.775   4.295   3.433
 2445TIP3   OH2 7298   6.644   4.278   5.833
 2445TIP3    H1 7299   6.606   4.349   5.780
 2445TIP3    H2 7300   6.655   4.206   5.772
 2446TIP3   OH2 7301   2.480   5.718   4.450
 2446TIP3    H1 7302   2.440   5.734   4.536
 2446TIP3    H2 7303   2.464   5.626   4.433
 2447TIP3   OH2 7304   4.517   4.714   5.777
 2447TIP3    H1 7305   4.516   4.649   5.707
 2447TIP3    H2 7306   4.590   4.688   5.833
 2448TIP3   OH2 7307   5.292   1.087   5.760
 2448TIP3    H1 7308   5.317   1.165   5.709
 2448TIP3    H2 7309   5.349   1.018   5.727
 2449TIP3   OH2 7310   2.843   2.698   3.810
 2449TIP3    H1 7311   2.752   2.676   3.825
 2449TIP3    H2 7312   2.850   2.791   3.831
 2450TIP3   OH2 7313   3.694   5.614   1.009
 2450TIP3    H1 7314   3.676   5.566   1.089
 2450TIP3    H2 7315   3.630   5.685   1.008
 2451TIP3   OH2 7316   4.187   4.685   3.120
 2451TIP3    H1 7317   4.216   4.658   3.032
 2451TIP3    H2 7318   4.164   4.603   3.163
 2452TIP3   OH2 7319   5.385   6.233   2.226
 2452TIP3    H1 7320   5.318   6.165   2.234
 2452TIP3    H2 7321   5.466   6.184   2.209
 2453TIP3   OH2 7322   0.946   0.629   0.326
 2453TIP3    H1 7323   0.892   0.690   0.376
 2453TIP3    H2 7324   1.031   0.631   0.370
 2454TIP3   OH2 7325   1.581   2.258   5.297
 2454TIP3    H1 7326   1.594   2.185   5.357
 2454TIP3    H2 7327   1.598   2.221   5.210
 2455TIP3   OH2 7328   2.789   2.097   1.123
 2455TIP3    H1 7329   2.766   2.151   1.198
 2455TIP3    H2 7330   2.825   2.159   1.059
 2456TIP3   OH2 7331   2.473   5.139   3.151
 2456TIP3    H1 7332   2.560   5.121   3.187
 2456TIP3    H2 7333   2.490   5.180   3.066
 2457TIP3   OH2 7334   0.035   4.894   4.849
 2457TIP3    H1 7335   0.043   4.986   4.824
 2457TIP3    H2 7336   0.062   4.846   4.771
 2458TIP3   OH2 7337   2.828   3.631   2.191
 2458TIP3    H1 7338   2.881   3.710   2.187
 2458TIP3    H2 7339   2.738   3.663   2.199
 2459TIP3   OH2 7340   0.023   0.578   1.751
 2459TIP3    H1 7341  -0.043   0.647   1.760
 2459TIP3    H2 7342   0.066   0.596   1.667
 2460TIP3   OH2 7343   2.982   1.833   0.142
 2460TIP3    H1 7344   2.968   1.922   0.111
 2460TIP3    H2 7345   3.061   1.803   0.097
 2461TIP3   OH2 7346   5.517   2.320   5.270
 2461TIP3    H1 7347   5.605   2.355   5.255
 2461TIP3    H2 7348   5.504   2.257   5.200
 2462TIP3   OH2 7349   5.175   0.130   1.205
 2462TIP3    H1 7350   5.222   0.052   1.175
 2462TIP3    H2 7351   5.162   0.115   1.299
 2463TIP3   OH2 7352   0.433   4.350   0.304
 2463TIP3    H1 7353   0.465   4.407   0.234
 2463TIP3    H2 7354   0.426   4.408   0.380
 2464TIP3   OH2 7355   4.391   6.286   1.258
 2464TIP3    H1 7356   4.306   6.293   1.213
 2464TIP3    H2 7357   4.428   6.204   1.228
 2465TIP3   OH2 7358   1.162   3.831   4.971
 2465TIP3    H1 7359   1.215   3.756   4.944
 2465TIP3    H2 7360   1.137   3.873   4.889
 2466TIP3   OH2 7361   3.561   5.143   4.754
 2466TIP3    H1 7362   3.572   5.096   4.671
 2466TIP3    H2 7363   3.581   5.078   4.821
 2467TIP3   OH2 7364   3.382   0.808   5.861
 2467TIP3    H1 7365   3.400   0.901   5.849
 2467TIP3    H2 7366   3.306   0.791   5.805
 2468TIP3   OH2 7367   6.762   0.463   0.073
 2468TIP3    H1 7368   6.741   0.549   0.110
 2468TIP3    H2 7369   6.743   0.401   0.143
 2469TIP3   OH2 7370   1.430   6.397   0.453
 2469TIP3    H1 7371   1.354   6.446   0.420
 2469TIP3    H2 7372   1.394   6.337   0.518
 2470TIP3   OH2 7373   3.192   5.290   3.292
 2470TIP3    H1 7374   3.246   5.290   3.212
 2470TIP3    H2 7375   3.121   5.351   3.273
 2471TIP3   OH2 7376   4.638   2.248   2.154
 2471TIP3    H1 7377   4.728   2.275   2.173
 2471TIP3    H2 7378   4.645   2.200   2.071
 2472TIP3   OH2 7379   4.664   2.327   3.223
 2472TIP3    H1 7380   4.656   2.232   3.232
 2472TIP3    H2 7381   4.697   2.356   3.308
 2473TIP3   OH2 7382   4.364   5.227   5.426
 2473TIP3    H1 7383   4.454   5.257   5.445
 2473TIP3    H2 7384   4.359   5.227   5.331
 2474TIP3   OH2 7385   5.121   3.577   1.838
 2474TIP3    H1 7386   5.135   3.627   1.758
 2474TIP3    H2 7387   5.127   3.641   1.908
 2475TIP3   OH2 7388   2.267   4.699   1.798
 2475TIP3    H1 7389   2.180   4.730   1.774
 2475TIP3    H2 7390   2.311   4.684   1.714
 2476TIP3   OH2 7391   3.905   3.746   3.635
 2476TIP3    H1 7392   3.993   3.766   3.665
 2476TIP3    H2 7393   3.869   3.830   3.608
 2477TIP3   OH2 7394   1.825   3.084   0.723
 2477TIP3    H1 7395   1.731   3.079   0.704
 2477TIP3    H2 7396   1.861   3.003   0.687
 2478TIP3   OH2 7397   0.512   2.517   4.109
 2478TIP3    H1 7398   0.504   2.436   4.059
 2478TIP3    H2 7399   0.524   2.488   4.200
 2479TIP3   OH2 7400   0.817   2.180   0.858
 2479TIP3    H1 7401   0.725   2.175   0.887
 2479TIP3    H2 7402   0.856   2.099   0.891
 2480TIP3   OH2 7403   4.854   4.734   2.643
 2480TIP3    H1 7404   4.913   4.796   2.601
 2480TIP3    H2 7405   4.868   4.652   2.596
 2481TIP3   OH2 7406   3.843   3.827   1.893
 2481TIP3    H1 7407   3.764   3.804   1.943
 2481TIP3    H2 7408   3.846   3.763   1.822
 2482TIP3   OH2 7409   1.424   0.650   3.802
 2482TIP3    H1 7410   1.484   0.577   3.817
 2482TIP3    H2 7411   1.397   0.677   3.890
 2483TIP3   OH2 7412   2.334   5.732   3.367
 2483TIP3    H1 7413   2.363   5.644   3.347
 2483TIP3    H2 7414   2.278   5.757   3.293
 2484TIP3   OH2 7415   3.682   2.128   3.434
 2484TIP3    H1 7416   3.762   2.099   3.476
 2484TIP3    H2 7417   3.634   2.048   3.415
 2485TIP3   OH2 7418   0.617   1.713   4.159
 2485TIP3    H1 7419   0.661   1.793   4.130
 2485TIP3    H2 7420   0.583   1.735   4.246
 2486TIP3   OH2 7421   2.198   2.046   0.891
 2486TIP3    H1 7422   2.107   2.076   0.890
 2486TIP3    H2 7423   2.217   2.022   0.801
 2487TIP3   OH2 7424   4.152   1.401   4.504
 2487TIP3    H1 7425   4.166   1.464   4.574
 2487TIP3    H2 7426   4.060   1.411   4.481
 2488TIP3   OH2 7427   5.978   6.490   1.779
 2488TIP3    H1 7428   5.982   6.580   1.810
 2488TIP3    H2 7429   5.934   6.494   1.695
 2489TIP3   OH2 7430   1.071   6.279   3.911
 2489TIP3    H1 7431   1.002   6.232   3.958
 2489TIP3    H2 7432   1.128   6.312   3.980
 2490TIP3   OH2 7433   5.127   1.496   0.711
 2490TIP3    H1 7434   5.111   1.588   0.690
 2490TIP3    H2 7435   5.191   1.497   0.781
 2491TIP3   OH2 7436   4.413   6.016   1.605
 2491TIP3    H1 7437   4.419   5.998   1.699
 2491TIP3    H2 7438   4.330   6.064   1.595
 2492TIP3   OH2 7439   2.993   3.000   4.727
 2492TIP3    H1 7440   3.010   2.951   4.647
 2492TIP3    H2 7441   3.035   3.085   4.712
 2493TIP3   OH2 7442   2.155   5.978   5.164
 2493TIP3    H1 7443   2.210   6.048   5.199
 2493TIP3    H2 7444   2.187   5.898   5.205
 2494TIP3   OH2 7445   6.730   1.668   5.482
 2494TIP3    H1 7446   6.673   1.617   5.540
 2494TIP3    H2 7447   6.812   1.619   5.479
 2495TIP3   OH2 7448   6.165   2.343   5.406
 2495TIP3    H1 7449   6.107   2.277   5.369
 2495TIP3    H2 7450   6.253   2.305   5.397
 2496TIP3   OH2 7451   5.370   3.656   4.822
 2496TIP3    H1 7452   5.333   3.575   4.857
 2496TIP3    H2 7453   5.305   3.686   4.758
 2497TIP3   OH2 7454   6.422   1.683   3.438
 2497TIP3    H1 7455   6.330   1.710   3.440
 2497TIP3    H2 7456   6.452   1.706   3.350
 2498TIP3   OH2 7457   3.812   6.436   5.073
 2498TIP3    H1 7458   3.798   6.447   5.167
 2498TIP3    H2 7459   3.806   6.341   5.059
 2499TIP3   OH2 7460   3.404   6.322   1.004
 2499TIP3    H1 7461   3.382   6.400   0.954
 2499TIP3    H2 7462   3.493   6.338   1.036
 2500TIP3   OH2 7463   4.555   3.506   3.311
 2500TIP3    H1 7464   4.531   3.571   3.378
 2500TIP3    H2 7465   4.516   3.540   3.230
 2501TIP3   OH2 7466   3.133   3.622   3.785
 2501TIP3    H1 7467   3.171   3.535   3.789
 2501TIP3    H2 7468   3.125   3.641   3.691
 2502TIP3   OH2 7469   2.573   4.764   5.593
 2502TIP3    H1 7470   2.599   4.672   5.593
 2502TIP3    H2 7471   2.555   4.784   5.501
 2503TIP3   OH2 7472   6.455   0.907   5.620
 2503TIP3    H1 7473   6.497   0.978   5.668
 2503TIP3    H2 7474   6.384   0.878   5.677
 2504TIP3   OH2 7475   2.658   5.966   5.534
 2504TIP3    H1 7476   2.683   5.924   5.451
 2504TIP3    H2 7477   2.652   5.895   5.597
 2505TIP3   OH2 7478   5.874   4.098   0.565
 2505TIP3    H1 7479   5.795   4.062   0.524
 2505TIP3    H2 7480   5.847   4.185   0.596
 2506TIP3   OH2 7481   0.610   0.148   1.684
 2506TIP3    H1 7482   0.538   0.102   1.727
 2506TIP3    H2 7483   0.629   0.222   1.742
 2507TIP3   OH2 7484   0.154   4.403   5.570
 2507TIP3    H1 7485   0.110   4.369   5.648
 2507TIP3    H2 7486   0.227   4.454   5.605
 2508TIP3   OH2 7487   4.145   5.878   0.374
 2508TIP3    H1 7488   4.166   5.790   0.343
 2508TIP3    H2 7489   4.144   5.870   0.470
 2509TIP3   OH2 7490   6.173   0.279   5.608
 2509TIP3    H1 7491   6.118   0.339   5.658
 2509TIP3    H2 7492   6.114   0.207   5.584
 2510TIP3   OH2 7493   0.519   3.900   4.190
 2510TIP3    H1 7494   0.558   3.927   4.273
 2510TIP3    H2 7495   0.572   3.825   4.162
 2511TIP3   OH2 7496   3.232   3.585   2.195
 2511TIP3    H1 7497   3.236   3.675   2.225
 2511TIP3    H2 7498   3.235   3.533   2.276
 2512TIP3   OH2 7499   1.894   0.143   4.916
 2512TIP3    H1 7500   1.886   0.051   4.942
 2512TIP3    H2 7501   1.907   0.190   4.998
 2513TIP3   OH2 7502   6.986   2.521   2.741
 2513TIP3    H1 7503   6.937   2.599   2.767
 2513TIP3    H2 7504   6.952   2.451   2.796
 2514TIP3   OH2 7505   7.154   3.342   5.498
 2514TIP3    H1 7506   7.141   3.336   5.403
 2514TIP3    H2 7507   7.074   3.381   5.531
 2515TIP3   OH2 7508   1.205   1.033   1.832
 2515TIP3    H1 7509   1.176   0.997   1.749
 2515TIP3    H2 7510   1.129   1.081   1.866
 2516TIP3   OH2 7511   2.750   3.512   0.943
 2516TIP3    H1 7512   2.684   3.576   0.916
 2516TIP3    H2 7513   2.700   3.445   0.990
 2517TIP3   OH2 7514   0.355   6.333   2.125
 2517TIP3    H1 7515   0.337   6.425   2.146
 2517TIP3    H2 7516   0.271   6.299   2.094
 2518TIP3   OH2 7517   4.014   3.764   0.013
 2518TIP3    H1 7518   4.076   3.719  -0.045
 2518TIP3    H2 7519   4.023   3.719   0.097
 2519TIP3   OH2 7520   4.947   3.296   5.304
 2519TIP3    H1 7521   5.032   3.253   5.312
 2519TIP3    H2 7522   4.900   3.244   5.239
 2520TIP3   OH2 7523   3.155   6.303   1.700
 2520TIP3    H1 7524   3.236   6.342   1.734
 2520TIP3    H2 7525   3.185   6.236   1.638
 2521TIP3   OH2 7526   0.416   4.586   3.279
 2521TIP3    H1 7527   0.348   4.649   3.304
 2521TIP3    H2 7528   0.367   4.509   3.250
 2522TIP3   OH2 7529   6.419   5.461   3.137
 2522TIP3    H1 7530   6.432   5.387   3.078
 2522TIP3    H2 7531   6.507   5.496   3.152
 2523TIP3   OH2 7532   6.284   6.534   3.694
 2523TIP3    H1 7533   6.263   6.456   3.642
 2523TIP3    H2 7534   6.364   6.569   3.655
 2524TIP3   OH2 7535   2.208   0.342   5.721
 2524TIP3    H1 7536   2.155   0.281   5.771
 2524TIP3    H2 7537   2.195   0.426   5.764
 2525TIP3   OH2 7538   2.457   3.528   1.915
 2525TIP3    H1 7539   2.491   3.445   1.947
 2525TIP3    H2 7540   2.532   3.572   1.876
 2526TIP3   OH2 7541   6.645   0.848   3.498
 2526TIP3    H1 7542   6.695   0.804   3.429
 2526TIP3    H2 7543   6.601   0.777   3.545
 2527TIP3   OH2 7544   1.838   4.417   3.805
 2527TIP3    H1 7545   1.805   4.421   3.895
 2527TIP3    H2 7546   1.933   4.404   3.816
 2528TIP3   OH2 7547   5.101   1.840   5.651
 2528TIP3    H1 7548   5.136   1.894   5.722
 2528TIP3    H2 7549   5.095   1.899   5.576
 2529TIP3   OH2 7550   5.640   0.539   3.779
 2529TIP3    H1 7551   5.654   0.605   3.711
 2529TIP3    H2 7552   5.687   0.572   3.855
 2530TIP3   OH2 7553   1.658   3.164   3.046
 2530TIP3    H1 7554   1.732   3.118   3.006
 2530TIP3    H2 7555   1.698   3.237   3.092
 2531TIP3   OH2 7556   4.539   2.576   2.425
 2531TIP3    H1 7557   4.541   2.543   2.515
 2531TIP3    H2 7558   4.452   2.553   2.394
 2532TIP3   OH2 7559   6.790   1.755   0.584
 2532TIP3    H1 7560   6.856   1.820   0.606
 2532TIP3    H2 7561   6.774   1.768   0.490
 2533TIP3   OH2 7562   1.030   2.660   4.492
 2533TIP3    H1 7563   1.077   2.737   4.524
 2533TIP3    H2 7564   1.062   2.588   4.547
 2534TIP3   OH2 7565   3.535   4.415   3.571
 2534TIP3    H1 7566   3.452   4.462   3.577
 2534TIP3    H2 7567   3.587   4.448   3.644
 2535TIP3   OH2 7568   2.653   6.184   4.017
 2535TIP3    H1 7569   2.639   6.139   4.100
 2535TIP3    H2 7570   2.728   6.140   3.978
 2536TIP3   OH2 7571   0.177   2.705   2.434
 2536TIP3    H1 7572   0.135   2.776   2.387
 2536TIP3    H2 7573   0.130   2.699   2.517
 2537TIP3   OH2 7574   6.503   4.896   4.838
 2537TIP3    H1 7575   6.539   4.809   4.818
 2537TIP3    H2 7576   6.436   4.879   4.904
 2538TIP3   OH2 7577   6.121   4.676   0.220
 2538TIP3    H1 7578   6.206   4.662   0.262
 2538TIP3    H2 7579   6.109   4.771   0.220
 2539TIP3   OH2 7580   2.491   2.810   3.672
 2539TIP3    H1 7581   2.482   2.744   3.604
 2539TIP3    H2 7582   2.533   2.764   3.745
 2540TIP3   OH2 7583   6.925   0.945   2.034
 2540TIP3    H1 7584   6.887   0.869   2.077
 2540TIP3    H2 7585   6.877   1.020   2.070
 2541TIP3   OH2 7586   3.335   1.830   2.319
 2541TIP3    H1 7587   3.401   1.899   2.328
 2541TIP3    H2 7588   3.334   1.787   2.404
 2542TIP3   OH2 7589   3.919   4.527   0.114
 2542TIP3    H1 7590   3.913   4.573   0.031
 2542TIP3    H2 7591   3.937   4.595   0.179
 2543TIP3   OH2 7592   4.531   6.731   3.976
 2543TIP3    H1 7593   4.437   6.721   3.959
 2543TIP3    H2 7594   4.546   6.826   3.970
 2544TIP3   OH2 7595   2.939   2.976   3.578
 2544TIP3    H1 7596   2.951   3.041   3.509
 2544TIP3    H2 7597   3.013   2.989   3.637
 2545TIP3   OH2 7598   5.405   6.380   5.814
 2545TIP3    H1 7599   5.372   6.391   5.903
 2545TIP3    H2 7600   5.341   6.426   5.759
 2546TIP3   OH2 7601   5.569   1.739   0.679
 2546TIP3    H1 7602   5.561   1.790   0.599
 2546TIP3    H2 7603   5.576   1.804   0.749
 2547TIP3   OH2 7604   0.131   6.368   3.146
 2547TIP3    H1 7605   0.080   6.383   3.226
 2547TIP3    H2 7606   0.222   6.364   3.176
 2548TIP3   OH2 7607   6.710   5.145   3.940
 2548TIP3    H1 7608   6.801   5.172   3.942
 2548TIP3    H2 7609   6.712   5.050   3.939
 2549TIP3   OH2 7610   1.140   3.034   2.391
 2549TIP3    H1 7611   1.174   3.113   2.433
 2549TIP3    H2 7612   1.112   2.978   2.464
 2550TIP3   OH2 7613   6.746   5.106   3.362
 2550TIP3    H1 7614   6.809   5.160   3.409
 2550TIP3    H2 7615   6.771   5.115   3.270
 2551TIP3   OH2 7616   1.867   0.651   3.368
 2551TIP3    H1 7617   1.830   0.630   3.282
 2551TIP3    H2 7618   1.861   0.569   3.417
 2552TIP3   OH2 7619   5.491   3.199   0.443
 2552TIP3    H1 7620   5.412   3.242   0.476
 2552TIP3    H2 7621   5.510   3.244   0.360
 2553TIP3   OH2 7622   4.638   5.264   5.001
 2553TIP3    H1 7623   4.685   5.342   4.973
 2553TIP3    H2 7624   4.695   5.191   4.976
 2554TIP3   OH2 7625   4.314   1.127   3.533
 2554TIP3    H1 7626   4.338   1.217   3.556
 2554TIP3    H2 7627   4.358   1.073   3.599
 2555TIP3   OH2 7628   6.458   2.158   0.455
 2555TIP3    H1 7629   6.446   2.161   0.361
 2555TIP3    H2 7630   6.464   2.064   0.476
 2556TIP3   OH2 7631   0.242   0.076   5.485
 2556TIP3    H1 7632   0.218   0.133   5.558
 2556TIP3    H2 7633   0.158   0.054   5.442
 2557TIP3   OH2 7634   0.387   0.408   4.504
 2557TIP3    H1 7635   0.310   0.362   4.469
 2557TIP3    H2 7636   0.458   0.345   4.498
 2558TIP3   OH2 7637   6.171   0.394   1.175
 2558TIP3    H1 7638   6.087   0.359   1.147
 2558TIP3    H2 7639   6.150   0.455   1.245
 2559TIP3   OH2 7640   2.629   1.499   3.659
 2559TIP3    H1 7641   2.685   1.463   3.590
 2559TIP3    H2 7642   2.595   1.422   3.705
 2560TIP3   OH2 7643   0.654   6.062   2.171
 2560TIP3    H1 7644   0.732   6.009   2.188
 2560TIP3    H2 7645   0.686   6.136   2.119
 2561TIP3   OH2 7646   6.090   0.732   1.144
 2561TIP3    H1 7647   6.184   0.751   1.150
 2561TIP3    H2 7648   6.071   0.681   1.222
 2562TIP3   OH2 7649   2.212   3.862   2.020
 2562TIP3    H1 7650   2.175   3.849   2.108
 2562TIP3    H2 7651   2.145   3.912   1.973
 2563TIP3   OH2 7652   3.048   6.195   4.897
 2563TIP3    H1 7653   3.124   6.254   4.897
 2563TIP3    H2 7654   3.033   6.176   4.990
 2564TIP3   OH2 7655   4.383   4.480   4.324
 2564TIP3    H1 7656   4.423   4.536   4.390
 2564TIP3    H2 7657   4.386   4.392   4.363
 2565TIP3   OH2 7658   5.565   5.516   0.140
 2565TIP3    H1 7659   5.651   5.487   0.170
 2565TIP3    H2 7660   5.584   5.588   0.080
 2566TIP3   OH2 7661   2.893   1.140   0.340
 2566TIP3    H1 7662   2.823   1.174   0.284
 2566TIP3    H2 7663   2.912   1.212   0.400
 2567TIP3   OH2 7664   6.206   0.571   4.862
 2567TIP3    H1 7665   6.145   0.499   4.849
 2567TIP3    H2 7666   6.192   0.599   4.952
 2568TIP3   OH2 7667   3.296   6.276   3.212
 2568TIP3    H1 7668   3.225   6.221   3.180
 2568TIP3    H2 7669   3.337   6.224   3.281
 2569TIP3   OH2 7670   4.933   1.366   2.842
 2569TIP3    H1 7671   4.896   1.405   2.762
 2569TIP3    H2 7672   5.024   1.348   2.819
 2570TIP3   OH2 7673   0.500   2.909   4.404
 2570TIP3    H1 7674   0.447   2.951   4.472
 2570TIP3    H2 7675   0.515   2.978   4.340
 2571TIP3   OH2 7676   2.229   1.508   2.599
 2571TIP3    H1 7677   2.292   1.580   2.610
 2571TIP3    H2 7678   2.187   1.501   2.684
 2572TIP3   OH2 7679   1.813   3.582   1.104
 2572TIP3    H1 7680   1.745   3.529   1.061
 2572TIP3    H2 7681   1.892   3.529   1.098
 2573TIP3   OH2 7682   5.710   0.398   4.632
 2573TIP3    H1 7683   5.794   0.423   4.592
 2573TIP3    H2 7684   5.682   0.476   4.679
 2574TIP3   OH2 7685   6.436   2.789   1.481
 2574TIP3    H1 7686   6.351   2.825   1.456
 2574TIP3    H2 7687   6.418   2.740   1.562
 2575TIP3   OH2 7688   3.090   4.308   4.471
 2575TIP3    H1 7689   3.077   4.401   4.452
 2575TIP3    H2 7690   3.020   4.264   4.422
 2576TIP3   OH2 7691   6.371   3.828   0.356
 2576TIP3    H1 7692   6.403   3.916   0.373
 2576TIP3    H2 7693   6.276   3.833   0.369
 2577TIP3   OH2 7694   4.579   3.264   4.051
 2577TIP3    H1 7695   4.606   3.199   3.986
 2577TIP3    H2 7696   4.484   3.254   4.057
 2578TIP3   OH2 7697   3.195   6.184   4.487
 2578TIP3    H1 7698   3.152   6.131   4.419
 2578TIP3    H2 7699   3.279   6.209   4.448
 2579TIP3   OH2 7700   6.752   2.842   3.038
 2579TIP3    H1 7701   6.691   2.915   3.030
 2579TIP3    H2 7702   6.750   2.820   3.132
 2580TIP3   OH2 7703   6.262   6.746   2.833
 2580TIP3    H1 7704   6.357   6.745   2.836
 2580TIP3    H2 7705   6.241   6.787   2.749
 2581TIP3   OH2 7706   2.026   1.934   5.321
 2581TIP3    H1 7707   1.950   1.883   5.351
 2581TIP3    H2 7708   2.063   1.970   5.401
 2582TIP3   OH2 7709   5.720   5.529   5.022
 2582TIP3    H1 7710   5.642   5.521   5.076
 2582TIP3    H2 7711   5.732   5.443   4.983
 2583TIP3   OH2 7712   2.805   5.367   2.087
 2583TIP3    H1 7713   2.829   5.442   2.032
 2583TIP3    H2 7714   2.719   5.389   2.122
 2584TIP3   OH2 7715   5.425   0.816   3.332
 2584TIP3    H1 7716   5.390   0.899   3.365
 2584TIP3    H2 7717   5.459   0.837   3.245
 2585TIP3   OH2 7718   0.481   2.899   2.759
 2585TIP3    H1 7719   0.508   2.823   2.707
 2585TIP3    H2 7720   0.388   2.886   2.775
 2586TIP3   OH2 7721   0.575   2.959   0.539
 2586TIP3    H1 7722   0.532   2.926   0.461
 2586TIP3    H2 7723   0.668   2.937   0.525
 2587TIP3   OH2 7724   1.820   3.173   4.599
 2587TIP3    H1 7725   1.894   3.202   4.652
 2587TIP3    H2 7726   1.836   3.214   4.513
 2588TIP3   OH2 7727   3.830   6.129   5.778
 2588TIP3    H1 7728   3.874   6.102   5.858
 2588TIP3    H2 7729   3.895   6.183   5.733
 2589TIP3   OH2 7730   1.005   4.829   0.895
 2589TIP3    H1 7731   0.935   4.894   0.893
 2589TIP3    H2 7732   1.057   4.852   0.971
 2590TIP3   OH2 7733   3.486   1.968   1.299
 2590TIP3    H1 7734   3.570   1.924   1.286
 2590TIP3    H2 7735   3.433   1.904   1.347
 2591TIP3   OH2 7736   1.540   2.492   2.954
 2591TIP3    H1 7737   1.543   2.435   2.878
 2591TIP3    H2 7738   1.631   2.519   2.968
 2592TIP3   OH2 7739   5.545   5.302   1.873
 2592TIP3    H1 7740   5.577   5.333   1.789
 2592TIP3    H2 7741   5.567   5.372   1.935
 2593TIP3   OH2 7742   7.201   1.350   3.481
 2593TIP3    H1 7743   7.137   1.398   3.428
 2593TIP3    H2 7744   7.216   1.407   3.557
 2594TIP3   OH2 7745   0.010   5.570   0.423
 2594TIP3    H1 7746   0.036   5.661   0.412
 2594TIP3    H2 7747   0.020   5.554   0.517
 2595TIP3   OH2 7748   2.301   4.947   5.291
 2595TIP3    H1 7749   2.344   4.976   5.211
 2595TIP3    H2 7750   2.294   5.026   5.345
 2596TIP3   OH2 7751   2.843   2.863   5.714
 2596TIP3    H1 7752   2.911   2.927   5.734
 2596TIP3    H2 7753   2.835   2.810   5.794
 2597TIP3   OH2 7754   6.422   0.585   1.260
 2597TIP3    H1 7755   6.385   0.583   1.171
 2597TIP3    H2 7756   6.346   0.590   1.318
 2598TIP3   OH2 7757   2.269   5.563   4.189
 2598TIP3    H1 7758   2.334   5.599   4.128
 2598TIP3    H2 7759   2.238   5.639   4.238
 2599TIP3   OH2 7760   3.961   1.584   1.047
 2599TIP3    H1 7761   3.910   1.509   1.078
 2599TIP3    H2 7762   3.991   1.627   1.127
 2600TIP3   OH2 7763   5.421   3.028   2.070
 2600TIP3    H1 7764   5.358   2.957   2.055
 2600TIP3    H2 7765   5.448   3.018   2.161
 2601TIP3   OH2 7766   5.515   4.569   4.886
 2601TIP3    H1 7767   5.557   4.645   4.845
 2601TIP3    H2 7768   5.583   4.530   4.940
 2602TIP3   OH2 7769   1.665   3.484   3.496
 2602TIP3    H1 7770   1.656   3.473   3.591
 2602TIP3    H2 7771   1.611   3.416   3.459
 2603TIP3   OH2 7772   3.028   4.802   2.572
 2603TIP3    H1 7773   3.080   4.830   2.647
 2603TIP3    H2 7774   3.085   4.740   2.525
 2604TIP3   OH2 7775   4.802   4.838   1.146
 2604TIP3    H1 7776   4.725   4.834   1.203
 2604TIP3    H2 7777   4.801   4.928   1.111
 2605TIP3   OH2 7778   5.941   0.250   3.286
 2605TIP3    H1 7779   5.899   0.324   3.242
 2605TIP3    H2 7780   5.990   0.289   3.358
 2606TIP3   OH2 7781   2.347   2.953   0.825
 2606TIP3    H1 7782   2.312   3.000   0.901
 2606TIP3    H2 7783   2.304   2.868   0.827
 2607TIP3   OH2 7784   1.966   4.303   5.006
 2607TIP3    H1 7785   1.952   4.269   5.094
 2607TIP3    H2 7786   2.021   4.237   4.964
 2608TIP3   OH2 7787   6.052   5.653   5.617
 2608TIP3    H1 7788   5.964   5.691   5.614
 2608TIP3    H2 7789   6.105   5.720   5.660
 2609TIP3   OH2 7790   7.229   6.203   1.245
 2609TIP3    H1 7791   7.263   6.291   1.232
 2609TIP3    H2 7792   7.140   6.217   1.279
 2610TIP3   OH2 7793   2.931   1.501   3.152
 2610TIP3    H1 7794   2.870   1.439   3.192
 2610TIP3    H2 7795   2.931   1.577   3.211
 2611TIP3   OH2 7796   0.887   5.353   4.142
 2611TIP3    H1 7797   0.900   5.280   4.081
 2611TIP3    H2 7798   0.904   5.315   4.228
 2612TIP3   OH2 7799   4.430   3.409   3.603
 2612TIP3    H1 7800   4.391   3.385   3.520
 2612TIP3    H2 7801   4.363   3.391   3.668
 2613TIP3   OH2 7802   2.780   5.103   0.699
 2613TIP3    H1 7803   2.853   5.120   0.639
 2613TIP3    H2 7804   2.704   5.141   0.655
 2614TIP3   OH2 7805   1.693   5.772   5.646
 2614TIP3    H1 7806   1.719   5.785   5.737
 2614TIP3    H2 7807   1.776   5.769   5.597
 2615TIP3   OH2 7808   4.607   2.255   4.324
 2615TIP3    H1 7809   4.578   2.201   4.398
 2615TIP3    H2 7810   4.677   2.309   4.361
 2616TIP3   OH2 7811   2.060   4.596   2.369
 2616TIP3    H1 7812   2.116   4.530   2.329
 2616TIP3    H2 7813   2.121   4.653   2.417
 2617TIP3   OH2 7814   3.248   0.839   3.312
 2617TIP3    H1 7815   3.242   0.883   3.227
 2617TIP3    H2 7816   3.320   0.777   3.302
 2618TIP3   OH2 7817   4.813   4.006   5.867
 2618TIP3    H1 7818   4.886   4.043   5.916
 2618TIP3    H2 7819   4.771   4.082   5.825
 2619TIP3   OH2 7820   3.559   0.268   1.347
 2619TIP3    H1 7821   3.596   0.180   1.348
 2619TIP3    H2 7822   3.607   0.315   1.415
 2620TIP3   OH2 7823   3.622   6.752   1.076
 2620TIP3    H1 7824   3.546   6.774   1.022
 2620TIP3    H2 7825   3.601   6.789   1.162
 2621TIP3   OH2 7826   4.900   4.790   0.567
 2621TIP3    H1 7827   4.873   4.794   0.659
 2621TIP3    H2 7828   4.976   4.847   0.561
 2622TIP3   OH2 7829   4.530   2.099   4.533
 2622TIP3    H1 7830   4.531   2.010   4.568
 2622TIP3    H2 7831   4.555   2.154   4.607
 2623TIP3   OH2 7832   6.983   1.474   0.503
 2623TIP3    H1 7833   6.986   1.518   0.588
 2623TIP3    H2 7834   6.980   1.545   0.439
 2624TIP3   OH2 7835   4.469   4.849   0.091
 2624TIP3    H1 7836   4.561   4.826   0.081
 2624TIP3    H2 7837   4.422   4.769   0.066
 2625TIP3   OH2 7838   0.762   1.593   5.480
 2625TIP3    H1 7839   0.792   1.516   5.529
 2625TIP3    H2 7840   0.830   1.606   5.414
 2626TIP3   OH2 7841   5.631   2.540   2.743
 2626TIP3    H1 7842   5.636   2.450   2.777
 2626TIP3    H2 7843   5.659   2.532   2.652
 2627TIP3   OH2 7844   5.123   5.554   0.482
 2627TIP3    H1 7845   5.173   5.529   0.560
 2627TIP3    H2 7846   5.189   5.560   0.413
 2628TIP3   OH2 7847   0.706   6.037   0.996
 2628TIP3    H1 7848   0.760   6.013   0.920
 2628TIP3    H2 7849   0.731   6.127   1.016
 2629TIP3   OH2 7850   2.777   0.094   1.273
 2629TIP3    H1 7851   2.748   0.139   1.353
 2629TIP3    H2 7852   2.810   0.010   1.304
 2630TIP3   OH2 7853   6.918   3.869   0.029
 2630TIP3    H1 7854   6.876   3.899  -0.052
 2630TIP3    H2 7855   6.872   3.788   0.051
 2631TIP3   OH2 7856   3.994   4.889   1.463
 2631TIP3    H1 7857   3.973   4.861   1.373
 2631TIP3    H2 7858   4.021   4.980   1.454
 2632TIP3   OH2 7859   1.379   3.119   5.327
 2632TIP3    H1 7860   1.318   3.142   5.396
 2632TIP3    H2 7861   1.443   3.061   5.369
 2633TIP3   OH2 7862   1.331   0.773   5.380
 2633TIP3    H1 7863   1.281   0.705   5.426
 2633TIP3    H2 7864   1.340   0.843   5.445
 2634TIP3   OH2 7865   2.577   3.138   0.146
 2634TIP3    H1 7866   2.617   3.220   0.176
 2634TIP3    H2 7867   2.559   3.089   0.226
 2635TIP3   OH2 7868   1.005   4.002   1.254
 2635TIP3    H1 7869   1.050   3.924   1.224
 2635TIP3    H2 7870   0.913   3.976   1.260
 2636TIP3   OH2 7871   3.209   6.785   4.997
 2636TIP3    H1 7872   3.150   6.816   5.066
 2636TIP3    H2 7873   3.277   6.737   5.044
 2637TIP3   OH2 7874   6.816   2.489   0.139
 2637TIP3    H1 7875   6.879   2.522   0.075
 2637TIP3    H2 7876   6.733   2.489   0.093
 2638TIP3   OH2 7877   6.879   3.735   2.764
 2638TIP3    H1 7878   6.808   3.766   2.819
 2638TIP3    H2 7879   6.957   3.743   2.819
 2639TIP3   OH2 7880   1.822   2.852   2.531
 2639TIP3    H1 7881   1.737   2.829   2.570
 2639TIP3    H2 7882   1.817   2.817   2.442
 2640TIP3   OH2 7883   4.367   2.751   3.271
 2640TIP3    H1 7884   4.282   2.707   3.275
 2640TIP3    H2 7885   4.346   2.843   3.261
 2641TIP3   OH2 7886   3.071   0.824   4.004
 2641TIP3    H1 7887   3.149   0.770   3.991
 2641TIP3    H2 7888   3.083   0.899   3.946
 2642TIP3   OH2 7889   2.113   0.758   2.539
 2642TIP3    H1 7890   2.043   0.799   2.589
 2642TIP3    H2 7891   2.131   0.819   2.468
 2643TIP3   OH2 7892   5.336   1.340   5.679
 2643TIP3    H1 7893   5.262   1.394   5.650
 2643TIP3    H2 7894   5.410   1.370   5.626
 2644TIP3   OH2 7895   3.542   6.184   0.665
 2644TIP3    H1 7896   3.606   6.161   0.598
 2644TIP3    H2 7897   3.478   6.239   0.620
 2645TIP3   OH2 7898   0.088   5.479   1.879
 2645TIP3    H1 7899   0.143   5.501   1.804
 2645TIP3    H2 7900   0.141   5.501   1.956
 2646TIP3   OH2 7901   4.015   2.395   1.258
 2646TIP3    H1 7902   3.935   2.435   1.225
 2646TIP3    H2 7903   4.079   2.467   1.259
 2647TIP3   OH2 7904   4.540   5.298   1.084
 2647TIP3    H1 7905   4.628   5.284   1.119
 2647TIP3    H2 7906   4.514   5.212   1.049
 2648TIP3   OH2 7907   0.120   1.783   2.503
 2648TIP3    H1 7908   0.112   1.707   2.561
 2648TIP3    H2 7909   0.034   1.825   2.507
 2649TIP3   OH2 7910   6.197   2.422   3.720
 2649TIP3    H1 7911   6.153   2.468   3.791
 2649TIP3    H2 7912   6.288   2.413   3.750
 2650TIP3   OH2 7913   5.357   3.551   3.054
 2650TIP3    H1 7914   5.339   3.615   3.123
 2650TIP3    H2 7915   5.399   3.478   3.100
 2651TIP3   OH2 7916   0.330   6.201   5.425
 2651TIP3    H1 7917   0.360   6.279   5.378
 2651TIP3    H2 7918   0.234   6.209   5.426
 2652TIP3   OH2 7919   2.586   3.833   5.371
 2652TIP3    H1 7920   2.602   3.899   5.304
 2652TIP3    H2 7921   2.623   3.871   5.451
 2653TIP3   OH2 7922   6.542   6.587   0.580
 2653TIP3    H1 7923   6.565   6.497   0.555
 2653TIP3    H2 7924   6.451   6.582   0.607
 2654TIP3   OH2 7925   0.775   0.420   2.651
 2654TIP3    H1 7926   0.834   0.346   2.635
 2654TIP3    H2 7927   0.829   0.498   2.637
 2655TIP3   OH2 7928   5.992   1.253   5.113
 2655TIP3    H1 7929   6.037   1.192   5.171
 2655TIP3    H2 7930   6.007   1.339   5.152
 2656TIP3   OH2 7931   2.535   0.055   0.711
 2656TIP3    H1 7932   2.446   0.022   0.704
 2656TIP3    H2 7933   2.532   0.142   0.670
 2657TIP3   OH2 7934   4.323   6.273   4.373
 2657TIP3    H1 7935   4.362   6.298   4.456
 2657TIP3    H2 7936   4.252   6.213   4.397
 2658TIP3   OH2 7937   4.119   4.284   3.379
 2658TIP3    H1 7938   4.046   4.302   3.320
 2658TIP3    H2 7939   4.164   4.209   3.339
 2659TIP3   OH2 7940   3.366   1.539   4.287
 2659TIP3    H1 7941   3.406   1.590   4.358
 2659TIP3    H2 7942   3.369   1.598   4.211
 2660TIP3   OH2 7943   7.012   1.748   4.152
 2660TIP3    H1 7944   7.006   1.683   4.222
 2660TIP3    H2 7945   7.050   1.825   4.193
 2661TIP3   OH2 7946   3.654   3.570   1.293
 2661TIP3    H1 7947   3.742   3.579   1.330
 2661TIP3    H2 7948   3.650   3.480   1.261
 2662TIP3   OH2 7949   4.419   3.505   0.522
 2662TIP3    H1 7950   4.398   3.461   0.604
 2662TIP3    H2 7951   4.505   3.472   0.498
 2663TIP3   OH2 7952   6.757   5.699   3.248
 2663TIP3    H1 7953   6.836   5.647   3.236
 2663TIP3    H2 7954   6.686   5.644   3.215
 2664TIP3   OH2 7955   1.069   2.586   3.923
 2664TIP3    H1 7956   1.133   2.537   3.872
 2664TIP3    H2 7957   1.094   2.571   4.014
 2665TIP3   OH2 7958   5.435   2.140   5.094
 2665TIP3    H1 7959   5.419   2.166   5.003
 2665TIP3    H2 7960   5.493   2.064   5.088
 2666TIP3   OH2 7961   0.973   5.225   4.370
 2666TIP3    H1 7962   1.051   5.191   4.328
 2666TIP3    H2 7963   0.980   5.197   4.461
 2667TIP3   OH2 7964   0.034   1.309   0.185
 2667TIP3    H1 7965   0.057   1.341   0.272
 2667TIP3    H2 7966  -0.034   1.370   0.155
 2668TIP3   OH2 7967   0.497   5.792   0.948
 2668TIP3    H1 7968   0.570   5.798   1.010
 2668TIP3    H2 7969   0.539   5.787   0.862
 2669TIP3   OH2 7970   4.901   0.286   4.968
 2669TIP3    H1 7971   4.919   0.369   5.011
 2669TIP3    H2 7972   4.985   0.260   4.928
 2670TIP3   OH2 7973   2.581   1.035   1.148
 2670TIP3    H1 7974   2.544   1.108   1.098
 2670TIP3    H2 7975   2.522   1.024   1.223
 2671TIP3   OH2 7976   1.530   3.346   5.517
 2671TIP3    H1 7977   1.492   3.277   5.463
 2671TIP3    H2 7978   1.588   3.300   5.577
 2672TIP3   OH2 7979   6.120   5.869   3.048
 2672TIP3    H1 7980   6.061   5.935   3.011
 2672TIP3    H2 7981   6.203   5.915   3.061
 2673TIP3   OH2 7982   3.284   1.635   2.605
 2673TIP3    H1 7983   3.189   1.644   2.615
 2673TIP3    H2 7984   3.298   1.541   2.592
 2674TIP3   OH2 7985   3.656   1.875   1.576
 2674TIP3    H1 7986   3.673   1.839   1.488
 2674TIP3    H2 7987   3.576   1.926   1.566
 2675TIP3   OH2 7988   4.892   2.948   4.635
 2675TIP3    H1 7989   4.959   2.905   4.582
 2675TIP3    H2 7990   4.879   2.889   4.710
 2676TIP3   OH2 7991   1.793   3.394   0.725
 2676TIP3    H1 7992   1.752   3.476   0.752
 2676TIP3    H2 7993   1.844   3.365   0.801
 2677TIP3   OH2 7994   0.716   6.535   1.651
 2677TIP3    H1 7995   0.623   6.559   1.646
 2677TIP3    H2 7996   0.717   6.455   1.704
 2678TIP3   OH2 7997   2.025   0.666   3.736
 2678TIP3    H1 7998   1.995   0.744   3.689
 2678TIP3    H2 7999   1.961   0.654   3.806
 2679TIP3   OH2 8000   3.496   6.087   2.956
 2679TIP3    H1 8001   3.473   6.017   3.018
 2679TIP3    H2 8002   3.541   6.152   3.009
 2680TIP3   OH2 8003   6.670   2.208   3.636
 2680TIP3    H1 8004   6.646   2.213   3.543
 2680TIP3    H2 8005   6.646   2.119   3.662
 2681TIP3   OH2 8006   3.157   6.254   3.498
 2681TIP3    H1 8007   3.175   6.331   3.551
 2681TIP3    H2 8008   3.243   6.223   3.470
 2682TIP3   OH2 8009   3.708   2.316   2.988
 2682TIP3    H1 8010   3.799   2.345   2.996
 2682TIP3    H2 8011   3.713   2.221   2.991
 2683TIP3   OH2 8012   5.251   0.777   2.615
 2683TIP3    H1 8013   5.207   0.834   2.551
 2683TIP3    H2 8014   5.301   0.715   2.563
 2684TIP3   OH2 8015   6.423   4.984   3.687
 2684TIP3    H1 8016   6.484   4.969   3.615
 2684TIP3    H2 8017   6.423   4.901   3.735
 2685TIP3   OH2 8018   6.913   4.397   1.884
 2685TIP3    H1 8019   6.865   4.315   1.891
 2685TIP3    H2 8020   7.000   4.373   1.854
 2686TIP3   OH2 8021   2.970   1.430   4.886
 2686TIP3    H1 8022   2.909   1.376   4.835
 2686TIP3    H2 8023   2.938   1.520   4.873
 2687TIP3   OH2 8024   4.762   1.315   1.008
 2687TIP3    H1 8025   4.779   1.345   0.919
 2687TIP3    H2 8026   4.667   1.301   1.011
 2688TIP3   OH2 8027   1.617   3.015   5.828
 2688TIP3    H1 8028   1.666   2.961   5.767
 2688TIP3    H2 8029   1.562   2.953   5.876
 2689TIP3   OH2 8030   3.964   2.131   3.211
 2689TIP3    H1 8031   4.006   2.116   3.295
 2689TIP3    H2 8032   3.968   2.226   3.199
 2690TIP3   OH2 8033   2.910   6.207   1.913
 2690TIP3    H1 8034   2.913   6.172   1.824
 2690TIP3    H2 8035   2.825   6.179   1.946
 2691TIP3   OH2 8036   1.198   0.887   2.685
 2691TIP3    H1 8037   1.258   0.835   2.630
 2691TIP3    H2 8038   1.120   0.898   2.631
 2692TIP3   OH2 8039   6.350   2.005   2.738
 2692TIP3    H1 8040   6.348   1.963   2.652
 2692TIP3    H2 8041   6.438   1.990   2.771
 2693TIP3   OH2 8042   1.855   3.372   3.208
 2693TIP3    H1 8043   1.836   3.305   3.274
 2693TIP3    H2 8044   1.793   3.442   3.226
 2694TIP3   OH2 8045   3.079   2.315   2.374
 2694TIP3    H1 8046   3.139   2.242   2.360
 2694TIP3    H2 8047   3.073   2.323   2.470
 2695TIP3   OH2 8048   6.287   5.146   4.067
 2695TIP3    H1 8049   6.369   5.170   4.111
 2695TIP3    H2 8050   6.262   5.225   4.019
 2696TIP3   OH2 8051   4.954   5.493   5.901
 2696TIP3    H1 8052   4.961   5.543   5.819
 2696TIP3    H2 8053   4.860   5.493   5.920
 2697TIP3   OH2 8054   4.675   0.568   5.731
 2697TIP3    H1 8055   4.634   0.519   5.803
 2697TIP3    H2 8056   4.765   0.580   5.760
 2698TIP3   OH2 8057   2.277   6.220   5.238
 2698TIP3    H1 8058   2.262   6.305   5.196
 2698TIP3    H2 8059   2.337   6.174   5.180
 2699TIP3   OH2 8060   6.511   3.037   5.098
 2699TIP3    H1 8061   6.525   3.081   5.182
 2699TIP3    H2 8062   6.595   3.044   5.053
 2700TIP3   OH2 8063   3.126   2.297   0.199
 2700TIP3    H1 8064   3.060   2.285   0.268
 2700TIP3    H2 8065   3.101   2.378   0.155
 2701TIP3   OH2 8066   6.307   6.377   4.700
 2701TIP3    H1 8067   6.382   6.436   4.703
 2701TIP3    H2 8068   6.300   6.353   4.607
 2702TIP3   OH2 8069   0.807   1.987   5.703
 2702TIP3    H1 8070   0.748   1.942   5.642
 2702TIP3    H2 8071   0.856   1.916   5.744
 2703TIP3   OH2 8072   6.481   4.734   2.793
 2703TIP3    H1 8073   6.406   4.775   2.838
 2703TIP3    H2 8074   6.443   4.660   2.746
 2704TIP3   OH2 8075   3.737   3.636   0.832
 2704TIP3    H1 8076   3.785   3.678   0.761
 2704TIP3    H2 8077   3.785   3.659   0.911
 2705TIP3   OH2 8078   1.786   6.482   0.066
 2705TIP3    H1 8079   1.699   6.470   0.028
 2705TIP3    H2 8080   1.843   6.424   0.016
 2706TIP3   OH2 8081   3.167   1.692   1.756
 2706TIP3    H1 8082   3.258   1.668   1.739
 2706TIP3    H2 8083   3.165   1.719   1.847
 2707TIP3   OH2 8084   1.935   6.100   0.550
 2707TIP3    H1 8085   1.893   6.021   0.586
 2707TIP3    H2 8086   1.915   6.097   0.456
 2708TIP3   OH2 8087   2.268   1.771   5.371
 2708TIP3    H1 8088   2.342   1.713   5.353
 2708TIP3    H2 8089   2.304   1.839   5.428
 2709TIP3   OH2 8090   1.741   0.549   0.328
 2709TIP3    H1 8091   1.665   0.494   0.311
 2709TIP3    H2 8092   1.811   0.488   0.350
 2710TIP3   OH2 8093   2.766   4.155   3.910
 2710TIP3    H1 8094   2.825   4.146   3.985
 2710TIP3    H2 8095   2.686   4.109   3.937
 2711TIP3   OH2 8096   3.540   4.167   4.951
 2711TIP3    H1 8097   3.544   4.153   4.857
 2711TIP3    H2 8098   3.614   4.117   4.986
 2712TIP3   OH2 8099   2.394   5.186   3.530
 2712TIP3    H1 8100   2.343   5.127   3.475
 2712TIP3    H2 8101   2.335   5.258   3.550
 2713TIP3   OH2 8102   5.500   3.402   0.844
 2713TIP3    H1 8103   5.547   3.453   0.778
 2713TIP3    H2 8104   5.546   3.318   0.847
 2714TIP3   OH2 8105   2.060   0.812   4.316
 2714TIP3    H1 8106   2.035   0.884   4.258
 2714TIP3    H2 8107   2.132   0.849   4.368
 2715TIP3   OH2 8108   4.037   0.058   4.657
 2715TIP3    H1 8109   3.945   0.062   4.629
 2715TIP3    H2 8110   4.081   0.007   4.589
 2716TIP3   OH2 8111   4.624   6.192   0.404
 2716TIP3    H1 8112   4.614   6.211   0.311
 2716TIP3    H2 8113   4.559   6.249   0.446
 2717TIP3   OH2 8114   2.116   2.196   2.452
 2717TIP3    H1 8115   2.040   2.247   2.479
 2717TIP3    H2 8116   2.120   2.207   2.357
 2718TIP3   OH2 8117   2.917   1.085   2.838
 2718TIP3    H1 8118   2.982   1.022   2.867
 2718TIP3    H2 8119   2.939   1.101   2.746
 2719TIP3   OH2 8120   0.058   4.107   4.782
 2719TIP3    H1 8121   0.143   4.151   4.792
 2719TIP3    H2 8122   0.001   4.174   4.743
 2720TIP3   OH2 8123   7.142   4.361   1.015
 2720TIP3    H1 8124   7.075   4.311   1.061
 2720TIP3    H2 8125   7.217   4.302   1.011
 2721TIP3   OH2 8126   6.635   1.099   2.856
 2721TIP3    H1 8127   6.616   1.190   2.837
 2721TIP3    H2 8128   6.729   1.089   2.843
 2722TIP3   OH2 8129   4.154   2.218   3.845
 2722TIP3    H1 8130   4.184   2.210   3.935
 2722TIP3    H2 8131   4.191   2.142   3.800
 2723TIP3   OH2 8132   3.132   0.445   5.664
 2723TIP3    H1 8133   3.189   0.503   5.613
 2723TIP3    H2 8134   3.048   0.449   5.619
 2724TIP3   OH2 8135   2.474   0.052   4.101
 2724TIP3    H1 8136   2.483  -0.004   4.024
 2724TIP3    H2 8137   2.563   0.078   4.123
 2725TIP3   OH2 8138   6.904   6.360   2.202
 2725TIP3    H1 8139   6.892   6.291   2.268
 2725TIP3    H2 8140   6.816   6.375   2.168
 2726TIP3   OH2 8141   5.195   2.852   1.446
 2726TIP3    H1 8142   5.259   2.844   1.517
 2726TIP3    H2 8143   5.134   2.781   1.460
 2727TIP3   OH2 8144   2.625   3.657   3.627
 2727TIP3    H1 8145   2.589   3.726   3.571
 2727TIP3    H2 8146   2.696   3.700   3.674
 2728TIP3   OH2 8147   3.989   4.321   2.711
 2728TIP3    H1 8148   3.923   4.335   2.779
 2728TIP3    H2 8149   3.938   4.302   2.632
 2729TIP3   OH2 8150   5.518   2.856   3.702
 2729TIP3    H1 8151   5.568   2.915   3.646
 2729TIP3    H2 8152   5.520   2.897   3.789
 2730TIP3   OH2 8153   1.434   3.420   1.536
 2730TIP3    H1 8154   1.358   3.473   1.559
 2730TIP3    H2 8155   1.424   3.403   1.442
 2731TIP3   OH2 8156   2.068   1.721   3.717
 2731TIP3    H1 8157   2.059   1.642   3.771
 2731TIP3    H2 8158   1.981   1.737   3.682
 2732TIP3   OH2 8159   3.084   4.791   3.442
 2732TIP3    H1 8160   3.143   4.719   3.459
 2732TIP3    H2 8161   3.073   4.834   3.526
 2733TIP3   OH2 8162   3.951   1.419   2.194
 2733TIP3    H1 8163   3.942   1.440   2.287
 2733TIP3    H2 8164   3.910   1.492   2.148
 2734TIP3   OH2 8165   7.011   6.592   2.277
 2734TIP3    H1 8166   6.956   6.612   2.352
 2734TIP3    H2 8167   6.983   6.505   2.249
 2735TIP3   OH2 8168   6.596   6.613   1.594
 2735TIP3    H1 8169   6.625   6.628   1.684
 2735TIP3    H2 8170   6.610   6.697   1.550
 2736TIP3   OH2 8171   3.015   4.311   1.704
 2736TIP3    H1 8172   3.058   4.225   1.700
 2736TIP3    H2 8173   3.077   4.367   1.750
 2737TIP3   OH2 8174   5.603   3.858   2.142
 2737TIP3    H1 8175   5.591   3.767   2.115
 2737TIP3    H2 8176   5.695   3.864   2.165
 2738TIP3   OH2 8177   0.313   2.282   4.626
 2738TIP3    H1 8178   0.319   2.374   4.601
 2738TIP3    H2 8179   0.399   2.245   4.602
 2739TIP3   OH2 8180   1.970   1.011   0.274
 2739TIP3    H1 8181   1.891   0.958   0.277
 2739TIP3    H2 8182   2.040   0.953   0.303
 2740TIP3   OH2 8183   1.544   4.827   1.360
 2740TIP3    H1 8184   1.581   4.783   1.283
 2740TIP3    H2 8185   1.455   4.793   1.366
 2741TIP3   OH2 8186   5.148   0.002   5.654
 2741TIP3    H1 8187   5.081  -0.052   5.611
 2741TIP3    H2 8188   5.152   0.081   5.601
 2742TIP3   OH2 8189   4.319   4.237   4.464
 2742TIP3    H1 8190   4.253   4.221   4.531
 2742TIP3    H2 8191   4.399   4.198   4.499
 2743TIP3   OH2 8192   1.081   5.094   3.815
 2743TIP3    H1 8193   1.106   5.048   3.896
 2743TIP3    H2 8194   1.164   5.126   3.779
 2744TIP3   OH2 8195   2.768   3.465   4.874
 2744TIP3    H1 8196   2.823   3.411   4.930
 2744TIP3    H2 8197   2.685   3.418   4.870
 2745TIP3   OH2 8198   5.848   0.007   5.770
 2745TIP3    H1 8199   5.822   0.089   5.729
 2745TIP3    H2 8200   5.940   0.019   5.791
 2746TIP3   OH2 8201   5.441   6.093   5.208
 2746TIP3    H1 8202   5.468   6.106   5.299
 2746TIP3    H2 8203   5.430   5.999   5.199
 2747TIP3   OH2 8204   0.832   4.601   4.938
 2747TIP3    H1 8205   0.872   4.668   4.883
 2747TIP3    H2 8206   0.841   4.635   5.028
 2748TIP3   OH2 8207   1.625   5.649   2.368
 2748TIP3    H1 8208   1.611   5.675   2.277
 2748TIP3    H2 8209   1.565   5.576   2.381
 2749TIP3   OH2 8210   5.485   1.056   4.375
 2749TIP3    H1 8211   5.562   1.087   4.422
 2749TIP3    H2 8212   5.519   1.007   4.301
 2750TIP3   OH2 8213   0.250   5.470   2.517
 2750TIP3    H1 8214   0.172   5.465   2.572
 2750TIP3    H2 8215   0.310   5.406   2.554
 2751TIP3   OH2 8216   0.446   1.353   1.162
 2751TIP3    H1 8217   0.464   1.296   1.087
 2751TIP3    H2 8218   0.446   1.293   1.237
 2752TIP3   OH2 8219   4.948   2.645   1.484
 2752TIP3    H1 8220   4.880   2.578   1.490
 2752TIP3    H2 8221   5.021   2.609   1.535
 2753TIP3   OH2 8222   1.530   0.083   3.634
 2753TIP3    H1 8223   1.477   0.149   3.678
 2753TIP3    H2 8224   1.620   0.105   3.657
 2754TIP3   OH2 8225   4.210   5.764   3.118
 2754TIP3    H1 8226   4.180   5.766   3.027
 2754TIP3    H2 8227   4.282   5.701   3.118
 2755TIP3   OH2 8228   3.507   3.105   2.268
 2755TIP3    H1 8229   3.519   3.117   2.362
 2755TIP3    H2 8230   3.482   3.013   2.259
 2756TIP3   OH2 8231   1.073   3.203   1.678
 2756TIP3    H1 8232   1.039   3.134   1.735
 2756TIP3    H2 8233   1.162   3.174   1.656
 2757TIP3   OH2 8234   2.930   6.714   1.108
 2757TIP3    H1 8235   3.022   6.723   1.133
 2757TIP3    H2 8236   2.906   6.626   1.138
 2758TIP3   OH2 8237   2.578   6.790   2.481
 2758TIP3    H1 8238   2.638   6.860   2.503
 2758TIP3    H2 8239   2.634   6.720   2.448
 2759TIP3   OH2 8240   6.335   0.149   1.760
 2759TIP3    H1 8241   6.403   0.215   1.748
 2759TIP3    H2 8242   6.362   0.076   1.704
 2760TIP3   OH2 8243   0.499   6.369   1.271
 2760TIP3    H1 8244   0.456   6.284   1.280
 2760TIP3    H2 8245   0.571   6.366   1.333
 2761TIP3   OH2 8246   5.610   1.732   3.703
 2761TIP3    H1 8247   5.665   1.684   3.764
 2761TIP3    H2 8248   5.668   1.755   3.630
 2762TIP3   OH2 8249   6.989   0.293   3.702
 2762TIP3    H1 8250   7.018   0.357   3.636
 2762TIP3    H2 8251   7.042   0.312   3.779
 2763TIP3   OH2 8252   6.046   2.645   5.120
 2763TIP3    H1 8253   5.968   2.701   5.120
 2763TIP3    H2 8254   6.098   2.676   5.194
 2764TIP3   OH2 8255   2.070   1.229   1.526
 2764TIP3    H1 8256   2.087   1.136   1.517
 2764TIP3    H2 8257   1.978   1.235   1.552
 2765TIP3   OH2 8258   2.646   3.070   5.700
 2765TIP3    H1 8259   2.665   3.105   5.612
 2765TIP3    H2 8260   2.694   2.987   5.702
 2766TIP3   OH2 8261   2.746   3.032   4.840
 2766TIP3    H1 8262   2.690   3.047   4.764
 2766TIP3    H2 8263   2.832   3.013   4.803
 2767TIP3   OH2 8264   4.730   5.941   0.263
 2767TIP3    H1 8265   4.787   5.994   0.206
 2767TIP3    H2 8266   4.676   6.005   0.308
 2768TIP3   OH2 8267   2.133   4.561   2.775
 2768TIP3    H1 8268   2.052   4.542   2.822
 2768TIP3    H2 8269   2.158   4.649   2.804
 2769TIP3   OH2 8270   6.204   5.168   2.726
 2769TIP3    H1 8271   6.189   5.113   2.803
 2769TIP3    H2 8272   6.296   5.155   2.704
 2770TIP3   OH2 8273   3.889   6.268   4.830
 2770TIP3    H1 8274   3.947   6.330   4.786
 2770TIP3    H2 8275   3.941   6.188   4.838
 2771TIP3   OH2 8276   5.371   2.510   1.221
 2771TIP3    H1 8277   5.419   2.507   1.138
 2771TIP3    H2 8278   5.303   2.575   1.208
 2772TIP3   OH2 8279   1.210   5.895   1.247
 2772TIP3    H1 8280   1.150   5.958   1.209
 2772TIP3    H2 8281   1.231   5.930   1.334
 2773TIP3   OH2 8282   4.136   3.302   4.668
 2773TIP3    H1 8283   4.224   3.312   4.703
 2773TIP3    H2 8284   4.099   3.228   4.716
 2774TIP3   OH2 8285   6.917   5.656   0.432
 2774TIP3    H1 8286   6.918   5.672   0.337
 2774TIP3    H2 8287   6.870   5.731   0.468
 2775TIP3   OH2 8288   2.858   0.578   5.510
 2775TIP3    H1 8289   2.820   0.596   5.424
 2775TIP3    H2 8290   2.872   0.665   5.549
 2776TIP3   OH2 8291   0.122   2.757   4.584
 2776TIP3    H1 8292   0.077   2.783   4.665
 2776TIP3    H2 8293   0.109   2.663   4.578
 2777TIP3   OH2 8294   6.211   6.605   3.094
 2777TIP3    H1 8295   6.305   6.596   3.077
 2777TIP3    H2 8296   6.174   6.633   3.011
 2778TIP3   OH2 8297   5.566   1.082   2.030
 2778TIP3    H1 8298   5.519   1.026   1.968
 2778TIP3    H2 8299   5.645   1.032   2.051
 2779TIP3   OH2 8300   5.335   6.343   3.907
 2779TIP3    H1 8301   5.355   6.249   3.899
 2779TIP3    H2 8302   5.357   6.379   3.821
 2780TIP3   OH2 8303   4.453   4.141   0.901
 2780TIP3    H1 8304   4.471   4.184   0.985
 2780TIP3    H2 8305   4.358   4.138   0.896
 2781TIP3   OH2 8306   3.470   4.126   4.696
 2781TIP3    H1 8307   3.383   4.109   4.659
 2781TIP3    H2 8308   3.519   4.045   4.682
 2782TIP3   OH2 8309   4.255   2.499   4.329
 2782TIP3    H1 8310   4.276   2.466   4.416
 2782TIP3    H2 8311   4.335   2.544   4.300
 2783TIP3   OH2 8312   3.580   5.804   2.477
 2783TIP3    H1 8313   3.545   5.892   2.460
 2783TIP3    H2 8314   3.539   5.778   2.559
 2784TIP3   OH2 8315   0.358   1.648   5.250
 2784TIP3    H1 8316   0.426   1.581   5.254
 2784TIP3    H2 8317   0.399   1.726   5.288
 2785TIP3   OH2 8318   5.132   3.181   2.740
 2785TIP3    H1 8319   5.077   3.256   2.716
 2785TIP3    H2 8320   5.085   3.105   2.707
 2786TIP3   OH2 8321   3.508   6.211   4.555
 2786TIP3    H1 8322   3.513   6.226   4.649
 2786TIP3    H2 8323   3.599   6.195   4.528
 2787TIP3   OH2 8324   5.047   4.575   2.914
 2787TIP3    H1 8325   5.077   4.569   3.005
 2787TIP3    H2 8326   5.082   4.658   2.883
 2788TIP3   OH2 8327   6.111   2.621   1.371
 2788TIP3    H1 8328   6.100   2.569   1.451
 2788TIP3    H2 8329   6.061   2.701   1.387
 2789TIP3   OH2 8330   5.182   4.778   2.701
 2789TIP3    H1 8331   5.275   4.762   2.681
 2789TIP3    H2 8332   5.180   4.796   2.795
 2790TIP3   OH2 8333   2.690   3.058   3.799
 2790TIP3    H1 8334   2.628   3.044   3.870
 2790TIP3    H2 8335   2.765   3.103   3.840
 2791TIP3   OH2 8336   5.119   0.913   5.502
 2791TIP3    H1 8337   5.064   0.847   5.544
 2791TIP3    H2 8338   5.206   0.900   5.540
 2792TIP3   OH2 8339   5.526   5.702   4.933
 2792TIP3    H1 8340   5.605   5.648   4.941
 2792TIP3    H2 8341   5.532   5.739   4.845
 2793TIP3   OH2 8342   1.587   0.261   1.077
 2793TIP3    H1 8343   1.592   0.350   1.113
 2793TIP3    H2 8344   1.658   0.257   1.013
 2794TIP3   OH2 8345   0.587   4.473   4.916
 2794TIP3    H1 8346   0.669   4.516   4.939
 2794TIP3    H2 8347   0.520   4.540   4.931
 2795TIP3   OH2 8348   4.095   0.765   2.044
 2795TIP3    H1 8349   4.167   0.819   2.076
 2795TIP3    H2 8350   4.036   0.827   2.001
 2796TIP3   OH2 8351   4.243   0.115   1.150
 2796TIP3    H1 8352   4.166   0.075   1.109
 2796TIP3    H2 8353   4.304   0.128   1.077
 2797TIP3   OH2 8354   4.073   3.757   1.506
 2797TIP3    H1 8355   4.165   3.752   1.479
 2797TIP3    H2 8356   4.061   3.682   1.564
 2798TIP3   OH2 8357   3.296   2.558   3.005
 2798TIP3    H1 8358   3.231   2.488   3.003
 2798TIP3    H2 8359   3.309   2.582   2.913
 2799TIP3   OH2 8360   2.644   4.519   3.977
 2799TIP3    H1 8361   2.650   4.553   4.067
 2799TIP3    H2 8362   2.580   4.448   3.983
 2800TIP3   OH2 8363   0.434   0.690   1.611
 2800TIP3    H1 8364   0.424   0.633   1.687
 2800TIP3    H2 8365   0.452   0.777   1.648
 2801TIP3   OH2 8366   2.605   3.809   4.395
 2801TIP3    H1 8367   2.540   3.744   4.369
 2801TIP3    H2 8368   2.686   3.781   4.353
 2802TIP3   OH2 8369   2.184   0.578   4.119
 2802TIP3    H1 8370   2.268   0.595   4.162
 2802TIP3    H2 8371   2.191   0.622   4.034
 2803TIP3   OH2 8372   1.172   1.439   5.273
 2803TIP3    H1 8373   1.175   1.483   5.358
 2803TIP3    H2 8374   1.259   1.452   5.236
 2804TIP3   OH2 8375   1.031   5.933   0.480
 2804TIP3    H1 8376   1.099   5.944   0.547
 2804TIP3    H2 8377   1.079   5.937   0.397
 2805TIP3   OH2 8378   6.020   6.388   5.460
 2805TIP3    H1 8379   6.042   6.397   5.367
 2805TIP3    H2 8380   5.975   6.304   5.466
 2806TIP3   OH2 8381   4.684   4.380   0.220
 2806TIP3    H1 8382   4.747   4.411   0.286
 2806TIP3    H2 8383   4.699   4.286   0.216
 2807TIP3   OH2 8384   6.869   3.715   5.075
 2807TIP3    H1 8385   6.880   3.743   4.985
 2807TIP3    H2 8386   6.782   3.748   5.100
 2808TIP3   OH2 8387   4.612   1.056   5.867
 2808TIP3    H1 8388   4.609   1.075   5.773
 2808TIP3    H2 8389   4.588   0.964   5.873
 2809TIP3   OH2 8390   1.235   3.183   3.751
 2809TIP3    H1 8391   1.149   3.186   3.792
 2809TIP3    H2 8392   1.290   3.240   3.806
 2810TIP3   OH2 8393   3.702   2.369   0.569
 2810TIP3    H1 8394   3.657   2.332   0.645
 2810TIP3    H2 8395   3.788   2.395   0.602
 2811TIP3   OH2 8396   5.470   3.934   1.742
 2811TIP3    H1 8397   5.414   3.960   1.670
 2811TIP3    H2 8398   5.501   3.847   1.719
 2812TIP3   OH2 8399   2.235   0.304   2.474
 2812TIP3    H1 8400   2.174   0.351   2.530
 2812TIP3    H2 8401   2.180   0.249   2.418
 2813TIP3   OH2 8402   6.099   3.219   3.457
 2813TIP3    H1 8403   6.184   3.184   3.483
 2813TIP3    H2 8404   6.049   3.223   3.538
 2814TIP3   OH2 8405   0.892   5.971   4.622
 2814TIP3    H1 8406   0.837   5.892   4.627
 2814TIP3    H2 8407   0.969   5.944   4.572
 2815TIP3   OH2 8408   6.427   3.170   3.247
 2815TIP3    H1 8409   6.514   3.133   3.231
 2815TIP3    H2 8410   6.413   3.159   3.341
 2816TIP3   OH2 8411   1.364   4.012   2.525
 2816TIP3    H1 8412   1.352   3.946   2.457
 2816TIP3    H2 8413   1.292   3.997   2.586
 2817TIP3   OH2 8414   4.798   3.017   0.440
 2817TIP3    H1 8415   4.848   3.096   0.459
 2817TIP3    H2 8416   4.863   2.953   0.414
 2818TIP3   OH2 8417   2.011   0.465   3.570
 2818TIP3    H1 8418   2.033   0.534   3.633
 2818TIP3    H2 8419   1.959   0.402   3.621
 2819TIP3   OH2 8420   2.649   2.623   1.950
 2819TIP3    H1 8421   2.691   2.644   2.034
 2819TIP3    H2 8422   2.561   2.595   1.974
 2820TIP3   OH2 8423   6.701   3.726   1.433
 2820TIP3    H1 8424   6.745   3.641   1.437
 2820TIP3    H2 8425   6.757   3.784   1.486
 2821TIP3   OH2 8426   6.797   6.654   4.674
 2821TIP3    H1 8427   6.790   6.733   4.620
 2821TIP3    H2 8428   6.857   6.597   4.626
 2822TIP3   OH2 8429   3.742   5.361   2.492
 2822TIP3    H1 8430   3.679   5.297   2.459
 2822TIP3    H2 8431   3.708   5.386   2.578
 2823TIP3   OH2 8432   7.045   3.129   2.370
 2823TIP3    H1 8433   7.098   3.202   2.402
 2823TIP3    H2 8434   6.989   3.106   2.443
 2824TIP3   OH2 8435   4.020   4.840   4.362
 2824TIP3    H1 8436   3.966   4.859   4.438
 2824TIP3    H2 8437   4.064   4.923   4.343
 2825TIP3   OH2 8438   0.423   2.374   5.683
 2825TIP3    H1 8439   0.481   2.299   5.693
 2825TIP3    H2 8440   0.423   2.392   5.589
 2826TIP3   OH2 8441   0.704   0.102   3.227
 2826TIP3    H1 8442   0.739   0.171   3.170
 2826TIP3    H2 8443   0.780   0.069   3.274
 2827TIP3   OH2 8444   3.765   3.771   5.696
 2827TIP3    H1 8445   3.695   3.773   5.761
 2827TIP3    H2 8446   3.833   3.827   5.732
 2828TIP3   OH2 8447   5.156   2.584   5.232
 2828TIP3    H1 8448   5.062   2.595   5.247
 2828TIP3    H2 8449   5.177   2.649   5.165
 2829TIP3   OH2 8450   5.295   4.585   0.599
 2829TIP3    H1 8451   5.202   4.571   0.581
 2829TIP3    H2 8452   5.299   4.603   0.693
 2830TIP3   OH2 8453   3.904   1.085   1.060
 2830TIP3    H1 8454   3.854   1.006   1.035
 2830TIP3    H2 8455   3.985   1.051   1.098
 2831TIP3   OH2 8456   5.250   6.636   2.811
 2831TIP3    H1 8457   5.266   6.723   2.775
 2831TIP3    H2 8458   5.258   6.647   2.906
 2832TIP3   OH2 8459   6.412   4.169   3.829
 2832TIP3    H1 8460   6.488   4.217   3.795
 2832TIP3    H2 8461   6.415   4.182   3.923
 2833TIP3   OH2 8462   4.792   6.607   2.327
 2833TIP3    H1 8463   4.812   6.700   2.320
 2833TIP3    H2 8464   4.877   6.563   2.318
 2834TIP3   OH2 8465   5.823   3.956   0.807
 2834TIP3    H1 8466   5.837   4.003   0.725
 2834TIP3    H2 8467   5.910   3.925   0.832
 2835TIP3   OH2 8468   5.403   4.528   3.402
 2835TIP3    H1 8469   5.438   4.561   3.484
 2835TIP3    H2 8470   5.383   4.606   3.350
 2836TIP3   OH2 8471   2.522   4.793   0.026
 2836TIP3    H1 8472   2.498   4.740   0.101
 2836TIP3    H2 8473   2.470   4.873   0.035
 2837TIP3   OH2 8474   5.580   6.730   1.182
 2837TIP3    H1 8475   5.559   6.800   1.244
 2837TIP3    H2 8476   5.556   6.766   1.097
 2838TIP3   OH2 8477   0.136   5.263   0.736
 2838TIP3    H1 8478   0.091   5.321   0.798
 2838TIP3    H2 8479   0.202   5.218   0.789
 2839TIP3   OH2 8480   2.826   5.937   1.287
 2839TIP3    H1 8481   2.758   5.870   1.278
 2839TIP3    H2 8482   2.878   5.928   1.207
 2840TIP3   OH2 8483   1.854   4.871   3.480
 2840TIP3    H1 8484   1.844   4.788   3.528
 2840TIP3    H2 8485   1.806   4.857   3.399
 2841TIP3   OH2 8486   6.907   1.201   2.337
 2841TIP3    H1 8487   6.897   1.228   2.245
 2841TIP3    H2 8488   6.961   1.123   2.333
 2842TIP3   OH2 8489   3.938   0.561   2.407
 2842TIP3    H1 8490   4.028   0.577   2.379
 2842TIP3    H2 8491   3.934   0.467   2.424
 2843TIP3   OH2 8492   2.022   4.190   0.399
 2843TIP3    H1 8493   2.065   4.273   0.424
 2843TIP3    H2 8494   2.094   4.133   0.372
 2844TIP3   OH2 8495   2.983   5.065   0.326
 2844TIP3    H1 8496   2.994   5.113   0.245
 2844TIP3    H2 8497   2.920   4.996   0.306
 2845TIP3   OH2 8498   6.820   1.584   2.599
 2845TIP3    H1 8499   6.901   1.592   2.549
 2845TIP3    H2 8500   6.777   1.506   2.564
 2846TIP3   OH2 8501   6.388   3.065   5.793
 2846TIP3    H1 8502   6.351   2.977   5.780
 2846TIP3    H2 8503   6.428   3.086   5.709
 2847TIP3   OH2 8504   6.486   6.020   1.422
 2847TIP3    H1 8505   6.450   5.951   1.367
 2847TIP3    H2 8506   6.419   6.035   1.489
 2848TIP3   OH2 8507   5.752   0.449   5.340
 2848TIP3    H1 8508   5.788   0.494   5.416
 2848TIP3    H2 8509   5.829   0.424   5.289
 2849TIP3   OH2 8510   5.794   1.753   2.315
 2849TIP3    H1 8511   5.713   1.716   2.281
 2849TIP3    H2 8512   5.775   1.846   2.326
 2850TIP3   OH2 8513   2.037   1.650   2.412
 2850TIP3    H1 8514   2.127   1.637   2.444
 2850TIP3    H2 8515   1.982   1.615   2.482
 2851TIP3   OH2 8516   0.651   5.777   0.675
 2851TIP3    H1 8517   0.584   5.762   0.608
 2851TIP3    H2 8518   0.705   5.699   0.673
 2852TIP3   OH2 8519   4.629   3.769   2.953
 2852TIP3    H1 8520   4.674   3.852   2.939
 2852TIP3    H2 8521   4.615   3.765   3.048
 2853TIP3   OH2 8522   1.756   1.384   4.438
 2853TIP3    H1 8523   1.721   1.450   4.497
 2853TIP3    H2 8524   1.790   1.433   4.363
 2854TIP3   OH2 8525   1.138   3.843   2.938
 2854TIP3    H1 8526   1.231   3.858   2.922
 2854TIP3    H2 8527   1.107   3.926   2.975
 2855TIP3   OH2 8528   0.757   4.327   5.900
 2855TIP3    H1 8529   0.821   4.373   5.846
 2855TIP3    H2 8530   0.701   4.281   5.838
 2856TIP3   OH2 8531   3.916   2.061   2.735
 2856TIP3    H1 8532   3.892   2.153   2.744
 2856TIP3    H2 8533   3.980   2.060   2.664
 2857TIP3   OH2 8534   5.318   1.007   1.343
 2857TIP3    H1 8535   5.306   1.086   1.291
 2857TIP3    H2 8536   5.405   1.016   1.381
 2858TIP3   OH2 8537   7.225   6.759   4.371
 2858TIP3    H1 8538   7.239   6.831   4.310
 2858TIP3    H2 8539   7.153   6.788   4.427
 2859TIP3   OH2 8540   5.666   2.963   4.397
 2859TIP3    H1 8541   5.606   3.018   4.346
 2859TIP3    H2 8542   5.753   2.987   4.365
 2860TIP3   OH2 8543   4.141   5.386   4.537
 2860TIP3    H1 8544   4.158   5.365   4.628
 2860TIP3    H2 8545   4.063   5.335   4.515
 2861TIP3   OH2 8546   6.702   4.974   0.972
 2861TIP3    H1 8547   6.737   4.893   0.937
 2861TIP3    H2 8548   6.732   5.042   0.911
 2862TIP3   OH2 8549   1.245   2.315   4.280
 2862TIP3    H1 8550   1.211   2.396   4.243
 2862TIP3    H2 8551   1.340   2.326   4.280
 2863TIP3   OH2 8552   3.672   2.377   5.777
 2863TIP3    H1 8553   3.623   2.446   5.732
 2863TIP3    H2 8554   3.750   2.364   5.722
 2864TIP3   OH2 8555   0.072   3.303   0.115
 2864TIP3    H1 8556   0.137   3.243   0.078
 2864TIP3    H2 8557   0.086   3.386   0.070
 2865TIP3   OH2 8558   0.033   3.518   1.221
 2865TIP3    H1 8559   0.024   3.508   1.316
 2865TIP3    H2 8560  -0.052   3.492   1.186
 2866TIP3   OH2 8561   7.222   3.790   3.777
 2866TIP3    H1 8562   7.142   3.838   3.799
 2866TIP3    H2 8563   7.191   3.716   3.725
 2867TIP3   OH2 8564   3.927   1.699   5.519
 2867TIP3    H1 8565   3.987   1.678   5.447
 2867TIP3    H2 8566   3.842   1.667   5.490
 2868TIP3   OH2 8567   0.382   5.129   3.370
 2868TIP3    H1 8568   0.372   5.043   3.412
 2868TIP3    H2 8569   0.463   5.121   3.320
 2869TIP3   OH2 8570   1.390   5.395   2.008
 2869TIP3    H1 8571   1.406   5.320   2.066
 2869TIP3    H2 8572   1.297   5.392   1.990
 2870TIP3   OH2 8573   3.728   5.225   0.764
 2870TIP3    H1 8574   3.821   5.202   0.764
 2870TIP3    H2 8575   3.700   5.213   0.854
 2871TIP3   OH2 8576   5.810   5.284   4.954
 2871TIP3    H1 8577   5.836   5.293   5.046
 2871TIP3    H2 8578   5.805   5.189   4.940
 2872TIP3   OH2 8579   1.685   3.558   5.502
 2872TIP3    H1 8580   1.624   3.485   5.503
 2872TIP3    H2 8581   1.756   3.530   5.560
 2873TIP3   OH2 8582   5.197   3.841   2.782
 2873TIP3    H1 8583   5.183   3.930   2.749
 2873TIP3    H2 8584   5.257   3.801   2.718
 2874TIP3   OH2 8585   1.717   4.430   3.555
 2874TIP3    H1 8586   1.755   4.417   3.641
 2874TIP3    H2 8587   1.651   4.498   3.567
 2875TIP3   OH2 8588   5.939   0.996   4.532
 2875TIP3    H1 8589   6.008   0.993   4.599
 2875TIP3    H2 8590   5.982   1.033   4.455
 2876TIP3   OH2 8591   3.463   4.444   2.151
 2876TIP3    H1 8592   3.525   4.397   2.207
 2876TIP3    H2 8593   3.475   4.536   2.173
 2877TIP3   OH2 8594   1.384   2.379   0.214
 2877TIP3    H1 8595   1.374   2.473   0.200
 2877TIP3    H2 8596   1.474   2.369   0.245
 2878TIP3   OH2 8597   4.802   6.050   0.582
 2878TIP3    H1 8598   4.757   6.107   0.520
 2878TIP3    H2 8599   4.883   6.097   0.602
 2879TIP3   OH2 8600   3.705   6.779   0.690
 2879TIP3    H1 8601   3.630   6.779   0.749
 2879TIP3    H2 8602   3.750   6.696   0.707
 2880TIP3   OH2 8603   4.736   6.166   4.860
 2880TIP3    H1 8604   4.722   6.206   4.946
 2880TIP3    H2 8605   4.703   6.230   4.798
 2881TIP3   OH2 8606   1.021   1.798   4.647
 2881TIP3    H1 8607   1.091   1.793   4.712
 2881TIP3    H2 8608   1.066   1.798   4.563
 2882TIP3   OH2 8609   2.506   1.902   2.993
 2882TIP3    H1 8610   2.456   1.935   2.918
 2882TIP3    H2 8611   2.590   1.948   2.989
 2883TIP3   OH2 8612   2.835   4.858   2.335
 2883TIP3    H1 8613   2.821   4.871   2.428
 2883TIP3    H2 8614   2.765   4.798   2.308
 2884TIP3   OH2 8615   1.611   6.251   4.960
 2884TIP3    H1 8616   1.600   6.264   4.866
 2884TIP3    H2 8617   1.557   6.175   4.981
 2885TIP3   OH2 8618   1.802   2.702   0.838
 2885TIP3    H1 8619   1.780   2.616   0.803
 2885TIP3    H2 8620   1.824   2.686   0.929
 2886TIP3   OH2 8621   6.358   0.543   3.028
 2886TIP3    H1 8622   6.338   0.481   2.958
 2886TIP3    H2 8623   6.453   0.548   3.030
 2887TIP3   OH2 8624   1.533   4.361   3.341
 2887TIP3    H1 8625   1.483   4.337   3.418
 2887TIP3    H2 8626   1.608   4.409   3.375
 2888TIP3   OH2 8627   0.777   3.461   3.381
 2888TIP3    H1 8628   0.849   3.438   3.322
 2888TIP3    H2 8629   0.767   3.555   3.371
 2889TIP3   OH2 8630   5.836   2.455   3.707
 2889TIP3    H1 8631   5.835   2.427   3.798
 2889TIP3    H2 8632   5.827   2.550   3.711
 2890TIP3   OH2 8633   4.959   2.747   2.144
 2890TIP3    H1 8634   4.996   2.670   2.100
 2890TIP3    H2 8635   4.879   2.715   2.186
 2891TIP3   OH2 8636   2.028   5.088   5.445
 2891TIP3    H1 8637   2.001   5.025   5.378
 2891TIP3    H2 8638   1.953   5.147   5.452
 2892TIP3   OH2 8639   2.698   6.318   4.405
 2892TIP3    H1 8640   2.695   6.232   4.363
 2892TIP3    H2 8641   2.615   6.359   4.380
 2893TIP3   OH2 8642   4.671   1.435   5.758
 2893TIP3    H1 8643   4.685   1.350   5.800
 2893TIP3    H2 8644   4.740   1.491   5.795
 2894TIP3   OH2 8645   6.038   3.629   3.999
 2894TIP3    H1 8646   6.106   3.582   3.951
 2894TIP3    H2 8647   5.965   3.634   3.937
 2895TIP3   OH2 8648   5.046   6.103   1.135
 2895TIP3    H1 8649   5.127   6.064   1.101
 2895TIP3    H2 8650   5.073   6.148   1.215
 2896TIP3   OH2 8651   5.219   0.405   3.423
 2896TIP3    H1 8652   5.203   0.472   3.490
 2896TIP3    H2 8653   5.314   0.399   3.417
 2897TIP3   OH2 8654   6.752   4.346   1.504
 2897TIP3    H1 8655   6.683   4.388   1.453
 2897TIP3    H2 8656   6.776   4.411   1.571
 2898TIP3   OH2 8657   4.223   0.200   3.252
 2898TIP3    H1 8658   4.226   0.238   3.164
 2898TIP3    H2 8659   4.250   0.109   3.241
 2899TIP3   OH2 8660   5.741   2.693   4.082
 2899TIP3    H1 8661   5.673   2.696   4.150
 2899TIP3    H2 8662   5.799   2.622   4.109
 2900TIP3   OH2 8663   4.857   6.586   4.213
 2900TIP3    H1 8664   4.763   6.597   4.199
 2900TIP3    H2 8665   4.873   6.492   4.206
 2901TIP3   OH2 8666   4.312   6.512   0.623
 2901TIP3    H1 8667   4.360   6.558   0.554
 2901TIP3    H2 8668   4.297   6.425   0.588
 2902TIP3   OH2 8669   2.963   5.477   5.213
 2902TIP3    H1 8670   3.057   5.461   5.204
 2902TIP3    H2 8671   2.929   5.397   5.251
 2903TIP3   OH2 8672   4.251   1.005   4.445
 2903TIP3    H1 8673   4.308   0.993   4.369
 2903TIP3    H2 8674   4.303   1.056   4.507
 2904TIP3   OH2 8675   4.609   4.637   1.198
 2904TIP3    H1 8676   4.568   4.634   1.111
 2904TIP3    H2 8677   4.703   4.642   1.180
 2905TIP3   OH2 8678   0.118   1.939   4.080
 2905TIP3    H1 8679   0.059   1.924   4.154
 2905TIP3    H2 8680   0.067   1.916   4.003
 2906TIP3   OH2 8681   4.438   0.104   0.952
 2906TIP3    H1 8682   4.529   0.134   0.949
 2906TIP3    H2 8683   4.438   0.022   0.903
 2907TIP3   OH2 8684   3.255   4.089   0.367
 2907TIP3    H1 8685   3.216   4.150   0.305
 2907TIP3    H2 8686   3.341   4.126   0.386
 2908TIP3   OH2 8687   0.576   3.774   2.991
 2908TIP3    H1 8688   0.582   3.827   3.071
 2908TIP3    H2 8689   0.647   3.710   2.999
 2909TIP3   OH2 8690   5.756   0.578   1.966
 2909TIP3    H1 8691   5.822   0.601   1.900
 2909TIP3    H2 8692   5.751   0.483   1.962
 2910TIP3   OH2 8693   4.563   3.871   5.860
 2910TIP3    H1 8694   4.517   3.939   5.910
 2910TIP3    H2 8695   4.652   3.905   5.851
 2911TIP3   OH2 8696   1.553   6.083   3.354
 2911TIP3    H1 8697   1.545   6.094   3.448
 2911TIP3    H2 8698   1.618   6.148   3.327
 2912TIP3   OH2 8699   3.505   6.290   2.636
 2912TIP3    H1 8700   3.420   6.315   2.671
 2912TIP3    H2 8701   3.559   6.274   2.714
 2913TIP3   OH2 8702   2.326   1.222   0.106
 2913TIP3    H1 8703   2.235   1.229   0.135
 2913TIP3    H2 8704   2.375   1.276   0.167
 2914TIP3   OH2 8705   3.888   2.548   1.921
 2914TIP3    H1 8706   3.863   2.613   1.855
 2914TIP3    H2 8707   3.926   2.477   1.870
 2915TIP3   OH2 8708   5.986   2.610   2.070
 2915TIP3    H1 8709   5.914   2.672   2.057
 2915TIP3    H2 8710   6.051   2.634   2.004
 2916TIP3   OH2 8711   6.206   3.457   3.877
 2916TIP3    H1 8712   6.125   3.407   3.875
 2916TIP3    H2 8713   6.274   3.393   3.855
 2917TIP3   OH2 8714   6.197   0.739   2.565
 2917TIP3    H1 8715   6.152   0.784   2.636
 2917TIP3    H2 8716   6.127   0.703   2.510
 2918TIP3   OH2 8717   5.460   4.814   5.444
 2918TIP3    H1 8718   5.543   4.819   5.491
 2918TIP3    H2 8719   5.432   4.905   5.434
 2919TIP3   OH2 8720   7.205   1.287   3.813
 2919TIP3    H1 8721   7.271   1.265   3.748
 2919TIP3    H2 8722   7.125   1.243   3.783
 2920TIP3   OH2 8723   3.976   1.558   5.801
 2920TIP3    H1 8724   3.986   1.632   5.741
 2920TIP3    H2 8725   4.018   1.586   5.882
 2921TIP3   OH2 8726   2.665   2.815   4.536
 2921TIP3    H1 8727   2.611   2.887   4.568
 2921TIP3    H2 8728   2.616   2.736   4.559
 2922TIP3   OH2 8729   1.987   6.571   3.592
 2922TIP3    H1 8730   2.002   6.503   3.658
 2922TIP3    H2 8731   1.989   6.524   3.508
 2923TIP3   OH2 8732   7.070   5.496   2.002
 2923TIP3    H1 8733   7.151   5.496   1.951
 2923TIP3    H2 8734   7.099   5.474   2.091
 2924TIP3   OH2 8735   5.395   0.676   1.721
 2924TIP3    H1 8736   5.463   0.614   1.747
 2924TIP3    H2 8737   5.384   0.662   1.627
 2925TIP3   OH2 8738   1.448   4.898   3.318
 2925TIP3    H1 8739   1.539   4.879   3.293
 2925TIP3    H2 8740   1.404   4.814   3.312
 2926TIP3   OH2 8741   0.150   2.131   4.451
 2926TIP3    H1 8742   0.210   2.142   4.377
 2926TIP3    H2 8743   0.201   2.160   4.527
 2927TIP3   OH2 8744   3.136   3.093   5.056
 2927TIP3    H1 8745   3.208   3.114   5.116
 2927TIP3    H2 8746   3.105   3.007   5.086
 2928TIP3   OH2 8747   6.916   3.255   2.627
 2928TIP3    H1 8748   6.986   3.242   2.691
 2928TIP3    H2 8749   6.934   3.341   2.588
 2929TIP3   OH2 8750   5.359   6.488   4.506
 2929TIP3    H1 8751   5.396   6.407   4.471
 2929TIP3    H2 8752   5.392   6.556   4.447
 2930TIP3   OH2 8753   0.222   5.125   5.695
 2930TIP3    H1 8754   0.298   5.089   5.740
 2930TIP3    H2 8755   0.249   5.131   5.604
 2931TIP3   OH2 8756   3.227   1.910   5.184
 2931TIP3    H1 8757   3.256   2.002   5.183
 2931TIP3    H2 8758   3.196   1.894   5.095
 2932TIP3   OH2 8759   3.486   1.937   3.408
 2932TIP3    H1 8760   3.485   1.853   3.362
 2932TIP3    H2 8761   3.408   1.935   3.463
 2933TIP3   OH2 8762   6.185   1.734   5.756
 2933TIP3    H1 8763   6.242   1.683   5.699
 2933TIP3    H2 8764   6.243   1.770   5.823
 2934TIP3   OH2 8765   5.534   1.396   2.180
 2934TIP3    H1 8766   5.620   1.389   2.220
 2934TIP3    H2 8767   5.491   1.313   2.200
 2935TIP3   OH2 8768   6.925   0.194   0.067
 2935TIP3    H1 8769   6.983   0.270   0.062
 2935TIP3    H2 8770   6.870   0.211   0.144
 2936TIP3   OH2 8771   5.698   0.173   3.685
 2936TIP3    H1 8772   5.605   0.162   3.703
 2936TIP3    H2 8773   5.708   0.265   3.661
 2937TIP3   OH2 8774   5.401   6.777   3.752
 2937TIP3    H1 8775   5.310   6.751   3.767
 2937TIP3    H2 8776   5.452   6.709   3.796
 2938TIP3   OH2 8777   2.161   3.346   5.850
 2938TIP3    H1 8778   2.151   3.441   5.855
 2938TIP3    H2 8779   2.193   3.320   5.936
 2939TIP3   OH2 8780   1.951   4.072   2.476
 2939TIP3    H1 8781   2.038   4.038   2.454
 2939TIP3    H2 8782   1.893   3.997   2.466
 2940TIP3   OH2 8783   3.693   6.261   3.085
 2940TIP3    H1 8784   3.681   6.355   3.092
 2940TIP3    H2 8785   3.721   6.247   2.994
 2941TIP3   OH2 8786   5.001   2.735   4.001
 2941TIP3    H1 8787   4.934   2.702   3.942
 2941TIP3    H2 8788   4.958   2.809   4.045
 2942TIP3   OH2 8789   0.944   5.111   0.288
 2942TIP3    H1 8790   0.996   5.135   0.211
 2942TIP3    H2 8791   1.006   5.067   0.346
 2943TIP3   OH2 8792   1.052   4.341   4.015
 2943TIP3    H1 8793   1.046   4.437   4.016
 2943TIP3    H2 8794   0.979   4.312   4.068
 2944TIP3   OH2 8795   6.183   3.666   5.408
 2944TIP3    H1 8796   6.211   3.686   5.319
 2944TIP3    H2 8797   6.088   3.653   5.401
 2945TIP3   OH2 8798   1.401   0.267   3.441
 2945TIP3    H1 8799   1.405   0.265   3.537
 2945TIP3    H2 8800   1.450   0.346   3.417
 2946TIP3   OH2 8801   0.598   2.492   3.268
 2946TIP3    H1 8802   0.619   2.455   3.182
 2946TIP3    H2 8803   0.683   2.516   3.305
 2947TIP3   OH2 8804   1.559   3.043   4.624
 2947TIP3    H1 8805   1.526   3.114   4.680
 2947TIP3    H2 8806   1.648   3.070   4.602
 2948TIP3   OH2 8807   0.219   4.795   5.433
 2948TIP3    H1 8808   0.176   4.789   5.347
 2948TIP3    H2 8809   0.159   4.749   5.492
 2949TIP3   OH2 8810   5.950   5.670   3.118
 2949TIP3    H1 8811   6.015   5.726   3.077
 2949TIP3    H2 8812   5.885   5.731   3.153
 2950TIP3   OH2 8813   2.577   3.272   4.889
 2950TIP3    H1 8814   2.518   3.271   4.965
 2950TIP3    H2 8815   2.552   3.195   4.839
 2951TIP3   OH2 8816   4.482   5.659   4.216
 2951TIP3    H1 8817   4.572   5.674   4.186
 2951TIP3    H2 8818   4.491   5.643   4.310
 2952TIP3   OH2 8819   6.826   5.910   2.684
 2952TIP3    H1 8820   6.874   5.991   2.697
 2952TIP3    H2 8821   6.769   5.927   2.609
 2953TIP3   OH2 8822   0.231   5.644   0.090
 2953TIP3    H1 8823   0.270   5.565   0.054
 2953TIP3    H2 8824   0.259   5.646   0.182
 2954TIP3   OH2 8825   1.101   3.093   1.935
 2954TIP3    H1 8826   1.072   3.084   2.026
 2954TIP3    H2 8827   1.175   3.154   1.939
 2955TIP3   OH2 8828   5.398   3.653   5.361
 2955TIP3    H1 8829   5.320   3.601   5.380
 2955TIP3    H2 8830   5.418   3.633   5.270
 2956TIP3   OH2 8831   0.515   2.071   0.624
 2956TIP3    H1 8832   0.527   2.140   0.688
 2956TIP3    H2 8833   0.513   2.117   0.540
 2957TIP3   OH2 8834   2.962   2.800   1.334
 2957TIP3    H1 8835   2.990   2.737   1.399
 2957TIP3    H2 8836   3.003   2.771   1.253
 2958TIP3   OH2 8837   5.169   3.735   2.043
 2958TIP3    H1 8838   5.208   3.808   1.995
 2958TIP3    H2 8839   5.188   3.753   2.135
 2959TIP3   OH2 8840   4.734   1.353   5.317
 2959TIP3    H1 8841   4.784   1.319   5.391
 2959TIP3    H2 8842   4.799   1.395   5.261
 2960TIP3   OH2 8843   6.658   6.078   1.221
 2960TIP3    H1 8844   6.601   6.073   1.144
 2960TIP3    H2 8845   6.597   6.078   1.295
 2961TIP3   OH2 8846   5.533   1.839   0.430
 2961TIP3    H1 8847   5.467   1.885   0.377
 2961TIP3    H2 8848   5.604   1.819   0.368
 2962TIP3   OH2 8849   5.977   1.969   0.787
 2962TIP3    H1 8850   6.057   2.021   0.778
 2962TIP3    H2 8851   5.975   1.913   0.709
 2963TIP3   OH2 8852   4.961   1.401   5.163
 2963TIP3    H1 8853   5.004   1.471   5.211
 2963TIP3    H2 8854   5.024   1.329   5.163
 2964TIP3   OH2 8855   0.008   5.644   0.814
 2964TIP3    H1 8856   0.099   5.667   0.833
 2964TIP3    H2 8857  -0.031   5.723   0.777
 2965TIP3   OH2 8858   3.461   1.819   3.731
 2965TIP3    H1 8859   3.500   1.847   3.813
 2965TIP3    H2 8860   3.532   1.779   3.681
 2966TIP3   OH2 8861   7.096   1.769   1.851
 2966TIP3    H1 8862   7.165   1.819   1.895
 2966TIP3    H2 8863   7.018   1.824   1.861
 2967TIP3   OH2 8864   2.227   6.450   5.086
 2967TIP3    H1 8865   2.200   6.542   5.078
 2967TIP3    H2 8866   2.245   6.422   4.996
 2968TIP3   OH2 8867   2.084   3.489   4.034
 2968TIP3    H1 8868   2.108   3.581   4.049
 2968TIP3    H2 8869   2.013   3.492   3.970
 2969TIP3   OH2 8870   4.748   3.013   2.586
 2969TIP3    H1 8871   4.741   2.945   2.519
 2969TIP3    H2 8872   4.711   3.091   2.546
 2970TIP3   OH2 8873   0.848   3.093   4.035
 2970TIP3    H1 8874   0.919   3.036   4.062
 2970TIP3    H2 8875   0.779   3.033   4.006
 2971TIP3   OH2 8876   0.272   5.649   0.909
 2971TIP3    H1 8877   0.337   5.719   0.916
 2971TIP3    H2 8878   0.323   5.568   0.914
 2972TIP3   OH2 8879   3.170   0.110   3.375
 2972TIP3    H1 8880   3.255   0.081   3.341
 2972TIP3    H2 8881   3.189   0.146   3.461
 2973TIP3   OH2 8882   3.687   5.558   0.191
 2973TIP3    H1 8883   3.683   5.625   0.122
 2973TIP3    H2 8884   3.718   5.479   0.147
 2974TIP3   OH2 8885   1.902   0.718   1.668
 2974TIP3    H1 8886   1.921   0.777   1.740
 2974TIP3    H2 8887   1.885   0.633   1.710
 2975TIP3   OH2 8888   6.155   0.419   0.319
 2975TIP3    H1 8889   6.066   0.384   0.316
 2975TIP3    H2 8890   6.169   0.457   0.232
 2976TIP3   OH2 8891   3.504   2.870   5.840
 2976TIP3    H1 8892   3.534   2.780   5.849
 2976TIP3    H2 8893   3.499   2.885   5.746
 2977TIP3   OH2 8894   1.715   3.710   5.791
 2977TIP3    H1 8895   1.794   3.661   5.769
 2977TIP3    H2 8896   1.719   3.788   5.735
 2978TIP3   OH2 8897   4.143   6.265   3.696
 2978TIP3    H1 8898   4.189   6.248   3.614
 2978TIP3    H2 8899   4.212   6.269   3.762
 2979TIP3   OH2 8900   0.405   0.047   1.349
 2979TIP3    H1 8901   0.347   0.050   1.425
 2979TIP3    H2 8902   0.457   0.127   1.354
 2980TIP3   OH2 8903   5.408   3.273   2.400
 2980TIP3    H1 8904   5.412   3.181   2.377
 2980TIP3    H2 8905   5.479   3.286   2.463
 2981TIP3   OH2 8906   6.096   3.902   5.116
 2981TIP3    H1 8907   6.150   3.947   5.051
 2981TIP3    H2 8908   6.065   3.823   5.071
 2982TIP3   OH2 8909   5.805   5.873   3.252
 2982TIP3    H1 8910   5.777   5.932   3.322
 2982TIP3    H2 8911   5.816   5.929   3.176
 2983TIP3   OH2 8912   1.573   2.530   3.258
 2983TIP3    H1 8913   1.502   2.561   3.314
 2983TIP3    H2 8914   1.544   2.550   3.169
 2984TIP3   OH2 8915   2.130   0.198   4.814
 2984TIP3    H1 8916   2.097   0.237   4.733
 2984TIP3    H2 8917   2.050   0.170   4.860
 2985TIP3   OH2 8918   6.828   4.909   0.555
 2985TIP3    H1 8919   6.786   4.835   0.512
 2985TIP3    H2 8920   6.846   4.877   0.644
 2986TIP3   OH2 8921   5.976   5.894   0.397
 2986TIP3    H1 8922   5.991   5.800   0.400
 2986TIP3    H2 8923   6.051   5.929   0.350
 2987TIP3   OH2 8924   1.452   4.968   2.072
 2987TIP3    H1 8925   1.536   4.952   2.028
 2987TIP3    H2 8926   1.423   4.882   2.101
 2988TIP3   OH2 8927   6.611   2.276   5.606
 2988TIP3    H1 8928   6.694   2.233   5.627
 2988TIP3    H2 8929   6.601   2.343   5.674
 2989TIP3   OH2 8930   2.995   3.967   3.808
 2989TIP3    H1 8931   2.967   4.028   3.876
 2989TIP3    H2 8932   2.913   3.938   3.768
 2990TIP3   OH2 8933   4.456   5.893   1.357
 2990TIP3    H1 8934   4.479   5.971   1.307
 2990TIP3    H2 8935   4.445   5.925   1.447
 2991TIP3   OH2 8936   0.234   0.982   1.697
 2991TIP3    H1 8937   0.157   0.935   1.665
 2991TIP3    H2 8938   0.230   0.971   1.792
 2992TIP3   OH2 8939   6.379   4.252   5.294
 2992TIP3    H1 8940   6.362   4.160   5.316
 2992TIP3    H2 8941   6.400   4.250   5.201
 2993TIP3   OH2 8942   6.565   2.028   1.593
 2993TIP3    H1 8943   6.608   1.943   1.594
 2993TIP3    H2 8944   6.561   2.054   1.685
 2994TIP3   OH2 8945   2.728   5.551   4.109
 2994TIP3    H1 8946   2.713   5.459   4.085
 2994TIP3    H2 8947   2.735   5.597   4.026
 2995TIP3   OH2 8948   3.410   2.329   4.721
 2995TIP3    H1 8949   3.440   2.347   4.632
 2995TIP3    H2 8950   3.459   2.390   4.776
 2996TIP3   OH2 8951   3.253   1.534   3.817
 2996TIP3    H1 8952   3.201   1.552   3.739
 2996TIP3    H2 8953   3.262   1.439   3.819
 2997TIP3   OH2 8954   3.295   3.984   4.996
 2997TIP3    H1 8955   3.266   4.046   5.063
 2997TIP3    H2 8956   3.383   4.013   4.973
 2998TIP3   OH2 8957   2.074   1.866   3.185
 2998TIP3    H1 8958   2.155   1.815   3.186
 2998TIP3    H2 8959   2.103   1.957   3.193
 2999TIP3   OH2 8960   2.071   1.494   0.587
 2999TIP3    H1 8961   2.144   1.507   0.526
 2999TIP3    H2 8962   2.028   1.414   0.558
 3000TIP3   OH2 8963   4.183   3.497   1.300
 3000TIP3    H1 8964   4.206   3.577   1.347
 3000TIP3    H2 8965   4.268   3.457   1.279
 3001TIP3   OH2 8966   4.471   4.616   0.964
 3001TIP3    H1 8967   4.445   4.704   0.935
 3001TIP3    H2 8968   4.400   4.560   0.933
 3002TIP3   OH2 8969   2.401   2.688   2.800
 3002TIP3    H1 8970   2.482   2.722   2.838
 3002TIP3    H2 8971   2.332   2.741   2.839
 3003TIP3   OH2 8972   1.063   3.533   4.240
 3003TIP3    H1 8973   1.134   3.597   4.248
 3003TIP3    H2 8974   1.107   3.451   4.216
 3004TIP3   OH2 8975   2.073   0.562   4.941
 3004TIP3    H1 8976   2.125   0.482   4.951
 3004TIP3    H2 8977   2.011   0.560   5.014
 3005TIP3   OH2 8978   5.964   1.575   4.948
 3005TIP3    H1 8979   6.053   1.600   4.974
 3005TIP3    H2 8980   5.929   1.652   4.904
 3006TIP3   OH2 8981   1.116   3.978   3.457
 3006TIP3    H1 8982   1.044   3.993   3.518
 3006TIP3    H2 8983   1.074   3.944   3.378
 3007TIP3   OH2 8984   0.608   1.312   1.566
 3007TIP3    H1 8985   0.648   1.229   1.539
 3007TIP3    H2 8986   0.681   1.364   1.599
 3008TIP3   OH2 8987   6.782   1.683   2.263
 3008TIP3    H1 8988   6.858   1.740   2.277
 3008TIP3    H2 8989   6.713   1.723   2.315
 3009TIP3   OH2 8990   5.219   4.737   1.641
 3009TIP3    H1 8991   5.253   4.681   1.571
 3009TIP3    H2 8992   5.145   4.782   1.601
 3010TIP3   OH2 8993   5.778   2.662   1.105
 3010TIP3    H1 8994   5.757   2.650   1.198
 3010TIP3    H2 8995   5.695   2.649   1.060
 3011TIP3   OH2 8996   2.550   6.609   3.379
 3011TIP3    H1 8997   2.515   6.573   3.298
 3011TIP3    H2 8998   2.500   6.690   3.393
 3012TIP3   OH2 8999   5.279   4.465   0.073
 3012TIP3    H1 9000   5.241   4.389   0.117
 3012TIP3    H2 9001   5.372   4.463   0.095
 3013TIP3   OH2 9002   3.548   6.116   3.869
 3013TIP3    H1 9003   3.499   6.188   3.829
 3013TIP3    H2 9004   3.533   6.126   3.963
 3014TIP3   OH2 9005   5.977   3.091   2.329
 3014TIP3    H1 9006   6.036   3.042   2.271
 3014TIP3    H2 9007   5.910   3.027   2.353
 3015TIP3   OH2 9008   6.593   5.098   4.705
 3015TIP3    H1 9009   6.674   5.133   4.742
 3015TIP3    H2 9010   6.577   5.018   4.755
 3016TIP3   OH2 9011   1.332   0.375   0.730
 3016TIP3    H1 9012   1.255   0.320   0.717
 3016TIP3    H2 9013   1.381   0.332   0.801
 3017TIP3   OH2 9014   6.218   3.755   3.748
 3017TIP3    H1 9015   6.218   3.700   3.826
 3017TIP3    H2 9016   6.191   3.841   3.778
 3018TIP3   OH2 9017   4.077   4.014   4.642
 3018TIP3    H1 9018   4.146   3.984   4.582
 3018TIP3    H2 9019   4.112   4.094   4.681
 3019TIP3   OH2 9020   5.974   5.824   3.495
 3019TIP3    H1 9021   5.969   5.767   3.418
 3019TIP3    H2 9022   5.895   5.806   3.544
 3020TIP3   OH2 9023   4.971   4.462   4.580
 3020TIP3    H1 9024   4.906   4.395   4.559
 3020TIP3    H2 9025   4.920   4.542   4.591
 3021TIP3   OH2 9026   2.996   4.683   4.156
 3021TIP3    H1 9027   2.947   4.753   4.200
 3021TIP3    H2 9028   2.937   4.649   4.090
 3022TIP3   OH2 9029   2.632   4.144   4.265
 3022TIP3    H1 9030   2.583   4.117   4.343
 3022TIP3    H2 9031   2.567   4.143   4.194
 3023TIP3   OH2 9032   0.103   5.008   3.067
 3023TIP3    H1 9033   0.072   5.015   3.157
 3023TIP3    H2 9034   0.027   4.978   3.018
 3024TIP3   OH2 9035   3.055   5.448   1.771
 3024TIP3    H1 9036   3.118   5.432   1.842
 3024TIP3    H2 9037   2.979   5.487   1.815
 3025TIP3   OH2 9038   5.866   1.256   3.045
 3025TIP3    H1 9039   5.932   1.323   3.028
 3025TIP3    H2 9040   5.846   1.220   2.958
 3026TIP3   OH2 9041   3.349   0.917   5.518
 3026TIP3    H1 9042   3.296   0.962   5.584
 3026TIP3    H2 9043   3.285   0.884   5.455
 3027TIP3   OH2 9044   2.274   2.117   2.929
 3027TIP3    H1 9045   2.349   2.114   2.987
 3027TIP3    H2 9046   2.282   2.201   2.883
 3028TIP3   OH2 9047   4.187   1.797   3.131
 3028TIP3    H1 9048   4.099   1.834   3.122
 3028TIP3    H2 9049   4.208   1.809   3.224
 3029TIP3   OH2 9050   4.659   3.237   2.443
 3029TIP3    H1 9051   4.669   3.331   2.428
 3029TIP3    H2 9052   4.565   3.226   2.462
 3030TIP3   OH2 9053   1.414   3.494   4.599
 3030TIP3    H1 9054   1.428   3.407   4.560
 3030TIP3    H2 9055   1.485   3.548   4.564
 3031TIP3   OH2 9056   6.077   2.396   2.485
 3031TIP3    H1 9057   6.085   2.329   2.553
 3031TIP3    H2 9058   5.985   2.393   2.458
 3032TIP3   OH2 9059   6.804   2.758   2.764
 3032TIP3    H1 9060   6.767   2.813   2.833
 3032TIP3    H2 9061   6.803   2.813   2.686
 3033TIP3   OH2 9062   4.337   1.700   3.878
 3033TIP3    H1 9063   4.253   1.660   3.855
 3033TIP3    H2 9064   4.374   1.727   3.794
 3034TIP3   OH2 9065   0.121   2.850   0.138
 3034TIP3    H1 9066   0.146   2.921   0.198
 3034TIP3    H2 9067   0.148   2.882   0.052
 3035TIP3   OH2 9068   5.049   1.758   4.603
 3035TIP3    H1 9069   5.134   1.796   4.625
 3035TIP3    H2 9070   5.068   1.694   4.534
 3036TIP3   OH2 9071   6.408   0.702   3.268
 3036TIP3    H1 9072   6.377   0.696   3.359
 3036TIP3    H2 9073   6.347   0.648   3.218
 3037TIP3   OH2 9074   3.909   6.518   3.899
 3037TIP3    H1 9075   4.001   6.495   3.890
 3037TIP3    H2 9076   3.867   6.438   3.931
 3038TIP3   OH2 9077   6.519   2.021   5.316
 3038TIP3    H1 9078   6.521   2.015   5.220
 3038TIP3    H2 9079   6.608   1.999   5.343
 3039TIP3   OH2 9080   5.972   0.066   2.130
 3039TIP3    H1 9081   5.920   0.013   2.069
 3039TIP3    H2 9082   6.022   0.125   2.073
 3040TIP3   OH2 9083   1.496   4.618   3.531
 3040TIP3    H1 9084   1.490   4.713   3.544
 3040TIP3    H2 9085   1.451   4.603   3.448
 3041TIP3   OH2 9086   0.200   5.369   4.413
 3041TIP3    H1 9087   0.229   5.374   4.322
 3041TIP3    H2 9088   0.134   5.438   4.422
 3042TIP3   OH2 9089   6.114   1.411   1.169
 3042TIP3    H1 9090   6.137   1.333   1.219
 3042TIP3    H2 9091   6.188   1.425   1.110
 3043TIP3   OH2 9092   5.809   5.637   0.592
 3043TIP3    H1 9093   5.828   5.547   0.566
 3043TIP3    H2 9094   5.716   5.637   0.613
 3044TIP3   OH2 9095   0.934   2.665   4.246
 3044TIP3    H1 9096   0.963   2.638   4.334
 3044TIP3    H2 9097   0.869   2.599   4.221
 3045TIP3   OH2 9098   1.480   0.856   2.918
 3045TIP3    H1 9099   1.439   0.935   2.953
 3045TIP3    H2 9100   1.528   0.819   2.992
 3046TIP3   OH2 9101  -0.032   4.024   1.902
 3046TIP3    H1 9102   0.058   4.016   1.932
 3046TIP3    H2 9103  -0.025   4.053   1.811
 3047TIP3   OH2 9104   1.010   3.777   0.045
 3047TIP3    H1 9105   0.985   3.854   0.096
 3047TIP3    H2 9106   0.934   3.719   0.051
 3048TIP3   OH2 9107   4.358   4.888   2.542
 3048TIP3    H1 9108   4.308   4.839   2.607
 3048TIP3    H2 9109   4.440   4.911   2.586
 3049TIP3   OH2 9110   2.087   6.387   0.010
 3049TIP3    H1 9111   2.178   6.402   0.035
 3049TIP3    H2 9112   2.051   6.336   0.083
 3050TIP3   OH2 9113   0.764   4.729   1.713
 3050TIP3    H1 9114   0.708   4.764   1.644
 3050TIP3    H2 9115   0.791   4.643   1.682
 3051TIP3   OH2 9116   3.329   2.761   2.719
 3051TIP3    H1 9117   3.369   2.801   2.642
 3051TIP3    H2 9118   3.263   2.701   2.683
 3052TIP3   OH2 9119   5.790   3.595   1.641
 3052TIP3    H1 9120   5.853   3.666   1.629
 3052TIP3    H2 9121   5.720   3.615   1.579
 3053TIP3   OH2 9122   5.366   4.387   1.038
 3053TIP3    H1 9123   5.437   4.348   0.987
 3053TIP3    H2 9124   5.410   4.443   1.102
 3054TIP3   OH2 9125   0.246   4.676   2.861
 3054TIP3    H1 9126   0.288   4.724   2.932
 3054TIP3    H2 9127   0.156   4.664   2.890
 3055TIP3   OH2 9128   5.300   5.376   3.187
 3055TIP3    H1 9129   5.328   5.344   3.101
 3055TIP3    H2 9130   5.205   5.382   3.180
 3056TIP3   OH2 9131   3.851   4.010   2.247
 3056TIP3    H1 9132   3.807   3.999   2.332
 3056TIP3    H2 9133   3.943   3.988   2.265
 3057TIP3   OH2 9134   7.003   1.336   4.431
 3057TIP3    H1 9135   6.974   1.408   4.488
 3057TIP3    H2 9136   6.998   1.259   4.487
 3058TIP3   OH2 9137   1.693   4.584   5.506
 3058TIP3    H1 9138   1.764   4.524   5.526
 3058TIP3    H2 9139   1.698   4.598   5.412
 3059TIP3   OH2 9140   0.098   2.667   3.908
 3059TIP3    H1 9141   0.073   2.641   3.996
 3059TIP3    H2 9142   0.191   2.645   3.901
 3060TIP3   OH2 9143   0.746   5.736   2.987
 3060TIP3    H1 9144   0.777   5.730   3.078
 3060TIP3    H2 9145   0.653   5.759   2.995
 3061TIP3   OH2 9146   3.608   2.027   4.785
 3061TIP3    H1 9147   3.513   2.026   4.795
 3061TIP3    H2 9148   3.635   2.110   4.823
 3062TIP3   OH2 9149   3.628   2.227   1.950
 3062TIP3    H1 9150   3.582   2.221   1.867
 3062TIP3    H2 9151   3.561   2.253   2.013
 3063TIP3   OH2 9152   3.775   0.645   2.729
 3063TIP3    H1 9153   3.732   0.593   2.661
 3063TIP3    H2 9154   3.821   0.581   2.783
 3064TIP3   OH2 9155   6.444   5.164   2.417
 3064TIP3    H1 9156   6.506   5.182   2.488
 3064TIP3    H2 9157   6.441   5.246   2.367
 3065TIP3   OH2 9158   0.552   4.170   4.111
 3065TIP3    H1 9159   0.461   4.192   4.091
 3065TIP3    H2 9160   0.550   4.076   4.131
 3066TIP3   OH2 9161   0.141   5.458   3.808
 3066TIP3    H1 9162   0.178   5.520   3.872
 3066TIP3    H2 9163   0.218   5.421   3.763
 3067TIP3   OH2 9164   1.899   3.289   3.671
 3067TIP3    H1 9165   1.971   3.227   3.663
 3067TIP3    H2 9166   1.942   3.373   3.690
 3068TIP3   OH2 9167   4.389   5.536   1.129
 3068TIP3    H1 9168   4.431   5.451   1.115
 3068TIP3    H2 9169   4.393   5.579   1.043
 3069TIP3   OH2 9170   1.282   4.262   2.401
 3069TIP3    H1 9171   1.360   4.216   2.433
 3069TIP3    H2 9172   1.211   4.200   2.413
 3070TIP3   OH2 9173   1.994   6.353   1.264
 3070TIP3    H1 9174   2.031   6.363   1.176
 3070TIP3    H2 9175   2.057   6.298   1.310
 3071TIP3   OH2 9176   7.043   4.290   2.192
 3071TIP3    H1 9177   6.954   4.327   2.193
 3071TIP3    H2 9178   7.098   4.359   2.229
 3072TIP3   OH2 9179   0.592   1.702   5.094
 3072TIP3    H1 9180   0.682   1.734   5.098
 3072TIP3    H2 9181   0.592   1.623   5.147
 3073TIP3   OH2 9182   0.471   3.393   3.262
 3073TIP3    H1 9183   0.559   3.370   3.231
 3073TIP3    H2 9184   0.459   3.339   3.340
 3074TIP3   OH2 9185   4.652   0.704   4.506
 3074TIP3    H1 9186   4.733   0.672   4.466
 3074TIP3    H2 9187   4.632   0.785   4.459
 3075TIP3   OH2 9188   3.342   2.458   3.395
 3075TIP3    H1 9189   3.310   2.374   3.363
 3075TIP3    H2 9190   3.268   2.494   3.444
 3076TIP3   OH2 9191   6.325   5.829   0.986
 3076TIP3    H1 9192   6.383   5.887   0.936
 3076TIP3    H2 9193   6.355   5.741   0.965
 3077TIP3   OH2 9194   5.767   0.196   3.020
 3077TIP3    H1 9195   5.854   0.194   3.060
 3077TIP3    H2 9196   5.722   0.120   3.057
 3078TIP3   OH2 9197   0.641   1.582   3.894
 3078TIP3    H1 9198   0.556   1.545   3.870
 3078TIP3    H2 9199   0.625   1.627   3.977
 3079TIP3   OH2 9200   1.070   2.367   4.580
 3079TIP3    H1 9201   1.103   2.339   4.495
 3079TIP3    H2 9202   1.145   2.362   4.639
 3080TIP3   OH2 9203   5.806   1.107   1.197
 3080TIP3    H1 9204   5.806   1.186   1.142
 3080TIP3    H2 9205   5.877   1.054   1.163
 3081TIP3   OH2 9206   0.059   6.738   1.183
 3081TIP3    H1 9207   0.134   6.719   1.128
 3081TIP3    H2 9208   0.081   6.701   1.269
 3082TIP3   OH2 9209   1.826   4.359   1.872
 3082TIP3    H1 9210   1.880   4.334   1.797
 3082TIP3    H2 9211   1.736   4.337   1.846
 3083TIP3   OH2 9212   2.675   6.114   3.524
 3083TIP3    H1 9213   2.630   6.065   3.455
 3083TIP3    H2 9214   2.667   6.206   3.497
 3084TIP3   OH2 9215   1.186   1.446   3.598
 3084TIP3    H1 9216   1.148   1.448   3.510
 3084TIP3    H2 9217   1.240   1.525   3.603
 3085TIP3   OH2 9218   6.963   1.601   2.073
 3085TIP3    H1 9219   7.025   1.536   2.040
 3085TIP3    H2 9220   7.014   1.653   2.136
 3086TIP3   OH2 9221   2.839   6.319   0.656
 3086TIP3    H1 9222   2.852   6.244   0.599
 3086TIP3    H2 9223   2.927   6.350   0.675
 3087TIP3   OH2 9224   2.440   6.102   5.052
 3087TIP3    H1 9225   2.532   6.130   5.055
 3087TIP3    H2 9226   2.411   6.125   4.964
 3088TIP3   OH2 9227   0.731   1.428   4.844
 3088TIP3    H1 9228   0.735   1.454   4.752
 3088TIP3    H2 9229   0.641   1.448   4.870
 3089TIP3   OH2 9230   5.140   5.219   0.007
 3089TIP3    H1 9231   5.202   5.293   0.013
 3089TIP3    H2 9232   5.071   5.240   0.070
 3090TIP3   OH2 9233   6.031   5.565   1.716
 3090TIP3    H1 9234   6.024   5.511   1.794
 3090TIP3    H2 9235   6.101   5.524   1.664
 3091TIP3   OH2 9236   3.390   0.252   1.933
 3091TIP3    H1 9237   3.464   0.212   1.979
 3091TIP3    H2 9238   3.317   0.192   1.951
 3092TIP3   OH2 9239   6.850   0.562   4.324
 3092TIP3    H1 9240   6.857   0.504   4.400
 3092TIP3    H2 9241   6.757   0.581   4.316
 3093TIP3   OH2 9242   0.189   6.168   1.794
 3093TIP3    H1 9243   0.119   6.123   1.748
 3093TIP3    H2 9244   0.145   6.222   1.859
 3094TIP3   OH2 9245   4.918   6.365   5.848
 3094TIP3    H1 9246   4.941   6.433   5.912
 3094TIP3    H2 9247   4.825   6.346   5.865
 3095TIP3   OH2 9248   1.029   4.194   2.448
 3095TIP3    H1 9249   1.040   4.148   2.531
 3095TIP3    H2 9250   0.940   4.230   2.452
 3096TIP3   OH2 9251   6.266   0.133   1.311
 3096TIP3    H1 9252   6.209   0.202   1.346
 3096TIP3    H2 9253   6.289   0.080   1.387
 3097TIP3   OH2 9254   2.052   1.241   0.168
 3097TIP3    H1 9255   2.040   1.151   0.199
 3097TIP3    H2 9256   1.995   1.247   0.090
 3098TIP3   OH2 9257   3.777   6.223   2.817
 3098TIP3    H1 9258   3.827   6.143   2.801
 3098TIP3    H2 9259   3.804   6.282   2.747
 3099TIP3   OH2 9260   6.892   6.391   3.985
 3099TIP3    H1 9261   6.856   6.302   3.996
 3099TIP3    H2 9262   6.924   6.415   4.072
 3100TIP3   OH2 9263   6.043   3.482   4.656
 3100TIP3    H1 9264   6.056   3.393   4.687
 3100TIP3    H2 9265   6.062   3.479   4.562
 3101TIP3   OH2 9266   3.982   5.863   5.195
 3101TIP3    H1 9267   3.894   5.900   5.195
 3101TIP3    H2 9268   3.988   5.817   5.279
 3102TIP3   OH2 9269   2.433   0.664   2.703
 3102TIP3    H1 9270   2.340   0.670   2.681
 3102TIP3    H2 9271   2.435   0.615   2.786
 3103TIP3   OH2 9272   1.294   1.735   3.041
 3103TIP3    H1 9273   1.200   1.718   3.044
 3103TIP3    H2 9274   1.307   1.785   2.960
 3104TIP3   OH2 9275   5.104   0.724   3.989
 3104TIP3    H1 9276   5.114   0.804   4.040
 3104TIP3    H2 9277   5.166   0.662   4.028
 3105TIP3   OH2 9278   0.681   6.029   3.874
 3105TIP3    H1 9279   0.599   6.049   3.919
 3105TIP3    H2 9280   0.749   6.066   3.931
 3106TIP3   OH2 9281   1.920   0.691   4.022
 3106TIP3    H1 9282   1.980   0.663   4.090
 3106TIP3    H2 9283   1.951   0.778   3.997
 3107TIP3   OH2 9284   4.719   3.123   4.745
 3107TIP3    H1 9285   4.792   3.070   4.711
 3107TIP3    H2 9286   4.642   3.069   4.733
 3108TIP3   OH2 9287   5.141   5.241   1.804
 3108TIP3    H1 9288   5.126   5.332   1.828
 3108TIP3    H2 9289   5.199   5.207   1.871
 3109TIP3   OH2 9290   6.592   1.281  -0.001
 3109TIP3    H1 9291   6.551   1.195   0.000
 3109TIP3    H2 9292   6.685   1.263   0.010
 3110TIP3   OH2 9293   2.889   5.162   4.010
 3110TIP3    H1 9294   2.955   5.191   3.946
 3110TIP3    H2 9295   2.941   5.122   4.080
 3111TIP3   OH2 9296   4.246   2.486   0.130
 3111TIP3    H1 9297   4.221   2.571   0.094
 3111TIP3    H2 9298   4.204   2.422   0.072
 3112TIP3   OH2 9299   7.095   3.975   1.206
 3112TIP3    H1 9300   7.012   3.928   1.196
 3112TIP3    H2 9301   7.137   3.967   1.120
 3113TIP3   OH2 9302   6.016   6.231   1.380
 3113TIP3    H1 9303   6.101   6.269   1.400
 3113TIP3    H2 9304   6.010   6.154   1.436
 3114TIP3   OH2 9305   6.950   4.782   3.812
 3114TIP3    H1 9306   6.946   4.851   3.878
 3114TIP3    H2 9307   7.023   4.726   3.840
 3115TIP3   OH2 9308   4.750   6.801   5.705
 3115TIP3    H1 9309   4.783   6.857   5.634
 3115TIP3    H2 9310   4.803   6.722   5.700
 3116TIP3   OH2 9311   2.221   5.300   0.119
 3116TIP3    H1 9312   2.150   5.254   0.164
 3116TIP3    H2 9313   2.202   5.289   0.025
 3117TIP3   OH2 9314   5.933   5.365   5.599
 3117TIP3    H1 9315   5.955   5.448   5.641
 3117TIP3    H2 9316   5.858   5.385   5.543
 3118TIP3   OH2 9317   1.052   4.632   4.014
 3118TIP3    H1 9318   0.971   4.684   4.021
 3118TIP3    H2 9319   1.074   4.635   3.921
 3119TIP3   OH2 9320   5.488   3.023   2.341
 3119TIP3    H1 9321   5.577   3.008   2.372
 3119TIP3    H2 9322   5.432   2.987   2.410
 3120TIP3   OH2 9323   3.194   6.687   2.511
 3120TIP3    H1 9324   3.157   6.691   2.423
 3120TIP3    H2 9325   3.284   6.658   2.498
 3121TIP3   OH2 9326   5.191   6.736   0.283
 3121TIP3    H1 9327   5.134   6.688   0.343
 3121TIP3    H2 9328   5.161   6.826   0.288
 3122TIP3   OH2 9329   3.063   2.517   1.970
 3122TIP3    H1 9330   2.996   2.505   1.903
 3122TIP3    H2 9331   3.133   2.565   1.926
 3123TIP3   OH2 9332   3.094   2.567   3.470
 3123TIP3    H1 9333   3.015   2.620   3.483
 3123TIP3    H2 9334   3.112   2.575   3.376
 3124TIP3   OH2 9335   0.956   1.848   2.670
 3124TIP3    H1 9336   1.010   1.779   2.708
 3124TIP3    H2 9337   0.995   1.930   2.701
 3125TIP3   OH2 9338   2.972   5.729   4.885
 3125TIP3    H1 9339   3.048   5.769   4.843
 3125TIP3    H2 9340   2.911   5.711   4.813
 3126TIP3   OH2 9341   7.007   1.841   4.902
 3126TIP3    H1 9342   7.024   1.935   4.903
 3126TIP3    H2 9343   6.933   1.829   4.961
 3127TIP3   OH2 9344   3.029   4.952   1.122
 3127TIP3    H1 9345   3.008   5.022   1.184
 3127TIP3    H2 9346   3.125   4.948   1.122
 3128TIP3   OH2 9347   6.943   6.474   5.078
 3128TIP3    H1 9348   6.865   6.419   5.068
 3128TIP3    H2 9349   6.956   6.513   4.991
 3129TIP3   OH2 9350   2.728   1.016   5.744
 3129TIP3    H1 9351   2.786   1.014   5.820
 3129TIP3    H2 9352   2.756   0.941   5.691
 3130TIP3   OH2 9353   6.500   1.837   3.850
 3130TIP3    H1 9354   6.595   1.824   3.850
 3130TIP3    H2 9355   6.489   1.932   3.861
 3131TIP3   OH2 9356   0.852   4.895   2.963
 3131TIP3    H1 9357   0.774   4.950   2.959
 3131TIP3    H2 9358   0.872   4.888   3.056
 3132TIP3   OH2 9359   4.448   4.916   1.271
 3132TIP3    H1 9360   4.429   4.822   1.274
 3132TIP3    H2 9361   4.368   4.956   1.238
 3133TIP3   OH2 9362   4.683   6.173   4.455
 3133TIP3    H1 9363   4.658   6.128   4.374
 3133TIP3    H2 9364   4.638   6.258   4.450
 3134TIP3   OH2 9365   5.667   0.715   3.557
 3134TIP3    H1 9366   5.647   0.806   3.535
 3134TIP3    H2 9367   5.701   0.677   3.476
 3135TIP3   OH2 9368   2.165   3.489   0.729
 3135TIP3    H1 9369   2.119   3.561   0.774
 3135TIP3    H2 9370   2.231   3.533   0.676
 3136TIP3   OH2 9371   4.089   2.284   4.565
 3136TIP3    H1 9372   4.125   2.346   4.628
 3136TIP3    H2 9373   4.059   2.210   4.618
 3137TIP3   OH2 9374   4.820   1.272   4.803
 3137TIP3    H1 9375   4.895   1.331   4.795
 3137TIP3    H2 9376   4.760   1.318   4.861
 3138TIP3   OH2 9377   5.011   2.602   2.484
 3138TIP3    H1 9378   5.002   2.576   2.576
 3138TIP3    H2 9379   4.962   2.535   2.436
 3139TIP3   OH2 9380   3.910   5.888   0.211
 3139TIP3    H1 9381   3.971   5.869   0.282
 3139TIP3    H2 9382   3.965   5.917   0.138
 3140TIP3   OH2 9383   2.370   3.426   0.369
 3140TIP3    H1 9384   2.281   3.397   0.390
 3140TIP3    H2 9385   2.368   3.441   0.275
 3141TIP3   OH2 9386   0.210   2.585   3.297
 3141TIP3    H1 9387   0.284   2.644   3.310
 3141TIP3    H2 9388   0.249   2.498   3.290
 3142TIP3   OH2 9389   3.359   4.187   3.551
 3142TIP3    H1 9390   3.400   4.113   3.506
 3142TIP3    H2 9391   3.272   4.155   3.575
 3143TIP3   OH2 9392   0.110   1.128   2.919
 3143TIP3    H1 9393   0.148   1.047   2.952
 3143TIP3    H2 9394   0.096   1.181   2.998
 3144TIP3   OH2 9395   0.980   1.370   4.634
 3144TIP3    H1 9396   1.066   1.411   4.647
 3144TIP3    H2 9397   0.927   1.439   4.594
 3145TIP3   OH2 9398   3.934   6.501   3.417
 3145TIP3    H1 9399   3.991   6.425   3.425
 3145TIP3    H2 9400   3.990   6.576   3.437
 3146TIP3   OH2 9401   0.137   6.577   2.959
 3146TIP3    H1 9402   0.137   6.516   3.032
 3146TIP3    H2 9403   0.190   6.650   2.990
 3147TIP3   OH2 9404   4.446   1.612   5.357
 3147TIP3    H1 9405   4.446   1.529   5.311
 3147TIP3    H2 9406   4.518   1.605   5.420
 3148TIP3   OH2 9407   2.947   4.569   4.419
 3148TIP3    H1 9408   2.969   4.587   4.328
 3148TIP3    H2 9409   2.852   4.559   4.419
 3149TIP3   OH2 9410   3.165   3.761   1.642
 3149TIP3    H1 9411   3.150   3.670   1.619
 3149TIP3    H2 9412   3.077   3.795   1.661
 3150TIP3   OH2 9413   5.890   2.004   2.567
 3150TIP3    H1 9414   5.811   2.035   2.522
 3150TIP3    H2 9415   5.906   2.070   2.634
 3151TIP3   OH2 9416   4.309   5.108   5.669
 3151TIP3    H1 9417   4.317   5.015   5.651
 3151TIP3    H2 9418   4.359   5.151   5.599
 3152TIP3   OH2 9419   5.916   5.002   4.936
 3152TIP3    H1 9420   5.947   4.923   4.982
 3152TIP3    H2 9421   5.942   4.988   4.845
 3153TIP3   OH2 9422   0.094   6.675   3.268
 3153TIP3    H1 9423   0.018   6.622   3.244
 3153TIP3    H2 9424   0.056   6.754   3.308
 3154TIP3   OH2 9425   1.944   2.427   2.622
 3154TIP3    H1 9426   1.971   2.345   2.663
 3154TIP3    H2 9427   1.862   2.450   2.666
 3155TIP3   OH2 9428   0.585   1.825   0.542
 3155TIP3    H1 9429   0.541   1.904   0.573
 3155TIP3    H2 9430   0.658   1.813   0.602
 3156TIP3   OH2 9431   7.129   4.705   5.319
 3156TIP3    H1 9432   7.074   4.732   5.393
 3156TIP3    H2 9433   7.077   4.636   5.276
 3157TIP3   OH2 9434   1.787   1.405   0.161
 3157TIP3    H1 9435   1.697   1.405   0.192
 3157TIP3    H2 9436   1.782   1.368   0.073
 3158TIP3   OH2 9437   6.239   3.338   2.265
 3158TIP3    H1 9438   6.249   3.431   2.248
 3158TIP3    H2 9439   6.145   3.327   2.280
 3159TIP3   OH2 9440   2.656   6.236   2.446
 3159TIP3    H1 9441   2.665   6.225   2.541
 3159TIP3    H2 9442   2.620   6.153   2.415
 3160TIP3   OH2 9443   6.503   1.407   2.757
 3160TIP3    H1 9444   6.456   1.395   2.674
 3160TIP3    H2 9445   6.436   1.436   2.819
 3161TIP3   OH2 9446   4.559   4.231   0.484
 3161TIP3    H1 9447   4.467   4.216   0.507
 3161TIP3    H2 9448   4.583   4.310   0.533
 3162TIP3   OH2 9449   4.347   0.877   5.005
 3162TIP3    H1 9450   4.333   0.953   5.062
 3162TIP3    H2 9451   4.402   0.910   4.934
 3163TIP3   OH2 9452   1.731   2.313   4.179
 3163TIP3    H1 9453   1.699   2.380   4.240
 3163TIP3    H2 9454   1.652   2.278   4.138
 3164TIP3   OH2 9455   1.530   2.614   4.224
 3164TIP3    H1 9456   1.561   2.683   4.166
 3164TIP3    H2 9457   1.606   2.593   4.279
 3165TIP3   OH2 9458   2.040   3.316   4.807
 3165TIP3    H1 9459   1.983   3.392   4.804
 3165TIP3    H2 9460   2.123   3.346   4.770
 3166TIP3   OH2 9461   0.144   6.577   2.688
 3166TIP3    H1 9462   0.131   6.568   2.782
 3166TIP3    H2 9463   0.170   6.668   2.676
 3167TIP3   OH2 9464   3.400   3.004   0.534
 3167TIP3    H1 9465   3.455   2.976   0.607
 3167TIP3    H2 9466   3.462   3.023   0.464
 3168TIP3   OH2 9467   5.600   1.552   1.661
 3168TIP3    H1 9468   5.675   1.494   1.676
 3168TIP3    H2 9469   5.605   1.616   1.731
 3169TIP3   OH2 9470   3.723   3.214   0.455
 3169TIP3    H1 9471   3.648   3.273   0.468
 3169TIP3    H2 9472   3.683   3.127   0.447
 3170TIP3   OH2 9473   0.298   5.404   0.553
 3170TIP3    H1 9474   0.340   5.325   0.520
 3170TIP3    H2 9475   0.225   5.372   0.606
 3171TIP3   OH2 9476   1.229   5.260   5.903
 3171TIP3    H1 9477   1.320   5.290   5.912
 3171TIP3    H2 9478   1.194   5.311   5.830
 3172TIP3   OH2 9479   4.679   4.438   3.405
 3172TIP3    H1 9480   4.680   4.347   3.376
 3172TIP3    H2 9481   4.765   4.472   3.380
 3173TIP3   OH2 9482   0.104   4.815   5.142
 3173TIP3    H1 9483   0.079   4.826   5.051
 3173TIP3    H2 9484   0.033   4.764   5.181
 3174TIP3   OH2 9485   1.015   4.490   3.610
 3174TIP3    H1 9486   1.064   4.538   3.676
 3174TIP3    H2 9487   1.079   4.430   3.572
 3175TIP3   OH2 9488   7.020   2.241   4.146
 3175TIP3    H1 9489   7.109   2.214   4.121
 3175TIP3    H2 9490   6.963   2.175   4.108
 3176TIP3   OH2 9491   2.965   2.509   1.148
 3176TIP3    H1 9492   3.016   2.578   1.104
 3176TIP3    H2 9493   2.903   2.557   1.203
 3177TIP3   OH2 9494   0.450   5.771   3.012
 3177TIP3    H1 9495   0.413   5.795   3.097
 3177TIP3    H2 9496   0.389   5.708   2.975
 3178TIP3   OH2 9497   5.089   3.989   5.718
 3178TIP3    H1 9498   5.072   4.072   5.763
 3178TIP3    H2 9499   5.121   4.016   5.632
 3179TIP3   OH2 9500   5.832   6.292   3.784
 3179TIP3    H1 9501   5.824   6.354   3.712
 3179TIP3    H2 9502   5.922   6.301   3.814
 3180TIP3   OH2 9503   4.004   4.433   1.315
 3180TIP3    H1 9504   4.040   4.491   1.248
 3180TIP3    H2 9505   4.079   4.387   1.351
 3181TIP3   OH2 9506   2.302   3.731   3.516
 3181TIP3    H1 9507   2.240   3.779   3.461
 3181TIP3    H2 9508   2.343   3.799   3.570
 3182TIP3   OH2 9509   5.243   3.217   0.562
 3182TIP3    H1 9510   5.277   3.131   0.586
 3182TIP3    H2 9511   5.224   3.260   0.646
 3183TIP3   OH2 9512   6.627   1.307   5.808
 3183TIP3    H1 9513   6.671   1.222   5.811
 3183TIP3    H2 9514   6.598   1.322   5.898
 3184TIP3   OH2 9515   3.024   0.771   1.206
 3184TIP3    H1 9516   2.932   0.789   1.191
 3184TIP3    H2 9517   3.034   0.678   1.188
 3185TIP3   OH2 9518   5.154   2.781   1.823
 3185TIP3    H1 9519   5.175   2.737   1.741
 3185TIP3    H2 9520   5.155   2.875   1.801
 3186TIP3   OH2 9521   1.718   2.188   3.068
 3186TIP3    H1 9522   1.692   2.270   3.027
 3186TIP3    H2 9523   1.814   2.191   3.070
 3187TIP3   OH2 9524   0.232   1.465   5.625
 3187TIP3    H1 9525   0.189   1.544   5.592
 3187TIP3    H2 9526   0.298   1.497   5.687
 3188TIP3   OH2 9527   2.567   1.261   4.502
 3188TIP3    H1 9528   2.579   1.352   4.530
 3188TIP3    H2 9529   2.568   1.211   4.583
 3189TIP3   OH2 9530   5.795   2.215   3.585
 3189TIP3    H1 9531   5.712   2.207   3.539
 3189TIP3    H2 9532   5.788   2.298   3.633
 3190TIP3   OH2 9533   6.399   6.765   4.320
 3190TIP3    H1 9534   6.372   6.850   4.286
 3190TIP3    H2 9535   6.453   6.728   4.250
 3191TIP3   OH2 9536   2.782   4.497   1.126
 3191TIP3    H1 9537   2.855   4.461   1.177
 3191TIP3    H2 9538   2.774   4.437   1.051
 3192TIP3   OH2 9539   4.053   0.612   3.377
 3192TIP3    H1 9540   4.134   0.664   3.374
 3192TIP3    H2 9541   4.083   0.525   3.404
 3193TIP3   OH2 9542   1.843   3.753   4.047
 3193TIP3    H1 9543   1.902   3.719   4.115
 3193TIP3    H2 9544   1.902   3.790   3.981
 3194TIP3   OH2 9545   1.924   0.234   1.775
 3194TIP3    H1 9546   1.964   0.155   1.813
 3194TIP3    H2 9547   1.992   0.269   1.717
 3195TIP3   OH2 9548   3.760   0.449   5.506
 3195TIP3    H1 9549   3.856   0.447   5.509
 3195TIP3    H2 9550   3.733   0.359   5.524
 3196TIP3   OH2 9551   1.617   0.747   1.786
 3196TIP3    H1 9552   1.545   0.716   1.840
 3196TIP3    H2 9553   1.640   0.832   1.823
 3197TIP3   OH2 9554   5.214   3.382   0.780
 3197TIP3    H1 9555   5.301   3.408   0.809
 3197TIP3    H2 9556   5.167   3.359   0.860
 3198TIP3   OH2 9557   0.838   4.377   0.799
 3198TIP3    H1 9558   0.868   4.403   0.712
 3198TIP3    H2 9559   0.864   4.286   0.808
 3199TIP3   OH2 9560   1.336   2.654   1.708
 3199TIP3    H1 9561   1.307   2.740   1.677
 3199TIP3    H2 9562   1.353   2.604   1.629
 3200TIP3   OH2 9563   3.987   4.259   5.820
 3200TIP3    H1 9564   3.951   4.182   5.777
 3200TIP3    H2 9565   4.082   4.251   5.809
 3201TIP3   OH2 9566   0.026   4.009   5.640
 3201TIP3    H1 9567   0.121   4.008   5.639
 3201TIP3    H2 9568   0.003   4.017   5.733
 3202TIP3   OH2 9569   1.329   0.498   5.476
 3202TIP3    H1 9570   1.354   0.481   5.386
 3202TIP3    H2 9571   1.410   0.528   5.518
 3203TIP3   OH2 9572   6.467   2.467   4.824
 3203TIP3    H1 9573   6.463   2.563   4.820
 3203TIP3    H2 9574   6.473   2.448   4.918
 3204TIP3   OH2 9575   0.776   2.557   3.962
 3204TIP3    H1 9576   0.849   2.570   4.023
 3204TIP3    H2 9577   0.712   2.506   4.012
 3205TIP3   OH2 9578   1.815   4.794   4.355
 3205TIP3    H1 9579   1.870   4.805   4.277
 3205TIP3    H2 9580   1.839   4.866   4.413
 3206TIP3   OH2 9581   5.066   0.494   1.331
 3206TIP3    H1 9582   4.977   0.477   1.302
 3206TIP3    H2 9583   5.119   0.483   1.252
 3207TIP3   OH2 9584   5.531   6.120   5.736
 3207TIP3    H1 9585   5.601   6.185   5.729
 3207TIP3    H2 9586   5.453   6.172   5.756
 3208TIP3   OH2 9587   3.963   0.827   0.612
 3208TIP3    H1 9588   3.952   0.905   0.667
 3208TIP3    H2 9589   3.952   0.859   0.523
 3209TIP3   OH2 9590   3.122   6.372   3.959
 3209TIP3    H1 9591   3.115   6.290   4.008
 3209TIP3    H2 9592   3.095   6.440   4.021
 3210TIP3   OH2 9593   0.468   2.458   1.426
 3210TIP3    H1 9594   0.438   2.390   1.365
 3210TIP3    H2 9595   0.395   2.470   1.486
 3211TIP3   OH2 9596   0.266   3.911   1.033
 3211TIP3    H1 9597   0.270   3.940   0.942
 3211TIP3    H2 9598   0.224   3.825   1.029
 3212TIP3   OH2 9599   1.074   4.762   1.183
 3212TIP3    H1 9600   1.044   4.695   1.121
 3212TIP3    H2 9601   1.004   4.767   1.248
 3213TIP3   OH2 9602   6.427   4.512   4.653
 3213TIP3    H1 9603   6.382   4.556   4.581
 3213TIP3    H2 9604   6.488   4.452   4.610
 3214TIP3   OH2 9605   0.505   2.107   4.593
 3214TIP3    H1 9606   0.587   2.081   4.551
 3214TIP3    H2 9607   0.515   2.079   4.684
 3215TIP3   OH2 9608   0.134   6.636   0.330
 3215TIP3    H1 9609   0.051   6.588   0.322
 3215TIP3    H2 9610   0.164   6.617   0.419
 3216TIP3   OH2 9611   6.923   3.184   0.807
 3216TIP3    H1 9612   6.927   3.270   0.765
 3216TIP3    H2 9613   6.986   3.190   0.879
 3217TIP3   OH2 9614   4.189   3.810   2.632
 3217TIP3    H1 9615   4.188   3.716   2.613
 3217TIP3    H2 9616   4.280   3.830   2.651
 3218TIP3   OH2 9617   5.359   5.769   4.669
 3218TIP3    H1 9618   5.407   5.836   4.619
 3218TIP3    H2 9619   5.314   5.818   4.737
 3219TIP3   OH2 9620   0.767   4.295   4.424
 3219TIP3    H1 9621   0.768   4.389   4.444
 3219TIP3    H2 9622   0.854   4.264   4.449
 3220TIP3   OH2 9623  -0.027   1.599   1.397
 3220TIP3    H1 9624   0.028   1.635   1.467
 3220TIP3    H2 9625   0.018   1.519   1.370
 3221TIP3   OH2 9626   3.147   1.974   2.749
 3221TIP3    H1 9627   3.171   2.067   2.747
 3221TIP3    H2 9628   3.136   1.954   2.842
 3222TIP3   OH2 9629   4.435   1.712   0.117
 3222TIP3    H1 9630   4.480   1.787   0.078
 3222TIP3    H2 9631   4.500   1.673   0.176
 3223TIP3   OH2 9632   1.250   5.122   2.370
 3223TIP3    H1 9633   1.183   5.109   2.437
 3223TIP3    H2 9634   1.229   5.058   2.302
 3224TIP3   OH2 9635   6.847   6.470   0.246
 3224TIP3    H1 9636   6.754   6.484   0.265
 3224TIP3    H2 9637   6.848   6.394   0.188
 3225TIP3   OH2 9638   4.381   2.509   1.588
 3225TIP3    H1 9639   4.402   2.492   1.496
 3225TIP3    H2 9640   4.463   2.497   1.635
 3226TIP3   OH2 9641   2.460   2.772   5.689
 3226TIP3    H1 9642   2.438   2.858   5.727
 3226TIP3    H2 9643   2.536   2.790   5.633
 3227TIP3   OH2 9644   1.184   1.088   3.536
 3227TIP3    H1 9645   1.191   1.172   3.490
 3227TIP3    H2 9646   1.172   1.023   3.467
 3228TIP3   OH2 9647   4.758   2.830   2.387
 3228TIP3    H1 9648   4.850   2.807   2.395
 3228TIP3    H2 9649   4.730   2.789   2.305
 3229TIP3   OH2 9650   1.958   4.393   5.517
 3229TIP3    H1 9651   1.962   4.457   5.588
 3229TIP3    H2 9652   2.049   4.378   5.492
 3230TIP3   OH2 9653   4.441   4.440   0.620
 3230TIP3    H1 9654   4.370   4.380   0.596
 3230TIP3    H2 9655   4.464   4.484   0.538
 3231TIP3   OH2 9656  -0.002   4.625   3.875
 3231TIP3    H1 9657   0.086   4.616   3.911
 3231TIP3    H2 9658   0.005   4.596   3.785
 3232TIP3   OH2 9659   0.482   4.895   0.966
 3232TIP3    H1 9660   0.387   4.902   0.957
 3232TIP3    H2 9661   0.513   4.985   0.975
 3233TIP3   OH2 9662   5.188   2.553   1.610
 3233TIP3    H1 9663   5.219   2.504   1.534
 3233TIP3    H2 9664   5.221   2.504   1.685
 3234TIP3   OH2 9665   4.896   3.893   3.303
 3234TIP3    H1 9666   4.898   3.923   3.394
 3234TIP3    H2 9667   4.937   3.964   3.254
 3235TIP3   OH2 9668   4.923   4.051   4.800
 3235TIP3    H1 9669   4.849   4.108   4.824
 3235TIP3    H2 9670   4.942   4.073   4.709
 3236TIP3   OH2 9671   6.575   3.923   4.815
 3236TIP3    H1 9672   6.511   3.864   4.854
 3236TIP3    H2 9673   6.527   4.004   4.801
 3237TIP3   OH2 9674   6.097   4.799   4.232
 3237TIP3    H1 9675   6.118   4.876   4.286
 3237TIP3    H2 9676   6.118   4.825   4.143
 3238TIP3   OH2 9677   1.740   4.843   1.552
 3238TIP3    H1 9678   1.649   4.840   1.521
 3238TIP3    H2 9679   1.793   4.843   1.472
 3239TIP3   OH2 9680   4.986   1.354   3.902
 3239TIP3    H1 9681   4.949   1.355   3.991
 3239TIP3    H2 9682   5.016   1.264   3.889
 3240TIP3   OH2 9683   1.906   2.767   3.365
 3240TIP3    H1 9684   1.899   2.679   3.402
 3240TIP3    H2 9685   1.816   2.796   3.354
 3241TIP3   OH2 9686   0.387   2.176   5.125
 3241TIP3    H1 9687   0.439   2.110   5.172
 3241TIP3    H2 9688   0.302   2.134   5.110
 3242TIP3   OH2 9689   0.785   2.830   0.386
 3242TIP3    H1 9690   0.783   2.757   0.325
 3242TIP3    H2 9691   0.860   2.812   0.443
 3243TIP3   OH2 9692   6.456   2.939   1.999
 3243TIP3    H1 9693   6.487   2.971   1.914
 3243TIP3    H2 9694   6.487   3.004   2.062
 3244TIP3   OH2 9695   2.102   3.485   0.049
 3244TIP3    H1 9696   2.177   3.476  -0.009
 3244TIP3    H2 9697   2.087   3.579   0.054
 3245TIP3   OH2 9698   6.304   1.673   0.096
 3245TIP3    H1 9699   6.338   1.753   0.055
 3245TIP3    H2 9700   6.377   1.642   0.150
 3246TIP3   OH2 9701   6.257   3.592   3.229
 3246TIP3    H1 9702   6.289   3.539   3.302
 3246TIP3    H2 9703   6.288   3.545   3.151
 3247TIP3   OH2 9704   5.203   0.579   0.815
 3247TIP3    H1 9705   5.236   0.489   0.815
 3247TIP3    H2 9706   5.157   0.588   0.732
 3248TIP3   OH2 9707   0.305   3.902   5.622
 3248TIP3    H1 9708   0.328   3.994   5.613
 3248TIP3    H2 9709   0.320   3.865   5.535
 3249TIP3   OH2 9710   5.596   3.451   2.788
 3249TIP3    H1 9711   5.611   3.457   2.882
 3249TIP3    H2 9712   5.594   3.357   2.770
 3250TIP3   OH2 9713   6.430   3.959   5.359
 3250TIP3    H1 9714   6.445   3.867   5.381
 3250TIP3    H2 9715   6.371   3.991   5.427
 3251TIP3   OH2 9716   2.424   3.738   0.173
 3251TIP3    H1 9717   2.343   3.709   0.215
 3251TIP3    H2 9718   2.491   3.729   0.240
 3252TIP3   OH2 9719   2.449   6.448   1.057
 3252TIP3    H1 9720   2.520   6.484   1.109
 3252TIP3    H2 9721   2.438   6.358   1.090
 3253TIP3   OH2 9722   3.161   0.141   5.289
 3253TIP3    H1 9723   3.169   0.236   5.301
 3253TIP3    H2 9724   3.105   0.131   5.212
 3254TIP3   OH2 9725   7.211   5.421   0.923
 3254TIP3    H1 9726   7.204   5.513   0.895
 3254TIP3    H2 9727   7.229   5.426   1.017
 3255TIP3   OH2 9728   4.295   4.488   1.984
 3255TIP3    H1 9729   4.297   4.497   2.079
 3255TIP3    H2 9730   4.202   4.491   1.962
 3256TIP3   OH2 9731   2.251   0.778   5.623
 3256TIP3    H1 9732   2.251   0.849   5.688
 3256TIP3    H2 9733   2.217   0.702   5.671
 3257TIP3   OH2 9734   2.356   6.446   3.506
 3257TIP3    H1 9735   2.411   6.516   3.541
 3257TIP3    H2 9736   2.300   6.490   3.442
 3258TIP3   OH2 9737   2.664   3.947   5.104
 3258TIP3    H1 9738   2.703   3.909   5.025
 3258TIP3    H2 9739   2.570   3.936   5.092
 3259TIP3   OH2 9740   0.881   5.432   1.088
 3259TIP3    H1 9741   0.962   5.459   1.045
 3259TIP3    H2 9742   0.828   5.511   1.091
 3260TIP3   OH2 9743   5.143   2.956   5.854
 3260TIP3    H1 9744   5.211   2.943   5.788
 3260TIP3    H2 9745   5.078   3.012   5.812
 3261TIP3   OH2 9746   1.605   0.675   1.504
 3261TIP3    H1 9747   1.696   0.676   1.472
 3261TIP3    H2 9748   1.613   0.685   1.599
 3262TIP3   OH2 9749   1.085   3.547   1.336
 3262TIP3    H1 9750   1.002   3.581   1.305
 3262TIP3    H2 9751   1.071   3.453   1.344
 3263TIP3   OH2 9752   2.507   2.345   1.723
 3263TIP3    H1 9753   2.549   2.318   1.804
 3263TIP3    H2 9754   2.414   2.326   1.736
 3264TIP3   OH2 9755   3.832   1.658   2.123
 3264TIP3    H1 9756   3.830   1.704   2.207
 3264TIP3    H2 9757   3.898   1.705   2.072
 3265TIP3   OH2 9758   5.231   1.319   1.918
 3265TIP3    H1 9759   5.239   1.393   1.858
 3265TIP3    H2 9760   5.268   1.245   1.870
 3266TIP3   OH2 9761   6.181   0.748   2.868
 3266TIP3    H1 9762   6.275   0.740   2.852
 3266TIP3    H2 9763   6.167   0.706   2.954
 3267TIP3   OH2 9764   5.148   4.232   0.162
 3267TIP3    H1 9765   5.200   4.183   0.226
 3267TIP3    H2 9766   5.114   4.165   0.102
 3268TIP3   OH2 9767   7.028   2.077   3.300
 3268TIP3    H1 9768   7.067   2.032   3.224
 3268TIP3    H2 9769   7.005   2.164   3.267
 3269TIP3   OH2 9770   1.938   1.064   3.052
 3269TIP3    H1 9771   1.894   0.980   3.070
 3269TIP3    H2 9772   1.873   1.114   3.003
 3270TIP3   OH2 9773   0.602   1.542   0.404
 3270TIP3    H1 9774   0.600   1.487   0.326
 3270TIP3    H2 9775   0.596   1.480   0.477
 3271TIP3   OH2 9776   1.376   5.020   3.795
 3271TIP3    H1 9777   1.344   4.946   3.743
 3271TIP3    H2 9778   1.442   4.983   3.853
 3272TIP3   OH2 9779   5.046   2.497   2.024
 3272TIP3    H1 9780   5.137   2.469   2.013
 3272TIP3    H2 9781   5.002   2.467   1.945
 3273TIP3   OH2 9782   2.920   4.662   5.496
 3273TIP3    H1 9783   2.854   4.595   5.511
 3273TIP3    H2 9784   2.875   4.745   5.516
 3274TIP3   OH2 9785   2.253   3.893   3.155
 3274TIP3    H1 9786   2.214   3.824   3.208
 3274TIP3    H2 9787   2.216   3.881   3.067
 3275TIP3   OH2 9788   3.456   2.145   4.057
 3275TIP3    H1 9789   3.464   2.149   4.152
 3275TIP3    H2 9790   3.375   2.096   4.041
 3276TIP3   OH2 9791   1.621   5.463   4.553
 3276TIP3    H1 9792   1.646   5.394   4.491
 3276TIP3    H2 9793   1.639   5.426   4.639
 3277TIP3   OH2 9794   6.433   3.494   4.564
 3277TIP3    H1 9795   6.490   3.421   4.545
 3277TIP3    H2 9796   6.346   3.455   4.574
 3278TIP3   OH2 9797   1.737   3.756   0.452
 3278TIP3    H1 9798   1.643   3.776   0.450
 3278TIP3    H2 9799   1.778   3.836   0.485
 3279TIP3   OH2 9800   5.890   3.831   1.183
 3279TIP3    H1 9801   5.834   3.801   1.112
 3279TIP3    H2 9802   5.839   3.897   1.229
 3280TIP3   OH2 9803   2.484   5.812   3.055
 3280TIP3    H1 9804   2.483   5.864   3.136
 3280TIP3    H2 9805   2.501   5.876   2.986
 3281TIP3   OH2 9806   4.735   6.061   5.638
 3281TIP3    H1 9807   4.654   6.012   5.630
 3281TIP3    H2 9808   4.744   6.077   5.732
 3282TIP3   OH2 9809   3.853   0.052   5.680
 3282TIP3    H1 9810   3.910   0.059   5.757
 3282TIP3    H2 9811   3.885  -0.026   5.634
 3283TIP3   OH2 9812   4.969   2.982   2.036
 3283TIP3    H1 9813   4.874   2.995   2.033
 3283TIP3    H2 9814   4.980   2.899   2.081
 3284TIP3   OH2 9815   5.633   4.785   2.751
 3284TIP3    H1 9816   5.584   4.849   2.804
 3284TIP3    H2 9817   5.571   4.714   2.736
 3285TIP3   OH2 9818   7.029   1.595   5.648
 3285TIP3    H1 9819   6.986   1.550   5.721
 3285TIP3    H2 9820   7.009   1.541   5.572
 3286TIP3   OH2 9821   2.092   2.594   4.763
 3286TIP3    H1 9822   2.000   2.614   4.783
 3286TIP3    H2 9823   2.134   2.679   4.756
 3287TIP3   OH2 9824   3.610   4.191   3.818
 3287TIP3    H1 9825   3.527   4.237   3.807
 3287TIP3    H2 9826   3.589   4.099   3.804
 3288TIP3   OH2 9827   6.774   2.752   4.477
 3288TIP3    H1 9828   6.806   2.780   4.563
 3288TIP3    H2 9829   6.780   2.656   4.479
 3289TIP3   OH2 9830   4.656   1.748   4.875
 3289TIP3    H1 9831   4.672   1.841   4.890
 3289TIP3    H2 9832   4.723   1.704   4.928
 3290TIP3   OH2 9833   3.399   5.000   4.419
 3290TIP3    H1 9834   3.405   4.907   4.442
 3290TIP3    H2 9835   3.342   5.001   4.341
 3291TIP3   OH2 9836   4.431   3.177   5.194
 3291TIP3    H1 9837   4.481   3.258   5.207
 3291TIP3    H2 9838   4.389   3.189   5.109
 3292TIP3   OH2 9839   1.403   3.390   1.268
 3292TIP3    H1 9840   1.447   3.435   1.195
 3292TIP3    H2 9841   1.318   3.365   1.233
 3293TIP3   OH2 9842   4.643   5.460   0.212
 3293TIP3    H1 9843   4.703   5.489   0.281
 3293TIP3    H2 9844   4.652   5.365   0.211
 3294TIP3   OH2 9845   4.959   2.503   3.378
 3294TIP3    H1 9846   4.986   2.585   3.336
 3294TIP3    H2 9847   4.889   2.529   3.438
 3295TIP3   OH2 9848   5.214   5.980   4.830
 3295TIP3    H1 9849   5.236   6.066   4.866
 3295TIP3    H2 9850   5.121   5.969   4.851
 3296TIP3   OH2 9851   1.248   2.643   1.101
 3296TIP3    H1 9852   1.240   2.738   1.090
 3296TIP3    H2 9853   1.208   2.625   1.186
 3297TIP3   OH2 9854   0.550   0.320   2.286
 3297TIP3    H1 9855   0.621   0.278   2.334
 3297TIP3    H2 9856   0.580   0.410   2.273
 3298TIP3   OH2 9857   4.351   3.232   4.817
 3298TIP3    H1 9858   4.299   3.238   4.897
 3298TIP3    H2 9859   4.336   3.144   4.785
 3299TIP3   OH2 9860   6.323   1.062   2.549
 3299TIP3    H1 9861   6.292   1.018   2.469
 3299TIP3    H2 9862   6.252   1.050   2.612
 3300TIP3   OH2 9863   4.830   6.666   3.022
 3300TIP3    H1 9864   4.860   6.578   2.996
 3300TIP3    H2 9865   4.745   6.651   3.063
 3301TIP3   OH2 9866   2.146   0.899   2.294
 3301TIP3    H1 9867   2.156   0.840   2.220
 3301TIP3    H2 9868   2.118   0.982   2.254
 3302TIP3   OH2 9869   4.108   3.066   2.852
 3302TIP3    H1 9870   4.058   3.129   2.802
 3302TIP3    H2 9871   4.158   3.016   2.787
 3303TIP3   OH2 9872   4.412   1.950   3.014
 3303TIP3    H1 9873   4.501   1.935   3.046
 3303TIP3    H2 9874   4.389   2.038   3.045
 3304TIP3   OH2 9875   6.886   2.289   2.857
 3304TIP3    H1 9876   6.881   2.211   2.802
 3304TIP3    H2 9877   6.820   2.275   2.925
 3305TIP3   OH2 9878   0.235   3.158   5.787
 3305TIP3    H1 9879   0.142   3.173   5.767
 3305TIP3    H2 9880   0.234   3.089   5.854
 3306TIP3   OH2 9881   2.660   6.725   2.950
 3306TIP3    H1 9882   2.687   6.661   2.883
 3306TIP3    H2 9883   2.586   6.682   2.994
 3307TIP3   OH2 9884   3.467   4.739   2.195
 3307TIP3    H1 9885   3.411   4.716   2.269
 3307TIP3    H2 9886   3.508   4.822   2.221
 3308TIP3   OH2 9887   3.791   4.183   5.107
 3308TIP3    H1 9888   3.776   4.271   5.142
 3308TIP3    H2 9889   3.829   4.135   5.181
 3309TIP3   OH2 9890   2.230   6.304   0.352
 3309TIP3    H1 9891   2.144   6.330   0.318
 3309TIP3    H2 9892   2.244   6.216   0.318
 3310TIP3   OH2 9893   1.805   5.858   2.462
 3310TIP3    H1 9894   1.749   5.785   2.438
 3310TIP3    H2 9895   1.877   5.819   2.511
 3311TIP3   OH2 9896   2.378   5.483   3.294
 3311TIP3    H1 9897   2.330   5.472   3.212
 3311TIP3    H2 9898   2.416   5.396   3.312
 3312TIP3   OH2 9899   5.243   1.239   1.195
 3312TIP3    H1 9900   5.148   1.249   1.204
 3312TIP3    H2 9901   5.278   1.324   1.221
 3313TIP3   OH2 9902   1.115   4.003   5.424
 3313TIP3    H1 9903   1.163   3.948   5.486
 3313TIP3    H2 9904   1.080   3.941   5.359
 3314TIP3   OH2 9905   3.690   2.710   5.039
 3314TIP3    H1 9906   3.722   2.739   4.954
 3314TIP3    H2 9907   3.616   2.768   5.057
 3315TIP3   OH2 9908   4.148   3.764   3.760
 3315TIP3    H1 9909   4.207   3.699   3.798
 3315TIP3    H2 9910   4.193   3.848   3.774
 3316TIP3   OH2 9911   2.850   3.373   3.710
 3316TIP3    H1 9912   2.869   3.287   3.749
 3316TIP3    H2 9913   2.755   3.377   3.706
 3317TIP3   OH2 9914   6.687   5.399   4.937
 3317TIP3    H1 9915   6.638   5.325   4.973
 3317TIP3    H2 9916   6.699   5.458   5.012
 3318TIP3   OH2 9917   2.803   4.852   0.334
 3318TIP3    H1 9918   2.789   4.773   0.385
 3318TIP3    H2 9919   2.729   4.909   0.356
 3319TIP3   OH2 9920   1.746   0.902   4.497
 3319TIP3    H1 9921   1.695   0.831   4.456
 3319TIP3    H2 9922   1.747   0.972   4.432
 3320TIP3   OH2 9923   6.229   5.016   5.337
 3320TIP3    H1 9924   6.241   5.046   5.247
 3320TIP3    H2 9925   6.188   5.090   5.381
 3321TIP3   OH2 9926   2.475   3.946   3.632
 3321TIP3    H1 9927   2.483   3.986   3.546
 3321TIP3    H2 9928   2.438   4.016   3.687
 3322TIP3   OH2 9929   0.827   6.164   2.513
 3322TIP3    H1 9930   0.783   6.083   2.540
 3322TIP3    H2 9931   0.905   6.134   2.465
 3323TIP3   OH2 9932   5.303   3.196   4.500
 3323TIP3    H1 9933   5.398   3.194   4.513
 3323TIP3    H2 9934   5.292   3.219   4.407
 3324TIP3   OH2 9935   0.724   0.849   2.945
 3324TIP3    H1 9936   0.635   0.886   2.941
 3324TIP3    H2 9937   0.727   0.801   3.028
 3325TIP3   OH2 9938   6.643   1.741   1.342
 3325TIP3    H1 9939   6.710   1.809   1.334
 3325TIP3    H2 9940   6.642   1.720   1.435
 3326TIP3   OH2 9941   6.834   5.269   1.575
 3326TIP3    H1 9942   6.774   5.194   1.577
 3326TIP3    H2 9943   6.918   5.233   1.604
 3327TIP3   OH2 9944   6.565   3.822   3.873
 3327TIP3    H1 9945   6.545   3.738   3.915
 3327TIP3    H2 9946   6.487   3.875   3.888
 3328TIP3   OH2 9947   1.744   4.972   0.770
 3328TIP3    H1 9948   1.699   4.900   0.725
 3328TIP3    H2 9949   1.697   4.981   0.853
 3329TIP3   OH2 9950   1.615   4.125   1.031
 3329TIP3    H1 9951   1.555   4.116   0.957
 3329TIP3    H2 9952   1.558   4.126   1.108
 3330TIP3   OH2 9953   3.121   2.049   2.460
 3330TIP3    H1 9954   3.042   2.065   2.512
 3330TIP3    H2 9955   3.104   1.966   2.416
 3331TIP3   OH2 9956   2.017   2.766   5.212
 3331TIP3    H1 9957   2.089   2.799   5.158
 3331TIP3    H2 9958   1.975   2.845   5.246
 3332TIP3   OH2 9959   0.962   1.265   3.427
 3332TIP3    H1 9960   0.897   1.334   3.439
 3332TIP3    H2 9961   0.922   1.187   3.465
 3333TIP3   OH2 9962   3.710   0.739   3.658
 3333TIP3    H1 9963   3.802   0.731   3.634
 3333TIP3    H2 9964   3.662   0.710   3.581
 3334TIP3   OH2 9965   2.415   3.070   4.799
 3334TIP3    H1 9966   2.415   2.987   4.846
 3334TIP3    H2 9967   2.478   3.057   4.728
 3335TIP3   OH2 9968   6.495   0.875   2.750
 3335TIP3    H1 9969   6.416   0.911   2.710
 3335TIP3    H2 9970   6.540   0.951   2.787
 3336TIP3   OH2 9971   7.143   0.892   5.417
 3336TIP3    H1 9972   7.091   0.924   5.491
 3336TIP3    H2 9973   7.082   0.895   5.342
 3337TIP3   OH2 9974   2.154   4.685   4.329
 3337TIP3    H1 9975   2.196   4.663   4.412
 3337TIP3    H2 9976   2.132   4.778   4.338
 3338TIP3   OH2 9977   0.347   3.935   0.212
 3338TIP3    H1 9978   0.338   4.014   0.158
 3338TIP3    H2 9979   0.441   3.918   0.214
 3339TIP3   OH2 9980   2.102   2.357  -0.007
 3339TIP3    H1 9981   2.123   2.278   0.043
 3339TIP3    H2 9982   2.122   2.429   0.052
 3340TIP3   OH2 9983   3.825   2.467   3.254
 3340TIP3    H1 9984   3.880   2.515   3.316
 3340TIP3    H2 9985   3.757   2.428   3.307
 3341TIP3   OH2 9986   2.007   5.148   5.096
 3341TIP3    H1 9987   1.969   5.211   5.157
 3341TIP3    H2 9988   2.008   5.065   5.144
 3342TIP3   OH2 9989   6.437   4.981   2.996
 3342TIP3    H1 9990   6.509   4.935   2.954
 3342TIP3    H2 9991   6.358   4.935   2.966
 3343TIP3   OH2 9992   4.763   2.678   0.311
 3343TIP3    H1 9993   4.708   2.697   0.236
 3343TIP3    H2 9994   4.851   2.706   0.284
 3344TIP3   OH2 9995   7.135   0.370   5.142
 3344TIP3    H1 9996   7.155   0.277   5.128
 3344TIP3    H2 9997   7.160   0.413   5.060
 3345TIP3   OH2 9998   7.077   1.464   2.776
 3345TIP3    H1 9999   7.029   1.394   2.731
 3345TIP3    H210000   7.035   1.470   2.862
 3346TIP3   OH210001   2.902   2.198   1.784
 3346TIP3    H110002   2.884   2.275   1.730
 3346TIP3    H210003   2.883   2.227   1.873
 3347TIP3   OH210004   1.478   3.696   3.501
 3347TIP3    H110005   1.515   3.781   3.525
 3347TIP3    H210006   1.543   3.632   3.530
 3348TIP3   OH210007   4.713   0.609   5.265
 3348TIP3    H110008   4.744   0.522   5.290
 3348TIP3    H210009   4.738   0.617   5.173
 3349TIP3   OH210010   7.047   0.453   4.123
 3349TIP3    H110011   6.975   0.466   4.184
 3349TIP3    H210012   7.066   0.541   4.089
 3350TIP3   OH210013   0.870   6.674   5.285
 3350TIP3    H110014   0.830   6.760   5.292
 3350TIP3    H210015   0.895   6.651   5.374
 3351TIP3   OH210016   7.034   5.294   5.553
 3351TIP3    H110017   6.941   5.313   5.544
 3351TIP3    H210018   7.048   5.217   5.498
 3352TIP3   OH210019   0.036   1.340   4.324
 3352TIP3    H110020  -0.045   1.364   4.370
 3352TIP3    H210021   0.020   1.365   4.233
 3353TIP3   OH210022   1.953   5.164   2.703
 3353TIP3    H110023   1.859   5.174   2.690
 3353TIP3    H210024   1.979   5.092   2.645
 3354TIP3   OH210025   6.462   5.026   1.742
 3354TIP3    H110026   6.503   4.999   1.824
 3354TIP3    H210027   6.382   4.974   1.736
 3355TIP3   OH210028   1.899   2.747   1.836
 3355TIP3    H110029   1.988   2.770   1.861
 3355TIP3    H210030   1.843   2.786   1.904
 3356TIP3   OH210031   4.536   2.918   5.174
 3356TIP3    H110032   4.473   2.982   5.206
 3356TIP3    H210033   4.614   2.970   5.152
 3357TIP3   OH210034   0.020   2.554   3.500
 3357TIP3    H110035   0.076   2.509   3.562
 3357TIP3    H210036   0.072   2.561   3.420
 3358TIP3   OH210037   4.336   4.002   0.399
 3358TIP3    H110038   4.346   4.043   0.313
 3358TIP3    H210039   4.384   3.920   0.392
 3359TIP3   OH210040   7.112   6.212   0.218
 3359TIP3    H110041   7.198   6.200   0.178
 3359TIP3    H210042   7.107   6.305   0.241
 3360TIP3   OH210043   1.523   2.543   1.885
 3360TIP3    H110044   1.465   2.511   1.954
 3360TIP3    H210045   1.464   2.587   1.823
 3361TIP3   OH210046   4.220   4.150   4.007
 3361TIP3    H110047   4.299   4.204   4.004
 3361TIP3    H210048   4.241   4.074   3.952
 3362TIP3   OH210049   5.686   2.577   2.461
 3362TIP3    H110050   5.738   2.549   2.386
 3362TIP3    H210051   5.595   2.574   2.430
 3363TIP3   OH210052   6.337   0.509   0.990
 3363TIP3    H110053   6.313   0.560   0.913
 3363TIP3    H210054   6.254   0.485   1.030
 3364TIP3   OH210055   0.958   3.509   3.950
 3364TIP3    H110056   0.943   3.604   3.945
 3364TIP3    H210057   0.888   3.477   4.005
 3365TIP3   OH210058   7.063   3.773   5.519
 3365TIP3    H110059   7.008   3.718   5.463
 3365TIP3    H210060   7.048   3.741   5.608
 3366TIP3   OH210061   2.903   5.759   0.233
 3366TIP3    H110062   2.938   5.807   0.308
 3366TIP3    H210063   2.824   5.716   0.267
 3367TIP3   OH210064   5.914   0.068   4.367
 3367TIP3    H110065   5.907  -0.003   4.302
 3367TIP3    H210066   5.976   0.035   4.432
 3368TIP3   OH210067   0.931   5.298   2.354
 3368TIP3    H110068   0.927   5.211   2.393
 3368TIP3    H210069   0.921   5.283   2.260
 3369TIP3   OH210070   6.588   1.383   0.616
 3369TIP3    H110071   6.672   1.382   0.570
 3369TIP3    H210072   6.571   1.476   0.632
 3370TIP3   OH210073   5.434   4.142   2.537
 3370TIP3    H110074   5.387   4.125   2.455
 3370TIP3    H210075   5.525   4.151   2.511
 3371TIP3   OH210076   5.815   5.389   2.449
 3371TIP3    H110077   5.894   5.353   2.489
 3371TIP3    H210078   5.748   5.322   2.463
 3372TIP3   OH210079   5.358   3.882   5.865
 3372TIP3    H110080   5.369   3.870   5.771
 3372TIP3    H210081   5.389   3.971   5.882
 3373TIP3   OH210082   2.167   1.612   3.419
 3373TIP3    H110083   2.198   1.653   3.339
 3373TIP3    H210084   2.215   1.656   3.489
 3374TIP3   OH210085   2.631   6.769   1.676
 3374TIP3    H110086   2.689   6.811   1.739
 3374TIP3    H210087   2.644   6.675   1.688
 3375TIP3   OH210088   2.677   0.259   3.317
 3375TIP3    H110089   2.664   0.219   3.231
 3375TIP3    H210090   2.769   0.282   3.320
 3376TIP3   OH210091   1.472   1.567   2.037
 3376TIP3    H110092   1.535   1.552   1.966
 3376TIP3    H210093   1.414   1.635   2.003
 3377TIP3   OH210094   4.054   1.404   2.990
 3377TIP3    H110095   4.066   1.365   3.077
 3377TIP3    H210096   4.068   1.331   2.930
 3378TIP3   OH210097   3.069   1.948   4.615
 3378TIP3    H110098   3.043   1.954   4.523
 3378TIP3    H210099   3.130   1.874   4.618
 3379TIP3   OH210100   3.235   3.147   4.522
 3379TIP3    H110101   3.278   3.166   4.605
 3379TIP3    H210102   3.301   3.169   4.455
 3380TIP3   OH210103   4.662   3.755   4.475
 3380TIP3    H110104   4.656   3.737   4.381
 3380TIP3    H210105   4.633   3.846   4.483
 3381TIP3   OH210106   6.614   1.148   4.537
 3381TIP3    H110107   6.695   1.175   4.581
 3381TIP3    H210108   6.577   1.229   4.503
 3382TIP3   OH210109   6.046   0.367   4.603
 3382TIP3    H110110   6.114   0.313   4.562
 3382TIP3    H210111   6.028   0.435   4.539
 3383TIP3   OH210112   2.231   2.979   1.091
 3383TIP3    H110113   2.140   2.954   1.076
 3383TIP3    H210114   2.268   2.906   1.141
 3384TIP3   OH210115   6.499   3.401   1.768
 3384TIP3    H110116   6.431   3.334   1.763
 3384TIP3    H210117   6.522   3.405   1.861
 3385TIP3   OH210118   4.913   3.877   2.267
 3385TIP3    H110119   4.904   3.866   2.173
 3385TIP3    H210120   4.831   3.918   2.294
 3386TIP3   OH210121   2.025   3.786   5.720
 3386TIP3    H110122   2.056   3.871   5.689
 3386TIP3    H210123   2.003   3.801   5.812
 3387TIP3   OH210124   2.862   3.568   5.206
 3387TIP3    H110125   2.790   3.510   5.181
 3387TIP3    H210126   2.850   3.646   5.151
 3388TIP3   OH210127   4.327   0.918   2.105
 3388TIP3    H110128   4.356   0.875   2.186
 3388TIP3    H210129   4.397   0.898   2.042
 3389TIP3   OH210130   2.055   4.760   3.888
 3389TIP3    H110131   2.049   4.812   3.808
 3389TIP3    H210132   2.148   4.750   3.904
 3390TIP3   OH210133   4.211   5.249   3.023
 3390TIP3    H110134   4.244   5.165   3.055
 3390TIP3    H210135   4.264   5.315   3.068
 3391TIP3   OH210136   5.739   3.473   3.423
 3391TIP3    H110137   5.741   3.393   3.370
 3391TIP3    H210138   5.645   3.491   3.435
 3392TIP3   OH210139   5.813   2.612   1.630
 3392TIP3    H110140   5.738   2.572   1.673
 3392TIP3    H210141   5.851   2.670   1.696
 3393TIP3   OH210142   0.157   2.919   1.775
 3393TIP3    H110143   0.143   2.858   1.847
 3393TIP3    H210144   0.079   2.974   1.774
 3394TIP3   OH210145   7.010   1.736   3.569
 3394TIP3    H110146   7.027   1.685   3.648
 3394TIP3    H210147   6.918   1.761   3.575
 3395TIP3   OH210148   4.997   1.023   1.334
 3395TIP3    H110149   4.972   1.088   1.268
 3395TIP3    H210150   5.072   0.977   1.295
 3396TIP3   OH210151   4.160   0.572   1.662
 3396TIP3    H110152   4.149   0.506   1.731
 3396TIP3    H210153   4.255   0.577   1.649
 3397TIP3   OH210154   0.538   1.252   2.490
 3397TIP3    H110155   0.503   1.180   2.543
 3397TIP3    H210156   0.626   1.267   2.524
 3398TIP3   OH210157   1.707   0.368   2.762
 3398TIP3    H110158   1.797   0.346   2.786
 3398TIP3    H210159   1.682   0.304   2.697
 3399TIP3   OH210160   0.369   3.926   0.479
 3399TIP3    H110161   0.387   3.832   0.479
 3399TIP3    H210162   0.375   3.952   0.387
 3400TIP3   OH210163   3.110   1.163   4.978
 3400TIP3    H110164   3.094   1.115   4.897
 3400TIP3    H210165   3.197   1.136   5.006
 3401TIP3   OH210166   1.777   2.640   2.346
 3401TIP3    H110167   1.757   2.646   2.253
 3401TIP3    H210168   1.872   2.631   2.350
 3402TIP3   OH210169   1.752   0.248   3.523
 3402TIP3    H110170   1.716   0.170   3.480
 3402TIP3    H210171   1.828   0.217   3.571
 3403TIP3   OH210172   1.146   2.901   1.059
 3403TIP3    H110173   1.141   2.921   0.966
 3403TIP3    H210174   1.055   2.907   1.089
 3404TIP3   OH210175   3.913   4.800   3.116
 3404TIP3    H110176   3.961   4.880   3.093
 3404TIP3    H210177   3.974   4.729   3.097
 3405TIP3   OH210178   3.351   0.848   0.455
 3405TIP3    H110179   3.399   0.826   0.375
 3405TIP3    H210180   3.299   0.925   0.431
 3406TIP3   OH210181   0.964   1.128   1.920
 3406TIP3    H110182   0.895   1.181   1.961
 3406TIP3    H210183   0.984   1.175   1.839
 3407TIP3   OH210184   6.899   4.274   0.446
 3407TIP3    H110185   6.832   4.305   0.384
 3407TIP3    H210186   6.853   4.268   0.529
 3408TIP3   OH210187   1.337   5.577   2.553
 3408TIP3    H110188   1.365   5.663   2.524
 3408TIP3    H210189   1.255   5.592   2.599
 3409TIP3   OH210190   2.759   4.459   2.438
 3409TIP3    H110191   2.768   4.370   2.403
 3409TIP3    H210192   2.838   4.473   2.490
 3410TIP3   OH210193   6.309   6.330   2.153
 3410TIP3    H110194   6.393   6.340   2.109
 3410TIP3    H210195   6.247   6.379   2.098
 3411TIP3   OH210196   5.890   3.168   0.325
 3411TIP3    H110197   5.826   3.102   0.298
 3411TIP3    H210198   5.958   3.165   0.258
 3412TIP3   OH210199   4.611   2.429   1.747
 3412TIP3    H110200   4.539   2.388   1.795
 3412TIP3    H210201   4.664   2.471   1.816
 3413TIP3   OH210202   5.698   0.396   0.500
 3413TIP3    H110203   5.602   0.391   0.500
 3413TIP3    H210204   5.724   0.344   0.424
 3414TIP3   OH210205   4.536   0.549   4.987
 3414TIP3    H110206   4.625   0.573   4.960
 3414TIP3    H210207   4.534   0.566   5.082
 3415TIP3   OH210208   4.651   4.917   2.569
 3415TIP3    H110209   4.710   4.855   2.611
 3415TIP3    H210210   4.689   5.003   2.590
 3416TIP3   OH210211   3.001   1.233   3.492
 3416TIP3    H110212   2.948   1.157   3.516
 3416TIP3    H210213   3.083   1.221   3.539
 3417TIP3   OH210214   1.556   3.954   3.525
 3417TIP3    H110215   1.471   3.978   3.562
 3417TIP3    H210216   1.614   4.025   3.553
 3418TIP3   OH210217   0.147   2.368   3.664
 3418TIP3    H110218   0.228   2.391   3.710
 3418TIP3    H210219   0.163   2.281   3.629
 3419TIP3   OH210220   1.263   2.811   3.156
 3419TIP3    H110221   1.248   2.902   3.181
 3419TIP3    H210222   1.320   2.816   3.079
 3420TIP3   OH210223   1.946   4.549   0.104
 3420TIP3    H110224   1.934   4.567   0.197
 3420TIP3    H210225   2.041   4.552   0.091
 3421TIP3   OH210226   4.460   3.234   5.802
 3421TIP3    H110227   4.522   3.208   5.734
 3421TIP3    H210228   4.447   3.328   5.789
 3422TIP3   OH210229   0.870   0.762   1.576
 3422TIP3    H110230   0.901   0.676   1.606
 3422TIP3    H210231   0.935   0.824   1.609
 3423TIP3   OH210232   7.222   5.454   5.631
 3423TIP3    H110233   7.283   5.426   5.563
 3423TIP3    H210234   7.142   5.404   5.613
 3424TIP3   OH210235  -0.007   5.221   2.362
 3424TIP3    H110236   0.041   5.186   2.437
 3424TIP3    H210237  -0.006   5.316   2.376
 3425TIP3   OH210238   2.372   0.295   3.081
 3425TIP3    H110239   2.440   0.237   3.046
 3425TIP3    H210240   2.294   0.274   3.030
 3426TIP3   OH210241   5.483   1.960   0.819
 3426TIP3    H110242   5.561   2.002   0.857
 3426TIP3    H210243   5.425   2.033   0.797
 3427TIP3   OH210244   4.530   5.565   0.821
 3427TIP3    H110245   4.597   5.559   0.888
 3427TIP3    H210246   4.482   5.645   0.841
 3428TIP3   OH210247   5.107   1.211   3.573
 3428TIP3    H110248   5.117   1.218   3.668
 3428TIP3    H210249   5.013   1.202   3.560
 3429TIP3   OH210250   0.664   0.988   3.880
 3429TIP3    H110251   0.649   1.054   3.948
 3429TIP3    H210252   0.594   0.923   3.893
 3430TIP3   OH210253   7.046   0.285   0.508
 3430TIP3    H110254   7.031   0.320   0.596
 3430TIP3    H210255   7.022   0.193   0.514
 3431TIP3   OH210256   6.394   0.920   4.935
 3431TIP3    H110257   6.375   0.862   4.861
 3431TIP3    H210258   6.375   1.008   4.902
 3432TIP3   OH210259   3.801   1.388   5.238
 3432TIP3    H110260   3.798   1.470   5.189
 3432TIP3    H210261   3.815   1.320   5.172
 3433TIP3   OH210262   7.099   0.232   1.539
 3433TIP3    H110263   7.080   0.150   1.495
 3433TIP3    H210264   7.162   0.209   1.607
 3434TIP3   OH210265   5.002   4.520   1.196
 3434TIP3    H110266   4.950   4.472   1.260
 3434TIP3    H210267   5.064   4.456   1.162
 3435TIP3   OH210268   0.240   2.911   4.999
 3435TIP3    H110269   0.164   2.933   5.053
 3435TIP3    H210270   0.287   2.994   4.990
 3436TIP3   OH210271   6.003   4.335   1.539
 3436TIP3    H110272   5.997   4.239   1.537
 3436TIP3    H210273   5.925   4.363   1.587
 3437TIP3   OH210274   2.915   4.244   0.837
 3437TIP3    H110275   2.987   4.181   0.830
 3437TIP3    H210276   2.900   4.254   0.931
 3438TIP3   OH210277   6.032   6.598   2.658
 3438TIP3    H110278   6.099   6.653   2.619
 3438TIP3    H210279   5.949   6.641   2.636
 3439TIP3   OH210280   3.022   0.930   1.508
 3439TIP3    H110281   3.011   0.989   1.433
 3439TIP3    H210282   2.960   0.859   1.491
 3440TIP3   OH210283   6.205   2.151   1.113
 3440TIP3    H110284   6.172   2.149   1.203
 3440TIP3    H210285   6.131   2.123   1.059
 3441TIP3   OH210286   3.101   6.146   4.113
 3441TIP3    H110287   3.066   6.115   4.197
 3441TIP3    H210288   3.178   6.093   4.098
 3442TIP3   OH210289   6.301   4.497   3.525
 3442TIP3    H110290   6.268   4.421   3.572
 3442TIP3    H210291   6.242   4.568   3.550
 3443TIP3   OH210292   5.623   1.802   5.698
 3443TIP3    H110293   5.590   1.883   5.659
 3443TIP3    H210294   5.718   1.814   5.701
 3444TIP3   OH210295   6.584   1.078   1.521
 3444TIP3    H110296   6.617   1.143   1.458
 3444TIP3    H210297   6.560   1.003   1.467
 3445TIP3   OH210298   2.188   4.126   2.261
 3445TIP3    H110299   2.209   4.058   2.326
 3445TIP3    H210300   2.139   4.079   2.193
 3446TIP3   OH210301   4.364   6.287   4.643
 3446TIP3    H110302   4.292   6.238   4.684
 3446TIP3    H210303   4.428   6.298   4.713
 3447TIP3   OH210304   4.839   3.838   5.626
 3447TIP3    H110305   4.894   3.882   5.692
 3447TIP3    H210306   4.900   3.782   5.578
 3448TIP3   OH210307   2.394   5.693   5.652
 3448TIP3    H110308   2.417   5.601   5.640
 3448TIP3    H210309   2.472   5.733   5.690
 3449TIP3   OH210310   6.016   0.473   5.735
 3449TIP3    H110311   5.954   0.444   5.802
 3449TIP3    H210312   5.961   0.512   5.667
 3450TIP3   OH210313   5.314   1.143   1.722
 3450TIP3    H110314   5.285   1.054   1.703
 3450TIP3    H210315   5.408   1.143   1.701
 3451TIP3   OH210316   6.212   5.430   1.571
 3451TIP3    H110317   6.262   5.488   1.514
 3451TIP3    H210318   6.273   5.360   1.594
 3452TIP3   OH210319   6.266   6.256   5.239
 3452TIP3    H110320   6.287   6.340   5.279
 3452TIP3    H210321   6.187   6.272   5.188
 3453TIP3   OH210322   3.431   0.789   1.440
 3453TIP3    H110323   3.408   0.860   1.380
 3453TIP3    H210324   3.504   0.744   1.397
 3454TIP3   OH210325   6.426   6.464   0.861
 3454TIP3    H110326   6.343   6.509   0.878
 3454TIP3    H210327   6.493   6.525   0.892
 3455TIP3   OH210328   0.365   3.540   2.478
 3455TIP3    H110329   0.320   3.601   2.537
 3455TIP3    H210330   0.453   3.576   2.470
 3456TIP3   OH210331  -0.015   4.335   4.155
 3456TIP3    H110332   0.064   4.365   4.109
 3456TIP3    H210333   0.015   4.318   4.244
 3457TIP3   OH210334   5.059   3.458   2.718
 3457TIP3    H110335   5.033   3.522   2.784
 3457TIP3    H210336   5.155   3.457   2.720
 3458TIP3   OH210337   2.904   1.423   2.909
 3458TIP3    H110338   2.829   1.363   2.911
 3458TIP3    H210339   2.908   1.460   2.997
 3459TIP3   OH210340   6.562   1.480   2.204
 3459TIP3    H110341   6.631   1.481   2.270
 3459TIP3    H210342   6.543   1.387   2.190
 3460TIP3   OH210343   6.053   1.679   0.945
 3460TIP3    H110344   6.110   1.602   0.948
 3460TIP3    H210345   5.978   1.650   0.893
 3461TIP3   OH210346   2.832   4.215   2.334
 3461TIP3    H110347   2.899   4.171   2.386
 3461TIP3    H210348   2.829   4.164   2.252
 3462TIP3   OH210349   4.420   3.467   4.690
 3462TIP3    H110350   4.481   3.442   4.621
 3462TIP3    H210351   4.405   3.387   4.739
 3463TIP3   OH210352   3.437   0.864   3.720
 3463TIP3    H110353   3.423   0.779   3.678
 3463TIP3    H210354   3.502   0.908   3.664
 3464TIP3   OH210355   2.397   1.866   1.726
 3464TIP3    H110356   2.447   1.785   1.712
 3464TIP3    H210357   2.308   1.836   1.746
 3465TIP3   OH210358   2.434   5.670   4.007
 3465TIP3    H110359   2.417   5.585   3.966
 3465TIP3    H210360   2.457   5.727   3.934
 3466TIP3   OH210361   3.624   3.388   2.358
 3466TIP3    H110362   3.581   3.341   2.430
 3466TIP3    H210363   3.696   3.330   2.333
 3467TIP3   OH210364   5.402   5.328   4.769
 3467TIP3    H110365   5.343   5.379   4.825
 3467TIP3    H210366   5.365   5.240   4.768
 3468TIP3   OH210367   2.920   5.266   0.965
 3468TIP3    H110368   2.886   5.319   0.894
 3468TIP3    H210369   2.842   5.236   1.012
 3469TIP3   OH210370   1.961   5.926   5.744
 3469TIP3    H110371   1.970   5.831   5.753
 3469TIP3    H210372   2.048   5.960   5.766
 3470TIP3   OH210373   3.081   1.164   0.678
 3470TIP3    H110374   3.154   1.226   0.674
 3470TIP3    H210375   3.116   1.088   0.724
 3471TIP3   OH210376   6.287   1.356   5.131
 3471TIP3    H110377   6.285   1.261   5.148
 3471TIP3    H210378   6.316   1.394   5.214
 3472TIP3   OH210379   2.066   2.126   5.831
 3472TIP3    H110380   2.082   2.157   5.742
 3472TIP3    H210381   2.131   2.172   5.884
 3473TIP3   OH210382   5.306   5.597   0.251
 3473TIP3    H110383   5.364   5.530   0.215
 3473TIP3    H210384   5.364   5.656   0.298
 3474TIP3   OH210385   5.278   4.215   0.656
 3474TIP3    H110386   5.263   4.174   0.571
 3474TIP3    H210387   5.373   4.221   0.663
 3475TIP3   OH210388   0.456   0.325   4.804
 3475TIP3    H110389   0.370   0.283   4.802
 3475TIP3    H210390   0.508   0.276   4.741
 3476TIP3   OH210391   4.628   1.854   1.485
 3476TIP3    H110392   4.566   1.819   1.421
 3476TIP3    H210393   4.710   1.864   1.437
 3477TIP3   OH210394   3.285   4.041   5.362
 3477TIP3    H110395   3.342   4.105   5.319
 3477TIP3    H210396   3.288   4.064   5.454
 3478TIP3   OH210397   0.335   4.171   5.637
 3478TIP3    H110398   0.356   4.201   5.548
 3478TIP3    H210399   0.275   4.236   5.671
 3479TIP3   OH210400   2.961   5.639   2.617
 3479TIP3    H110401   2.939   5.574   2.684
 3479TIP3    H210402   3.047   5.672   2.643
 3480TIP3   OH210403   5.128   4.273   1.122
 3480TIP3    H110404   5.088   4.238   1.042
 3480TIP3    H210405   5.214   4.304   1.095
 3481TIP3   OH210406   0.535   6.638   3.319
 3481TIP3    H110407   0.491   6.706   3.370
 3481TIP3    H210408   0.601   6.603   3.379
 3482TIP3   OH210409   4.765   2.768   4.877
 3482TIP3    H110410   4.679   2.764   4.919
 3482TIP3    H210411   4.818   2.823   4.935
 3483TIP3   OH210412   5.913   1.764   2.071
 3483TIP3    H110413   5.921   1.674   2.039
 3483TIP3    H210414   5.845   1.760   2.138
 3484TIP3   OH210415   2.818   4.986   2.861
 3484TIP3    H110416   2.850   5.037   2.935
 3484TIP3    H210417   2.865   5.021   2.785
 3485TIP3   OH210418   0.508   2.713   2.565
 3485TIP3    H110419   0.448   2.693   2.493
 3485TIP3    H210420   0.595   2.709   2.526
 3486TIP3   OH210421   5.411   4.659   0.345
 3486TIP3    H110422   5.344   4.628   0.406
 3486TIP3    H210423   5.482   4.596   0.353
 3487TIP3   OH210424   3.540   6.349   2.060
 3487TIP3    H110425   3.574   6.387   2.142
 3487TIP3    H210426   3.605   6.373   1.994
 3488TIP3   OH210427   1.022   5.788   2.551
 3488TIP3    H110428   1.106   5.795   2.506
 3488TIP3    H210429   1.003   5.694   2.551
 3489TIP3   OH210430   3.060   3.752   0.772
 3489TIP3    H110431   3.146   3.794   0.769
 3489TIP3    H210432   2.998   3.824   0.778
 3490TIP3   OH210433   6.221   4.747   2.268
 3490TIP3    H110434   6.260   4.678   2.214
 3490TIP3    H210435   6.295   4.803   2.291
 3491TIP3   OH210436   2.242   4.391   2.244
 3491TIP3    H110437   2.327   4.394   2.200
 3491TIP3    H210438   2.223   4.298   2.256
 3492TIP3   OH210439   1.996   6.218   5.346
 3492TIP3    H110440   2.072   6.233   5.290
 3492TIP3    H210441   1.983   6.123   5.345
 3493TIP3   OH210442   5.684   1.132   4.519
 3493TIP3    H110443   5.743   1.059   4.537
 3493TIP3    H210444   5.672   1.175   4.604
 3494TIP3   OH210445   7.157   1.951   3.505
 3494TIP3    H110446   7.104   1.873   3.518
 3494TIP3    H210447   7.112   2.000   3.436
 3495TIP3   OH210448   4.004   3.716   3.242
 3495TIP3    H110449   4.096   3.724   3.265
 3495TIP3    H210450   3.964   3.671   3.317
 3496TIP3   OH210451   6.551   6.637   3.596
 3496TIP3    H110452   6.607   6.584   3.653
 3496TIP3    H210453   6.544   6.721   3.641
 3497TIP3   OH210454   1.916   4.522   0.398
 3497TIP3    H110455   1.959   4.466   0.463
 3497TIP3    H210456   1.823   4.506   0.410
 3498TIP3   OH210457   2.636   5.215   1.714
 3498TIP3    H110458   2.566   5.230   1.777
 3498TIP3    H210459   2.591   5.192   1.633
 3499TIP3   OH210460   5.099   0.842   5.223
 3499TIP3    H110461   5.068   0.902   5.291
 3499TIP3    H210462   5.193   0.833   5.240
 3500TIP3   OH210463   3.240   0.091   0.206
 3500TIP3    H110464   3.299   0.110   0.279
 3500TIP3    H210465   3.275   0.012   0.166
 3501TIP3   OH210466   2.726   3.387   2.233
 3501TIP3    H110467   2.774   3.365   2.313
 3501TIP3    H210468   2.766   3.468   2.203
 3502TIP3   OH210469   0.989   6.745   3.992
 3502TIP3    H110470   1.074   6.703   4.005
 3502TIP3    H210471   0.963   6.775   4.079
 3503TIP3   OH210472   1.695   2.574   2.602
 3503TIP3    H110473   1.664   2.664   2.612
 3503TIP3    H210474   1.721   2.568   2.510
 3504TIP3   OH210475   3.585   0.919   2.191
 3504TIP3    H110476   3.670   0.878   2.177
 3504TIP3    H210477   3.600   1.012   2.172
 3505TIP3   OH210478   5.430   0.313   0.506
 3505TIP3    H110479   5.363   0.264   0.458
 3505TIP3    H210480   5.442   0.265   0.587
 3506TIP3   OH210481   0.529   5.314   1.587
 3506TIP3    H110482   0.560   5.404   1.571
 3506TIP3    H210483   0.599   5.273   1.637
 3507TIP3   OH210484   5.186   3.123   1.862
 3507TIP3    H110485   5.233   3.201   1.892
 3507TIP3    H210486   5.184   3.066   1.939
 3508TIP3   OH210487   1.095   4.641   2.761
 3508TIP3    H110488   1.089   4.572   2.695
 3508TIP3    H210489   1.129   4.716   2.713
 3509TIP3   OH210490   5.254   6.442   5.581
 3509TIP3    H110491   5.224   6.528   5.611
 3509TIP3    H210492   5.219   6.433   5.493
 3510TIP3   OH210493   7.054   1.804   2.275
 3510TIP3    H110494   7.081   1.834   2.362
 3510TIP3    H210495   7.032   1.885   2.228
 3511TIP3   OH210496   5.775   1.810   1.340
 3511TIP3    H110497   5.833   1.745   1.300
 3511TIP3    H210498   5.749   1.867   1.268
 3512TIP3   OH210499   0.010   4.317   5.012
 3512TIP3    H110500   0.085   4.258   5.012
 3512TIP3    H210501   0.047   4.403   4.994
 3513TIP3   OH210502   2.809   4.536   3.331
 3513TIP3    H110503   2.751   4.464   3.357
 3513TIP3    H210504   2.756   4.589   3.272
 3514TIP3   OH210505   1.942   5.152   4.127
 3514TIP3    H110506   1.879   5.162   4.055
 3514TIP3    H210507   2.008   5.219   4.110
 3515TIP3   OH210508   6.994   0.588   1.407
 3515TIP3    H110509   7.062   0.538   1.363
 3515TIP3    H210510   6.912   0.545   1.383
 3516TIP3   OH210511   1.222   6.712   0.884
 3516TIP3    H110512   1.182   6.626   0.891
 3516TIP3    H210513   1.234   6.741   0.974
 3517TIP3   OH210514   1.803   5.220   0.374
 3517TIP3    H110515   1.732   5.277   0.402
 3517TIP3    H210516   1.857   5.209   0.452
 3518TIP3   OH210517   1.256   2.597   0.631
 3518TIP3    H110518   1.247   2.517   0.683
 3518TIP3    H210519   1.281   2.664   0.695
 3519TIP3   OH210520   4.429   1.092   0.589
 3519TIP3    H110521   4.470   1.137   0.516
 3519TIP3    H210522   4.345   1.136   0.600
 3520TIP3   OH210523   1.477   5.924   0.488
 3520TIP3    H110524   1.394   5.905   0.532
 3520TIP3    H210525   1.526   5.842   0.489
 3521TIP3   OH210526   0.955   1.106   4.735
 3521TIP3    H110527   0.882   1.098   4.796
 3521TIP3    H210528   0.946   1.195   4.700
 3522TIP3   OH210529   2.866   2.979   5.205
 3522TIP3    H110530   2.788   2.931   5.176
 3522TIP3    H210531   2.939   2.922   5.183
 3523TIP3   OH210532   1.400   6.546   5.019
 3523TIP3    H110533   1.343   6.501   4.958
 3523TIP3    H210534   1.420   6.630   4.977
 3524TIP3   OH210535   6.942   0.138   0.836
 3524TIP3    H110536   7.011   0.073   0.817
 3524TIP3    H210537   6.861   0.088   0.831
 3525TIP3   OH210538   0.652   4.515   3.881
 3525TIP3    H110539   0.665   4.435   3.830
 3525TIP3    H210540   0.682   4.585   3.823
 3526TIP3   OH210541   3.092   0.426   5.266
 3526TIP3    H110542   3.000   0.421   5.292
 3526TIP3    H210543   3.135   0.468   5.341
 3527TIP3   OH210544   0.992   1.329   3.765
 3527TIP3    H110545   1.068   1.345   3.709
 3527TIP3    H210546   0.951   1.250   3.728
 3528TIP3   OH210547   2.514   1.968   2.720
 3528TIP3    H110548   2.566   2.014   2.654
 3528TIP3    H210549   2.425   1.999   2.706
 3529TIP3   OH210550   5.394   0.460   3.814
 3529TIP3    H110551   5.488   0.466   3.797
 3529TIP3    H210552   5.353   0.515   3.748
 3530TIP3   OH210553   1.550   2.400   0.559
 3530TIP3    H110554   1.587   2.425   0.644
 3530TIP3    H210555   1.496   2.323   0.578
 3531TIP3   OH210556   3.263   2.139   2.171
 3531TIP3    H110557   3.333   2.073   2.173
 3531TIP3    H210558   3.309   2.223   2.165
 3532TIP3   OH210559   1.908   3.069   4.874
 3532TIP3    H110560   1.994   3.035   4.848
 3532TIP3    H210561   1.920   3.163   4.883
 3533TIP3   OH210562   1.147   0.734   3.613
 3533TIP3    H110563   1.072   0.765   3.562
 3533TIP3    H210564   1.216   0.721   3.549
 3534TIP3   OH210565   1.214   6.307   2.050
 3534TIP3    H110566   1.271   6.240   2.013
 3534TIP3    H210567   1.166   6.263   2.120
 3535TIP3   OH210568   6.154   3.857   1.087
 3535TIP3    H110569   6.194   3.939   1.118
 3535TIP3    H210570   6.076   3.847   1.142
 3536TIP3   OH210571   2.927   5.249   1.599
 3536TIP3    H110572   2.991   5.321   1.594
 3536TIP3    H210573   2.935   5.216   1.688
 3537TIP3   OH210574   5.222   0.835   2.934
 3537TIP3    H110575   5.151   0.801   2.879
 3537TIP3    H210576   5.231   0.926   2.906
 3538TIP3   OH210577   0.872   0.130   4.432
 3538TIP3    H110578   0.862   0.225   4.427
 3538TIP3    H210579   0.959   0.117   4.472
 3539TIP3   OH210580   0.765   4.932   1.938
 3539TIP3    H110581   0.860   4.943   1.944
 3539TIP3    H210582   0.753   4.837   1.928
 3540TIP3   OH210583   3.838   3.734   0.351
 3540TIP3    H110584   3.880   3.702   0.430
 3540TIP3    H210585   3.745   3.710   0.362
 3541TIP3   OH210586   3.351   1.247   1.151
 3541TIP3    H110587   3.414   1.200   1.096
 3541TIP3    H210588   3.297   1.296   1.089
 3542TIP3   OH210589   2.663   6.474   0.423
 3542TIP3    H110590   2.730   6.537   0.396
 3542TIP3    H210591   2.689   6.391   0.382
 3543TIP3   OH210592   3.545   3.352   0.613
 3543TIP3    H110593   3.459   3.372   0.576
 3543TIP3    H210594   3.526   3.316   0.700
 3544TIP3   OH210595   6.990   3.392   3.706
 3544TIP3    H110596   7.057   3.443   3.660
 3544TIP3    H210597   6.995   3.305   3.666
 3545TIP3   OH210598   4.475   0.199   0.504
 3545TIP3    H110599   4.523   0.125   0.466
 3545TIP3    H210600   4.384   0.171   0.505
 3546TIP3   OH210601   2.224   1.288   0.898
 3546TIP3    H110602   2.191   1.376   0.915
 3546TIP3    H210603   2.235   1.284   0.803
 3547TIP3   OH210604   2.814   2.328   5.861
 3547TIP3    H110605   2.844   2.303   5.774
 3547TIP3    H210606   2.754   2.258   5.886
 3548TIP3   OH210607   2.292   2.261   0.400
 3548TIP3    H110608   2.246   2.345   0.391
 3548TIP3    H210609   2.231   2.198   0.361
 3549TIP3   OH210610   5.377   1.123   4.973
 3549TIP3    H110611   5.322   1.182   5.025
 3549TIP3    H210612   5.381   1.042   5.024
 3550TIP3   OH210613   3.374   1.160   3.859
 3550TIP3    H110614   3.445   1.100   3.837
 3550TIP3    H210615   3.412   1.217   3.926
 3551TIP3   OH210616   2.704   6.404   5.736
 3551TIP3    H110617   2.768   6.421   5.666
 3551TIP3    H210618   2.708   6.481   5.792
 3552TIP3   OH210619   4.771   0.131   2.374
 3552TIP3    H110620   4.842   0.084   2.418
 3552TIP3    H210621   4.808   0.156   2.289
 3553TIP3   OH210622   5.452   6.566   1.359
 3553TIP3    H110623   5.498   6.620   1.295
 3553TIP3    H210624   5.389   6.624   1.400
 3554TIP3   OH210625   6.167   5.046   4.314
 3554TIP3    H110626   6.209   5.080   4.235
 3554TIP3    H210627   6.163   5.121   4.373
 3555TIP3   OH210628   3.308   0.432   2.966
 3555TIP3    H110629   3.399   0.463   2.962
 3555TIP3    H210630   3.313   0.340   2.941
 3556TIP3   OH210631   1.473   2.496   3.615
 3556TIP3    H110632   1.477   2.575   3.561
 3556TIP3    H210633   1.520   2.519   3.695
 3557TIP3   OH210634   0.581   5.090   2.726
 3557TIP3    H110635   0.514   5.114   2.662
 3557TIP3    H210636   0.612   5.173   2.761
 3558TIP3   OH210637   0.652   0.076   4.182
 3558TIP3    H110638   0.673   0.049   4.271
 3558TIP3    H210639   0.700   0.015   4.126
 3559TIP3   OH210640   5.150   5.429   3.656
 3559TIP3    H110641   5.222   5.491   3.667
 3559TIP3    H210642   5.191   5.343   3.664
 3560TIP3   OH210643   4.218   5.125   2.463
 3560TIP3    H110644   4.256   5.043   2.495
 3560TIP3    H210645   4.288   5.189   2.474
 3561TIP3   OH210646   3.738   6.072   0.482
 3561TIP3    H110647   3.727   6.065   0.387
 3561TIP3    H210648   3.776   5.988   0.508
 3562TIP3   OH210649   6.258   1.918   4.101
 3562TIP3    H110650   6.326   1.874   4.152
 3562TIP3    H210651   6.185   1.856   4.100
 3563TIP3   OH210652   1.800   4.912   5.302
 3563TIP3    H110653   1.885   4.868   5.307
 3563TIP3    H210654   1.737   4.841   5.285
 3564TIP3   OH210655   2.506   1.624   3.468
 3564TIP3    H110656   2.449   1.695   3.496
 3564TIP3    H210657   2.530   1.578   3.549
 3565TIP3   OH210658   5.464   6.316   4.297
 3565TIP3    H110659   5.415   6.364   4.230
 3565TIP3    H210660   5.524   6.261   4.247
 3566TIP3   OH210661   5.692   0.437   2.935
 3566TIP3    H110662   5.715   0.347   2.958
 3566TIP3    H210663   5.745   0.456   2.857
 3567TIP3   OH210664   3.557   0.958   0.661
 3567TIP3    H110665   3.528   0.877   0.704
 3567TIP3    H210666   3.489   0.976   0.596
 3568TIP3   OH210667   2.672   4.783   5.857
 3568TIP3    H110668   2.627   4.766   5.775
 3568TIP3    H210669   2.628   4.728   5.922
 3569TIP3   OH210670   3.136   3.910   1.983
 3569TIP3    H110671   3.228   3.886   1.979
 3569TIP3    H210672   3.091   3.840   1.934
 3570TIP3   OH210673   0.356   0.403   2.454
 3570TIP3    H110674   0.398   0.355   2.383
 3570TIP3    H210675   0.400   0.372   2.533
 3571TIP3   OH210676   2.959   6.233   1.436
 3571TIP3    H110677   2.898   6.263   1.369
 3571TIP3    H210678   3.022   6.304   1.444
 3572TIP3   OH210679   5.345   0.730   0.192
 3572TIP3    H110680   5.257   0.755   0.218
 3572TIP3    H210681   5.391   0.813   0.179
 3573TIP3   OH210682   3.194   3.721   0.135
 3573TIP3    H110683   3.248   3.675   0.071
 3573TIP3    H210684   3.128   3.766   0.083
 3574TIP3   OH210685   0.062   3.526   4.214
 3574TIP3    H110686   0.024   3.440   4.198
 3574TIP3    H210687   0.078   3.561   4.126
 3575TIP3   OH210688   3.378   0.202   4.427
 3575TIP3    H110689   3.349   0.161   4.509
 3575TIP3    H210690   3.461   0.245   4.450
 3576TIP3   OH210691   5.250   2.185   3.876
 3576TIP3    H110692   5.169   2.164   3.829
 3576TIP3    H210693   5.282   2.264   3.833
 3577TIP3   OH210694   1.497   5.325   5.883
 3577TIP3    H110695   1.509   5.401   5.939
 3577TIP3    H210696   1.537   5.350   5.800
 3578TIP3   OH210697   6.248   4.550   0.716
 3578TIP3    H110698   6.299   4.569   0.795
 3578TIP3    H210699   6.240   4.455   0.714
 3579TIP3   OH210700   3.861   1.503   3.729
 3579TIP3    H110701   3.770   1.526   3.749
 3579TIP3    H210702   3.865   1.504   3.634
 3580TIP3   OH210703   1.756   0.949   1.546
 3580TIP3    H110704   1.787   0.871   1.593
 3580TIP3    H210705   1.670   0.924   1.513
 3581TIP3   OH210706   1.351   4.833   0.058
 3581TIP3    H110707   1.344   4.910   0.001
 3581TIP3    H210708   1.306   4.763   0.009
 3582TIP3   OH210709   3.178   4.317   0.226
 3582TIP3    H110710   3.174   4.411   0.238
 3582TIP3    H210711   3.186   4.304   0.132
 3583TIP3   OH210712   1.579   5.995   2.155
 3583TIP3    H110713   1.669   5.964   2.143
 3583TIP3    H210714   1.579   6.036   2.241
 3584TIP3   OH210715   4.195   1.172   0.302
 3584TIP3    H110716   4.156   1.259   0.308
 3584TIP3    H210717   4.139   1.117   0.357
 3585TIP3   OH210718   4.728   3.581   5.232
 3585TIP3    H110719   4.808   3.570   5.181
 3585TIP3    H210720   4.750   3.548   5.319
 3586TIP3   OH210721   4.754   0.877   1.823
 3586TIP3    H110722   4.740   0.822   1.745
 3586TIP3    H210723   4.847   0.899   1.819
 3587TIP3   OH210724   5.031  -0.034   3.705
 3587TIP3    H110725   5.088   0.009   3.641
 3587TIP3    H210726   4.963   0.030   3.724
 3588TIP3   OH210727   0.943   6.119   2.802
 3588TIP3    H110728   0.930   6.189   2.737
 3588TIP3    H210729   0.859   6.113   2.847
 3589TIP3   OH210730   4.010   0.499   5.160
 3589TIP3    H110731   4.057   0.456   5.089
 3589TIP3    H210732   3.918   0.497   5.133
 3590TIP3   OH210733   5.400   3.185   4.832
 3590TIP3    H110734   5.447   3.169   4.750
 3590TIP3    H210735   5.342   3.259   4.812
 3591TIP3   OH210736   5.970   0.877   5.641
 3591TIP3    H110737   6.019   0.957   5.621
 3591TIP3    H210738   6.033   0.806   5.631
 3592TIP3   OH210739   0.218   5.909   4.278
 3592TIP3    H110740   0.227   5.971   4.351
 3592TIP3    H210741   0.140   5.939   4.231
 3593TIP3   OH210742   2.035   2.899   2.720
 3593TIP3    H110743   2.103   2.852   2.671
 3593TIP3    H210744   1.965   2.912   2.657
 3594TIP3   OH210745   5.852   4.404   5.321
 3594TIP3    H110746   5.939   4.365   5.321
 3594TIP3    H210747   5.868   4.498   5.329
 3595TIP3   OH210748   3.218   6.019   1.671
 3595TIP3    H110749   3.180   5.978   1.748
 3595TIP3    H210750   3.158   5.997   1.600
 3596TIP3   OH210751   3.919   2.961   2.402
 3596TIP3    H110752   3.949   2.881   2.358
 3596TIP3    H210753   3.838   2.935   2.446
 3597TIP3   OH210754   3.293   0.822   5.026
 3597TIP3    H110755   3.353   0.793   4.958
 3597TIP3    H210756   3.322   0.911   5.047
 3598TIP3   OH210757   5.751   3.095   1.564
 3598TIP3    H110758   5.708   3.049   1.492
 3598TIP3    H210759   5.728   3.045   1.642
 3599TIP3   OH210760   3.932   3.476   0.135
 3599TIP3    H110761   4.024   3.464   0.159
 3599TIP3    H210762   3.929   3.458   0.041
 3600TIP3   OH210763   7.190   6.363   3.432
 3600TIP3    H110764   7.140   6.289   3.467
 3600TIP3    H210765   7.278   6.353   3.471
 3601TIP3   OH210766   5.152   5.239   1.522
 3601TIP3    H110767   5.059   5.258   1.512
 3601TIP3    H210768   5.163   5.218   1.615
 3602TIP3   OH210769   3.541   2.276   1.700
 3602TIP3    H110770   3.460   2.254   1.654
 3602TIP3    H210771   3.606   2.215   1.665
 3603TIP3   OH210772   4.104   1.551   2.387
 3603TIP3    H110773   4.052   1.628   2.363
 3603TIP3    H210774   4.177   1.551   2.325
 3604TIP3   OH210775   2.383   4.409   1.844
 3604TIP3    H110776   2.439   4.415   1.921
 3604TIP3    H210777   2.349   4.499   1.833
 3605TIP3   OH210778   4.934   6.403   1.996
 3605TIP3    H110779   4.844   6.425   1.972
 3605TIP3    H210780   4.927   6.356   2.079
 3606TIP3   OH210781   3.870   6.444   1.304
 3606TIP3    H110782   3.865   6.349   1.292
 3606TIP3    H210783   3.942   6.471   1.246
 3607TIP3   OH210784   1.191   3.553   1.649
 3607TIP3    H110785   1.126   3.483   1.654
 3607TIP3    H210786   1.161   3.609   1.577
 3608TIP3   OH210787   1.094   0.042   5.656
 3608TIP3    H110788   1.137   0.101   5.594
 3608TIP3    H210789   1.060   0.099   5.725
 3609TIP3   OH210790   0.899   5.599   5.244
 3609TIP3    H110791   0.835   5.615   5.174
 3609TIP3    H210792   0.934   5.512   5.225
 3610TIP3   OH210793   1.256   5.857   4.887
 3610TIP3    H110794   1.352   5.852   4.891
 3610TIP3    H210795   1.227   5.767   4.878
 3611TIP3   OH210796   3.278   1.660   4.067
 3611TIP3    H110797   3.271   1.606   3.988
 3611TIP3    H210798   3.353   1.717   4.050
 3612TIP3   OH210799   1.370   3.047   4.185
 3612TIP3    H110800   1.285   3.058   4.142
 3612TIP3    H210801   1.348   3.023   4.275
 3613TIP3   OH210802   1.174   3.627   4.554
 3613TIP3    H110803   1.125   3.546   4.543
 3613TIP3    H210804   1.262   3.598   4.577
 3614TIP3   OH210805   3.049   3.886   3.384
 3614TIP3    H110806   3.068   3.975   3.354
 3614TIP3    H210807   3.092   3.829   3.319
 3615TIP3   OH210808   5.618   3.518   1.850
 3615TIP3    H110809   5.551   3.567   1.803
 3615TIP3    H210810   5.693   3.518   1.791
 3616TIP3   OH210811   2.560   4.831   2.842
 3616TIP3    H110812   2.619   4.903   2.864
 3616TIP3    H210813   2.507   4.818   2.921
 3617TIP3   OH210814   5.763   6.292   5.126
 3617TIP3    H110815   5.729   6.381   5.115
 3617TIP3    H210816   5.711   6.239   5.066
 3618TIP3   OH210817   4.856   2.219   3.399
 3618TIP3    H110818   4.937   2.189   3.358
 3618TIP3    H210819   4.864   2.315   3.401
 3619TIP3   OH210820   0.739   2.434   1.475
 3619TIP3    H110821   0.772   2.505   1.420
 3619TIP3    H210822   0.644   2.447   1.476
 3620TIP3   OH210823   4.871   2.988   1.518
 3620TIP3    H110824   4.891   2.895   1.521
 3620TIP3    H210825   4.869   3.016   1.609
 3621TIP3   OH210826   3.677   5.059   4.516
 3621TIP3    H110827   3.589   5.062   4.478
 3621TIP3    H210828   3.729   5.118   4.462
 3622TIP3   OH210829   6.363   5.651   2.083
 3622TIP3    H110830   6.308   5.680   2.157
 3622TIP3    H210831   6.329   5.700   2.008
 3623TIP3   OH210832   5.911   3.217   5.056
 3623TIP3    H110833   5.873   3.156   5.119
 3623TIP3    H210834   5.836   3.247   5.003
 3624TIP3   OH210835   6.844   4.798   0.813
 3624TIP3    H110836   6.936   4.800   0.839
 3624TIP3    H210837   6.801   4.747   0.882
 3625TIP3   OH210838   4.202   4.192   5.079
 3625TIP3    H110839   4.156   4.110   5.093
 3625TIP3    H210840   4.294   4.171   5.093
 3626TIP3   OH210841   0.424   1.220   5.535
 3626TIP3    H110842   0.367   1.297   5.533
 3626TIP3    H210843   0.389   1.167   5.606
 3627TIP3   OH210844   2.812   4.065   0.463
 3627TIP3    H110845   2.828   4.021   0.380
 3627TIP3    H210846   2.895   4.061   0.510
 3628TIP3   OH210847   0.674   4.092   1.396
 3628TIP3    H110848   0.605   4.158   1.390
 3628TIP3    H210849   0.695   4.072   1.305
 3629TIP3   OH210850   6.226   2.229   0.054
 3629TIP3    H110851   6.142   2.202   0.090
 3629TIP3    H210852   6.210   2.316   0.018
 3630TIP3   OH210853   3.866   4.793   2.297
 3630TIP3    H110854   3.922   4.751   2.363
 3630TIP3    H210855   3.808   4.723   2.267
 3631TIP3   OH210856   0.890   2.988   3.177
 3631TIP3    H110857   0.867   2.999   3.269
 3631TIP3    H210858   0.857   2.900   3.155
 3632TIP3   OH210859   0.248   1.729   3.543
 3632TIP3    H110860   0.318   1.708   3.481
 3632TIP3    H210861   0.223   1.819   3.522
 3633TIP3   OH210862   0.557   1.340   4.560
 3633TIP3    H110863   0.610   1.412   4.525
 3633TIP3    H210864   0.480   1.337   4.503
 3634TIP3   OH210865   6.977   5.559   0.681
 3634TIP3    H110866   6.986   5.591   0.592
 3634TIP3    H210867   7.051   5.596   0.728
 3635TIP3   OH210868   4.709   1.693   1.681
 3635TIP3    H110869   4.725   1.615   1.629
 3635TIP3    H210870   4.696   1.762   1.616
 3636TIP3   OH210871   4.175   1.114   1.963
 3636TIP3    H110872   4.204   1.189   2.015
 3636TIP3    H210873   4.229   1.041   1.994
 3637TIP3   OH210874   3.342   4.376   2.933
 3637TIP3    H110875   3.249   4.397   2.946
 3637TIP3    H210876   3.345   4.326   2.852
 3638TIP3   OH210877   4.077   6.144   1.775
 3638TIP3    H110878   4.028   6.073   1.817
 3638TIP3    H210879   4.067   6.128   1.681
 3639TIP3   OH210880   5.934   2.839   1.495
 3639TIP3    H110881   5.916   2.808   1.584
 3639TIP3    H210882   5.851   2.825   1.448
 3640TIP3   OH210883   2.901   2.313   2.051
 3640TIP3    H110884   2.952   2.234   2.069
 3640TIP3    H210885   2.966   2.383   2.051
 3641TIP3   OH210886   2.342   0.982   5.170
 3641TIP3    H110887   2.344   0.942   5.257
 3641TIP3    H210888   2.275   0.932   5.122
 3642TIP3   OH210889   2.139   5.921   1.364
 3642TIP3    H110890   2.222   5.957   1.332
 3642TIP3    H210891   2.109   5.864   1.293
 3643TIP3   OH210892   2.792   0.166   5.026
 3643TIP3    H110893   2.790   0.217   5.107
 3643TIP3    H210894   2.883   0.166   4.999
 3644TIP3   OH210895   4.733   3.449   0.554
 3644TIP3    H110896   4.740   3.464   0.460
 3644TIP3    H210897   4.822   3.422   0.580
 3645TIP3   OH210898   5.102   3.845   4.387
 3645TIP3    H110899   5.095   3.749   4.381
 3645TIP3    H210900   5.035   3.877   4.326
 3646TIP3   OH210901   1.933   0.159   0.306
 3646TIP3    H110902   1.960   0.206   0.386
 3646TIP3    H210903   2.009   0.167   0.248
 3647TIP3   OH210904   0.110   6.679   1.460
 3647TIP3    H110905   0.048   6.678   1.533
 3647TIP3    H210906   0.195   6.697   1.500
 3648TIP3   OH210907   6.000   3.411   5.250
 3648TIP3    H110908   5.969   3.334   5.202
 3648TIP3    H210909   5.931   3.431   5.312
 3649TIP3   OH210910   5.123   6.722   3.800
 3649TIP3    H110911   5.067   6.783   3.752
 3649TIP3    H210912   5.144   6.767   3.882
 3650TIP3   OH210913   4.768  -0.014   3.413
 3650TIP3    H110914   4.759  -0.011   3.509
 3650TIP3    H210915   4.690   0.032   3.381
 3651TIP3   OH210916   4.354   5.087   0.136
 3651TIP3    H110917   4.271   5.069   0.092
 3651TIP3    H210918   4.400   5.003   0.135
 3652TIP3   OH210919   3.543   1.619   1.212
 3652TIP3    H110920   3.517   1.606   1.120
 3652TIP3    H210921   3.562   1.530   1.243
 3653TIP3   OH210922   6.313   1.407   5.473
 3653TIP3    H110923   6.235   1.428   5.523
 3653TIP3    H210924   6.302   1.314   5.450
 3654TIP3   OH210925   4.174   3.659   4.658
 3654TIP3    H110926   4.243   3.598   4.685
 3654TIP3    H210927   4.218   3.721   4.601
 3655TIP3   OH210928   2.795   5.858   2.585
 3655TIP3    H110929   2.860   5.892   2.647
 3655TIP3    H210930   2.833   5.775   2.555
 3656TIP3   OH210931   4.664   5.965   3.390
 3656TIP3    H110932   4.729   5.938   3.325
 3656TIP3    H210933   4.670   5.900   3.460
 3657TIP3   OH210934   6.498   4.022   0.501
 3657TIP3    H110935   6.494   4.117   0.498
 3657TIP3    H210936   6.576   4.000   0.451
 3658TIP3   OH210937   1.461   2.812   1.437
 3658TIP3    H110938   1.373   2.790   1.469
 3658TIP3    H210939   1.519   2.783   1.508
 3659TIP3   OH210940   5.201   4.113   2.133
 3659TIP3    H110941   5.223   4.055   2.060
 3659TIP3    H210942   5.273   4.176   2.137
 3660TIP3   OH210943   1.267   5.759   0.116
 3660TIP3    H110944   1.348   5.793   0.076
 3660TIP3    H210945   1.199   5.776   0.051
 3661TIP3   OH210946   1.558   0.407   0.577
 3661TIP3    H110947   1.594   0.319   0.575
 3661TIP3    H210948   1.484   0.401   0.638
 3662TIP3   OH210949   4.221   5.547   0.570
 3662TIP3    H110950   4.146   5.487   0.573
 3662TIP3    H210951   4.189   5.628   0.609
 3663TIP3   OH210952   2.933   0.884   3.227
 3663TIP3    H110953   2.931   0.925   3.314
 3663TIP3    H210954   2.859   0.924   3.180
 3664TIP3   OH210955   3.313   5.656   3.285
 3664TIP3    H110956   3.407   5.666   3.270
 3664TIP3    H210957   3.293   5.567   3.258
 3665TIP3   OH210958   4.202   5.382   1.528
 3665TIP3    H110959   4.272   5.345   1.475
 3665TIP3    H210960   4.176   5.461   1.482
 3666TIP3   OH210961   5.406   4.494   1.442
 3666TIP3    H110962   5.429   4.587   1.432
 3666TIP3    H210963   5.488   4.447   1.424
 3667TIP3   OH210964   6.511   3.413   2.050
 3667TIP3    H110965   6.487   3.485   2.107
 3667TIP3    H210966   6.596   3.383   2.083
 3668TIP3   OH210967   5.309   6.588   0.702
 3668TIP3    H110968   5.259   6.669   0.706
 3668TIP3    H210969   5.325   6.573   0.609
 3669TIP3   OH210970   2.618   2.641   0.934
 3669TIP3    H110971   2.593   2.564   0.883
 3669TIP3    H210972   2.539   2.667   0.980
 3670TIP3   OH210973   4.310   3.578   3.873
 3670TIP3    H110974   4.297   3.645   3.940
 3670TIP3    H210975   4.389   3.605   3.826
 3671TIP3   OH210976   2.750   4.910   4.016
 3671TIP3    H110977   2.778   4.997   3.985
 3671TIP3    H210978   2.752   4.855   3.938
 3672TIP3   OH210979   2.336   3.313   0.885
 3672TIP3    H110980   2.258   3.340   0.836
 3672TIP3    H210981   2.308   3.312   0.976
 3673TIP3   OH210982   6.072   1.800   2.629
 3673TIP3    H110983   6.083   1.744   2.552
 3673TIP3    H210984   6.024   1.876   2.596
 3674TIP3   OH210985   5.232   1.864   4.776
 3674TIP3    H110986   5.226   1.824   4.863
 3674TIP3    H210987   5.305   1.820   4.733
 3675TIP3   OH210988   5.666   2.064   5.291
 3675TIP3    H110989   5.639   1.972   5.296
 3675TIP3    H210990   5.738   2.064   5.228
 3676TIP3   OH210991   6.345   0.113   4.569
 3676TIP3    H110992   6.289   0.090   4.643
 3676TIP3    H210993   6.419   0.159   4.609
 3677TIP3   OH210994   2.736   3.890   3.756
 3677TIP3    H110995   2.721   3.912   3.848
 3677TIP3    H210996   2.659   3.924   3.710
 3678TIP3   OH210997   7.150   4.840   1.874
 3678TIP3    H110998   7.245   4.845   1.888
 3678TIP3    H210999   7.139   4.772   1.808
 3679TIP3   OH211000   4.922   4.551   1.729
 3679TIP3    H111001   4.899   4.541   1.637
 3679TIP3    H211002   5.015   4.531   1.733
 3680TIP3   OH211003   1.446   6.408   3.709
 3680TIP3    H111004   1.369   6.463   3.721
 3680TIP3    H211005   1.455   6.361   3.792
 3681TIP3   OH211006   2.079   0.084   1.538
 3681TIP3    H111007   2.081   0.177   1.560
 3681TIP3    H211008   1.991   0.070   1.503
 3682TIP3   OH211009   0.896   4.751   5.187
 3682TIP3    H111010   0.935   4.829   5.147
 3682TIP3    H211011   0.970   4.693   5.204
 3683TIP3   OH211012   0.289   5.579   1.709
 3683TIP3    H111013   0.267   5.672   1.710
 3683TIP3    H211014   0.325   5.564   1.622
 3684TIP3   OH211015   5.831   4.765   5.852
 3684TIP3    H111016   5.794   4.677   5.861
 3684TIP3    H211017   5.924   4.754   5.874
 3685TIP3   OH211018   1.516   6.604   5.576
 3685TIP3    H111019   1.596   6.608   5.524
 3685TIP3    H211020   1.533   6.536   5.641
 3686TIP3   OH211021   2.358   0.553   0.754
 3686TIP3    H111022   2.293   0.532   0.821
 3686TIP3    H211023   2.308   0.556   0.672
 3687TIP3   OH211024   2.691   5.797   2.183
 3687TIP3    H111025   2.697   5.704   2.159
 3687TIP3    H211026   2.606   5.825   2.150
 3688TIP3   OH211027   4.484   4.946   4.968
 3688TIP3    H111028   4.408   4.950   5.026
 3688TIP3    H211029   4.558   4.968   5.024
 3689TIP3   OH211030   4.623   0.966   3.652
 3689TIP3    H111031   4.550   0.928   3.603
 3689TIP3    H211032   4.581   1.022   3.717
 3690TIP3   OH211033   5.640   1.132   0.600
 3690TIP3    H111034   5.698   1.132   0.525
 3690TIP3    H211035   5.645   1.222   0.634
 3691TIP3   OH211036   1.966   2.226   4.286
 3691TIP3    H111037   1.946   2.153   4.345
 3691TIP3    H211038   1.885   2.242   4.239
 3692TIP3   OH211039   5.845   4.388   3.033
 3692TIP3    H111040   5.838   4.411   2.941
 3692TIP3    H211041   5.922   4.436   3.064
 3693TIP3   OH211042   2.100   4.028   5.608
 3693TIP3    H111043   2.183   4.055   5.647
 3693TIP3    H211044   2.110   4.044   5.515
 3694TIP3   OH211045   4.775   5.134   1.609
 3694TIP3    H111046   4.818   5.072   1.668
 3694TIP3    H211047   4.747   5.080   1.535
 3695TIP3   OH211048   4.073   4.602   3.780
 3695TIP3    H111049   4.114   4.621   3.696
 3695TIP3    H211050   4.008   4.672   3.791
 3696TIP3   OH211051   3.693   2.092   4.532
 3696TIP3    H111052   3.682   2.053   4.619
 3696TIP3    H211053   3.749   2.030   4.485
 3697TIP3   OH211054   1.105   1.046   3.871
 3697TIP3    H111055   1.045   1.075   3.940
 3697TIP3    H211056   1.081   1.097   3.795
 3698TIP3   OH211057   6.745   1.820   4.213
 3698TIP3    H111058   6.768   1.804   4.305
 3698TIP3    H211059   6.829   1.833   4.169
 3699TIP3   OH211060   1.273   1.773   0.395
 3699TIP3    H111061   1.181   1.778   0.367
 3699TIP3    H211062   1.292   1.679   0.396
 3700TIP3   OH211063   4.755   1.471   4.987
 3700TIP3    H111064   4.744   1.545   5.046
 3700TIP3    H211065   4.839   1.432   5.012
 3701TIP3   OH211066   3.093   2.642   2.661
 3701TIP3    H111067   3.069   2.550   2.677
 3701TIP3    H211068   3.026   2.692   2.706
 3702TIP3   OH211069   0.864   5.741   3.239
 3702TIP3    H111070   0.938   5.797   3.217
 3702TIP3    H211071   0.856   5.748   3.335
 3703TIP3   OH211072   3.442   6.519   5.687
 3703TIP3    H111073   3.432   6.601   5.735
 3703TIP3    H211074   3.502   6.467   5.740
 3704TIP3   OH211075   0.035   4.089   3.530
 3704TIP3    H111076  -0.018   4.041   3.467
 3704TIP3    H211077   0.097   4.024   3.564
 3705TIP3   OH211078   2.905   2.797   1.803
 3705TIP3    H111079   2.816   2.785   1.771
 3705TIP3    H211080   2.902   2.881   1.849
 3706TIP3   OH211081   3.337   6.296   3.763
 3706TIP3    H111082   3.302   6.355   3.830
 3706TIP3    H211083   3.271   6.227   3.755
 3707TIP3   OH211084   3.961   0.711   4.319
 3707TIP3    H111085   3.968   0.732   4.412
 3707TIP3    H211086   3.971   0.616   4.315
 3708TIP3   OH211087   3.012   0.009   5.479
 3708TIP3    H111088   3.065   0.061   5.418
 3708TIP3    H211089   2.948  -0.034   5.422
 3709TIP3   OH211090   0.616   5.482   4.848
 3709TIP3    H111091   0.705   5.456   4.824
 3709TIP3    H211092   0.567   5.400   4.852
 3710TIP3   OH211093   7.171   6.237   5.748
 3710TIP3    H111094   7.120   6.212   5.670
 3710TIP3    H211095   7.198   6.154   5.786
 3711TIP3   OH211096   1.692   6.267   5.602
 3711TIP3    H111097   1.765   6.242   5.546
 3711TIP3    H211098   1.614   6.255   5.548
 3712TIP3   OH211099   6.569   5.152   4.172
 3712TIP3    H111100   6.546   5.067   4.135
 3712TIP3    H211101   6.632   5.188   4.109
 3713TIP3   OH211102   3.352   4.704   1.288
 3713TIP3    H111103   3.356   4.784   1.236
 3713TIP3    H211104   3.394   4.637   1.234
 3714TIP3   OH211105   5.765   0.291   1.355
 3714TIP3    H111106   5.819   0.219   1.324
 3714TIP3    H211107   5.675   0.264   1.336
 3715TIP3   OH211108   6.497   3.072   4.008
 3715TIP3    H111109   6.446   3.079   4.089
 3715TIP3    H211110   6.571   3.132   4.021
 3716TIP3   OH211111   1.694   6.267   4.713
 3716TIP3    H111112   1.783   6.234   4.730
 3716TIP3    H211113   1.707   6.342   4.655
 3717TIP3   OH211114   5.097   1.890   2.678
 3717TIP3    H111115   5.094   1.914   2.771
 3717TIP3    H211116   5.006   1.889   2.650
 3718TIP3   OH211117   0.406   1.287   3.000
 3718TIP3    H111118   0.383   1.353   2.935
 3718TIP3    H211119   0.322   1.246   3.023
 3719TIP3   OH211120   0.908   6.598   1.231
 3719TIP3    H111121   0.856   6.674   1.257
 3719TIP3    H211122   0.993   6.635   1.207
 3720TIP3   OH211123   3.718   3.266   5.396
 3720TIP3    H111124   3.786   3.332   5.407
 3720TIP3    H211125   3.696   3.239   5.486
 3721TIP3   OH211126   0.486   5.535   4.308
 3721TIP3    H111127   0.414   5.548   4.246
 3721TIP3    H211128   0.475   5.604   4.373
 3722TIP3   OH211129   3.946   3.091   0.627
 3722TIP3    H111130   3.937   3.105   0.533
 3722TIP3    H211131   3.932   2.997   0.640
 3723TIP3   OH211132   2.377   2.284   3.507
 3723TIP3    H111133   2.470   2.300   3.524
 3723TIP3    H211134   2.340   2.268   3.594
 3724TIP3   OH211135   5.367   1.350   0.566
 3724TIP3    H111136   5.290   1.407   0.574
 3724TIP3    H211137   5.433   1.404   0.522
 3725TIP3   OH211138   1.690   5.442   2.948
 3725TIP3    H111139   1.638   5.461   2.870
 3725TIP3    H211140   1.639   5.377   2.996
 3726TIP3   OH211141   2.880   3.245   5.009
 3726TIP3    H111142   2.839   3.173   4.960
 3726TIP3    H211143   2.938   3.201   5.072
 3727TIP3   OH211144   5.828   2.512   5.482
 3727TIP3    H111145   5.905   2.561   5.512
 3727TIP3    H211146   5.857   2.468   5.402
 3728TIP3   OH211147   6.544   2.374   1.148
 3728TIP3    H111148   6.617   2.425   1.114
 3728TIP3    H211149   6.526   2.413   1.234
 3729TIP3   OH211150   0.283   2.644   5.116
 3729TIP3    H111151   0.276   2.729   5.072
 3729TIP3    H211152   0.362   2.652   5.170
 3730TIP3   OH211153   3.173   3.522   1.503
 3730TIP3    H111154   3.135   3.438   1.528
 3730TIP3    H211155   3.151   3.532   1.410
 3731TIP3   OH211156   2.143   3.294   1.655
 3731TIP3    H111157   2.080   3.326   1.590
 3731TIP3    H211158   2.095   3.295   1.738
 3732TIP3   OH211159   3.721   0.152   3.591
 3732TIP3    H111160   3.816   0.139   3.594
 3732TIP3    H211161   3.696   0.129   3.502
 3733TIP3   OH211162   5.491   0.034   0.130
 3733TIP3    H111163   5.514   0.001   0.043
 3733TIP3    H211164   5.567   0.086   0.157
 3734TIP3   OH211165   1.261   4.432   1.112
 3734TIP3    H111166   1.186   4.468   1.066
 3734TIP3    H211167   1.241   4.339   1.122
 3735TIP3   OH211168   2.447   4.041   5.657
 3735TIP3    H111169   2.464   4.046   5.751
 3735TIP3    H211170   2.522   3.992   5.622
 3736TIP3   OH211171   2.527   3.305   2.058
 3736TIP3    H111172   2.578   3.313   2.139
 3736TIP3    H211173   2.554   3.220   2.021
 3737TIP3   OH211174   0.807   1.140   1.442
 3737TIP3    H111175   0.850   1.138   1.528
 3737TIP3    H211176   0.832   1.225   1.405
 3738TIP3   OH211177   7.152   4.633   1.695
 3738TIP3    H111178   7.080   4.602   1.642
 3738TIP3    H211179   7.187   4.554   1.737
 3739TIP3   OH211180   5.612   2.216   4.261
 3739TIP3    H111181   5.608   2.122   4.240
 3739TIP3    H211182   5.533   2.232   4.311
 3740TIP3   OH211183   3.931  -0.034   4.012
 3740TIP3    H111184   3.984   0.005   4.082
 3740TIP3    H211185   3.880   0.040   3.977
 3741TIP3   OH211186   2.834   5.583   1.897
 3741TIP3    H111187   2.782   5.568   1.818
 3741TIP3    H211188   2.832   5.678   1.909
 3742TIP3   OH211189   3.958   3.200   1.120
 3742TIP3    H111190   4.026   3.176   1.183
 3742TIP3    H211191   3.921   3.282   1.154
 3743TIP3   OH211192   4.019   3.059   0.116
 3743TIP3    H111193   3.990   2.984   0.064
 3743TIP3    H211194   4.061   3.117   0.053
 3744TIP3   OH211195   0.163   0.893   3.307
 3744TIP3    H111196   0.155   0.818   3.249
 3744TIP3    H211197   0.099   0.956   3.274
 3745TIP3   OH211198   6.885   2.481   4.507
 3745TIP3    H111199   6.976   2.453   4.521
 3745TIP3    H211200   6.845   2.475   4.594
 3746TIP3   OH211201   6.945   2.409   5.593
 3746TIP3    H111202   6.997   2.409   5.513
 3746TIP3    H211203   6.878   2.476   5.578
 3747TIP3   OH211204   6.935   2.554   3.376
 3747TIP3    H111205   6.916   2.487   3.311
 3747TIP3    H211206   7.031   2.551   3.386
 3748TIP3   OH211207   6.530   0.983   1.840
 3748TIP3    H111208   6.439   0.955   1.826
 3748TIP3    H211209   6.578   0.901   1.855
 3749TIP3   OH211210   4.331   5.709   2.316
 3749TIP3    H111211   4.363   5.620   2.301
 3749TIP3    H211212   4.239   5.706   2.289
 3750TIP3   OH211213   4.192   4.998   1.771
 3750TIP3    H111214   4.170   5.002   1.864
 3750TIP3    H211215   4.124   4.942   1.732
 3751TIP3   OH211216   1.259   6.058   2.227
 3751TIP3    H111217   1.267   5.981   2.170
 3751TIP3    H211218   1.348   6.092   2.233
 3752TIP3   OH211219   2.957   5.740   5.175
 3752TIP3    H111220   2.956   5.721   5.081
 3752TIP3    H211221   2.948   5.654   5.216
 3753TIP3   OH211222   7.195   2.750   2.678
 3753TIP3    H111223   7.147   2.668   2.688
 3753TIP3    H211224   7.127   2.818   2.677
 3754TIP3   OH211225   0.046   1.282   2.671
 3754TIP3    H111226  -0.022   1.344   2.701
 3754TIP3    H211227   0.067   1.231   2.749
 3755TIP3   OH211228   1.506   0.200   5.503
 3755TIP3    H111229   1.543   0.117   5.533
 3755TIP3    H211230   1.411   0.189   5.514
 3756TIP3   OH211231   1.486   3.469   2.034
 3756TIP3    H111232   1.517   3.489   1.946
 3756TIP3    H211233   1.565   3.465   2.088
 3757TIP3   OH211234   0.256   6.448   0.951
 3757TIP3    H111235   0.190   6.388   0.918
 3757TIP3    H211236   0.336   6.396   0.955
 3758TIP3   OH211237   4.588   0.148   1.782
 3758TIP3    H111238   4.523   0.083   1.806
 3758TIP3    H211239   4.605   0.197   1.862
 3759TIP3   OH211240   3.841   3.423   5.878
 3759TIP3    H111241   3.908   3.481   5.843
 3759TIP3    H211242   3.874   3.334   5.861
 3760TIP3   OH211243   6.188   4.308   2.922
 3760TIP3    H111244   6.160   4.321   2.831
 3760TIP3    H211245   6.232   4.223   2.921
 3761TIP3   OH211246   3.688   1.871   5.411
 3761TIP3    H111247   3.639   1.788   5.417
 3761TIP3    H211248   3.675   1.900   5.320
 3762TIP3   OH211249   6.598   5.885   3.860
 3762TIP3    H111250   6.692   5.884   3.846
 3762TIP3    H211251   6.564   5.819   3.800
 3763TIP3   OH211252   4.015   6.588   4.215
 3763TIP3    H111253   3.931   6.609   4.173
 3763TIP3    H211254   4.040   6.668   4.260
 3764TIP3   OH211255   1.088   2.882   5.478
 3764TIP3    H111256   1.014   2.822   5.474
 3764TIP3    H211257   1.100   2.912   5.388
 3765TIP3   OH211258   3.671   5.279   5.070
 3765TIP3    H111259   3.576   5.274   5.057
 3765TIP3    H211260   3.696   5.191   5.097
 3766TIP3   OH211261   1.816   3.032   0.989
 3766TIP3    H111262   1.740   2.975   0.977
 3766TIP3    H211263   1.826   3.077   0.905
 3767TIP3   OH211264   6.270   4.887   4.005
 3767TIP3    H111265   6.296   4.979   4.000
 3767TIP3    H211266   6.213   4.874   3.930
 3768TIP3   OH211267   7.178   2.385   2.936
 3768TIP3    H111268   7.235   2.431   2.874
 3768TIP3    H211269   7.229   2.310   2.964
 3769TIP3   OH211270   3.430   3.305   0.083
 3769TIP3    H111271   3.377   3.228   0.060
 3769TIP3    H211272   3.519   3.271   0.092
 3770TIP3   OH211273   6.556   2.126   1.896
 3770TIP3    H111274   6.578   2.077   1.975
 3770TIP3    H211275   6.499   2.197   1.927
 3771TIP3   OH211276   3.139   4.847   5.551
 3771TIP3    H111277   3.092   4.764   5.547
 3771TIP3    H211278   3.091   4.904   5.490
 3772TIP3   OH211279   1.561   2.196   3.569
 3772TIP3    H111280   1.521   2.281   3.587
 3772TIP3    H211281   1.589   2.202   3.478
 3773TIP3   OH211282   6.455   3.082   2.803
 3773TIP3    H111283   6.387   3.138   2.841
 3773TIP3    H211284   6.408   3.006   2.770
 3774TIP3   OH211285   0.880   2.006   3.642
 3774TIP3    H111286   0.895   2.100   3.656
 3774TIP3    H211287   0.901   1.966   3.727
 3775TIP3   OH211288   2.128   0.346   1.642
 3775TIP3    H111289   2.180   0.393   1.708
 3775TIP3    H211290   2.142   0.396   1.561
 3776TIP3   OH211291   3.217   1.247   1.495
 3776TIP3    H111292   3.270   1.200   1.559
 3776TIP3    H211293   3.190   1.327   1.540
 3777TIP3   OH211294   2.881   4.240   1.433
 3777TIP3    H111295   2.940   4.269   1.503
 3777TIP3    H211296   2.931   4.173   1.386
 3778TIP3   OH211297   2.606   6.356   0.084
 3778TIP3    H111298   2.662   6.325   0.155
 3778TIP3    H211299   2.574   6.277   0.041
 3779TIP3   OH211300   6.724   1.489   1.924
 3779TIP3    H111301   6.782   1.516   1.853
 3779TIP3    H211302   6.646   1.456   1.879
 3780TIP3   OH211303   5.412   0.302   2.653
 3780TIP3    H111304   5.434   0.316   2.745
 3780TIP3    H211305   5.491   0.265   2.614
 3781TIP3   OH211306   4.279   6.002   3.236
 3781TIP3    H111307   4.251   5.920   3.195
 3781TIP3    H211308   4.267   6.069   3.168
 3782TIP3   OH211309   5.973   3.094   0.930
 3782TIP3    H111310   5.972   3.154   0.856
 3782TIP3    H211311   5.886   3.104   0.970
 3783TIP3   OH211312   5.173   1.773   0.647
 3783TIP3    H111313   5.220   1.855   0.660
 3783TIP3    H211314   5.081   1.800   0.637
 3784TIP3   OH211315   3.496   0.508   5.162
 3784TIP3    H111316   3.454   0.535   5.080
 3784TIP3    H211317   3.438   0.441   5.199
 3785TIP3   OH211318   3.515   5.467   0.502
 3785TIP3    H111319   3.481   5.377   0.502
 3785TIP3    H211320   3.538   5.484   0.593
 3786TIP3   OH211321   2.717   6.499   1.742
 3786TIP3    H111322   2.692   6.502   1.834
 3786TIP3    H211323   2.655   6.439   1.702
 3787TIP3   OH211324   5.959   5.632   4.949
 3787TIP3    H111325   5.948   5.711   4.897
 3787TIP3    H211326   5.871   5.610   4.979
 3788TIP3   OH211327   1.781   0.553   0.733
 3788TIP3    H111328   1.823   0.624   0.684
 3788TIP3    H211329   1.687   0.566   0.718
 3789TIP3   OH211330   3.242   4.071   4.091
 3789TIP3    H111331   3.286   4.046   4.172
 3789TIP3    H211332   3.299   4.037   4.021
 3790TIP3   OH211333   0.016   5.916   3.434
 3790TIP3    H111334   0.021   5.822   3.420
 3790TIP3    H211335  -0.016   5.951   3.351
 3791TIP3   OH211336   6.319   0.160   0.787
 3791TIP3    H111337   6.240   0.108   0.772
 3791TIP3    H211338   6.323   0.172   0.882
 3792TIP3   OH211339   6.329   3.461   3.453
 3792TIP3    H111340   6.393   3.488   3.520
 3792TIP3    H211341   6.284   3.387   3.492
 3793TIP3   OH211342   5.824   3.675   0.948
 3793TIP3    H111343   5.859   3.717   0.869
 3793TIP3    H211344   5.729   3.673   0.933
 3794TIP3   OH211345   5.723   0.984   3.433
 3794TIP3    H111346   5.712   1.043   3.359
 3794TIP3    H211347   5.705   1.037   3.510
 3795TIP3   OH211348   2.323   3.464   2.622
 3795TIP3    H111349   2.414   3.433   2.616
 3795TIP3    H211350   2.305   3.467   2.716
 3796TIP3   OH211351   4.265   1.307   3.906
 3796TIP3    H111352   4.185   1.332   3.860
 3796TIP3    H211353   4.237   1.289   3.995
 3797TIP3   OH211354   4.724   4.642   3.948
 3797TIP3    H111355   4.713   4.611   3.858
 3797TIP3    H211356   4.652   4.601   3.996
 3798TIP3   OH211357   3.080   2.810   2.389
 3798TIP3    H111358   3.086   2.747   2.317
 3798TIP3    H211359   3.083   2.755   2.468
 3799TIP3   OH211360   1.808   0.252   5.413
 3799TIP3    H111361   1.739   0.246   5.479
 3799TIP3    H211362   1.889   0.235   5.462
 3800TIP3   OH211363   1.727   3.722   4.862
 3800TIP3    H111364   1.803   3.691   4.911
 3800TIP3    H211365   1.653   3.709   4.921
 3801TIP3   OH211366   4.142   3.198   2.265
 3801TIP3    H111367   4.180   3.133   2.206
 3801TIP3    H211368   4.138   3.153   2.350
 3802TIP3   OH211369   3.028   2.612   5.062
 3802TIP3    H111370   3.069   2.667   4.995
 3802TIP3    H211371   3.037   2.662   5.143
 3803TIP3   OH211372   1.935   6.260   0.801
 3803TIP3    H111373   1.977   6.211   0.731
 3803TIP3    H211374   1.841   6.246   0.787
 3804TIP3   OH211375   1.406   3.562   0.860
 3804TIP3    H111376   1.383   3.469   0.864
 3804TIP3    H211377   1.482   3.565   0.801
 3805TIP3   OH211378   1.481   2.660   0.851
 3805TIP3    H111379   1.530   2.671   0.770
 3805TIP3    H211380   1.521   2.585   0.894
 3806TIP3   OH211381   1.952   3.762   2.719
 3806TIP3    H111382   1.893   3.797   2.653
 3806TIP3    H211383   1.990   3.684   2.678
 3807TIP3   OH211384   4.422   0.946   4.214
 3807TIP3    H111385   4.363   0.959   4.140
 3807TIP3    H211386   4.504   0.914   4.175
 3808TIP3   OH211387   0.355   3.943   3.397
 3808TIP3    H111388   0.280   3.890   3.370
 3808TIP3    H211389   0.339   3.963   3.489
 3809TIP3   OH211390   2.915   5.638   5.561
 3809TIP3    H111391   2.968   5.717   5.555
 3809TIP3    H211392   2.898   5.614   5.470
 3810TIP3   OH211393   1.873   1.482   1.436
 3810TIP3    H111394   1.841   1.442   1.355
 3810TIP3    H211395   1.861   1.414   1.503
 3811TIP3   OH211396   6.548   4.418   1.296
 3811TIP3    H111397   6.535   4.500   1.248
 3811TIP3    H211398   6.606   4.366   1.241
 3812TIP3   OH211399   3.784   2.322   0.095
 3812TIP3    H111400   3.722   2.357   0.159
 3812TIP3    H211401   3.862   2.301   0.146
 3813TIP3   OH211402   7.184   0.806   4.953
 3813TIP3    H111403   7.114   0.779   5.011
 3813TIP3    H211404   7.140   0.844   4.877
 3814TIP3   OH211405   3.910   6.215   0.652
 3814TIP3    H111406   3.968   6.259   0.589
 3814TIP3    H211407   3.839   6.180   0.598
 3815TIP3   OH211408   6.047   6.657   3.773
 3815TIP3    H111409   6.140   6.644   3.757
 3815TIP3    H211410   6.043   6.723   3.842
 3816TIP3   OH211411   7.035   0.427   1.871
 3816TIP3    H111412   6.968   0.378   1.822
 3816TIP3    H211413   7.103   0.445   1.807
 3817TIP3   OH211414   5.343   2.367   1.465
 3817TIP3    H111415   5.401   2.404   1.399
 3817TIP3    H211416   5.276   2.320   1.414
 3818TIP3   OH211417   4.994   0.963   3.344
 3818TIP3    H111418   4.993   0.973   3.249
 3818TIP3    H211419   4.940   1.035   3.376
 3819TIP3   OH211420   3.630   4.366   4.350
 3819TIP3    H111421   3.617   4.324   4.265
 3819TIP3    H211422   3.689   4.308   4.397
 3820TIP3   OH211423   3.071   5.698   2.143
 3820TIP3    H111424   3.006   5.762   2.117
 3820TIP3    H211425   3.027   5.644   2.209
 3821TIP3   OH211426   0.968   1.244   2.399
 3821TIP3    H111427   0.988   1.317   2.340
 3821TIP3    H211428   0.905   1.191   2.351
 3822TIP3   OH211429   1.851   0.387   1.400
 3822TIP3    H111430   1.761   0.385   1.365
 3822TIP3    H211431   1.871   0.481   1.406
 3823TIP3   OH211432   1.010   0.273   1.568
 3823TIP3    H111433   0.986   0.266   1.661
 3823TIP3    H211434   1.050   0.188   1.548
 3824TIP3   OH211435   4.492   2.630   2.929
 3824TIP3    H111436   4.479   2.715   2.970
 3824TIP3    H211437   4.502   2.648   2.836
 3825TIP3   OH211438   2.381   0.868   1.033
 3825TIP3    H111439   2.448   0.933   1.055
 3825TIP3    H211440   2.430   0.797   0.990
 3826TIP3   OH211441   3.798   6.782   3.487
 3826TIP3    H111442   3.708   6.754   3.499
 3826TIP3    H211443   3.840   6.765   3.571
 3827TIP3   OH211444   0.472   3.814   1.564
 3827TIP3    H111445   0.427   3.874   1.504
 3827TIP3    H211446   0.403   3.757   1.597
 3828TIP3   OH211447   4.896   3.305   4.139
 3828TIP3    H111448   4.809   3.278   4.168
 3828TIP3    H211449   4.883   3.391   4.099
 3829TIP3   OH211450   3.779   6.098   4.616
 3829TIP3    H111451   3.817   6.110   4.529
 3829TIP3    H211452   3.853   6.108   4.676
 3830TIP3   OH211453   0.434   3.027   2.254
 3830TIP3    H111454   0.346   3.064   2.248
 3830TIP3    H211455   0.481   3.084   2.314
 3831TIP3   OH211456   2.639   4.699   4.239
 3831TIP3    H111457   2.705   4.761   4.270
 3831TIP3    H211458   2.646   4.625   4.299
 3832TIP3   OH211459   6.278   2.372   3.295
 3832TIP3    H111460   6.327   2.424   3.360
 3832TIP3    H211461   6.197   2.349   3.340
 3833TIP3   OH211462   3.422   1.005   4.572
 3833TIP3    H111463   3.380   1.081   4.531
 3833TIP3    H211464   3.394   1.008   4.664
 3834TIP3   OH211465   5.744   6.566   5.080
 3834TIP3    H111466   5.800   6.644   5.078
 3834TIP3    H211467   5.676   6.585   5.015
 3835TIP3   OH211468   3.713   5.814   5.762
 3835TIP3    H111469   3.677   5.891   5.806
 3835TIP3    H211470   3.802   5.839   5.738
 3836TIP3   OH211471   6.327   5.424   0.715
 3836TIP3    H111472   6.260   5.479   0.676
 3836TIP3    H211473   6.404   5.436   0.659
 3837TIP3   OH211474   5.308   2.996   1.655
 3837TIP3    H111475   5.269   3.046   1.727
 3837TIP3    H211476   5.304   3.055   1.580
 3838TIP3   OH211477   4.748   4.556   5.671
 3838TIP3    H111478   4.779   4.473   5.709
 3838TIP3    H211479   4.668   4.531   5.623
 3839TIP3   OH211480   0.358   1.272   5.259
 3839TIP3    H111481   0.399   1.254   5.343
 3839TIP3    H211482   0.264   1.265   5.275
 3840TIP3   OH211483   4.000   6.703   2.618
 3840TIP3    H111484   4.048   6.715   2.536
 3840TIP3    H211485   4.040   6.764   2.678
 3841TIP3   OH211486   5.554   2.549   1.004
 3841TIP3    H111487   5.511   2.539   0.919
 3841TIP3    H211488   5.582   2.461   1.027
 3842TIP3   OH211489   3.084   1.102   4.177
 3842TIP3    H111490   3.108   1.193   4.164
 3842TIP3    H211491   3.006   1.089   4.124
 3843TIP3   OH211492   3.126   4.173   2.812
 3843TIP3    H111493   3.105   4.251   2.863
 3843TIP3    H211494   3.172   4.116   2.874
 3844TIP3   OH211495   1.092   0.963   1.610
 3844TIP3    H111496   1.093   1.022   1.534
 3844TIP3    H211497   1.175   0.916   1.603
 3845TIP3   OH211498   5.579   1.880   5.038
 3845TIP3    H111499   5.529   1.808   4.998
 3845TIP3    H211500   5.617   1.841   5.117
 3846TIP3   OH211501   1.029   0.693   4.488
 3846TIP3    H111502   1.116   0.732   4.491
 3846TIP3    H211503   0.983   0.731   4.562
 3847TIP3   OH211504   0.572   5.287   4.155
 3847TIP3    H111505   0.618   5.368   4.133
 3847TIP3    H211506   0.638   5.219   4.146
 3848TIP3   OH211507   2.951   4.355   5.599
 3848TIP3    H111508   2.861   4.324   5.596
 3848TIP3    H211509   2.981   4.353   5.509
 3849TIP3   OH211510   0.205   4.746   3.371
 3849TIP3    H111511   0.131   4.792   3.331
 3849TIP3    H211512   0.166   4.692   3.439
 3850TIP3   OH211513   0.336   2.609   4.789
 3850TIP3    H111514   0.335   2.671   4.862
 3850TIP3    H211515   0.398   2.541   4.816
 3851TIP3   OH211516   2.233   0.257   3.877
 3851TIP3    H111517   2.253   0.308   3.799
 3851TIP3    H211518   2.205   0.321   3.942
 3852TIP3   OH211519   0.019   1.688   4.437
 3852TIP3    H111520   0.110   1.661   4.449
 3852TIP3    H211521  -0.021   1.676   4.522
 3853TIP3   OH211522   1.875  -0.003   2.941
 3853TIP3    H111523   1.947   0.016   2.881
 3853TIP3    H211524   1.857   0.081   2.984
 3854TIP3   OH211525   3.791   0.101   1.240
 3854TIP3    H111526   3.866   0.042   1.239
 3854TIP3    H211527   3.825   0.184   1.206
 3855TIP3   OH211528   6.461   3.595   4.255
 3855TIP3    H111529   6.512   3.672   4.278
 3855TIP3    H211530   6.408   3.577   4.334
 3856TIP3   OH211531   0.874   5.093   3.632
 3856TIP3    H111532   0.952   5.085   3.687
 3856TIP3    H211533   0.848   5.184   3.640
 3857TIP3   OH211534   3.013   2.814   0.651
 3857TIP3    H111535   2.983   2.896   0.690
 3857TIP3    H211536   3.059   2.840   0.571
 3858TIP3   OH211537   2.121   3.992   1.652
 3858TIP3    H111538   2.159   4.036   1.728
 3858TIP3    H211539   2.183   4.010   1.581
 3859TIP3   OH211540   5.873   5.628   5.258
 3859TIP3    H111541   5.820   5.707   5.268
 3859TIP3    H211542   5.851   5.594   5.172
 3860TIP3   OH211543   4.135   5.677   4.815
 3860TIP3    H111544   4.227   5.678   4.789
 3860TIP3    H211545   4.095   5.607   4.762
 3861TIP3   OH211546   6.335   1.234   1.647
 3861TIP3    H111547   6.301   1.306   1.593
 3861TIP3    H211548   6.388   1.182   1.587
 3862TIP3   OH211549   3.552   2.072   5.814
 3862TIP3    H111550   3.574   2.148   5.761
 3862TIP3    H211551   3.635   2.027   5.828
 3863TIP3   OH211552   4.618   2.682   3.362
 3863TIP3    H111553   4.535   2.683   3.313
 3863TIP3    H211554   4.674   2.743   3.314
 3864TIP3   OH211555   3.628   0.769   1.193
 3864TIP3    H111556   3.684   0.723   1.131
 3864TIP3    H211557   3.654   0.734   1.279
 3865TIP3   OH211558   3.246   3.079   2.527
 3865TIP3    H111559   3.177   3.128   2.572
 3865TIP3    H211560   3.201   3.037   2.454
 3866TIP3   OH211561   4.839   2.885   1.065
 3866TIP3    H111562   4.922   2.905   1.107
 3866TIP3    H211563   4.782   2.959   1.087
 3867TIP3   OH211564   0.229   4.850   0.296
 3867TIP3    H111565   0.206   4.817   0.209
 3867TIP3    H211566   0.200   4.782   0.356
 3868TIP3   OH211567   1.470   1.574   5.793
 3868TIP3    H111568   1.422   1.558   5.875
 3868TIP3    H211569   1.422   1.524   5.727
 3869TIP3   OH211570   5.826   4.646   3.920
 3869TIP3    H111571   5.739   4.684   3.912
 3869TIP3    H211572   5.840   4.639   4.014
 3870TIP3   OH211573   3.434   5.332   4.556
 3870TIP3    H111574   3.500   5.290   4.611
 3870TIP3    H211575   3.453   5.425   4.564
 3871TIP3   OH211576   5.786   1.508   1.980
 3871TIP3    H111577   5.705   1.479   1.938
 3871TIP3    H211578   5.855   1.466   1.930
 3872TIP3   OH211579   3.572   4.427   4.756
 3872TIP3    H111580   3.493   4.393   4.714
 3872TIP3    H211581   3.557   4.414   4.850
 3873TIP3   OH211582   1.309   3.905   0.744
 3873TIP3    H111583   1.278   3.823   0.782
 3873TIP3    H211584   1.237   3.935   0.688
 3874TIP3   OH211585   5.475   4.614   1.135
 3874TIP3    H111586   5.497   4.661   1.216
 3874TIP3    H211587   5.506   4.671   1.065
 3875TIP3   OH211588   2.008   0.657   5.423
 3875TIP3    H111589   1.985   0.718   5.493
 3875TIP3    H211590   1.986   0.704   5.343
 3876TIP3   OH211591   6.913   5.546   3.988
 3876TIP3    H111592   6.858   5.517   4.061
 3876TIP3    H211593   6.878   5.632   3.964
 3877TIP3   OH211594   0.227   1.257   0.467
 3877TIP3    H111595   0.221   1.346   0.503
 3877TIP3    H211596   0.136   1.231   0.453
 3878TIP3   OH211597   0.913   1.561   0.693
 3878TIP3    H111598   0.981   1.507   0.734
 3878TIP3    H211599   0.831   1.521   0.720
 3879TIP3   OH211600   3.063   6.775   5.253
 3879TIP3    H111601   3.141   6.757   5.305
 3879TIP3    H211602   2.991   6.745   5.308
 3880TIP3   OH211603   4.353   2.185   0.734
 3880TIP3    H111604   4.392   2.272   0.724
 3880TIP3    H211605   4.339   2.175   0.828
 3881TIP3   OH211606   6.631   6.632   1.014
 3881TIP3    H111607   6.676   6.707   1.055
 3881TIP3    H211608   6.611   6.574   1.087
 3882TIP3   OH211609   1.921   3.526   3.839
 3882TIP3    H111610   1.955   3.606   3.797
 3882TIP3    H211611   1.829   3.545   3.856
 3883TIP3   OH211612   1.848   0.556   5.096
 3883TIP3    H111613   1.801   0.631   5.061
 3883TIP3    H211614   1.863   0.577   5.188
 3884TIP3   OH211615   0.953   2.113   2.081
 3884TIP3    H111616   0.868   2.153   2.099
 3884TIP3    H211617   0.974   2.140   1.992
 3885TIP3   OH211618   2.683   5.021   5.428
 3885TIP3    H111619   2.617   5.087   5.451
 3885TIP3    H211620   2.638   4.937   5.439
 3886TIP3   OH211621   2.930   0.358   3.402
 3886TIP3    H111622   2.949   0.450   3.388
 3886TIP3    H211623   3.015   0.314   3.398
 3887TIP3   OH211624   3.510   2.947   1.015
 3887TIP3    H111625   3.576   3.004   0.977
 3887TIP3    H211626   3.446   3.008   1.054
 3888TIP3   OH211627   5.770   2.018   2.212
 3888TIP3    H111628   5.758   2.002   2.118
 3888TIP3    H211629   5.865   2.020   2.224
 3889TIP3   OH211630   0.760   1.315   5.116
 3889TIP3    H111631   0.787   1.227   5.140
 3889TIP3    H211632   0.735   1.309   5.024
 3890TIP3   OH211633   2.979   1.080   5.459
 3890TIP3    H111634   3.024   1.163   5.446
 3890TIP3    H211635   2.892   1.093   5.423
 3891TIP3   OH211636   2.079   6.732   0.186
 3891TIP3    H111637   2.139   6.660   0.166
 3891TIP3    H211638   2.064   6.725   0.280
 3892TIP3   OH211639   3.843   5.849   0.582
 3892TIP3    H111640   3.883   5.764   0.602
 3892TIP3    H211641   3.812   5.881   0.666
 3893TIP3   OH211642   5.049   1.089   2.662
 3893TIP3    H111643   4.997   1.136   2.727
 3893TIP3    H211644   5.083   1.158   2.605
 3894TIP3   OH211645   2.115   6.464   2.585
 3894TIP3    H111646   2.085   6.554   2.573
 3894TIP3    H211647   2.059   6.429   2.654
 3895TIP3   OH211648   3.623   4.443   3.306
 3895TIP3    H111649   3.603   4.438   3.399
 3895TIP3    H211650   3.542   4.414   3.262
 3896TIP3   OH211651   1.855   1.394   5.433
 3896TIP3    H111652   1.896   1.384   5.518
 3896TIP3    H211653   1.846   1.305   5.399
 3897TIP3   OH211654   3.789   4.825   1.645
 3897TIP3    H111655   3.872   4.823   1.597
 3897TIP3    H211656   3.812   4.797   1.734
 3898TIP3   OH211657   2.838   4.688   2.902
 3898TIP3    H111658   2.783   4.684   2.981
 3898TIP3    H211659   2.807   4.765   2.855
 3899TIP3   OH211660   0.688   0.389   0.896
 3899TIP3    H111661   0.729   0.463   0.850
 3899TIP3    H211662   0.664   0.329   0.826
 3900TIP3   OH211663   1.279   2.084   2.112
 3900TIP3    H111664   1.251   2.174   2.129
 3900TIP3    H211665   1.205   2.030   2.141
 3901TIP3   OH211666   5.561   4.933   0.377
 3901TIP3    H111667   5.613   4.929   0.297
 3901TIP3    H211668   5.539   4.842   0.397
 3902TIP3   OH211669   0.877   0.473   3.734
 3902TIP3    H111670   0.849   0.500   3.646
 3902TIP3    H211671   0.831   0.533   3.793
 3903TIP3   OH211672   3.875   3.982   2.761
 3903TIP3    H111673   3.963   4.019   2.770
 3903TIP3    H211674   3.890   3.892   2.733
 3904TIP3   OH211675   0.767   5.091   1.467
 3904TIP3    H111676   0.772   5.169   1.411
 3904TIP3    H211677   0.697   5.111   1.529
 3905TIP3   OH211678   1.847   0.251   5.735
 3905TIP3    H111679   1.899   0.257   5.815
 3905TIP3    H211680   1.873   0.326   5.683
 3906TIP3   OH211681   2.805   5.368   3.408
 3906TIP3    H111682   2.830   5.460   3.405
 3906TIP3    H211683   2.779   5.353   3.499
 3907TIP3   OH211684   5.097   5.518   1.904
 3907TIP3    H111685   5.050   5.538   1.984
 3907TIP3    H211686   5.171   5.578   1.904
 3908TIP3   OH211687   3.766   6.693   4.407
 3908TIP3    H111688   3.835   6.655   4.460
 3908TIP3    H211689   3.806   6.771   4.367
 3909TIP3   OH211690   0.821   0.913   2.032
 3909TIP3    H111691   0.894   0.967   2.002
 3909TIP3    H211692   0.744   0.952   1.991
 3910TIP3   OH211693   0.967   0.534   4.183
 3910TIP3    H111694   0.943   0.611   4.130
 3910TIP3    H211695   1.059   0.519   4.161
 3911TIP3   OH211696   2.329   1.261   0.642
 3911TIP3    H111697   2.305   1.339   0.592
 3911TIP3    H211698   2.303   1.188   0.586
 3912TIP3   OH211699   2.392   5.851   4.241
 3912TIP3    H111700   2.444   5.820   4.167
 3912TIP3    H211701   2.424   5.801   4.316
 3913TIP3   OH211702   3.038   0.263   2.324
 3913TIP3    H111703   3.125   0.226   2.309
 3913TIP3    H211704   2.982   0.222   2.258
 3914TIP3   OH211705   3.957   6.372   5.563
 3914TIP3    H111706   4.027   6.423   5.522
 3914TIP3    H211707   3.878   6.424   5.549
 3915TIP3   OH211708   6.863   6.341   5.858
 3915TIP3    H111709   6.922   6.273   5.826
 3915TIP3    H211710   6.911   6.382   5.930
 3916TIP3   OH211711   3.446   4.302   0.676
 3916TIP3    H111712   3.488   4.259   0.601
 3916TIP3    H211713   3.496   4.383   0.688
 3917TIP3   OH211714   3.100   0.860   2.456
 3917TIP3    H111715   3.130   0.790   2.513
 3917TIP3    H211716   3.107   0.939   2.508
 3918TIP3   OH211717   3.328   5.258   0.247
 3918TIP3    H111718   3.365   5.263   0.335
 3918TIP3    H211719   3.250   5.314   0.250
 3919TIP3   OH211720   4.255   5.759   1.727
 3919TIP3    H111721   4.238   5.754   1.821
 3919TIP3    H211722   4.176   5.799   1.690
 3920TIP3   OH211723   5.372   1.974   0.257
 3920TIP3    H111724   5.431   1.969   0.182
 3920TIP3    H211725   5.284   1.971   0.219
 3921TIP3   OH211726   0.106   4.661   2.549
 3921TIP3    H111727   0.030   4.706   2.585
 3921TIP3    H211728   0.129   4.711   2.471
 3922TIP3   OH211729   4.645   1.544   3.934
 3922TIP3    H111730   4.561   1.519   3.972
 3922TIP3    H211731   4.662   1.631   3.969
 3923TIP3   OH211732   4.582   2.724   1.793
 3923TIP3    H111733   4.674   2.720   1.819
 3923TIP3    H211734   4.582   2.710   1.698
 3924TIP3   OH211735   5.765   4.211   4.741
 3924TIP3    H111736   5.762   4.121   4.772
 3924TIP3    H211737   5.680   4.248   4.766
 3925TIP3   OH211738   0.814   0.828   4.330
 3925TIP3    H111739   0.871   0.758   4.362
 3925TIP3    H211740   0.822   0.898   4.395
 3926TIP3   OH211741   3.084   1.468   1.631
 3926TIP3    H111742   3.047   1.529   1.567
 3926TIP3    H211743   3.108   1.524   1.705
 3927TIP3   OH211744   1.585   6.277   4.263
 3927TIP3    H111745   1.527   6.326   4.322
 3927TIP3    H211746   1.673   6.293   4.297
 3928TIP3   OH211747   6.336   4.317   0.985
 3928TIP3    H111748   6.323   4.400   1.030
 3928TIP3    H211749   6.429   4.297   0.998
 3929TIP3   OH211750   4.583   1.965   3.772
 3929TIP3    H111751   4.505   1.933   3.726
 3929TIP3    H211752   4.642   1.993   3.702
 3930TIP3   OH211753   2.893   1.264   5.677
 3930TIP3    H111754   2.861   1.182   5.638
 3930TIP3    H211755   2.827   1.329   5.652
 3931TIP3   OH211756   1.084   4.411   2.607
 3931TIP3    H111757   1.069   4.319   2.627
 3931TIP3    H211758   1.149   4.410   2.536
 3932TIP3   OH211759   4.644   0.321   2.567
 3932TIP3    H111760   4.679   0.305   2.654
 3932TIP3    H211761   4.696   0.265   2.509
 3933TIP3   OH211762   6.988   2.765   2.148
 3933TIP3    H111763   6.994   2.860   2.143
 3933TIP3    H211764   6.895   2.746   2.142
 3934TIP3   OH211765   0.039   1.648   0.948
 3934TIP3    H111766  -0.040   1.677   0.993
 3934TIP3    H211767   0.020   1.558   0.922
 3935TIP3   OH211768   3.167   5.899   5.149
 3935TIP3    H111769   3.084   5.853   5.162
 3935TIP3    H211770   3.142   5.991   5.139
 3936TIP3   OH211771   4.592   5.366   5.411
 3936TIP3    H111772   4.642   5.289   5.384
 3936TIP3    H211773   4.642   5.440   5.375
 3937TIP3   OH211774   1.746   1.049   1.246
 3937TIP3    H111775   1.780   1.019   1.330
 3937TIP3    H211776   1.778   0.985   1.182
 3938TIP3   OH211777   2.449   3.680   2.194
 3938TIP3    H111778   2.394   3.615   2.238
 3938TIP3    H211779   2.429   3.669   2.101
 3939TIP3   OH211780   5.556   3.704   0.869
 3939TIP3    H111781   5.523   3.616   0.888
 3939TIP3    H211782   5.488   3.743   0.815
 3940TIP3   OH211783   1.402   2.886   2.933
 3940TIP3    H111784   1.392   2.825   2.860
 3940TIP3    H211785   1.456   2.957   2.898
 3941TIP3   OH211786   6.729   4.858   1.329
 3941TIP3    H111787   6.759   4.812   1.250
 3941TIP3    H211788   6.803   4.852   1.389
 3942TIP3   OH211789   6.073   6.028   3.922
 3942TIP3    H111790   5.979   6.028   3.900
 3942TIP3    H211791   6.108   6.101   3.870
 3943TIP3   OH211792   4.353   3.707   0.719
 3943TIP3    H111793   4.439   3.726   0.757
 3943TIP3    H211794   4.365   3.625   0.672
 3944TIP3   OH211795   6.500   3.771   5.634
 3944TIP3    H111796   6.538   3.726   5.709
 3944TIP3    H211797   6.406   3.776   5.654
 3945TIP3   OH211798   2.489   6.538   3.060
 3945TIP3    H111799   2.422   6.606   3.072
 3945TIP3    H211800   2.445   6.457   3.087
 3946TIP3   OH211801   0.714   6.665   3.521
 3946TIP3    H111802   0.723   6.747   3.472
 3946TIP3    H211803   0.722   6.690   3.613
 3947TIP3   OH211804   2.242   1.722   4.038
 3947TIP3    H111805   2.193   1.690   3.962
 3947TIP3    H211806   2.313   1.659   4.049
 3948TIP3   OH211807   7.037   3.384   1.868
 3948TIP3    H111808   6.949   3.413   1.844
 3948TIP3    H211809   7.037   3.384   1.964
 3949TIP3   OH211810   6.181   6.255   0.887
 3949TIP3    H111811   6.154   6.282   0.975
 3949TIP3    H211812   6.193   6.337   0.839
 3950TIP3   OH211813   3.961   3.298   2.776
 3950TIP3    H111814   3.999   3.381   2.805
 3950TIP3    H211815   3.894   3.324   2.712
 3951TIP3   OH211816   0.162   6.636   5.390
 3951TIP3    H111817   0.218   6.564   5.419
 3951TIP3    H211818   0.122   6.604   5.309
 3952TIP3   OH211819   5.668   4.815   4.802
 3952TIP3    H111820   5.620   4.773   4.732
 3952TIP3    H211821   5.663   4.909   4.782
 3953TIP3   OH211822   2.282   4.693   3.602
 3953TIP3    H111823   2.311   4.668   3.514
 3953TIP3    H211824   2.214   4.758   3.587
 3954TIP3   OH211825   3.056   0.389   4.824
 3954TIP3    H111826   3.086   0.444   4.896
 3954TIP3    H211827   2.972   0.353   4.855
 3955TIP3   OH211828   2.793   1.776   2.828
 3955TIP3    H111829   2.718   1.833   2.814
 3955TIP3    H211830   2.755   1.693   2.857
 3956TIP3   OH211831   1.423   6.368   3.437
 3956TIP3    H111832   1.432   6.379   3.532
 3956TIP3    H211833   1.370   6.289   3.426
 3957TIP3   OH211834   2.207   5.909   3.959
 3957TIP3    H111835   2.299   5.936   3.951
 3957TIP3    H211836   2.157   5.988   3.935
 3958TIP3   OH211837   5.584   3.742   1.137
 3958TIP3    H111838   5.550   3.829   1.158
 3958TIP3    H211839   5.593   3.742   1.042
 3959TIP3   OH211840   0.606   5.617   2.592
 3959TIP3    H111841   0.661   5.695   2.585
 3959TIP3    H211842   0.609   5.577   2.506
 3960TIP3   OH211843   4.087   5.366   4.832
 3960TIP3    H111844   3.993   5.363   4.814
 3960TIP3    H211845   4.118   5.276   4.821
 3961TIP3   OH211846   3.343   0.740   2.696
 3961TIP3    H111847   3.273   0.683   2.666
 3961TIP3    H211848   3.299   0.811   2.743
 3962TIP3   OH211849   2.965   6.275   5.882
 3962TIP3    H111850   2.887   6.326   5.859
 3962TIP3    H211851   3.029   6.341   5.910
 3963TIP3   OH211852   5.473   2.297   1.674
 3963TIP3    H111853   5.412   2.315   1.602
 3963TIP3    H211854   5.513   2.382   1.694
 3964TIP3   OH211855   1.315   6.140   5.082
 3964TIP3    H111856   1.287   6.053   5.108
 3964TIP3    H211857   1.256   6.164   5.010
 3965TIP3   OH211858   5.532   6.541   4.741
 3965TIP3    H111859   5.468   6.525   4.671
 3965TIP3    H211860   5.599   6.596   4.700
 3966TIP3   OH211861   0.826   3.909   4.501
 3966TIP3    H111862   0.766   3.961   4.447
 3966TIP3    H211863   0.830   3.957   4.583
 3967TIP3   OH211864   2.308   2.432   1.342
 3967TIP3    H111865   2.380   2.439   1.405
 3967TIP3    H211866   2.309   2.340   1.315
 3968TIP3   OH211867   1.711   3.908   3.318
 3968TIP3    H111868   1.636   3.877   3.267
 3968TIP3    H211869   1.672   3.950   3.395
 3969TIP3   OH211870   0.690   1.996   2.402
 3969TIP3    H111871   0.693   2.013   2.308
 3969TIP3    H211872   0.729   1.909   2.412
 3970TIP3   OH211873   2.739   0.138   4.123
 3970TIP3    H111874   2.772   0.183   4.045
 3970TIP3    H211875   2.807   0.150   4.189
 3971TIP3   OH211876   2.158   2.967   0.313
 3971TIP3    H111877   2.230   2.905   0.305
 3971TIP3    H211878   2.195   3.041   0.360
 3972TIP3   OH211879   0.993   3.825   5.234
 3972TIP3    H111880   0.989   3.854   5.143
 3972TIP3    H211881   1.055   3.752   5.233
 3973TIP3   OH211882   4.395   6.291   5.155
 3973TIP3    H111883   4.347   6.221   5.112
 3973TIP3    H211884   4.423   6.254   5.239
 3974TIP3   OH211885   1.559   3.065   2.793
 3974TIP3    H111886   1.511   3.134   2.747
 3974TIP3    H211887   1.614   3.112   2.856
 3975TIP3   OH211888   4.843   1.886   1.333
 3975TIP3    H111889   4.811   1.958   1.277
 3975TIP3    H211890   4.936   1.881   1.313
 3976TIP3   OH211891   4.834   5.941   2.776
 3976TIP3    H111892   4.900   6.009   2.792
 3976TIP3    H211893   4.885   5.860   2.769
 3977TIP3   OH211894   5.902   1.440   0.547
 3977TIP3    H111895   5.953   1.424   0.468
 3977TIP3    H211896   5.907   1.358   0.596
 3978TIP3   OH211897   5.276   4.660   5.033
 3978TIP3    H111898   5.336   4.686   5.103
 3978TIP3    H211899   5.332   4.614   4.970
 3979TIP3   OH211900   5.252   3.850   3.670
 3979TIP3    H111901   5.256   3.934   3.626
 3979TIP3    H211902   5.288   3.788   3.607
 3980TIP3   OH211903   7.018   3.685   1.401
 3980TIP3    H111904   6.981   3.621   1.462
 3980TIP3    H211905   7.111   3.686   1.421
 3981TIP3   OH211906   4.043   6.331   0.446
 3981TIP3    H111907   4.049   6.427   0.448
 3981TIP3    H211908   3.994   6.312   0.366
 3982TIP3   OH211909   0.051   4.945   3.818
 3982TIP3    H111910  -0.004   4.961   3.894
 3982TIP3    H211911   0.119   4.885   3.849
 3983TIP3   OH211912   5.031   5.632   5.669
 3983TIP3    H111913   5.083   5.708   5.645
 3983TIP3    H211914   4.973   5.618   5.595
 3984TIP3   OH211915   2.154   2.073   4.892
 3984TIP3    H111916   2.097   2.126   4.948
 3984TIP3    H211917   2.152   1.985   4.931
 3985TIP3   OH211918   4.431   4.351   3.577
 3985TIP3    H111919   4.456   4.318   3.491
 3985TIP3    H211920   4.352   4.302   3.599
 3986TIP3   OH211921   3.609   2.635   4.544
 3986TIP3    H111922   3.583   2.546   4.519
 3986TIP3    H211923   3.636   2.676   4.462
 3987TIP3   OH211924   5.851   1.975   3.215
 3987TIP3    H111925   5.915   2.035   3.177
 3987TIP3    H211926   5.817   1.926   3.140
 3988TIP3   OH211927   1.659   1.016   0.586
 3988TIP3    H111928   1.751   1.025   0.609
 3988TIP3    H211929   1.641   0.922   0.596
 3989TIP3   OH211930   3.274   2.807   1.609
 3989TIP3    H111931   3.348   2.768   1.564
 3989TIP3    H211932   3.287   2.902   1.601
 3990TIP3   OH211933   1.902   5.484   0.113
 3990TIP3    H111934   1.969   5.416   0.125
 3990TIP3    H211935   1.939   5.561   0.155
 3991TIP3   OH211936   2.844   6.064   0.547
 3991TIP3    H111937   2.753   6.036   0.536
 3991TIP3    H211938   2.893   6.011   0.483
 3992TIP3   OH211939   3.766   4.516   1.515
 3992TIP3    H111940   3.840   4.454   1.509
 3992TIP3    H211941   3.712   4.482   1.586
 3993TIP3   OH211942   6.922   3.711   4.789
 3993TIP3    H111943   7.002   3.684   4.745
 3993TIP3    H211944   6.852   3.674   4.736
 3994TIP3   OH211945   3.172  -0.018   5.686
 3994TIP3    H111946   3.145   0.061   5.733
 3994TIP3    H211947   3.099  -0.036   5.626
 3995TIP3   OH211948   2.162   5.656   4.490
 3995TIP3    H111949   2.190   5.566   4.511
 3995TIP3    H211950   2.073   5.646   4.457
 3996TIP3   OH211951   3.933   0.716   5.647
 3996TIP3    H111952   3.843   0.694   5.669
 3996TIP3    H211953   3.956   0.655   5.577
 3997TIP3   OH211954   6.292   4.836   5.829
 3997TIP3    H111955   6.319   4.894   5.900
 3997TIP3    H211956   6.218   4.787   5.865
 3998TIP3   OH211957   4.456   0.214   5.384
 3998TIP3    H111958   4.514   0.284   5.412
 3998TIP3    H211959   4.402   0.253   5.315
 3999TIP3   OH211960   5.252   5.445   0.719
 3999TIP3    H111961   5.272   5.511   0.785
 3999TIP3    H211962   5.212   5.373   0.768
 4000TIP3   OH211963   4.159   3.446   1.030
 4000TIP3    H111964   4.179   3.484   1.116
 4000TIP3    H211965   4.137   3.355   1.048
 4001TIP3   OH211966   2.264   4.604   1.029
 4001TIP3    H111967   2.323   4.677   1.048
 4001TIP3    H211968   2.269   4.548   1.107
 4002TIP3   OH211969   7.096   2.152   4.517
 4002TIP3    H111970   7.192   2.154   4.510
 4002TIP3    H211971   7.070   2.244   4.513
 4003TIP3   OH211972   3.411   6.396   3.004
 4003TIP3    H111973   3.360   6.345   3.068
 4003TIP3    H211974   3.483   6.432   3.055
 4004TIP3   OH211975   4.012   6.557   3.163
 4004TIP3    H111976   4.097   6.513   3.171
 4004TIP3    H211977   3.965   6.532   3.243
 4005TIP3   OH211978   5.524   0.980   2.431
 4005TIP3    H111979   5.487   0.917   2.369
 4005TIP3    H211980   5.551   0.928   2.506
 4006TIP3   OH211981   3.843   4.629   5.174
 4006TIP3    H111982   3.874   4.649   5.086
 4006TIP3    H211983   3.919   4.590   5.217
 4007TIP3   OH211984   4.787   4.092   0.299
 4007TIP3    H111985   4.813   4.149   0.371
 4007TIP3    H211986   4.868   4.049   0.271
 4008TIP3   OH211987   1.337   2.881   5.620
 4008TIP3    H111988   1.385   2.962   5.605
 4008TIP3    H211989   1.254   2.893   5.575
 4009TIP3   OH211990   6.719   0.194   5.460
 4009TIP3    H111991   6.643   0.252   5.466
 4009TIP3    H211992   6.682   0.107   5.448
 4010TIP3   OH211993   1.680   2.827   5.622
 4010TIP3    H111994   1.629   2.757   5.580
 4010TIP3    H211995   1.770   2.811   5.593
 4011TIP3   OH211996   3.985   0.325   1.479
 4011TIP3    H111997   4.055   0.287   1.426
 4011TIP3    H211998   4.032   0.371   1.549
 4012TIP3   OH211999   5.825   3.883   2.552
 4012TIP3    H112000   5.765   3.917   2.486
 4012TIP3    H212001   5.781   3.806   2.588
 4013TIP3   OH212002   6.181   4.496   5.380
 4013TIP3    H112003   6.201   4.447   5.300
 4013TIP3    H212004   6.234   4.575   5.373
 4014TIP3   OH212005   4.187   6.770   2.427
 4014TIP3    H112006   4.176   6.858   2.391
 4014TIP3    H212007   4.281   6.763   2.447
 4015TIP3   OH212008   2.570   6.027   0.471
 4015TIP3    H112009   2.593   6.007   0.380
 4015TIP3    H212010   2.530   5.946   0.503
 4016TIP3   OH212011   2.227   2.122   0.070
 4016TIP3    H112012   2.186   2.100   0.154
 4016TIP3    H212013   2.233   2.039   0.024
 4017TIP3   OH212014   1.729   1.435   3.195
 4017TIP3    H112015   1.796   1.447   3.262
 4017TIP3    H212016   1.704   1.524   3.169
 4018TIP3   OH212017   2.709   1.329   3.184
 4018TIP3    H112018   2.718   1.249   3.132
 4018TIP3    H212019   2.654   1.302   3.258
 4019TIP3   OH212020   6.095   3.280   5.581
 4019TIP3    H112021   6.014   3.241   5.548
 4019TIP3    H212022   6.134   3.323   5.506
 4020TIP3   OH212023   4.685   4.568   0.757
 4020TIP3    H112024   4.613   4.556   0.820
 4020TIP3    H212025   4.756   4.606   0.809
 4021TIP3   OH212026   0.521   2.305   3.571
 4021TIP3    H112027   0.611   2.337   3.572
 4021TIP3    H212028   0.529   2.212   3.551
 4022TIP3   OH212029   3.263   3.436   4.623
 4022TIP3    H112030   3.287   3.506   4.562
 4022TIP3    H212031   3.194   3.387   4.578
 4023TIP3   OH212032   0.554   2.078   3.177
 4023TIP3    H112033   0.608   2.091   3.254
 4023TIP3    H212034   0.535   1.984   3.175
 4024TIP3   OH212035   5.825   6.597   5.543
 4024TIP3    H112036   5.859   6.673   5.591
 4024TIP3    H212037   5.899   6.536   5.540
 4025TIP3   OH212038   1.878   3.413   5.097
 4025TIP3    H112039   1.803   3.468   5.120
 4025TIP3    H212040   1.955   3.465   5.123
 4026TIP3   OH212041   2.472   4.681   0.261
 4026TIP3    H112042   2.556   4.655   0.297
 4026TIP3    H212043   2.445   4.756   0.315
 4027TIP3   OH212044   7.161   1.388   0.878
 4027TIP3    H112045   7.225   1.351   0.818
 4027TIP3    H212046   7.130   1.313   0.929
 4028TIP3   OH212047   1.116   3.948   2.220
 4028TIP3    H112048   1.090   3.902   2.140
 4028TIP3    H212049   1.040   3.942   2.277
 4029TIP3   OH212050   3.171   0.284   3.586
 4029TIP3    H112051   3.200   0.331   3.508
 4029TIP3    H212052   3.245   0.292   3.648
 4030TIP3   OH212053   1.714   2.086   5.685
 4030TIP3    H112054   1.696   2.076   5.779
 4030TIP3    H212055   1.795   2.037   5.672
 4031TIP3   OH212056   0.806   2.208   4.664
 4031TIP3    H112057   0.764   2.289   4.693
 4031TIP3    H212058   0.898   2.232   4.650
 4032TIP3   OH212059   4.088   2.939   1.085
 4032TIP3    H112060   4.025   2.962   1.016
 4032TIP3    H212061   4.056   2.984   1.163
 4033TIP3   OH212062   2.360   1.441   3.970
 4033TIP3    H112063   2.380   1.426   4.062
 4033TIP3    H212064   2.429   1.395   3.923
 4034TIP3   OH212065   2.250   4.237   1.208
 4034TIP3    H112066   2.162   4.244   1.171
 4034TIP3    H212067   2.301   4.302   1.161
 4035TIP3   OH212068   1.695   5.911   4.260
 4035TIP3    H112069   1.712   5.846   4.192
 4035TIP3    H212070   1.749   5.986   4.236
 4036TIP3   OH212071   6.511   1.874   0.240
 4036TIP3    H112072   6.570   1.832   0.177
 4036TIP3    H212073   6.474   1.948   0.191
 4037TIP3   OH212074   0.201   1.719   3.084
 4037TIP3    H112075   0.167   1.760   3.005
 4037TIP3    H212076   0.123   1.695   3.135
 4038TIP3   OH212077   2.136   0.604   5.842
 4038TIP3    H112078   2.170   0.580   5.928
 4038TIP3    H212079   2.043   0.621   5.857
 4039TIP3   OH212080   6.601   3.661   1.112
 4039TIP3    H112081   6.522   3.689   1.160
 4039TIP3    H212082   6.673   3.701   1.161
 4040TIP3   OH212083   2.407   2.527   1.102
 4040TIP3    H112084   2.460   2.448   1.091
 4040TIP3    H212085   2.345   2.506   1.171
 4041TIP3   OH212086   7.181   5.934   3.158
 4041TIP3    H112087   7.202   5.846   3.191
 4041TIP3    H212088   7.264   5.967   3.123
 4042TIP3   OH212089   1.039   0.448   1.308
 4042TIP3    H112090   0.996   0.414   1.387
 4042TIP3    H212091   0.967   0.476   1.252
 4043TIP3   OH212092   2.640   3.422   3.456
 4043TIP3    H112093   2.620   3.499   3.510
 4043TIP3    H212094   2.564   3.365   3.466
 4044TIP3   OH212095   1.334   4.001   3.260
 4044TIP3    H112096   1.380   3.917   3.269
 4044TIP3    H212097   1.303   4.020   3.349
 4045TIP3   OH212098   4.594   0.330   0.280
 4045TIP3    H112099   4.606   0.247   0.326
 4045TIP3    H212100   4.633   0.396   0.338
 4046TIP3   OH212101   3.023   1.810   2.964
 4046TIP3    H112102   2.967   1.851   3.030
 4046TIP3    H212103   2.961   1.774   2.900
 4047TIP3   OH212104   5.765   1.405   2.311
 4047TIP3    H112105   5.823   1.342   2.352
 4047TIP3    H212106   5.823   1.476   2.283
 4048TIP3   OH212107   7.134   5.477   4.649
 4048TIP3    H112108   7.046   5.508   4.667
 4048TIP3    H212109   7.122   5.407   4.585
 4049TIP3   OH212110   6.688   4.080   2.300
 4049TIP3    H112111   6.686   4.000   2.352
 4049TIP3    H212112   6.712   4.050   2.212
 4050TIP3   OH212113   6.054   5.590   3.358
 4050TIP3    H112114   5.999   5.603   3.281
 4050TIP3    H212115   6.142   5.579   3.322
 4051TIP3   OH212116   2.982   4.551   4.773
 4051TIP3    H112117   2.991   4.608   4.696
 4051TIP3    H212118   3.065   4.504   4.777
 4052TIP3   OH212119   1.351   2.629   3.398
 4052TIP3    H112120   1.268   2.617   3.444
 4052TIP3    H212121   1.326   2.662   3.312
 4053TIP3   OH212122   1.892   1.606   0.306
 4053TIP3    H112123   1.850   1.542   0.248
 4053TIP3    H212124   1.975   1.627   0.262
 4054TIP3   OH212125   4.822   1.540   1.986
 4054TIP3    H112126   4.898   1.570   1.937
 4054TIP3    H212127   4.845   1.553   2.078
 4055TIP3   OH212128   1.904   6.666   4.221
 4055TIP3    H112129   1.961   6.601   4.263
 4055TIP3    H212130   1.960   6.709   4.156
 4056TIP3   OH212131   2.131   1.155   0.492
 4056TIP3    H112132   2.051   1.201   0.468
 4056TIP3    H212133   2.135   1.081   0.432
 4057TIP3   OH212134   4.512   1.176   0.356
 4057TIP3    H112135   4.427   1.135   0.343
 4057TIP3    H212136   4.539   1.205   0.269
 4058TIP3   OH212137   5.215   0.276   0.326
 4058TIP3    H112138   5.186   0.206   0.267
 4058TIP3    H212139   5.178   0.356   0.288
 4059TIP3   OH212140   6.667   6.275   0.755
 4059TIP3    H112141   6.624   6.345   0.805
 4059TIP3    H212142   6.605   6.203   0.756
 4060TIP3   OH212143   1.048   2.088   4.689
 4060TIP3    H112144   1.077   2.160   4.745
 4060TIP3    H212145   1.097   2.100   4.607
 4061TIP3   OH212146   1.696   1.147   4.331
 4061TIP3    H112147   1.617   1.113   4.371
 4061TIP3    H212148   1.724   1.218   4.389
 4062TIP3   OH212149   0.666   3.207   3.112
 4062TIP3    H112150   0.597   3.142   3.099
 4062TIP3    H212151   0.742   3.157   3.142
 4063TIP3   OH212152   0.738   6.170   5.771
 4063TIP3    H112153   0.780   6.118   5.839
 4063TIP3    H212154   0.792   6.248   5.764
 4064TIP3   OH212155   0.486   1.819   1.497
 4064TIP3    H112156   0.569   1.780   1.470
 4064TIP3    H212157   0.420   1.757   1.468
 4065TIP3   OH212158   2.082   3.487   2.268
 4065TIP3    H112159   2.034   3.429   2.208
 4065TIP3    H212160   2.168   3.447   2.276
 4066TIP3   OH212161   4.517   5.428   2.845
 4066TIP3    H112162   4.488   5.514   2.815
 4066TIP3    H212163   4.499   5.429   2.939
 4067TIP3   OH212164   4.449   1.989   0.228
 4067TIP3    H112165   4.424   2.075   0.261
 4067TIP3    H212166   4.440   1.995   0.133
 4068TIP3   OH212167   2.581   0.471   3.562
 4068TIP3    H112168   2.527   0.407   3.517
 4068TIP3    H212169   2.670   0.454   3.530
 4069TIP3   OH212170   6.610   2.035   2.159
 4069TIP3    H112171   6.669   2.090   2.211
 4069TIP3    H212172   6.560   1.985   2.223
 4070TIP3   OH212173   4.602   2.383   3.714
 4070TIP3    H112174   4.636   2.413   3.798
 4070TIP3    H212175   4.515   2.349   3.735
 4071TIP3   OH212176   3.693   0.783   0.219
 4071TIP3    H112177   3.714   0.690   0.217
 4071TIP3    H212178   3.599   0.785   0.237
 4072TIP3   OH212179   7.125   5.712   1.600
 4072TIP3    H112180   7.071   5.640   1.568
 4072TIP3    H212181   7.191   5.725   1.532
 4073TIP3   OH212182   6.339   1.382   1.990
 4073TIP3    H112183   6.375   1.421   1.911
 4073TIP3    H212184   6.325   1.455   2.050
 4074TIP3   OH212185   2.724   2.079   5.656
 4074TIP3    H112186   2.745   2.165   5.619
 4074TIP3    H212187   2.809   2.036   5.668
 4075TIP3   OH212188   5.247   5.200   0.427
 4075TIP3    H112189   5.309   5.272   0.420
 4075TIP3    H212190   5.229   5.192   0.520
 4076TIP3   OH212191   3.190   5.520   2.931
 4076TIP3    H112192   3.271   5.506   2.980
 4076TIP3    H212193   3.121   5.496   2.993
 4077TIP3   OH212194   6.542   3.669   3.344
 4077TIP3    H112195   6.480   3.706   3.407
 4077TIP3    H212196   6.574   3.589   3.385
 4078TIP3   OH212197   1.213   1.562   5.510
 4078TIP3    H112198   1.123   1.581   5.537
 4078TIP3    H212199   1.239   1.488   5.564
 4079TIP3   OH212200   4.739   1.533   3.252
 4079TIP3    H112201   4.712   1.575   3.170
 4079TIP3    H212202   4.777   1.449   3.224
 4080TIP3   OH212203   4.058   2.241   4.897
 4080TIP3    H112204   4.055   2.145   4.890
 4080TIP3    H212205   4.063   2.258   4.991
 4081TIP3   OH212206   3.051   3.286   1.950
 4081TIP3    H112207   3.057   3.380   1.965
 4081TIP3    H212208   2.996   3.278   1.871
 4082TIP3   OH212209   4.472   0.435   3.746
 4082TIP3    H112210   4.560   0.418   3.777
 4082TIP3    H212211   4.442   0.351   3.712
 4083TIP3   OH212212   5.804   6.025   1.262
 4083TIP3    H112213   5.820   6.007   1.169
 4083TIP3    H212214   5.827   6.117   1.273
 4084TIP3   OH212215   5.253   2.729   0.767
 4084TIP3    H112216   5.170   2.770   0.743
 4084TIP3    H212217   5.256   2.733   0.862
 4085TIP3   OH212218   6.631   3.089   0.479
 4085TIP3    H112219   6.648   3.135   0.561
 4085TIP3    H212220   6.599   3.003   0.505
 4086TIP3   OH212221   4.514   1.096   2.979
 4086TIP3    H112222   4.580   1.057   3.035
 4086TIP3    H212223   4.553   1.179   2.951
 4087TIP3   OH212224   0.367   1.885   3.803
 4087TIP3    H112225   0.283   1.931   3.812
 4087TIP3    H212226   0.429   1.941   3.850
 4088TIP3   OH212227   5.974   4.271   4.022
 4088TIP3    H112228   5.881   4.281   4.001
 4088TIP3    H212229   6.018   4.336   3.967
 4089TIP3   OH212230   4.066   4.340   5.451
 4089TIP3    H112231   4.109   4.419   5.485
 4089TIP3    H212232   4.133   4.272   5.455
 4090TIP3   OH212233   0.582   4.219   1.740
 4090TIP3    H112234   0.653   4.200   1.678
 4090TIP3    H212235   0.558   4.133   1.775
 4091TIP3   OH212236   3.394   2.473   5.194
 4091TIP3    H112237   3.317   2.416   5.194
 4091TIP3    H212238   3.431   2.464   5.106
 4092TIP3   OH212239   0.765   0.538   2.933
 4092TIP3    H112240   0.796   0.529   2.843
 4092TIP3    H212241   0.844   0.529   2.987
 4093TIP3   OH212242   4.351   4.531   5.307
 4093TIP3    H112243   4.390   4.496   5.227
 4093TIP3    H212244   4.269   4.483   5.317
 4094TIP3   OH212245   5.713   0.804   4.449
 4094TIP3    H112246   5.679   0.842   4.368
 4094TIP3    H212247   5.786   0.860   4.474
 4095TIP3   OH212248   3.769   6.724   4.030
 4095TIP3    H112249   3.681   6.687   4.033
 4095TIP3    H212250   3.822   6.657   3.989
 4096TIP3   OH212251   0.341   1.613   3.825
 4096TIP3    H112252   0.352   1.583   3.734
 4096TIP3    H212253   0.349   1.708   3.819
 4097TIP3   OH212254   4.504   2.074   5.386
 4097TIP3    H112255   4.486   2.052   5.478
 4097TIP3    H212256   4.441   2.144   5.366
 4098TIP3   OH212257   1.427   4.446   0.718
 4098TIP3    H112258   1.344   4.399   0.718
 4098TIP3    H212259   1.467   4.424   0.802
 4099TIP3   OH212260   5.038   3.444   0.280
 4099TIP3    H112261   5.126   3.468   0.252
 4099TIP3    H212262   5.025   3.356   0.246
 4100TIP3   OH212263   4.285   2.721   2.448
 4100TIP3    H112264   4.292   2.668   2.369
 4100TIP3    H212265   4.233   2.797   2.420
 4101TIP3   OH212266   2.992   2.267   3.499
 4101TIP3    H112267   3.052   2.339   3.520
 4101TIP3    H212268   2.950   2.246   3.582
 4102TIP3   OH212269   6.861   5.469   3.735
 4102TIP3    H112270   6.855   5.497   3.827
 4102TIP3    H212271   6.941   5.417   3.731
 4103TIP3   OH212272   6.496   1.498   0.211
 4103TIP3    H112273   6.546   1.419   0.190
 4103TIP3    H212274   6.562   1.567   0.216
 4104TIP3   OH212275   3.478   4.025   1.916
 4104TIP3    H112276   3.564   4.050   1.951
 4104TIP3    H212277   3.417   4.043   1.988
 4105TIP3   OH212278   5.402   2.879   1.273
 4105TIP3    H112279   5.374   2.831   1.195
 4105TIP3    H212280   5.325   2.927   1.301
 4106TIP3   OH212281   5.366   5.241   5.229
 4106TIP3    H112282   5.419   5.245   5.150
 4106TIP3    H212283   5.290   5.188   5.204
 4107TIP3   OH212284   1.634   1.003   5.217
 4107TIP3    H112285   1.545   1.024   5.190
 4107TIP3    H212286   1.646   0.911   5.194
 4108TIP3   OH212287   1.149   1.073   0.681
 4108TIP3    H112288   1.194   1.157   0.675
 4108TIP3    H212289   1.170   1.029   0.599
 4109TIP3   OH212290   6.058   6.700   5.388
 4109TIP3    H112291   6.005   6.758   5.333
 4109TIP3    H212292   5.999   6.627   5.410
 4110TIP3   OH212293   1.958   4.072   4.084
 4110TIP3    H112294   1.901   4.026   4.023
 4110TIP3    H212295   1.917   4.158   4.096
 4111TIP3   OH212296   5.369   1.111   0.682
 4111TIP3    H112297   5.459   1.080   0.672
 4111TIP3    H212298   5.371   1.200   0.645
 4112TIP3   OH212299   5.325   1.031   2.774
 4112TIP3    H112300   5.247   1.055   2.725
 4112TIP3    H212301   5.359   1.114   2.807
 4113TIP3   OH212302   3.830   0.687   3.210
 4113TIP3    H112303   3.908   0.669   3.261
 4113TIP3    H212304   3.763   0.628   3.244
 4114TIP3   OH212305   1.036   6.736   2.117
 4114TIP3    H112306   1.091   6.666   2.153
 4114TIP3    H212307   0.983   6.693   2.050
 4115TIP3   OH212308   4.570   2.055   1.212
 4115TIP3    H112309   4.485   2.097   1.222
 4115TIP3    H212310   4.559   1.995   1.138
 4116TIP3   OH212311   1.234   4.481   1.935
 4116TIP3    H112312   1.153   4.443   1.968
 4116TIP3    H212313   1.290   4.405   1.916
 4117TIP3   OH212314   2.137   4.697   0.533
 4117TIP3    H112315   2.065   4.646   0.495
 4117TIP3    H212316   2.112   4.709   0.624
 4118TIP3   OH212317   6.296   3.296   4.931
 4118TIP3    H112318   6.284   3.389   4.950
 4118TIP3    H212319   6.356   3.266   4.999
 4119TIP3   OH212320   3.855   1.835   5.176
 4119TIP3    H112321   3.920   1.768   5.195
 4119TIP3    H212322   3.906   1.912   5.152
 4120TIP3   OH212323   6.922   3.180   5.318
 4120TIP3    H112324   7.004   3.159   5.363
 4120TIP3    H212325   6.950   3.204   5.229
 4121TIP3   OH212326   3.300   2.560   5.564
 4121TIP3    H112327   3.271   2.469   5.561
 4121TIP3    H212328   3.266   2.594   5.646
 4122TIP3   OH212329   2.113   5.236   4.517
 4122TIP3    H112330   2.128   5.302   4.585
 4122TIP3    H212331   2.192   5.181   4.519
 4123TIP3   OH212332   4.248   6.523   5.013
 4123TIP3    H112333   4.289   6.442   5.044
 4123TIP3    H212334   4.168   6.530   5.064
 4124TIP3   OH212335   0.292   2.709   0.494
 4124TIP3    H112336   0.328   2.696   0.407
 4124TIP3    H212337   0.358   2.675   0.554
 4125TIP3   OH212338   3.162   1.000   5.704
 4125TIP3    H112339   3.093   0.986   5.638
 4125TIP3    H212340   3.115   1.022   5.784
 4126TIP3   OH212341   1.059   4.969   2.801
 4126TIP3    H112342   1.123   4.974   2.872
 4126TIP3    H212343   0.985   4.922   2.839
 4127TIP3   OH212344   6.919   4.215   2.515
 4127TIP3    H112345   6.866   4.137   2.531
 4127TIP3    H212346   6.862   4.273   2.465
 4128TIP3   OH212347   3.254   6.448   5.263
 4128TIP3    H112348   3.214   6.510   5.324
 4128TIP3    H212349   3.283   6.375   5.318
 4129TIP3   OH212350   1.174   1.046   4.581
 4129TIP3    H112351   1.151   1.097   4.503
 4129TIP3    H212352   1.100   1.060   4.640
 4130TIP3   OH212353   3.077   4.579   2.808
 4130TIP3    H112354   3.074   4.523   2.886
 4130TIP3    H212355   2.992   4.622   2.807
 4131TIP3   OH212356   1.683   6.411   3.552
 4131TIP3    H112357   1.592   6.383   3.544
 4131TIP3    H212358   1.725   6.343   3.605
 4132TIP3   OH212359   0.606   0.345   3.374
 4132TIP3    H112360   0.659   0.274   3.338
 4132TIP3    H212361   0.573   0.310   3.457
 4133TIP3   OH212362   4.400   4.389   5.792
 4133TIP3    H112363   4.337   4.325   5.825
 4133TIP3    H212364   4.353   4.472   5.794
 4134TIP3   OH212365   4.151   2.209   1.446
 4134TIP3    H112366   4.070   2.239   1.404
 4134TIP3    H212367   4.221   2.245   1.392
 4135TIP3   OH212368   1.263   6.683   4.207
 4135TIP3    H112369   1.317   6.648   4.136
 4135TIP3    H212370   1.197   6.615   4.222
 4136TIP3   OH212371   3.580   4.001   5.320
 4136TIP3    H112372   3.514   3.932   5.313
 4136TIP3    H212373   3.635   3.990   5.243
 4137TIP3   OH212374   2.364   0.311   4.156
 4137TIP3    H112375   2.409   0.235   4.117
 4137TIP3    H212376   2.417   0.386   4.128
 4138TIP3   OH212377   3.214   3.125   0.769
 4138TIP3    H112378   3.284   3.188   0.788
 4138TIP3    H212379   3.153   3.174   0.714
 4139TIP3   OH212380   3.432   2.794   3.649
 4139TIP3    H112381   3.378   2.718   3.671
 4139TIP3    H212382   3.378   2.844   3.588
 4140TIP3   OH212383   1.489  -0.022   1.903
 4140TIP3    H112384   1.498   0.050   1.966
 4140TIP3    H212385   1.546   0.003   1.830
 4141TIP3   OH212386   0.038   2.195   0.908
 4141TIP3    H112387  -0.044   2.188   0.957
 4141TIP3    H212388   0.075   2.107   0.911
 4142TIP3   OH212389   2.205   1.881   2.877
 4142TIP3    H112390   2.110   1.868   2.873
 4142TIP3    H212391   2.217   1.974   2.895
 4143TIP3   OH212392   2.221   2.809   3.390
 4143TIP3    H112393   2.169   2.875   3.434
 4143TIP3    H212394   2.231   2.739   3.454
 4144TIP3   OH212395   6.450   6.765   5.515
 4144TIP3    H112396   6.542   6.749   5.537
 4144TIP3    H212397   6.447   6.758   5.419
 4145TIP3   OH212398   1.574   6.085   0.270
 4145TIP3    H112399   1.530   6.035   0.338
 4145TIP3    H212400   1.505   6.137   0.229
 4146TIP3   OH212401   1.161   2.993   0.788
 4146TIP3    H112402   1.216   3.072   0.783
 4146TIP3    H212403   1.205   2.930   0.732
 4147TIP3   OH212404   4.828   1.890   2.573
 4147TIP3    H112405   4.815   1.929   2.486
 4147TIP3    H212406   4.750   1.917   2.623
 4148TIP3   OH212407   4.017   0.455   2.008
 4148TIP3    H112408   4.108   0.482   2.014
 4148TIP3    H212409   4.008   0.385   2.073
 4149TIP3   OH212410   3.790   1.150   5.091
 4149TIP3    H112411   3.779   1.178   5.000
 4149TIP3    H212412   3.752   1.062   5.093
 4150TIP3   OH212413   3.629   1.572   0.237
 4150TIP3    H112414   3.675   1.569   0.153
 4150TIP3    H212415   3.554   1.630   0.221
 4151TIP3   OH212416   0.728   3.078   1.973
 4151TIP3    H112417   0.722   3.072   1.878
 4151TIP3    H212418   0.783   3.003   1.999
 4152TIP3   OH212419   0.771   5.847   5.536
 4152TIP3    H112420   0.679   5.826   5.556
 4152TIP3    H212421   0.810   5.762   5.514
 4153TIP3   OH212422   3.119   0.931   4.827
 4153TIP3    H112423   3.146   0.881   4.750
 4153TIP3    H212424   3.167   0.890   4.899
 4154TIP3   OH212425   4.084   4.207   3.073
 4154TIP3    H112426   4.026   4.283   3.074
 4154TIP3    H212427   4.057   4.156   2.997
 4155TIP3   OH212428   5.623   2.013   1.218
 4155TIP3    H112429   5.692   2.077   1.202
 4155TIP3    H212430   5.549   2.065   1.249
 4156TIP3   OH212431   5.042   1.558   3.746
 4156TIP3    H112432   5.053   1.489   3.811
 4156TIP3    H212433   4.950   1.585   3.755
 4157TIP3   OH212434   2.692   0.294   1.451
 4157TIP3    H112435   2.750   0.359   1.411
 4157TIP3    H212436   2.685   0.321   1.542
 4158TIP3   OH212437   6.908   4.661   1.468
 4158TIP3    H112438   6.932   4.749   1.498
 4158TIP3    H212439   6.827   4.641   1.516
 4159TIP3   OH212440   4.605   0.397   1.979
 4159TIP3    H112441   4.640   0.377   2.066
 4159TIP3    H212442   4.632   0.488   1.963
 4160TIP3   OH212443   3.978   3.640   0.583
 4160TIP3    H112444   3.988   3.555   0.538
 4160TIP3    H212445   4.010   3.624   0.671
 4161TIP3   OH212446   3.194   6.113   0.690
 4161TIP3    H112447   3.184   6.206   0.668
 4161TIP3    H212448   3.233   6.074   0.612
 4162TIP3   OH212449   3.786   3.256   0.762
 4162TIP3    H112450   3.845   3.203   0.708
 4162TIP3    H212451   3.735   3.307   0.700
 4163TIP3   OH212452   6.172   6.441   2.389
 4163TIP3    H112453   6.239   6.396   2.336
 4163TIP3    H212454   6.089   6.402   2.361
 4164TIP3   OH212455   0.894   3.461   0.644
 4164TIP3    H112456   0.947   3.541   0.642
 4164TIP3    H212457   0.953   3.393   0.675
 4165TIP3   OH212458   0.216   2.214   0.562
 4165TIP3    H112459   0.199   2.306   0.543
 4165TIP3    H212460   0.266   2.215   0.644
 4166TIP3   OH212461   2.755   1.247   0.941
 4166TIP3    H112462   2.797   1.172   0.983
 4166TIP3    H212463   2.661   1.232   0.952
 4167TIP3   OH212464   6.971   0.272   2.559
 4167TIP3    H112465   6.941   0.247   2.472
 4167TIP3    H212466   7.048   0.217   2.575
 4168TIP3   OH212467   0.455   4.149   3.622
 4168TIP3    H112468   0.517   4.160   3.550
 4168TIP3    H212469   0.499   4.088   3.683
 4169TIP3   OH212470   0.464   0.662   2.786
 4169TIP3    H112471   0.431   0.661   2.696
 4169TIP3    H212472   0.552   0.698   2.780
 4170TIP3   OH212473   2.834   1.668   3.341
 4170TIP3    H112474   2.747   1.640   3.369
 4170TIP3    H212475   2.872   1.710   3.419
 4171TIP3   OH212476   1.437   1.798   1.292
 4171TIP3    H112477   1.344   1.814   1.277
 4171TIP3    H212478   1.445   1.703   1.299
 4172TIP3   OH212479   2.837   5.635   4.644
 4172TIP3    H112480   2.809   5.574   4.712
 4172TIP3    H212481   2.802   5.600   4.563
 4173TIP3   OH212482   1.138   0.777   3.875
 4173TIP3    H112483   1.146   0.746   3.785
 4173TIP3    H212484   1.114   0.869   3.867
 4174TIP3   OH212485   4.366   6.005   0.421
 4174TIP3    H112486   4.398   5.933   0.475
 4174TIP3    H212487   4.287   5.971   0.380
 4175TIP3   OH212488   3.259   4.936   4.191
 4175TIP3    H112489   3.281   4.844   4.201
 4175TIP3    H212490   3.284   4.957   4.100
 4176TIP3   OH212491   2.173   0.579   0.517
 4176TIP3    H112492   2.113   0.545   0.583
 4176TIP3    H212493   2.158   0.524   0.440
 4177TIP3   OH212494   0.118   2.132   5.111
 4177TIP3    H112495   0.070   2.052   5.131
 4177TIP3    H212496   0.077   2.165   5.031
 4178TIP3   OH212497   1.259   4.095   5.063
 4178TIP3    H112498   1.229   4.015   5.020
 4178TIP3    H212499   1.351   4.102   5.040
 4179TIP3   OH212500   0.699   6.023   3.191
 4179TIP3    H112501   0.783   6.038   3.234
 4179TIP3    H212502   0.647   5.976   3.256
 4180TIP3   OH212503   0.926   2.253   1.209
 4180TIP3    H112504   0.989   2.223   1.275
 4180TIP3    H212505   0.954   2.341   1.186
 4181TIP3   OH212506   4.025   6.600   0.402
 4181TIP3    H112507   4.023   6.670   0.467
 4181TIP3    H212508   4.081   6.634   0.332
 4182TIP3   OH212509   6.881   0.702   0.528
 4182TIP3    H112510   6.794   0.710   0.567
 4182TIP3    H212511   6.876   0.756   0.449
 4183TIP3   OH212512   2.616   4.833   1.535
 4183TIP3    H112513   2.555   4.789   1.475
 4183TIP3    H212514   2.603   4.926   1.517
 4184TIP3   OH212515   6.353   0.239   1.046
 4184TIP3    H112516   6.390   0.321   1.015
 4184TIP3    H212517   6.312   0.260   1.129
 4185TIP3   OH212518   0.288   5.312   3.148
 4185TIP3    H112519   0.310   5.239   3.090
 4185TIP3    H212520   0.305   5.279   3.236
 4186TIP3   OH212521   2.746   3.354   0.203
 4186TIP3    H112522   2.720   3.414   0.273
 4186TIP3    H212523   2.798   3.408   0.143
 4187TIP3   OH212524   2.423   2.360   2.183
 4187TIP3    H112525   2.462   2.418   2.249
 4187TIP3    H212526   2.497   2.316   2.142
 4188TIP3   OH212527   3.566   6.437   0.777
 4188TIP3    H112528   3.651   6.461   0.740
 4188TIP3    H212529   3.554   6.345   0.752
 4189TIP3   OH212530   0.646   3.516   1.316
 4189TIP3    H112531   0.623   3.598   1.360
 4189TIP3    H212532   0.659   3.453   1.387
 4190TIP3   OH212533   5.772   2.819   2.049
 4190TIP3    H112534   5.707   2.817   1.979
 4190TIP3    H212535   5.809   2.908   2.045
 4191TIP3   OH212536   0.282   0.990   4.507
 4191TIP3    H112537   0.224   0.916   4.526
 4191TIP3    H212538   0.249   1.027   4.425
 4192TIP3   OH212539   5.056   4.216   0.834
 4192TIP3    H112540   5.126   4.239   0.773
 4192TIP3    H212541   4.975   4.243   0.791
 4193TIP3   OH212542   1.016   6.493   4.527
 4193TIP3    H112543   0.952   6.509   4.596
 4193TIP3    H212544   1.077   6.429   4.566
 4194TIP3   OH212545   0.694   0.836   2.672
 4194TIP3    H112546   0.706   0.930   2.662
 4194TIP3    H212547   0.745   0.814   2.750
 4195TIP3   OH212548   5.869   6.463   3.363
 4195TIP3    H112549   5.945   6.440   3.308
 4195TIP3    H212550   5.799   6.478   3.300
 4196TIP3   OH212551   5.103   3.172   3.539
 4196TIP3    H112552   5.111   3.175   3.635
 4196TIP3    H212553   5.190   3.147   3.509
 4197TIP3   OH212554   2.757   1.780   5.148
 4197TIP3    H112555   2.847   1.767   5.179
 4197TIP3    H212556   2.742   1.708   5.087
 4198TIP3   OH212557   4.472   6.758   2.458
 4198TIP3    H112558   4.525   6.740   2.535
 4198TIP3    H212559   4.535   6.764   2.386
 4199TIP3   OH212560   6.131   5.835   1.403
 4199TIP3    H112561   6.120   5.748   1.364
 4199TIP3    H212562   6.052   5.848   1.456
 4200TIP3   OH212563   5.898   1.875   4.062
 4200TIP3    H112564   5.846   1.952   4.043
 4200TIP3    H212565   5.904   1.872   4.158
 4201TIP3   OH212566   4.258   6.390   1.952
 4201TIP3    H112567   4.165   6.370   1.944
 4201TIP3    H212568   4.292   6.323   2.012
 4202TIP3   OH212569   1.808   2.429   1.613
 4202TIP3    H112570   1.870   2.499   1.595
 4202TIP3    H212571   1.848   2.351   1.575
 4203TIP3   OH212572   1.148   4.799   4.315
 4203TIP3    H112573   1.180   4.710   4.332
 4203TIP3    H212574   1.130   4.835   4.401
 4204TIP3   OH212575   5.549   1.693   2.165
 4204TIP3    H112576   5.544   1.599   2.148
 4204TIP3    H212577   5.557   1.732   2.078
 4205TIP3   OH212578   6.266   5.345   1.998
 4205TIP3    H112579   6.320   5.311   1.928
 4205TIP3    H212580   6.295   5.436   2.009
 4206TIP3   OH212581   0.601   1.046   1.938
 4206TIP3    H112582   0.578   0.995   1.861
 4206TIP3    H212583   0.535   1.023   2.003
 4207TIP3   OH212584   4.445   4.204   2.456
 4207TIP3    H112585   4.478   4.124   2.496
 4207TIP3    H212586   4.479   4.202   2.367
 4208TIP3   OH212587   4.812   3.126   2.828
 4208TIP3    H112588   4.891   3.109   2.879
 4208TIP3    H212589   4.830   3.087   2.742
 4209TIP3   OH212590   2.261   6.049   2.667
 4209TIP3    H112591   2.312   6.121   2.630
 4209TIP3    H212592   2.306   5.970   2.637
 4210TIP3   OH212593   1.985   4.852   0.290
 4210TIP3    H112594   2.002   4.768   0.332
 4210TIP3    H212595   2.066   4.902   0.304
 4211TIP3   OH212596   4.044   2.316   2.817
 4211TIP3    H112597   4.027   2.383   2.883
 4211TIP3    H212598   4.139   2.313   2.809
 4212TIP3   OH212599   0.202   6.440   1.256
 4212TIP3    H112600   0.249   6.412   1.335
 4212TIP3    H212601   0.272   6.465   1.195
 4213TIP3   OH212602   0.081   6.324   2.012
 4213TIP3    H112603   0.040   6.411   2.014
 4213TIP3    H212604   0.014   6.265   2.047
 4214TIP3   OH212605   6.411   4.786   1.322
 4214TIP3    H112606   6.472   4.777   1.396
 4214TIP3    H212607   6.327   4.806   1.363
 4215TIP3   OH212608   2.886   4.224   4.272
 4215TIP3    H112609   2.803   4.176   4.272
 4215TIP3    H212610   2.932   4.193   4.195
 4216TIP3   OH212611   1.410   5.086   1.379
 4216TIP3    H112612   1.462   5.006   1.369
 4216TIP3    H212613   1.447   5.147   1.315
 4217TIP3   OH212614   1.759   3.064   0.169
 4217TIP3    H112615   1.778   3.158   0.161
 4217TIP3    H212616   1.804   3.038   0.249
 4218TIP3   OH212617   2.821   2.516   4.441
 4218TIP3    H112618   2.800   2.443   4.383
 4218TIP3    H212619   2.872   2.576   4.386
 4219TIP3   OH212620   4.214   1.342   4.808
 4219TIP3    H112621   4.298   1.321   4.849
 4219TIP3    H212622   4.209   1.285   4.732
 4220TIP3   OH212623   1.401   6.187   0.681
 4220TIP3    H112624   1.333   6.250   0.705
 4220TIP3    H212625   1.355   6.125   0.624
 4221TIP3   OH212626   5.213   6.693   5.662
 4221TIP3    H112627   5.214   6.783   5.628
 4221TIP3    H212628   5.121   6.666   5.655
 4222TIP3   OH212629   0.359   2.240   4.262
 4222TIP3    H112630   0.437   2.289   4.291
 4222TIP3    H212631   0.388   2.194   4.184
 4223TIP3   OH212632   5.750   2.610   4.880
 4223TIP3    H112633   5.829   2.567   4.848
 4223TIP3    H212634   5.680   2.575   4.825
 4224TIP3   OH212635   6.768   3.401   2.318
 4224TIP3    H112636   6.689   3.444   2.351
 4224TIP3    H212637   6.837   3.427   2.380
 4225TIP3   OH212638   1.743   6.657   5.860
 4225TIP3    H112639   1.694   6.712   5.921
 4225TIP3    H212640   1.681   6.589   5.834
 4226TIP3   OH212641   2.684   2.742   5.203
 4226TIP3    H112642   2.722   2.721   5.117
 4226TIP3    H212643   2.601   2.695   5.204
 4227TIP3   OH212644   4.614   4.973   4.654
 4227TIP3    H112645   4.561   5.028   4.596
 4227TIP3    H212646   4.613   5.019   4.738
 4228TIP3   OH212647   0.182   4.780   2.313
 4228TIP3    H112648   0.266   4.734   2.311
 4228TIP3    H212649   0.192   4.851   2.249
 4229TIP3   OH212650   5.631   3.993   1.006
 4229TIP3    H112651   5.700   3.965   0.946
 4229TIP3    H212652   5.553   3.948   0.975
 4230TIP3   OH212653   3.067   0.113   0.420
 4230TIP3    H112654   3.079   0.139   0.328
 4230TIP3    H212655   2.974   0.095   0.428
 4231TIP3   OH212656   0.617   0.081   5.469
 4231TIP3    H112657   0.599  -0.010   5.446
 4231TIP3    H212658   0.688   0.107   5.411
 4232TIP3   OH212659   0.595   2.241   1.805
 4232TIP3    H112660   0.656   2.173   1.778
 4232TIP3    H212661   0.644   2.323   1.798
 4233TIP3   OH212662   7.216   2.720   5.345
 4233TIP3    H112663   7.132   2.747   5.309
 4233TIP3    H212664   7.277   2.790   5.321
 4234TIP3   OH212665   2.402   2.657   5.291
 4234TIP3    H112666   2.422   2.732   5.346
 4234TIP3    H212667   2.320   2.622   5.326
 4235TIP3   OH212668   1.746   0.434   3.216
 4235TIP3    H112669   1.741   0.363   3.152
 4235TIP3    H212670   1.695   0.403   3.290
 4236TIP3   OH212671   5.813   6.532   3.647
 4236TIP3    H112672   5.836   6.535   3.554
 4236TIP3    H212673   5.896   6.545   3.693
 4237TIP3   OH212674   1.398   4.136   5.737
 4237TIP3    H112675   1.478   4.183   5.762
 4237TIP3    H212676   1.327   4.185   5.778
 4238TIP3   OH212677   6.819   0.386   2.723
 4238TIP3    H112678   6.775   0.452   2.670
 4238TIP3    H212679   6.866   0.332   2.660
 4239TIP3   OH212680   4.269   6.619   3.942
 4239TIP3    H112681   4.237   6.562   4.013
 4239TIP3    H212682   4.235   6.706   3.964
 4240TIP3   OH212683   6.252   1.359   4.233
 4240TIP3    H112684   6.204   1.371   4.315
 4240TIP3    H212685   6.244   1.266   4.214
 4241TIP3   OH212686   4.162   5.650   4.430
 4241TIP3    H112687   4.071   5.674   4.446
 4241TIP3    H212688   4.159   5.555   4.414
 4242TIP3   OH212689   1.857   2.095   0.516
 4242TIP3    H112690   1.881   2.020   0.461
 4242TIP3    H212691   1.766   2.078   0.540
 4243TIP3   OH212692   7.043   3.924   5.152
 4243TIP3    H112693   7.123   3.921   5.100
 4243TIP3    H212694   6.997   3.843   5.131
 4244TIP3   OH212695   5.062   3.403   1.270
 4244TIP3    H112696   5.139   3.371   1.224
 4244TIP3    H212697   4.998   3.332   1.264
 4245TIP3   OH212698   1.271   2.541   2.509
 4245TIP3    H112699   1.329   2.465   2.510
 4245TIP3    H212700   1.190   2.510   2.469
 4246TIP3   OH212701   1.642   2.779   1.697
 4246TIP3    H112702   1.639   2.688   1.725
 4246TIP3    H212703   1.733   2.794   1.672
 4247TIP3   OH212704   2.073   4.944   3.084
 4247TIP3    H112705   2.078   5.019   3.143
 4247TIP3    H212706   1.985   4.949   3.047
 4248TIP3   OH212707   3.640   2.345   5.330
 4248TIP3    H112708   3.622   2.371   5.420
 4248TIP3    H212709   3.590   2.406   5.276
 4249TIP3   OH212710   6.811   2.620   5.475
 4249TIP3    H112711   6.873   2.587   5.410
 4249TIP3    H212712   6.757   2.683   5.427
 4250TIP3   OH212713   1.096   3.305   0.734
 4250TIP3    H112714   1.174   3.291   0.788
 4250TIP3    H212715   1.129   3.302   0.644
 4251TIP3   OH212716   1.133   2.309   2.196
 4251TIP3    H112717   1.106   2.366   2.268
 4251TIP3    H212718   1.055   2.257   2.176
 4252TIP3   OH212719   3.233   5.556   2.413
 4252TIP3    H112720   3.292   5.597   2.350
 4252TIP3    H212721   3.174   5.627   2.440
 4253TIP3   OH212722   7.044   0.929   4.652
 4253TIP3    H112723   7.050   0.887   4.566
 4253TIP3    H212724   6.991   0.869   4.704
 4254TIP3   OH212725   2.014   0.834   1.873
 4254TIP3    H112726   1.974   0.883   1.946
 4254TIP3    H212727   2.100   0.874   1.862
 4255TIP3   OH212728   6.985   6.398   1.265
 4255TIP3    H112729   6.924   6.349   1.320
 4255TIP3    H212730   7.026   6.460   1.325
 4256TIP3   OH212731   2.857   2.344   2.812
 4256TIP3    H112732   2.763   2.338   2.826
 4256TIP3    H212733   2.896   2.312   2.894
 4257TIP3   OH212734   1.363   1.065   3.986
 4257TIP3    H112735   1.371   0.992   4.048
 4257TIP3    H212736   1.279   1.050   3.943
 4258TIP3   OH212737   5.652   4.021   0.429
 4258TIP3    H112738   5.656   3.926   0.438
 4258TIP3    H212739   5.663   4.036   0.335
 4259TIP3   OH212740   2.272   5.892   0.414
 4259TIP3    H112741   2.315   5.838   0.481
 4259TIP3    H212742   2.334   5.893   0.341
 4260TIP3   OH212743   5.841   2.293   4.389
 4260TIP3    H112744   5.759   2.264   4.350
 4260TIP3    H212745   5.819   2.313   4.480
 4261TIP3   OH212746   4.646   6.240   3.271
 4261TIP3    H112747   4.624   6.267   3.361
 4261TIP3    H212748   4.661   6.146   3.277
 4262TIP3   OH212749   2.673   5.977   0.214
 4262TIP3    H112750   2.610   5.923   0.167
 4262TIP3    H212751   2.744   5.991   0.151
 4263TIP3   OH212752   0.497   6.579   4.811
 4263TIP3    H112753   0.538   6.508   4.761
 4263TIP3    H212754   0.414   6.596   4.766
 4264TIP3   OH212755   5.747   0.090   2.737
 4264TIP3    H112756   5.675   0.041   2.778
 4264TIP3    H212757   5.779   0.147   2.807
 4265TIP3   OH212758   4.193   3.180   5.858
 4265TIP3    H112759   4.152   3.222   5.782
 4265TIP3    H212760   4.286   3.202   5.851
 4266TIP3   OH212761   3.380   5.558   1.037
 4266TIP3    H112762   3.441   5.530   1.106
 4266TIP3    H212763   3.318   5.486   1.028
 4267TIP3   OH212764   4.971   6.123   5.458
 4267TIP3    H112765   4.888   6.130   5.506
 4267TIP3    H212766   4.962   6.185   5.386
 4268TIP3   OH212767   0.295   2.489   1.646
 4268TIP3    H112768   0.346   2.526   1.718
 4268TIP3    H212769   0.207   2.525   1.659
 4269TIP3   OH212770   4.106   4.760   0.090
 4269TIP3    H112771   4.061   4.770   0.174
 4269TIP3    H212772   4.184   4.708   0.110
 4270TIP3   OH212773   3.583   2.486   5.557
 4270TIP3    H112774   3.489   2.505   5.564
 4270TIP3    H212775   3.620   2.563   5.514
 4271TIP3   OH212776   1.685   4.822   5.675
 4271TIP3    H112777   1.652   4.749   5.623
 4271TIP3    H212778   1.726   4.780   5.752
 4272TIP3   OH212779   3.656   2.409   0.991
 4272TIP3    H112780   3.661   2.353   0.914
 4272TIP3    H212781   3.565   2.400   1.021
 4273TIP3   OH212782   0.263   4.064   2.125
 4273TIP3    H112783   0.329   3.998   2.143
 4273TIP3    H212784   0.306   4.125   2.065
 4274TIP3   OH212785   4.694   0.809   3.860
 4274TIP3    H112786   4.666   0.857   3.782
 4274TIP3    H212787   4.614   0.767   3.892
 4275TIP3   OH212788   0.642   5.214   5.745
 4275TIP3    H112789   0.606   5.134   5.707
 4275TIP3    H212790   0.578   5.281   5.724
 4276TIP3   OH212791   4.791   6.438   0.279
 4276TIP3    H112792   4.848   6.366   0.306
 4276TIP3    H212793   4.741   6.403   0.206
 4277TIP3   OH212794   2.649   1.659   5.568
 4277TIP3    H112795   2.654   1.694   5.657
 4277TIP3    H212796   2.594   1.721   5.520
 4278TIP3   OH212797   2.005   4.394   1.165
 4278TIP3    H112798   1.936   4.328   1.171
 4278TIP3    H212799   2.005   4.437   1.250
 4279TIP3   OH212800   6.125   5.977   5.415
 4279TIP3    H112801   6.168   5.925   5.483
 4279TIP3    H212802   6.098   5.913   5.350
 4280TIP3   OH212803   4.160   2.843   2.690
 4280TIP3    H112804   4.213   2.775   2.648
 4280TIP3    H212805   4.074   2.804   2.701
 4281TIP3   OH212806   6.169   2.688   5.893
 4281TIP3    H112807   6.235   2.731   5.838
 4281TIP3    H212808   6.217   2.617   5.936
 4282TIP3   OH212809   1.174   5.576   4.928
 4282TIP3    H112810   1.269   5.564   4.937
 4282TIP3    H212811   1.136   5.507   4.983
 4283TIP3   OH212812   6.381   0.911   4.357
 4283TIP3    H112813   6.470   0.922   4.390
 4283TIP3    H212814   6.357   0.822   4.384
 4284TIP3   OH212815   5.425   6.339   1.972
 4284TIP3    H112816   5.336   6.330   1.939
 4284TIP3    H212817   5.424   6.293   2.056
 4285TIP3   OH212818   5.325   0.248   1.534
 4285TIP3    H112819   5.359   0.251   1.623
 4285TIP3    H212820   5.289   0.160   1.525
 4286TIP3   OH212821   0.896   0.413   4.412
 4286TIP3    H112822   0.912   0.455   4.497
 4286TIP3    H212823   0.917   0.480   4.348
 4287TIP3   OH212824   3.037   1.806   2.337
 4287TIP3    H112825   3.092   1.728   2.342
 4287TIP3    H212826   2.948   1.773   2.348
 4288TIP3   OH212827   0.431   6.335   3.463
 4288TIP3    H112828   0.343   6.354   3.495
 4288TIP3    H212829   0.485   6.329   3.542
 4289TIP3   OH212830   3.148   2.058   1.591
 4289TIP3    H112831   3.172   2.033   1.681
 4289TIP3    H212832   3.140   2.153   1.595
 4290TIP3   OH212833   5.386   1.582   4.193
 4290TIP3    H112834   5.465   1.633   4.212
 4290TIP3    H212835   5.411   1.491   4.212
 4291TIP3   OH212836   7.120   4.588   4.547
 4291TIP3    H112837   7.191   4.652   4.554
 4291TIP3    H212838   7.104   4.579   4.453
 4292TIP3   OH212839   1.120   5.549   0.934
 4292TIP3    H112840   1.180   5.592   0.994
 4292TIP3    H212841   1.154   5.459   0.927
 4293TIP3   OH212842   5.679   3.155   2.565
 4293TIP3    H112843   5.766   3.137   2.601
 4293TIP3    H212844   5.622   3.159   2.642
 4294TIP3   OH212845   4.123   2.840   1.368
 4294TIP3    H112846   4.143   2.931   1.344
 4294TIP3    H212847   4.031   2.829   1.345
 4295TIP3   OH212848   5.672   0.920   1.690
 4295TIP3    H112849   5.764   0.938   1.710
 4295TIP3    H212850   5.674   0.836   1.644
 4296TIP3   OH212851   0.886   3.364   5.258
 4296TIP3    H112852   0.923   3.298   5.316
 4296TIP3    H212853   0.925   3.447   5.286
 4297TIP3   OH212854   1.369   1.727   3.341
 4297TIP3    H112855   1.342   1.724   3.432
 4297TIP3    H212856   1.343   1.815   3.311
 4298TIP3   OH212857   5.612   3.672   1.455
 4298TIP3    H112858   5.540   3.608   1.463
 4298TIP3    H212859   5.650   3.654   1.370
 4299TIP3   OH212860   1.344   0.893   2.179
 4299TIP3    H112861   1.306   0.840   2.108
 4299TIP3    H212862   1.271   0.947   2.210
 4300TIP3   OH212863   3.014   2.274   4.434
 4300TIP3    H112864   2.925   2.306   4.451
 4300TIP3    H212865   3.052   2.262   4.521
 4301TIP3   OH212866   5.325   6.092   4.109
 4301TIP3    H112867   5.303   6.073   4.017
 4301TIP3    H212868   5.415   6.060   4.119
 4302TIP3   OH212869   5.398   2.166   4.829
 4302TIP3    H112870   5.318   2.133   4.788
 4302TIP3    H212871   5.448   2.205   4.757
 4303TIP3   OH212872   5.683   6.490   0.951
 4303TIP3    H112873   5.592   6.462   0.951
 4303TIP3    H212874   5.683   6.574   0.906
 4304TIP3   OH212875   1.733   3.949   4.710
 4304TIP3    H112876   1.812   3.998   4.730
 4304TIP3    H212877   1.732   3.879   4.775
 4305TIP3   OH212878   0.324   3.391   0.260
 4305TIP3    H112879   0.235   3.365   0.236
 4305TIP3    H212880   0.312   3.456   0.329
 4306TIP3   OH212881   3.393   1.150   1.959
 4306TIP3    H112882   3.475   1.195   1.936
 4306TIP3    H212883   3.358   1.119   1.876
 4307TIP3   OH212884   0.862   1.770   5.056
 4307TIP3    H112885   0.944   1.775   5.106
 4307TIP3    H212886   0.872   1.835   4.986
 4308TIP3   OH212887   0.960   1.801   1.675
 4308TIP3    H112888   1.029   1.858   1.708
 4308TIP3    H212889   0.905   1.858   1.622
 4309TIP3   OH212890   7.112   0.451   2.142
 4309TIP3    H112891   7.063   0.431   2.062
 4309TIP3    H212892   7.106   0.371   2.194
 4310TIP3   OH212893   2.659   5.529   2.585
 4310TIP3    H112894   2.717   5.459   2.615
 4310TIP3    H212895   2.674   5.601   2.646
 4311TIP3   OH212896   6.988   1.733   0.345
 4311TIP3    H112897   7.040   1.714   0.423
 4311TIP3    H212898   6.982   1.828   0.343
 4312TIP3   OH212899   4.119   3.247   5.276
 4312TIP3    H112900   4.057   3.317   5.260
 4312TIP3    H212901   4.199   3.291   5.305
 4313TIP3   OH212902   6.580   1.425   4.790
 4313TIP3    H112903   6.589   1.416   4.695
 4313TIP3    H212904   6.656   1.379   4.825
 4314TIP3   OH212905   6.943   0.662   5.034
 4314TIP3    H112906   6.904   0.575   5.022
 4314TIP3    H212907   6.944   0.700   4.946
 4315TIP3   OH212908   6.986   3.374   2.161
 4315TIP3    H112909   7.045   3.385   2.236
 4315TIP3    H212910   6.898   3.378   2.199
 4316TIP3   OH212911   4.331   6.258   3.909
 4316TIP3    H112912   4.357   6.171   3.938
 4316TIP3    H212913   4.336   6.312   3.988
 4317TIP3   OH212914   1.931   4.144   0.805
 4317TIP3    H112915   1.859   4.189   0.759
 4317TIP3    H212916   1.993   4.213   0.828
 4318TIP3   OH212917   7.050   6.717   5.843
 4318TIP3    H112918   7.065   6.678   5.757
 4318TIP3    H212919   6.957   6.738   5.845
 4319TIP3   OH212920   4.864   5.822   2.061
 4319TIP3    H112921   4.855   5.915   2.078
 4319TIP3    H212922   4.776   5.786   2.077
 4320TIP3   OH212923   3.606   0.428   2.913
 4320TIP3    H112924   3.597   0.443   2.819
 4320TIP3    H212925   3.677   0.486   2.940
 4321TIP3   OH212926   4.991   1.312   0.026
 4321TIP3    H112927   5.016   1.326   0.117
 4321TIP3    H212928   4.904   1.349   0.018
 4322TIP3   OH212929   6.248   3.953   2.346
 4322TIP3    H112930   6.250   3.906   2.262
 4322TIP3    H212931   6.202   4.034   2.326
 4323TIP3   OH212932   5.798   6.623   4.589
 4323TIP3    H112933   5.856   6.605   4.663
 4323TIP3    H212934   5.839   6.578   4.515
 4324TIP3   OH212935   5.063   3.232   0.958
 4324TIP3    H112936   5.017   3.214   1.040
 4324TIP3    H212937   5.000   3.210   0.889
 4325TIP3   OH212938   2.986   6.127   0.202
 4325TIP3    H112939   2.953   6.088   0.121
 4325TIP3    H212940   3.069   6.167   0.176
 4326TIP3   OH212941   5.152   3.558   5.057
 4326TIP3    H112942   5.245   3.573   5.075
 4326TIP3    H212943   5.106   3.617   5.117
 4327TIP3   OH212944   5.985   0.230   0.254
 4327TIP3    H112945   5.985   0.221   0.159
 4327TIP3    H212946   6.049   0.166   0.284
 4328TIP3   OH212947   0.494   1.044   4.677
 4328TIP3    H112948   0.547   1.117   4.648
 4328TIP3    H212949   0.431   1.030   4.605
 4329TIP3   OH212950   1.688   6.671   3.329
 4329TIP3    H112951   1.771   6.678   3.282
 4329TIP3    H212952   1.713   6.649   3.419
 4330TIP3   OH212953   3.990   1.006   1.768
 4330TIP3    H112954   4.050   1.055   1.824
 4330TIP3    H212955   4.042   0.981   1.692
 4331TIP3   OH212956   7.071   2.287   0.055
 4331TIP3    H112957   7.056   2.321   0.143
 4331TIP3    H212958   7.126   2.353   0.013
 4332TIP3   OH212959   2.800   6.699   4.987
 4332TIP3    H112960   2.788   6.604   4.992
 4332TIP3    H212961   2.777   6.730   5.075
 4333TIP3   OH212962   5.405   3.015   5.730
 4333TIP3    H112963   5.488   2.979   5.702
 4333TIP3    H212964   5.419   3.041   5.821
 4334TIP3   OH212965   0.386   0.113   4.172
 4334TIP3    H112966   0.342   0.029   4.167
 4334TIP3    H212967   0.477   0.091   4.192
 4335TIP3   OH212968   4.450   5.469   2.195
 4335TIP3    H112969   4.373   5.457   2.139
 4335TIP3    H212970   4.523   5.436   2.142
 4336TIP3   OH212971   2.488   0.185   5.600
 4336TIP3    H112972   2.421   0.166   5.534
 4336TIP3    H212973   2.548   0.245   5.558
 4337TIP3   OH212974   0.797   6.588   2.709
 4337TIP3    H112975   0.760   6.553   2.628
 4337TIP3    H212976   0.767   6.527   2.777
 4338TIP3   OH212977   2.106   3.808   2.280
 4338TIP3    H112978   2.153   3.830   2.360
 4338TIP3    H212979   2.120   3.714   2.269
 4339TIP3   OH212980   5.244   4.628   5.519
 4339TIP3    H112981   5.317   4.689   5.511
 4339TIP3    H212982   5.251   4.572   5.442
 4340TIP3   OH212983   4.832   0.625   4.981
 4340TIP3    H112984   4.899   0.557   4.991
 4340TIP3    H212985   4.881   0.706   4.971
 4341TIP3   OH212986   2.546   1.526   2.730
 4341TIP3    H112987   2.585   1.543   2.816
 4341TIP3    H212988   2.453   1.545   2.742
 4342TIP3   OH212989   3.219   2.940   2.894
 4342TIP3    H112990   3.271   2.880   2.841
 4342TIP3    H212991   3.128   2.920   2.871
 4343TIP3   OH212992   0.308   4.620   0.781
 4343TIP3    H112993   0.266   4.535   0.796
 4343TIP3    H212994   0.259   4.681   0.837
 4344TIP3   OH212995   0.838   0.307   3.104
 4344TIP3    H112996   0.910   0.368   3.123
 4344TIP3    H212997   0.763   0.363   3.085
 4345TIP3   OH212998   4.092   2.974   4.387
 4345TIP3    H112999   4.116   2.996   4.297
 4345TIP3    H213000   4.128   3.045   4.439
 4346TIP3   OH213001   5.255   4.512   3.689
 4346TIP3    H113002   5.235   4.605   3.676
 4346TIP3    H213003   5.181   4.479   3.741
 4347TIP3   OH213004   0.413   1.610   4.907
 4347TIP3    H113005   0.417   1.524   4.949
 4347TIP3    H213006   0.457   1.669   4.969
 4348TIP3   OH213007   4.981   4.334   0.353
 4348TIP3    H113008   5.020   4.379   0.428
 4348TIP3    H213009   5.056   4.313   0.296
 4349TIP3   OH213010   0.403   0.096   2.077
 4349TIP3    H113011   0.468   0.119   2.143
 4349TIP3    H213012   0.331   0.158   2.092
 4350TIP3   OH213013   2.383   1.402   5.721
 4350TIP3    H113014   2.344   1.489   5.717
 4350TIP3    H213015   2.353   1.366   5.805
 4351TIP3   OH213016   3.810   6.082   4.212
 4351TIP3    H113017   3.795   6.150   4.277
 4351TIP3    H213018   3.903   6.088   4.191
 4352TIP3   OH213019   3.810   2.140   0.426
 4352TIP3    H113020   3.742   2.120   0.362
 4352TIP3    H213021   3.775   2.213   0.476
 4353TIP3   OH213022   5.099   2.918   5.299
 4353TIP3    H113023   5.008   2.892   5.289
 4353TIP3    H213024   5.126   2.880   5.383
 4354TIP3   OH213025   6.300   0.750   1.964
 4354TIP3    H113026   6.304   0.694   1.887
 4354TIP3    H213027   6.285   0.838   1.930
 4355TIP3   OH213028   5.035   3.930   5.288
 4355TIP3    H113029   5.047   3.970   5.202
 4355TIP3    H213030   5.021   3.837   5.269
 4356TIP3   OH213031   3.344   0.223   4.941
 4356TIP3    H113032   3.360   0.317   4.934
 4356TIP3    H213033   3.404   0.193   5.009
 4357TIP3   OH213034   2.399   3.179   5.393
 4357TIP3    H113035   2.402   3.274   5.395
 4357TIP3    H213036   2.388   3.153   5.484
 4358TIP3   OH213037   3.756   1.988   1.878
 4358TIP3    H113038   3.734   2.078   1.901
 4358TIP3    H213039   3.755   1.986   1.782
 4359TIP3   OH213040   1.543   6.394   1.970
 4359TIP3    H113041   1.471   6.451   1.943
 4359TIP3    H213042   1.622   6.447   1.956
 4360TIP3   OH213043   6.325   6.704   4.589
 4360TIP3    H113044   6.397   6.655   4.628
 4360TIP3    H213045   6.354   6.723   4.500
 4361TIP3   OH213046   2.970   1.919   1.429
 4361TIP3    H113047   2.898   1.919   1.493
 4361TIP3    H213048   3.036   1.976   1.468
 4362TIP3   OH213049   3.197   1.368   0.968
 4362TIP3    H113050   3.241   1.328   0.893
 4362TIP3    H213051   3.117   1.406   0.932
 4363TIP3   OH213052   1.330   1.519   2.773
 4363TIP3    H113053   1.376   1.600   2.748
 4363TIP3    H213054   1.240   1.548   2.790
 4364TIP3   OH213055   7.091   6.159   4.114
 4364TIP3    H113056   7.123   6.069   4.120
 4364TIP3    H213057   7.003   6.157   4.152
 4365TIP3   OH213058   3.068   0.055   3.688
 4365TIP3    H113059   3.089   0.139   3.648
 4365TIP3    H213060   3.095   0.065   3.780
 4366TIP3   OH213061   4.336   2.552   2.220
 4366TIP3    H113062   4.391   2.570   2.144
 4366TIP3    H213063   4.247   2.545   2.184
 4367TIP3   OH213064   4.866   2.707   4.311
 4367TIP3    H113065   4.810   2.652   4.256
 4367TIP3    H213066   4.841   2.796   4.289
 4368TIP3   OH213067   2.354   1.719   2.719
 4368TIP3    H113068   2.301   1.775   2.776
 4368TIP3    H213069   2.441   1.760   2.719
 4369TIP3   OH213070   0.311   0.013   0.689
 4369TIP3    H113071   0.237  -0.009   0.633
 4369TIP3    H213072   0.271   0.057   0.765
 4370TIP3   OH213073   4.676   0.849   3.400
 4370TIP3    H113074   4.645   0.911   3.466
 4370TIP3    H213075   4.762   0.822   3.433
 4371TIP3   OH213076   1.233   6.248   1.123
 4371TIP3    H113077   1.194   6.160   1.125
 4371TIP3    H213078   1.171   6.300   1.072
 4372TIP3   OH213079   4.470   4.315   3.993
 4372TIP3    H113080   4.527   4.338   4.066
 4372TIP3    H213081   4.425   4.397   3.971
 4373TIP3   OH213082   1.813   6.251   1.052
 4373TIP3    H113083   1.853   6.320   1.105
 4373TIP3    H213084   1.880   6.228   0.988
 4374TIP3   OH213085   6.014   2.661   0.266
 4374TIP3    H113086   5.941   2.601   0.283
 4374TIP3    H213087   6.089   2.603   0.251
 4375TIP3   OH213088   6.782   5.277   5.222
 4375TIP3    H113089   6.696   5.259   5.260
 4375TIP3    H213090   6.798   5.204   5.162
 4376TIP3   OH213091   6.097   4.572   2.473
 4376TIP3    H113092   6.151   4.594   2.396
 4376TIP3    H213093   6.068   4.657   2.506
 4377TIP3   OH213094   1.231   5.886   5.160
 4377TIP3    H113095   1.148   5.872   5.206
 4377TIP3    H213096   1.218   5.847   5.074
 4378TIP3   OH213097   4.902   4.305   4.130
 4378TIP3    H113098   4.831   4.361   4.161
 4378TIP3    H213099   4.948   4.358   4.065
 4379TIP3   OH213100   6.612   4.100   4.358
 4379TIP3    H113101   6.631   4.190   4.331
 4379TIP3    H213102   6.518   4.090   4.343
 4380TIP3   OH213103   6.688   4.941   2.747
 4380TIP3    H113104   6.741   4.913   2.672
 4380TIP3    H213105   6.648   4.860   2.779
 4381TIP3   OH213106   1.168   4.629  -0.024
 4381TIP3    H113107   1.125   4.631   0.062
 4381TIP3    H213108   1.211   4.543  -0.027
 4382TIP3   OH213109   1.905   0.758   0.604
 4382TIP3    H113110   1.888   0.786   0.514
 4382TIP3    H213111   1.931   0.838   0.649
 4383TIP3   OH213112   2.911   0.821   5.263
 4383TIP3    H113113   2.834   0.766   5.280
 4383TIP3    H213114   2.876   0.900   5.223
 4384TIP3   OH213115   1.051   3.429   5.484
 4384TIP3    H113116   1.023   3.520   5.476
 4384TIP3    H213117   1.120   3.431   5.551
 4385TIP3   OH213118   6.407   3.614   0.890
 4385TIP3    H113119   6.476   3.611   0.957
 4385TIP3    H213120   6.368   3.701   0.900
 4386TIP3   OH213121   1.954   3.783   1.668
 4386TIP3    H113122   1.941   3.751   1.757
 4386TIP3    H213123   2.022   3.851   1.677
 4387TIP3   OH213124   0.533   0.145   5.905
 4387TIP3    H113125   0.534   0.215   5.839
 4387TIP3    H213126   0.548   0.065   5.856
 4388TIP3   OH213127   2.472   4.222   1.649
 4388TIP3    H113128   2.568   4.225   1.639
 4388TIP3    H213129   2.454   4.281   1.722
 4389TIP3   OH213130   0.896   3.954   3.196
 4389TIP3    H113131   0.974   4.006   3.178
 4389TIP3    H213132   0.826   3.997   3.145
 4390TIP3   OH213133   4.608   0.244   1.171
 4390TIP3    H113134   4.670   0.182   1.208
 4390TIP3    H213135   4.661   0.302   1.117
 4391TIP3   OH213136   1.454   5.599   5.050
 4391TIP3    H113137   1.507   5.531   5.092
 4391TIP3    H213138   1.438   5.663   5.120
 4392TIP3   OH213139   1.672   2.568   1.428
 4392TIP3    H113140   1.578   2.559   1.413
 4392TIP3    H213141   1.692   2.504   1.497
 4393TIP3   OH213142   4.510   2.073   5.667
 4393TIP3    H113143   4.418   2.067   5.690
 4393TIP3    H213144   4.557   2.038   5.743
 4394TIP3   OH213145   3.279   2.408   3.976
 4394TIP3    H113146   3.263   2.387   3.884
 4394TIP3    H213147   3.229   2.342   4.025
 4395TIP3   OH213148   0.642   0.535   1.776
 4395TIP3    H113149   0.596   0.458   1.810
 4395TIP3    H213150   0.590   0.609   1.808
 4396TIP3   OH213151   2.607   1.632   2.959
 4396TIP3    H113152   2.571   1.720   2.963
 4396TIP3    H213153   2.585   1.593   3.044
 4397TIP3   OH213154   1.417   1.409   4.462
 4397TIP3    H113155   1.419   1.331   4.517
 4397TIP3    H213156   1.397   1.376   4.374
 4398TIP3   OH213157   0.187   3.752   3.154
 4398TIP3    H113158   0.114   3.780   3.209
 4398TIP3    H213159   0.247   3.709   3.215
 4399TIP3   OH213160   2.121   3.954   3.407
 4399TIP3    H113161   2.032   3.944   3.440
 4399TIP3    H213162   2.113   3.939   3.313
 4400TIP3   OH213163   1.723   4.135   3.631
 4400TIP3    H113164   1.791   4.190   3.591
 4400TIP3    H213165   1.767   4.093   3.705
 4401TIP3   OH213166   0.614   3.845   0.228
 4401TIP3    H113167   0.642   3.795   0.152
 4401TIP3    H213168   0.660   3.805   0.302
 4402TIP3   OH213169   7.095   0.800   1.881
 4402TIP3    H113170   7.031   0.784   1.811
 4402TIP3    H213171   7.042   0.819   1.958
 4403TIP3   OH213172   0.908   0.554   0.786
 4403TIP3    H113173   0.967   0.609   0.734
 4403TIP3    H213174   0.923   0.582   0.876
 4404TIP3   OH213175   0.788   2.389   4.179
 4404TIP3    H113176   0.735   2.330   4.232
 4404TIP3    H213177   0.831   2.331   4.116
 4405TIP3   OH213178   1.121   3.570   5.175
 4405TIP3    H113179   1.133   3.475   5.173
 4405TIP3    H213180   1.204   3.606   5.145
 4406TIP3   OH213181   3.714   5.406   3.192
 4406TIP3    H113182   3.675   5.464   3.256
 4406TIP3    H213183   3.754   5.465   3.127
 4407TIP3   OH213184   5.750   4.062   1.425
 4407TIP3    H113185   5.715   4.122   1.359
 4407TIP3    H213186   5.685   3.992   1.430
 4408TIP3   OH213187   2.815   3.418   5.816
 4408TIP3    H113188   2.812   3.389   5.725
 4408TIP3    H213189   2.820   3.336   5.867
 4409TIP3   OH213190   6.951   1.153   3.721
 4409TIP3    H113191   6.954   1.060   3.699
 4409TIP3    H213192   6.938   1.197   3.637
 4410TIP3   OH213193   6.509   6.468   2.785
 4410TIP3    H113194   6.494   6.510   2.869
 4410TIP3    H213195   6.431   6.414   2.770
 4411TIP3   OH213196   3.298   5.038   3.925
 4411TIP3    H113197   3.357   5.046   3.850
 4411TIP3    H213198   3.241   5.115   3.919
 4412TIP3   OH213199   2.608   1.032   0.775
 4412TIP3    H113200   2.528   1.006   0.730
 4412TIP3    H213201   2.671   0.963   0.754
 4413TIP3   OH213202   0.127   0.517   2.015
 4413TIP3    H113203   0.082   0.545   1.936
 4413TIP3    H213204   0.059   0.472   2.067
 4414TIP3   OH213205   2.869   2.640   2.838
 4414TIP3    H113206   2.874   2.558   2.788
 4414TIP3    H213207   2.843   2.613   2.926
 4415TIP3   OH213208   1.342   4.848   0.610
 4415TIP3    H113209   1.347   4.943   0.614
 4415TIP3    H213210   1.433   4.819   0.613
 4416TIP3   OH213211   0.563   1.783   5.744
 4416TIP3    H113212   0.565   1.792   5.840
 4416TIP3    H213213   0.549   1.690   5.729
 4417TIP3   OH213214   7.186   3.335   0.432
 4417TIP3    H113215   7.150   3.284   0.359
 4417TIP3    H213216   7.228   3.410   0.390
 4418TIP3   OH213217   5.977   2.250   1.634
 4418TIP3    H113218   5.934   2.181   1.584
 4418TIP3    H213219   5.956   2.331   1.587
 4419TIP3   OH213220   1.020   6.074   4.325
 4419TIP3    H113221   0.958   6.141   4.352
 4419TIP3    H213222   0.968   5.994   4.320
 4420TIP3   OH213223   1.495   0.384   0.307
 4420TIP3    H113224   1.404   0.375   0.280
 4420TIP3    H213225   1.493   0.382   0.402
 4421TIP3   OH213226   7.030   5.520   1.430
 4421TIP3    H113227   6.943   5.481   1.440
 4421TIP3    H213228   7.032   5.552   1.339
 4422TIP3   OH213229   2.560   1.979   5.216
 4422TIP3    H113230   2.621   1.908   5.198
 4422TIP3    H213231   2.562   2.033   5.137
 4423TIP3   OH213232   6.196   1.457   3.645
 4423TIP3    H113233   6.113   1.461   3.598
 4423TIP3    H213234   6.229   1.547   3.644
 4424TIP3   OH213235   5.251   2.946   0.213
 4424TIP3    H113236   5.281   2.928   0.302
 4424TIP3    H213237   5.332   2.953   0.162
 4425TIP3   OH213238   2.177   6.719   2.871
 4425TIP3    H113239   2.260   6.725   2.824
 4425TIP3    H213240   2.139   6.636   2.842
 4426TIP3   OH213241   2.318   3.776   2.705
 4426TIP3    H113242   2.404   3.779   2.747
 4426TIP3    H213243   2.323   3.700   2.647
 4427TIP3   OH213244   1.925   5.701   5.460
 4427TIP3    H113245   1.996   5.638   5.464
 4427TIP3    H213246   1.856   5.656   5.411
 4428TIP3   OH213247   6.524   6.319   1.815
 4428TIP3    H113248   6.538   6.306   1.908
 4428TIP3    H213249   6.564   6.243   1.773
 4429TIP3   OH213250   4.083   1.689   5.265
 4429TIP3    H113251   4.132   1.634   5.204
 4429TIP3    H213252   4.141   1.762   5.285
 4430TIP3   OH213253   6.493   5.013   5.485
 4430TIP3    H113254   6.410   5.056   5.462
 4430TIP3    H213255   6.538   5.001   5.402
 4431TIP3   OH213256   3.120   5.400   5.825
 4431TIP3    H113257   3.179   5.351   5.768
 4431TIP3    H213258   3.177   5.462   5.872
 4432TIP3   OH213259   0.938   1.046   5.785
 4432TIP3    H113260   0.938   1.097   5.866
 4432TIP3    H213261   0.859   0.993   5.790
 4433TIP3   OH213262   0.509   3.957   1.788
 4433TIP3    H113263   0.557   3.897   1.845
 4433TIP3    H213264   0.488   3.906   1.711
 4434TIP3   OH213265   1.039   3.937   0.256
 4434TIP3    H113266   1.122   3.927   0.304
 4434TIP3    H213267   0.971   3.918   0.321
 4435TIP3   OH213268   6.835   5.964   5.318
 4435TIP3    H113269   6.901   6.018   5.275
 4435TIP3    H213270   6.764   5.957   5.254
 4436TIP3   OH213271   0.089   5.907   4.936
 4436TIP3    H113272   0.066   5.924   4.845
 4436TIP3    H213273   0.021   5.950   4.987
 4437TIP3   OH213274   1.989  -0.009   5.863
 4437TIP3    H113275   1.957   0.031   5.782
 4437TIP3    H213276   1.912  -0.015   5.919
 4438TIP3   OH213277   2.591   6.474   5.362
 4438TIP3    H113278   2.590   6.379   5.368
 4438TIP3    H213279   2.574   6.493   5.270
 4439TIP3   OH213280   4.541   5.864   2.985
 4439TIP3    H113281   4.506   5.795   2.929
 4439TIP3    H213282   4.530   5.945   2.935
 4440TIP3   OH213283   6.986   5.692   3.604
 4440TIP3    H113284   6.974   5.610   3.653
 4440TIP3    H213285   6.902   5.736   3.608
 4441TIP3   OH213286   6.331   5.993   4.339
 4441TIP3    H113287   6.350   5.910   4.383
 4441TIP3    H213288   6.278   5.968   4.263
 4442TIP3   OH213289   0.578   0.346   2.963
 4442TIP3    H113290   0.634   0.422   2.949
 4442TIP3    H213291   0.505   0.379   3.016
 4443TIP3   OH213292   2.439   1.677   1.997
 4443TIP3    H113293   2.369   1.617   2.023
 4443TIP3    H213294   2.511   1.619   1.971
 4444TIP3   OH213295   1.343   3.515   4.914
 4444TIP3    H113296   1.281   3.458   4.868
 4444TIP3    H213297   1.352   3.476   5.001
 4445TIP3   OH213298   1.579   3.473   5.821
 4445TIP3    H113299   1.578   3.499   5.913
 4445TIP3    H213300   1.613   3.550   5.774
 4446TIP3   OH213301   2.649   1.828   0.521
 4446TIP3    H113302   2.729   1.867   0.485
 4446TIP3    H213303   2.583   1.897   0.512
 4447TIP3   OH213304   1.617   4.097   2.878
 4447TIP3    H113305   1.588   4.104   2.968
 4447TIP3    H213306   1.624   4.003   2.861
 4448TIP3   OH213307   4.349   6.186   2.120
 4448TIP3    H113308   4.413   6.130   2.163
 4448TIP3    H213309   4.294   6.219   2.191
 4449TIP3   OH213310   6.781   1.800   3.827
 4449TIP3    H113311   6.873   1.793   3.854
 4449TIP3    H213312   6.785   1.816   3.733
 4450TIP3   OH213313   0.023   1.932   1.551
 4450TIP3    H113314   0.111   1.963   1.572
 4450TIP3    H213315   0.035   1.840   1.527
 4451TIP3   OH213316   5.902   3.510   3.040
 4451TIP3    H113317   5.969   3.447   3.012
 4451TIP3    H213318   5.832   3.456   3.076
 4452TIP3   OH213319   2.219   5.869   0.762
 4452TIP3    H113320   2.252   5.953   0.730
 4452TIP3    H213321   2.283   5.842   0.827
 4453TIP3   OH213322   2.699   5.048   5.874
 4453TIP3    H113323   2.758   5.073   5.802
 4453TIP3    H213324   2.688   4.953   5.864
 4454TIP3   OH213325   3.584   3.813   1.220
 4454TIP3    H113326   3.571   3.863   1.300
 4454TIP3    H213327   3.623   3.730   1.249
 4455TIP3   OH213328   5.637   2.182   3.112
 4455TIP3    H113329   5.673   2.260   3.153
 4455TIP3    H213330   5.670   2.109   3.165
 4456TIP3   OH213331   5.706   1.995   1.935
 4456TIP3    H113332   5.781   2.050   1.915
 4456TIP3    H213333   5.630   2.052   1.925
 4457TIP3   OH213334   4.354   5.739   5.036
 4457TIP3    H113335   4.342   5.781   5.122
 4457TIP3    H213336   4.308   5.656   5.044
 4458TIP3   OH213337   6.917   5.244   4.825
 4458TIP3    H113338   6.903   5.156   4.861
 4458TIP3    H213339   6.837   5.292   4.848
 4459TIP3   OH213340   4.474   1.302   4.205
 4459TIP3    H113341   4.381   1.279   4.212
 4459TIP3    H213342   4.474   1.393   4.177
 4460TIP3   OH213343   3.278   2.894   1.286
 4460TIP3    H113344   3.334   2.931   1.354
 4460TIP3    H213345   3.255   2.969   1.231
 4461TIP3   OH213346   2.106   6.194   4.383
 4461TIP3    H113347   2.079   6.141   4.308
 4461TIP3    H213348   2.197   6.169   4.399
 4462TIP3   OH213349   1.447   2.075   0.240
 4462TIP3    H113350   1.421   2.137   0.171
 4462TIP3    H213351   1.373   2.075   0.301
 4463TIP3   OH213352   6.401   5.599   2.760
 4463TIP3    H113353   6.325   5.552   2.795
 4463TIP3    H213354   6.457   5.614   2.836
 4464TIP3   OH213355   3.925   5.732   4.559
 4464TIP3    H113356   3.924   5.790   4.635
 4464TIP3    H213357   3.858   5.666   4.578
 4465TIP3   OH213358   6.732   3.144   1.708
 4465TIP3    H113359   6.826   3.155   1.694
 4465TIP3    H213360   6.692   3.182   1.631
 4466TIP3   OH213361   0.630   1.142   4.142
 4466TIP3    H113362   0.541   1.176   4.134
 4466TIP3    H213363   0.625   1.079   4.214
 4467TIP3   OH213364   6.152   2.544   0.819
 4467TIP3    H113365   6.216   2.611   0.796
 4467TIP3    H213366   6.071   2.593   0.834
 4468TIP3   OH213367   6.803   0.364   5.689
 4468TIP3    H113368   6.875   0.374   5.751
 4468TIP3    H213369   6.843   0.323   5.613
 4469TIP3   OH213370   1.172   1.044   2.358
 4469TIP3    H113371   1.111   1.114   2.333
 4469TIP3    H213372   1.244   1.090   2.402
 4470TIP3   OH213373   6.335   3.213   4.517
 4470TIP3    H113374   6.402   3.214   4.449
 4470TIP3    H213375   6.307   3.121   4.521
 4471TIP3   OH213376   3.057   5.431   4.199
 4471TIP3    H113377   3.009   5.348   4.196
 4471TIP3    H213378   3.115   5.422   4.275
 4472TIP3   OH213379   0.335   1.394   2.743
 4472TIP3    H113380   0.362   1.446   2.668
 4472TIP3    H213381   0.316   1.307   2.707
 4473TIP3   OH213382   6.468   4.826   0.510
 4473TIP3    H113383   6.476   4.918   0.483
 4473TIP3    H213384   6.526   4.779   0.451
 4474TIP3   OH213385   7.024   5.887   5.715
 4474TIP3    H113386   6.960   5.844   5.658
 4474TIP3    H213387   7.103   5.834   5.706
 4475TIP3   OH213388   4.891   5.863   5.897
 4475TIP3    H113389   4.979   5.870   5.934
 4475TIP3    H213390   4.901   5.809   5.819
 4476TIP3   OH213391   6.001   3.286   3.785
 4476TIP3    H113392   5.916   3.313   3.750
 4476TIP3    H213393   6.006   3.192   3.766
 4477TIP3   OH213394   6.575   1.429   4.527
 4477TIP3    H113395   6.652   1.485   4.514
 4477TIP3    H213396   6.501   1.484   4.503
 4478TIP3   OH213397   3.648   0.663   5.327
 4478TIP3    H113398   3.693   0.585   5.360
 4478TIP3    H213399   3.573   0.629   5.279
 4479TIP3   OH213400   3.719   3.655   3.999
 4479TIP3    H113401   3.805   3.631   4.033
 4479TIP3    H213402   3.718   3.617   3.911
 4480TIP3   OH213403   3.880   0.918   2.181
 4480TIP3    H113404   3.922   0.833   2.170
 4480TIP3    H213405   3.946   0.973   2.224
 4481TIP3   OH213406   3.571   6.093   2.444
 4481TIP3    H113407   3.494   6.116   2.392
 4481TIP3    H213408   3.574   6.159   2.513
 4482TIP3   OH213409   4.153   2.715   1.845
 4482TIP3    H113410   4.231   2.761   1.876
 4482TIP3    H213411   4.128   2.762   1.766
 4483TIP3   OH213412   3.326   0.261   5.563
 4483TIP3    H113413   3.240   0.301   5.575
 4483TIP3    H213414   3.387   0.325   5.600
 4484TIP3   OH213415   6.613   3.784   5.133
 4484TIP3    H113416   6.599   3.754   5.222
 4484TIP3    H213417   6.527   3.777   5.091
 4485TIP3   OH213418   3.510   6.688   5.319
 4485TIP3    H113419   3.488   6.666   5.229
 4485TIP3    H213420   3.428   6.675   5.368
 4486TIP3   OH213421   1.039   3.979   1.663
 4486TIP3    H113422   1.111   3.978   1.726
 4486TIP3    H213423   0.986   3.903   1.685
 4487TIP3   OH213424   5.773   4.388   2.766
 4487TIP3    H113425   5.813   4.306   2.737
 4487TIP3    H213426   5.683   4.365   2.789
 4488TIP3   OH213427   5.840   1.522   5.556
 4488TIP3    H113428   5.851   1.616   5.543
 4488TIP3    H213429   5.806   1.513   5.645
 4489TIP3   OH213430   2.872   3.640   0.260
 4489TIP3    H113431   2.890   3.609   0.171
 4489TIP3    H213432   2.952   3.687   0.286
 4490TIP3   OH213433   4.866   4.309   5.070
 4490TIP3    H113434   4.950   4.265   5.056
 4490TIP3    H213435   4.812   4.283   4.996
 4491TIP3   OH213436   4.406   4.237   1.161
 4491TIP3    H113437   4.360   4.300   1.105
 4491TIP3    H213438   4.359   4.240   1.245
 4492TIP3   OH213439   4.392   1.367   3.634
 4492TIP3    H113440   4.488   1.368   3.636
 4492TIP3    H213441   4.366   1.365   3.726
 4493TIP3   OH213442   3.354   2.728   5.327
 4493TIP3    H113443   3.357   2.708   5.420
 4493TIP3    H213444   3.353   2.643   5.283
 4494TIP3   OH213445   4.370   4.330   4.874
 4494TIP3    H113446   4.279   4.314   4.900
 4494TIP3    H213447   4.405   4.243   4.856
 4495TIP3   OH213448   1.234   5.960   1.528
 4495TIP3    H113449   1.227   6.042   1.578
 4495TIP3    H213450   1.296   5.906   1.579
 4496TIP3   OH213451   6.500   2.998   1.738
 4496TIP3    H113452   6.587   3.038   1.738
 4496TIP3    H213453   6.507   2.925   1.677
 4497TIP3   OH213454   1.839   0.082   1.400
 4497TIP3    H113455   1.794   0.163   1.424
 4497TIP3    H213456   1.839   0.082   1.305
 4498TIP3   OH213457   5.133   6.269   1.325
 4498TIP3    H113458   5.199   6.268   1.394
 4498TIP3    H213459   5.172   6.321   1.254
 4499TIP3   OH213460   4.734   5.654   2.517
 4499TIP3    H113461   4.647   5.693   2.529
 4499TIP3    H213462   4.724   5.596   2.442
 4500TIP3   OH213463   0.147   0.344   2.701
 4500TIP3    H113464   0.098   0.338   2.783
 4500TIP3    H213465   0.223   0.398   2.723
 4501TIP3   OH213466   0.852   1.959   4.836
 4501TIP3    H113467   0.823   2.050   4.847
 4501TIP3    H213468   0.922   1.964   4.771
 4502TIP3   OH213469   4.540   4.737   0.572
 4502TIP3    H113470   4.570   4.771   0.488
 4502TIP3    H213471   4.617   4.696   0.610
 4503TIP3   OH213472   0.043   1.468   5.018
 4503TIP3    H113473   0.071   1.543   4.967
 4503TIP3    H213474   0.121   1.414   5.028
 4504TIP3   OH213475   3.244   1.845   3.243
 4504TIP3    H113476   3.255   1.752   3.263
 4504TIP3    H213477   3.205   1.882   3.323
 4505TIP3   OH213478   6.764   2.998   1.954
 4505TIP3    H113479   6.821   3.037   2.021
 4505TIP3    H213480   6.738   3.072   1.899
 4506TIP3   OH213481   5.749   6.540   2.345
 4506TIP3    H113482   5.805   6.469   2.315
 4506TIP3    H213483   5.706   6.572   2.266
 4507TIP3   OH213484   6.332   6.141   1.609
 4507TIP3    H113485   6.407   6.158   1.666
 4507TIP3    H213486   6.256   6.144   1.668
 4508TIP3   OH213487   2.860   3.945   0.788
 4508TIP3    H113488   2.821   3.913   0.706
 4508TIP3    H213489   2.841   4.038   0.789
 4509TIP3   OH213490   6.136   6.386   0.369
 4509TIP3    H113491   6.155   6.403   0.277
 4509TIP3    H213492   6.042   6.368   0.372
 4510TIP3   OH213493   6.946   6.129   4.775
 4510TIP3    H113494   7.032   6.137   4.817
 4510TIP3    H213495   6.885   6.168   4.837
 4511TIP3   OH213496   4.922   3.409   1.727
 4511TIP3    H113497   5.017   3.418   1.736
 4511TIP3    H213498   4.910   3.362   1.644
 4512TIP3   OH213499   0.596   3.686   2.492
 4512TIP3    H113500   0.630   3.743   2.561
 4512TIP3    H213501   0.672   3.634   2.465
 4513TIP3   OH213502   4.992   0.838   4.981
 4513TIP3    H113503   5.066   0.862   4.926
 4513TIP3    H213504   5.030   0.821   5.067
 4514TIP3   OH213505   4.192   1.418   1.115
 4514TIP3    H113506   4.217   1.326   1.120
 4514TIP3    H213507   4.210   1.452   1.202
 4515TIP3   OH213508   1.143   2.619   0.022
 4515TIP3    H113509   1.052   2.649   0.021
 4515TIP3    H213510   1.189   2.686   0.073
 4516TIP3   OH213511   5.071   6.278   5.025
 4516TIP3    H113512   5.166   6.263   5.017
 4516TIP3    H213513   5.061   6.373   5.013
 4517TIP3   OH213514   0.592   4.827   4.779
 4517TIP3    H113515   0.664   4.868   4.827
 4517TIP3    H213516   0.633   4.755   4.731
 4518TIP3   OH213517   2.115   2.484   3.112
 4518TIP3    H113518   2.180   2.466   3.180
 4518TIP3    H213519   2.144   2.567   3.074
 4519TIP3   OH213520   4.906   0.729   2.506
 4519TIP3    H113521   4.952   0.646   2.520
 4519TIP3    H213522   4.970   0.785   2.462
 4520TIP3   OH213523   4.037   1.475   4.170
 4520TIP3    H113524   4.104   1.429   4.220
 4520TIP3    H213525   4.017   1.417   4.096
 4521TIP3   OH213526   2.154   1.122   1.199
 4521TIP3    H113527   2.219   1.190   1.216
 4521TIP3    H213528   2.192   1.042   1.236
 4522TIP3   OH213529   0.560   4.205   2.464
 4522TIP3    H113530   0.609   4.192   2.383
 4522TIP3    H213531   0.469   4.190   2.439
 4523TIP3   OH213532   3.800   2.640   2.436
 4523TIP3    H113533   3.756   2.560   2.466
 4523TIP3    H213534   3.746   2.711   2.470
 4524TIP3   OH213535   3.797   5.322   4.806
 4524TIP3    H113536   3.772   5.387   4.872
 4524TIP3    H213537   3.727   5.258   4.807
 4525TIP3   OH213538   6.115   4.355   2.664
 4525TIP3    H113539   6.099   4.425   2.601
 4525TIP3    H213540   6.051   4.288   2.642
 4526TIP3   OH213541   1.744   5.695   4.091
 4526TIP3    H113542   1.693   5.632   4.039
 4526TIP3    H213543   1.774   5.760   4.027
 4527TIP3   OH213544   0.331   2.228   1.740
 4527TIP3    H113545   0.326   2.317   1.706
 4527TIP3    H213546   0.414   2.225   1.787
 4528TIP3   OH213547   6.789   1.973   3.322
 4528TIP3    H113548   6.772   2.021   3.241
 4528TIP3    H213549   6.870   2.012   3.357
 4529TIP3   OH213550   1.606   1.184   0.078
 4529TIP3    H113551   1.521   1.223   0.058
 4529TIP3    H213552   1.602   1.166   0.172
 4530TIP3   OH213553   1.520   1.919   2.148
 4530TIP3    H113554   1.441   1.866   2.150
 4530TIP3    H213555   1.499   1.992   2.090
 4531TIP3   OH213556   1.072   2.531   1.872
 4531TIP3    H113557   0.984   2.517   1.909
 4531TIP3    H213558   1.115   2.587   1.936
 4532TIP3   OH213559   6.226   6.056   1.232
 4532TIP3    H113560   6.195   6.145   1.250
 4532TIP3    H213561   6.191   6.003   1.304
 4533TIP3   OH213562   2.374   0.812   4.684
 4533TIP3    H113563   2.365   0.839   4.593
 4533TIP3    H213564   2.293   0.839   4.726
 4534TIP3   OH213565   0.928   2.459   5.739
 4534TIP3    H113566   0.892   2.492   5.821
 4534TIP3    H213567   0.926   2.364   5.748
 4535TIP3   OH213568   0.579   6.581   0.424
 4535TIP3    H113569   0.535   6.501   0.453
 4535TIP3    H213570   0.530   6.652   0.465
 4536TIP3   OH213571   0.654   3.115   1.692
 4536TIP3    H113572   0.736   3.067   1.683
 4536TIP3    H213573   0.586   3.052   1.667
 4537TIP3   OH213574   6.296   6.455   5.587
 4537TIP3    H113575   6.254   6.539   5.607
 4537TIP3    H213576   6.224   6.400   5.555
 4538TIP3   OH213577   0.772   0.662   1.301
 4538TIP3    H113578   0.739   0.605   1.371
 4538TIP3    H213579   0.711   0.649   1.229
 4539TIP3   OH213580   0.737   1.806   0.997
 4539TIP3    H113581   0.755   1.712   0.991
 4539TIP3    H213582   0.642   1.812   1.007
 4540TIP3   OH213583   4.343   4.945   2.927
 4540TIP3    H113584   4.382   4.920   2.843
 4540TIP3    H213585   4.405   4.913   2.993
 4541TIP3   OH213586   3.928   4.450   4.239
 4541TIP3    H113587   3.969   4.432   4.155
 4541TIP3    H213588   3.875   4.372   4.257
 4542TIP3   OH213589   1.464   3.768   4.354
 4542TIP3    H113590   1.526   3.808   4.416
 4542TIP3    H213591   1.458   3.832   4.283
 4543TIP3   OH213592   0.370   3.337   5.635
 4543TIP3    H113593   0.410   3.278   5.571
 4543TIP3    H213594   0.323   3.279   5.695
 4544TIP3   OH213595   3.873   5.349   4.064
 4544TIP3    H113596   3.921   5.272   4.035
 4544TIP3    H213597   3.877   5.346   4.160
 4545TIP3   OH213598   3.931   1.982   5.425
 4545TIP3    H113599   3.847   1.943   5.449
 4545TIP3    H213600   3.971   1.919   5.366
 4546TIP3   OH213601   0.149   3.634   3.936
 4546TIP3    H113602   0.098   3.706   3.899
 4546TIP3    H213603   0.240   3.662   3.928
 4547TIP3   OH213604   5.372   1.762   4.554
 4547TIP3    H113605   5.382   1.804   4.469
 4547TIP3    H213606   5.306   1.694   4.540
 4548TIP3   OH213607   0.514   3.480   4.308
 4548TIP3    H113608   0.498   3.400   4.259
 4548TIP3    H213609   0.606   3.474   4.335
 4549TIP3   OH213610   1.189   5.393   1.258
 4549TIP3    H113611   1.199   5.421   1.349
 4549TIP3    H213612   1.191   5.474   1.208
 4550TIP3   OH213613   5.053   5.588   0.133
 4550TIP3    H113614   4.990   5.600   0.204
 4550TIP3    H213615   5.138   5.602   0.173
 4551TIP3   OH213616   6.713   5.933   3.390
 4551TIP3    H113617   6.713   5.860   3.328
 4551TIP3    H213618   6.748   6.007   3.341
 4552TIP3   OH213619   6.642   2.053   2.522
 4552TIP3    H113620   6.563   2.106   2.516
 4552TIP3    H213621   6.672   2.065   2.612
 4553TIP3   OH213622   4.587   3.962   3.635
 4553TIP3    H113623   4.612   4.036   3.691
 4553TIP3    H213624   4.544   4.003   3.560
 4554TIP3   OH213625   2.727   2.593   1.193
 4554TIP3    H113626   2.684   2.609   1.110
 4554TIP3    H213627   2.694   2.662   1.251
 4555TIP3   OH213628   6.099   4.437   3.141
 4555TIP3    H113629   6.131   4.389   3.065
 4555TIP3    H213630   6.170   4.498   3.162
 4556TIP3   OH213631   5.469   5.673   0.509
 4556TIP3    H113632   5.488   5.749   0.455
 4556TIP3    H213633   5.448   5.709   0.596
 4557TIP3   OH213634   0.384   1.776   2.609
 4557TIP3    H113635   0.456   1.742   2.555
 4557TIP3    H213636   0.312   1.789   2.547
 4558TIP3   OH213637   1.919   4.542   4.484
 4558TIP3    H113638   2.007   4.557   4.519
 4558TIP3    H213639   1.900   4.620   4.432
 4559TIP3   OH213640   6.147   1.213   0.423
 4559TIP3    H113641   6.194   1.258   0.494
 4559TIP3    H213642   6.091   1.150   0.468
 4560TIP3   OH213643   1.663   2.031   5.424
 4560TIP3    H113644   1.681   2.061   5.513
 4560TIP3    H213645   1.714   1.950   5.415
 4561TIP3   OH213646   3.319   2.053   4.809
 4561TIP3    H113647   3.344   2.127   4.753
 4561TIP3    H213648   3.233   2.027   4.777
 4562TIP3   OH213649   6.543   1.415   5.354
 4562TIP3    H113650   6.471   1.401   5.415
 4562TIP3    H213651   6.588   1.330   5.350
 4563TIP3   OH213652   2.897   2.015   4.373
 4563TIP3    H113653   2.805   1.991   4.382
 4563TIP3    H213654   2.898   2.110   4.382
 4564TIP3   OH213655   3.361   2.429   4.261
 4564TIP3    H113656   3.294   2.361   4.262
 4564TIP3    H213657   3.394   2.430   4.171
 4565TIP3   OH213658   0.042   3.619   2.544
 4565TIP3    H113659   0.054   3.640   2.637
 4565TIP3    H213660   0.041   3.704   2.500
 4566TIP3   OH213661   2.342   5.103   2.485
 4566TIP3    H113662   2.339   5.143   2.572
 4566TIP3    H213663   2.326   5.010   2.501
 4567TIP3   OH213664   4.598   5.303   2.036
 4567TIP3    H113665   4.693   5.301   2.026
 4567TIP3    H213666   4.576   5.223   2.082
 4568TIP3   OH213667   7.120   2.561   2.272
 4568TIP3    H113668   7.056   2.502   2.231
 4568TIP3    H213669   7.093   2.648   2.244
 4569TIP3   OH213670   4.641   0.548   1.040
 4569TIP3    H113671   4.719   0.603   1.044
 4569TIP3    H213672   4.570   0.606   1.067
 4570TIP3   OH213673   1.932   0.027   1.157
 4570TIP3    H113674   2.019  -0.007   1.178
 4570TIP3    H213675   1.944   0.121   1.150
 4571TIP3   OH213676   6.595   4.330   2.363
 4571TIP3    H113677   6.635   4.246   2.338
 4571TIP3    H213678   6.510   4.306   2.398
 4572TIP3   OH213679   5.609   5.619   3.468
 4572TIP3    H113680   5.524   5.653   3.438
 4572TIP3    H213681   5.586   5.541   3.519
 4573TIP3   OH213682   5.480   3.149   5.123
 4573TIP3    H113683   5.500   3.242   5.130
 4573TIP3    H213684   5.451   3.137   5.032
 4574TIP3   OH213685   2.220   3.072   1.455
 4574TIP3    H113686   2.196   3.125   1.531
 4574TIP3    H213687   2.137   3.043   1.419
 4575TIP3   OH213688   2.452   5.063   1.506
 4575TIP3    H113689   2.419   5.015   1.430
 4575TIP3    H213690   2.376   5.076   1.561
 4576TIP3   OH213691   5.838   5.005   2.009
 4576TIP3    H113692   5.882   4.920   2.017
 4576TIP3    H213693   5.787   5.013   2.090
 4577TIP3   OH213694   6.359   2.299   2.032
 4577TIP3    H113695   6.289   2.298   2.098
 4577TIP3    H213696   6.414   2.373   2.057
 4578TIP3   OH213697   3.401   3.924   3.454
 4578TIP3    H113698   3.494   3.905   3.438
 4578TIP3    H213699   3.354   3.853   3.412
 4579TIP3   OH213700   0.611   4.458   2.447
 4579TIP3    H113701   0.605   4.366   2.473
 4579TIP3    H213702   0.702   4.469   2.419
 4580TIP3   OH213703   4.053   0.014   0.994
 4580TIP3    H113704   4.104   0.021   0.914
 4580TIP3    H213705   3.962   0.006   0.964
 4581TIP3   OH213706   0.850   0.811   4.936
 4581TIP3    H113707   0.939   0.843   4.943
 4581TIP3    H213708   0.796   0.880   4.975
 4582TIP3   OH213709   6.734   0.618   5.637
 4582TIP3    H113710   6.758   0.528   5.660
 4582TIP3    H213711   6.656   0.636   5.690
 4583TIP3   OH213712   1.291   2.828   0.168
 4583TIP3    H113713   1.368   2.774   0.154
 4583TIP3    H213714   1.302   2.866   0.255
 4584TIP3   OH213715   1.495   6.060   3.606
 4584TIP3    H113716   1.517   5.981   3.656
 4584TIP3    H213717   1.405   6.079   3.630
 4585TIP3   OH213718   2.906   2.955   0.906
 4585TIP3    H113719   2.827   2.967   0.854
 4585TIP3    H213720   2.884   2.883   0.965
 4586TIP3   OH213721   1.992   6.400   1.592
 4586TIP3    H113722   2.048   6.338   1.545
 4586TIP3    H213723   1.907   6.355   1.600
 4587TIP3   OH213724   3.043   4.450   5.346
 4587TIP3    H113725   3.053   4.531   5.396
 4587TIP3    H213726   3.132   4.425   5.323
 4588TIP3   OH213727   5.767   4.072   5.848
 4588TIP3    H113728   5.842   4.091   5.793
 4588TIP3    H213729   5.775   3.978   5.867
 4589TIP3   OH213730   5.901   4.795   5.315
 4589TIP3    H113731   5.830   4.858   5.300
 4589TIP3    H213732   5.920   4.801   5.408
 4590TIP3   OH213733   6.999   4.374   3.781
 4590TIP3    H113734   7.087   4.403   3.754
 4590TIP3    H213735   6.949   4.369   3.700
 4591TIP3   OH213736   5.945   2.707   3.055
 4591TIP3    H113737   6.027   2.684   3.099
 4591TIP3    H213738   5.960   2.683   2.963
 4592TIP3   OH213739   5.902   0.045   0.854
 4592TIP3    H113740   5.949   0.094   0.922
 4592TIP3    H213741   5.867   0.112   0.796
 4593TIP3   OH213742   0.872   6.377   0.056
 4593TIP3    H113743   0.873   6.310  -0.011
 4593TIP3    H213744   0.944   6.435   0.033
 4594TIP3   OH213745   0.696   1.811   0.235
 4594TIP3    H113746   0.734   1.899   0.240
 4594TIP3    H213747   0.743   1.769   0.164
 4595TIP3   OH213748   6.764   6.515   2.966
 4595TIP3    H113749   6.731   6.465   3.041
 4595TIP3    H213750   6.720   6.600   2.972
 4596TIP3   OH213751   2.141   3.455   3.134
 4596TIP3    H113752   2.047   3.437   3.139
 4596TIP3    H213753   2.179   3.403   3.203
 4597TIP3   OH213754   5.381   4.764   0.087
 4597TIP3    H113755   5.366   4.687   0.032
 4597TIP3    H213756   5.384   4.729   0.176
 4598TIP3   OH213757   5.258   5.697   4.961
 4598TIP3    H113758   5.217   5.783   4.952
 4598TIP3    H213759   5.352   5.715   4.954
 4599TIP3   OH213760   5.580   5.226   0.775
 4599TIP3    H113761   5.507   5.205   0.716
 4599TIP3    H213762   5.577   5.321   0.784
 4600TIP3   OH213763   1.941   4.861   4.121
 4600TIP3    H113764   1.973   4.951   4.128
 4600TIP3    H213765   1.980   4.828   4.041
 4601TIP3   OH213766   4.199   2.049   1.889
 4601TIP3    H113767   4.140   2.119   1.863
 4601TIP3    H213768   4.151   1.999   1.955
 4602TIP3   OH213769   3.145   4.099   0.805
 4602TIP3    H113770   3.150   4.087   0.900
 4602TIP3    H213771   3.228   4.064   0.772
 4603TIP3   OH213772   6.245   6.551   5.059
 4603TIP3    H113773   6.281   6.536   5.146
 4603TIP3    H213774   6.261   6.644   5.042
 4604TIP3   OH213775   3.180   2.643   4.118
 4604TIP3    H113776   3.218   2.579   4.059
 4604TIP3    H213777   3.244   2.652   4.189
 4605TIP3   OH213778   5.714   2.950   5.599
 4605TIP3    H113779   5.682   2.893   5.529
 4605TIP3    H213780   5.805   2.924   5.611
 4606TIP3   OH213781   5.223   3.431   4.826
 4606TIP3    H113782   5.161   3.478   4.882
 4606TIP3    H213783   5.181   3.427   4.741
 4607TIP3   OH213784   4.406   5.254   1.821
 4607TIP3    H113785   4.470   5.267   1.891
 4607TIP3    H213786   4.425   5.323   1.758
 4608TIP3   OH213787   1.691   2.014   4.458
 4608TIP3    H113788   1.784   2.002   4.479
 4608TIP3    H213789   1.687   2.004   4.362
 4609TIP3   OH213790   3.382   5.532   3.730
 4609TIP3    H113791   3.336   5.512   3.812
 4609TIP3    H213792   3.475   5.531   3.754
 4610TIP3   OH213793   1.508   0.037   5.063
 4610TIP3    H113794   1.433   0.069   5.113
 4610TIP3    H213795   1.486   0.056   4.972
 4611TIP3   OH213796   0.796   5.954   5.161
 4611TIP3    H113797   0.754   6.000   5.234
 4611TIP3    H213798   0.877   5.918   5.199
 4612TIP3   OH213799   1.576   4.123   5.513
 4612TIP3    H113800   1.549   4.154   5.427
 4612TIP3    H213801   1.504   4.147   5.571
 4613TIP3   OH213802   4.055   4.886   5.808
 4613TIP3    H113803   4.007   4.969   5.808
 4613TIP3    H213804   4.147   4.911   5.798
 4614TIP3   OH213805   2.541   3.832   2.386
 4614TIP3    H113806   2.513   3.782   2.309
 4614TIP3    H213807   2.497   3.916   2.377
 4615TIP3   OH213808   4.722   1.662   1.220
 4615TIP3    H113809   4.719   1.666   1.125
 4615TIP3    H213810   4.756   1.747   1.247
 4616TIP3   OH213811   2.785   4.409   5.291
 4616TIP3    H113812   2.876   4.439   5.303
 4616TIP3    H213813   2.794   4.324   5.247
 4617TIP3   OH213814   5.283   4.146   4.368
 4617TIP3    H113815   5.216   4.213   4.379
 4617TIP3    H213816   5.305   4.150   4.275
 4618TIP3   OH213817   4.503   1.849   4.649
 4618TIP3    H113818   4.427   1.793   4.636
 4618TIP3    H213819   4.546   1.814   4.727
 4619TIP3   OH213820   5.042   0.882   2.135
 4619TIP3    H113821   5.042   0.902   2.041
 4619TIP3    H213822   4.956   0.911   2.166
 4620TIP3   OH213823   0.277   2.237   1.360
 4620TIP3    H113824   0.333   2.170   1.398
 4620TIP3    H213825   0.200   2.240   1.417
 4621TIP3   OH213826   2.463   1.740   5.002
 4621TIP3    H113827   2.509   1.698   5.075
 4621TIP3    H213828   2.531   1.757   4.937
 4622TIP3   OH213829   5.182   1.472   3.058
 4622TIP3    H113830   5.162   1.470   3.151
 4622TIP3    H213831   5.163   1.383   3.027
 4623TIP3   OH213832   0.063   5.927   4.666
 4623TIP3    H113833   0.098   5.844   4.634
 4623TIP3    H213834   0.096   5.993   4.606
 4624TIP3   OH213835   6.209   2.455   1.098
 4624TIP3    H113836   6.243   2.366   1.102
 4624TIP3    H213837   6.214   2.480   1.006
 4625TIP3   OH213838   3.405   6.606   5.074
 4625TIP3    H113839   3.442   6.560   4.999
 4625TIP3    H213840   3.349   6.541   5.117
 4626TIP3   OH213841   0.448   4.693   4.983
 4626TIP3    H113842   0.488   4.754   4.920
 4626TIP3    H213843   0.496   4.708   5.064
 4627TIP3   OH213844   7.061   5.160   4.212
 4627TIP3    H113845   7.118   5.217   4.161
 4627TIP3    H213846   7.069   5.074   4.169
 4628TIP3   OH213847   6.438   4.606   4.061
 4628TIP3    H113848   6.352   4.566   4.052
 4628TIP3    H213849   6.460   4.635   3.973
 4629TIP3   OH213850   6.977   3.097   3.643
 4629TIP3    H113851   6.997   3.078   3.734
 4629TIP3    H213852   6.967   3.011   3.602
 4630TIP3   OH213853   6.971   4.493   5.219
 4630TIP3    H113854   6.965   4.398   5.211
 4630TIP3    H213855   6.880   4.523   5.221
 4631TIP3   OH213856   3.034   6.144   5.551
 4631TIP3    H113857   2.971   6.211   5.578
 4631TIP3    H213858   3.116   6.171   5.592
 4632TIP3   OH213859   0.012   6.689   3.856
 4632TIP3    H113860   0.043   6.607   3.894
 4632TIP3    H213861   0.048   6.690   3.767
 4633TIP3   OH213862   3.276   0.684   3.934
 4633TIP3    H113863   3.250   0.594   3.956
 4633TIP3    H213864   3.331   0.674   3.856
 4634TIP3   OH213865   1.364   0.510   2.316
 4634TIP3    H113866   1.318   0.539   2.237
 4634TIP3    H213867   1.372   0.590   2.369
 4635TIP3   OH213868   4.798   2.405   4.435
 4635TIP3    H113869   4.883   2.395   4.392
 4635TIP3    H213870   4.797   2.497   4.463
 4636TIP3   OH213871   3.090   4.418   3.022
 4636TIP3    H113872   3.044   4.346   3.064
 4636TIP3    H213873   3.066   4.495   3.073
 4637TIP3   OH213874   0.538   0.865   5.582
 4637TIP3    H113875   0.467   0.821   5.536
 4637TIP3    H213876   0.617   0.820   5.553
 4638TIP3   OH213877   3.193   3.092   3.781
 4638TIP3    H113878   3.194   3.033   3.856
 4638TIP3    H213879   3.234   3.043   3.710
 4639TIP3   OH213880   6.650   2.250   4.387
 4639TIP3    H113881   6.675   2.264   4.478
 4639TIP3    H213882   6.728   2.276   4.337
 4640TIP3   OH213883   1.794   0.805   4.976
 4640TIP3    H113884   1.709   0.777   4.942
 4640TIP3    H213885   1.821   0.877   4.918
 4641TIP3   OH213886   2.047   3.644   3.578
 4641TIP3    H113887   1.993   3.680   3.507
 4641TIP3    H213888   2.136   3.651   3.545
 4642TIP3   OH213889   0.874   6.049   4.926
 4642TIP3    H113890   0.849   6.038   5.018
 4642TIP3    H213891   0.922   5.969   4.905
 4643TIP3   OH213892   6.365   0.170   3.042
 4643TIP3    H113893   6.285   0.138   2.999
 4643TIP3    H213894   6.418   0.206   2.971
 4644TIP3   OH213895   4.337   0.443   0.131
 4644TIP3    H113896   4.378   0.485   0.056
 4644TIP3    H213897   4.411   0.403   0.178
 4645TIP3   OH213898   5.060   4.718   2.011
 4645TIP3    H113899   5.129   4.716   1.944
 4645TIP3    H213900   5.056   4.810   2.038
 4646TIP3   OH213901   2.237   3.731   5.538
 4646TIP3    H113902   2.312   3.712   5.594
 4646TIP3    H213903   2.164   3.742   5.600
 4647TIP3   OH213904   1.677   1.252   2.512
 4647TIP3    H113905   1.586   1.246   2.483
 4647TIP3    H213906   1.685   1.187   2.582
 4648TIP3   OH213907   0.324   6.265   1.506
 4648TIP3    H113908   0.350   6.243   1.595
 4648TIP3    H213909   0.228   6.258   1.506
 4649TIP3   OH213910   6.518   5.024   1.169
 4649TIP3    H113911   6.566   4.978   1.100
 4649TIP3    H213912   6.514   4.962   1.241
 4650TIP3   OH213913   3.804   5.821   3.127
 4650TIP3    H113914   3.862   5.747   3.108
 4650TIP3    H213915   3.828   5.848   3.215
 4651TIP3   OH213916   1.355   1.463   2.455
 4651TIP3    H113917   1.411   1.500   2.386
 4651TIP3    H213918   1.406   1.474   2.535
 4652TIP3   OH213919   4.391   2.674   5.164
 4652TIP3    H113920   4.452   2.747   5.153
 4652TIP3    H213921   4.401   2.623   5.083
 4653TIP3   OH213922   6.837   3.956   4.757
 4653TIP3    H113923   6.884   3.873   4.768
 4653TIP3    H213924   6.752   3.941   4.799
 4654TIP3   OH213925   1.186   3.631   3.092
 4654TIP3    H113926   1.199   3.651   3.185
 4654TIP3    H213927   1.142   3.708   3.057
 4655TIP3   OH213928   5.525   2.271   3.580
 4655TIP3    H113929   5.459   2.326   3.536
 4655TIP3    H213930   5.495   2.266   3.670
 4656TIP3   OH213931   2.534   2.060   1.906
 4656TIP3    H113932   2.512   1.999   1.836
 4656TIP3    H213933   2.625   2.040   1.929
 4657TIP3   OH213934   4.210   2.879   5.072
 4657TIP3    H113935   4.171   2.807   5.023
 4657TIP3    H213936   4.244   2.838   5.152
 4658TIP3   OH213937   3.334   2.986   0.206
 4658TIP3    H113938   3.280   3.030   0.140
 4658TIP3    H213939   3.270   2.944   0.265
 4659TIP3   OH213940   1.580   2.806   2.666
 4659TIP3    H113941   1.590   2.887   2.716
 4659TIP3    H213942   1.487   2.785   2.672
 4660TIP3   OH213943   5.146   4.958   1.402
 4660TIP3    H113944   5.172   5.032   1.458
 4660TIP3    H213945   5.224   4.941   1.349
 4661TIP3   OH213946   7.147   2.613   3.100
 4661TIP3    H113947   7.227   2.617   3.153
 4661TIP3    H213948   7.151   2.528   3.057
 4662TIP3   OH213949   1.663   3.563   3.100
 4662TIP3    H113950   1.597   3.504   3.138
 4662TIP3    H213951   1.698   3.516   3.025
 4663TIP3   OH213952   5.223   5.426   4.935
 4663TIP3    H113953   5.214   5.387   5.022
 4663TIP3    H213954   5.206   5.519   4.949
 4664TIP3   OH213955   4.977   5.988   1.604
 4664TIP3    H113956   4.971   6.066   1.659
 4664TIP3    H213957   4.918   5.925   1.646
 4665TIP3   OH213958   0.532   5.744   5.877
 4665TIP3    H113959   0.626   5.759   5.869
 4665TIP3    H213960   0.525   5.664   5.928
 4666TIP3   OH213961   3.751   4.322   1.315
 4666TIP3    H113962   3.710   4.397   1.359
 4666TIP3    H213963   3.834   4.356   1.283
 4667TIP3   OH213964   1.190   1.985   0.594
 4667TIP3    H113965   1.226   1.931   0.523
 4667TIP3    H213966   1.143   1.924   0.650
 4668TIP3   OH213967   2.102   0.057   2.708
 4668TIP3    H113968   2.051   0.007   2.645
 4668TIP3    H213969   2.193   0.047   2.678
 4669TIP3   OH213970   5.810   4.795   1.139
 4669TIP3    H113971   5.779   4.723   1.193
 4669TIP3    H213972   5.761   4.787   1.057
 4670TIP3   OH213973   3.443   6.199   0.192
 4670TIP3    H113974   3.504   6.265   0.224
 4670TIP3    H213975   3.457   6.197   0.097
 4671TIP3   OH213976   3.931   4.002   5.781
 4671TIP3    H113977   3.960   3.968   5.696
 4671TIP3    H213978   4.004   3.985   5.840
 4672TIP3   OH213979   5.532   6.576   3.467
 4672TIP3    H113980   5.581   6.657   3.451
 4672TIP3    H213981   5.498   6.586   3.556
 4673TIP3   OH213982   1.372   1.045   1.253
 4673TIP3    H113983   1.433   1.011   1.188
 4673TIP3    H213984   1.386   0.990   1.330
 4674TIP3   OH213985   5.023   6.124   2.897
 4674TIP3    H113986   5.109   6.108   2.934
 4674TIP3    H213987   4.971   6.156   2.971
 4675TIP3   OH213988   2.953   2.679   4.242
 4675TIP3    H113989   3.047   2.678   4.226
 4675TIP3    H213990   2.917   2.734   4.172
 4676TIP3   OH213991   4.713   3.281   3.254
 4676TIP3    H113992   4.679   3.347   3.314
 4676TIP3    H213993   4.750   3.214   3.311
 4677TIP3   OH213994   4.687   3.398   2.690
 4677TIP3    H113995   4.722   3.336   2.755
 4677TIP3    H213996   4.748   3.473   2.694
 4678TIP3   OH213997   6.258   6.060   4.693
 4678TIP3    H113998   6.180   6.018   4.728
 4678TIP3    H213999   6.233   6.152   4.684
 4679TIP3   OH214000   1.214   2.566   4.146
 4679TIP3    H114001   1.259   2.640   4.104
 4679TIP3    H214002   1.206   2.591   4.238
 4680TIP3   OH214003   2.168   3.906   0.776
 4680TIP3    H114004   2.215   3.982   0.741
 4680TIP3    H214005   2.202   3.894   0.864
 4681TIP3   OH214006   2.359   2.177   0.665
 4681TIP3    H114007   2.380   2.252   0.721
 4681TIP3    H214008   2.351   2.214   0.577
 4682TIP3   OH214009   3.214   5.668   1.436
 4682TIP3    H114010   3.159   5.745   1.423
 4682TIP3    H214011   3.248   5.677   1.525
 4683TIP3   OH214012   4.980   5.374   3.452
 4683TIP3    H114013   4.919   5.440   3.417
 4683TIP3    H214014   5.024   5.419   3.524
 4684TIP3   OH214015   6.412   2.411   0.250
 4684TIP3    H114016   6.327   2.376   0.223
 4684TIP3    H214017   6.399   2.440   0.340
 4685TIP3   OH214018   0.902   0.319   5.053
 4685TIP3    H114019   0.874   0.390   4.996
 4685TIP3    H214020   0.995   0.306   5.033
 4686TIP3   OH214021   2.572   0.594   3.857
 4686TIP3    H114022   2.664   0.586   3.880
 4686TIP3    H214023   2.572   0.621   3.766
 4687TIP3   OH214024   2.561   3.217   2.388
 4687TIP3    H114025   2.643   3.228   2.340
 4687TIP3    H214026   2.586   3.172   2.469
 4688TIP3   OH214027   6.341   3.730   4.705
 4688TIP3    H114028   6.377   3.646   4.676
 4688TIP3    H214029   6.287   3.759   4.632
 4689TIP3   OH214030   6.295   2.377   4.231
 4689TIP3    H114031   6.364   2.420   4.281
 4689TIP3    H214032   6.264   2.445   4.171
 4690TIP3   OH214033   4.129   5.078   4.309
 4690TIP3    H114034   4.215   5.104   4.342
 4690TIP3    H214035   4.130   5.102   4.216
 4691TIP3   OH214036   6.950   3.903   0.682
 4691TIP3    H114037   6.931   3.822   0.730
 4691TIP3    H214038   7.037   3.888   0.644
 4692TIP3   OH214039   3.379   3.753   5.101
 4692TIP3    H114040   3.379   3.815   5.029
 4692TIP3    H214041   3.296   3.766   5.145
 4693TIP3   OH214042   3.106   4.085   3.594
 4693TIP3    H114043   3.083   4.052   3.680
 4693TIP3    H214044   3.078   4.017   3.533
 4694TIP3   OH214045   1.664   4.491   1.299
 4694TIP3    H114046   1.718   4.513   1.375
 4694TIP3    H214047   1.681   4.561   1.236
 4695TIP3   OH214048   4.685   5.848   3.833
 4695TIP3    H114049   4.704   5.912   3.764
 4695TIP3    H214050   4.680   5.900   3.913
 4696TIP3   OH214051   3.607   1.281   2.629
 4696TIP3    H114052   3.662   1.215   2.671
 4696TIP3    H214053   3.521   1.239   2.620
 4697TIP3   OH214054   6.676   2.657   1.692
 4697TIP3    H114055   6.740   2.715   1.650
 4697TIP3    H214056   6.635   2.610   1.620
 4698TIP3   OH214057   2.469   1.742   1.057
 4698TIP3    H114058   2.515   1.742   0.974
 4698TIP3    H214059   2.532   1.777   1.120
 4699TIP3   OH214060   4.250   1.616   2.945
 4699TIP3    H114061   4.164   1.576   2.956
 4699TIP3    H214062   4.312   1.548   2.970
 4700TIP3   OH214063   4.056   3.303   3.955
 4700TIP3    H114064   4.082   3.396   3.957
 4700TIP3    H214065   3.968   3.303   3.918
 4701TIP3   OH214066   1.890   5.991   1.914
 4701TIP3    H114067   1.876   5.991   2.009
 4701TIP3    H214068   1.896   6.083   1.891
 4702TIP3   OH214069   1.299   5.316   0.911
 4702TIP3    H114070   1.233   5.257   0.876
 4702TIP3    H214071   1.364   5.259   0.952
 4703TIP3   OH214072   4.943   2.012   4.629
 4703TIP3    H114073   4.970   1.921   4.617
 4703TIP3    H214074   4.895   2.035   4.550
 4704TIP3   OH214075   1.423   3.139   1.703
 4704TIP3    H114076   1.432   3.164   1.611
 4704TIP3    H214077   1.450   3.047   1.705
 4705TIP3   OH214078   4.432   0.859   1.472
 4705TIP3    H114079   4.472   0.929   1.421
 4705TIP3    H214080   4.360   0.827   1.418
 4706TIP3   OH214081   4.676   4.807   5.356
 4706TIP3    H114082   4.662   4.872   5.287
 4706TIP3    H214083   4.595   4.810   5.408
 4707TIP3   OH214084   3.676   1.101   1.332
 4707TIP3    H114085   3.654   1.072   1.420
 4707TIP3    H214086   3.765   1.137   1.340
 4708TIP3   OH214087   0.251   0.542   4.735
 4708TIP3    H114088   0.297   0.515   4.815
 4708TIP3    H214089   0.297   0.497   4.664
 4709TIP3   OH214090   1.584   5.193   4.162
 4709TIP3    H114091   1.581   5.101   4.137
 4709TIP3    H214092   1.588   5.192   4.258
 4710TIP3   OH214093   0.885   4.806   5.496
 4710TIP3    H114094   0.841   4.741   5.441
 4710TIP3    H214095   0.978   4.795   5.476
 4711TIP3   OH214096   0.396   3.487   5.274
 4711TIP3    H114097   0.435   3.403   5.296
 4711TIP3    H214098   0.318   3.493   5.329
 4712TIP3   OH214099   5.276   1.032   3.433
 4712TIP3    H114100   5.204   0.985   3.392
 4712TIP3    H214101   5.236   1.078   3.507
 4713TIP3   OH214102   1.091   6.097   0.802
 4713TIP3    H114103   1.078   6.192   0.800
 4713TIP3    H214104   1.002   6.061   0.798
 4714TIP3   OH214105   4.031   4.620   2.032
 4714TIP3    H114106   3.948   4.614   2.079
 4714TIP3    H214107   4.097   4.621   2.101
 4715TIP3   OH214108   0.037   5.185   1.847
 4715TIP3    H114109   0.050   5.280   1.843
 4715TIP3    H214110  -0.012   5.171   1.928
 4716TIP3   OH214111   6.612   1.542   5.688
 4716TIP3    H114112   6.610   1.451   5.718
 4716TIP3    H214113   6.520   1.564   5.673
 4717TIP3   OH214114   3.071   5.237   2.808
 4717TIP3    H114115   3.019   5.207   2.883
 4717TIP3    H214116   3.108   5.321   2.837
 4718TIP3   OH214117   2.804   1.225   0.668
 4718TIP3    H114118   2.893   1.211   0.699
 4718TIP3    H214119   2.749   1.179   0.732
 4719TIP3   OH214120   0.959   2.642   5.450
 4719TIP3    H114121   1.038   2.590   5.462
 4719TIP3    H214122   0.961   2.669   5.358
 4720TIP3   OH214123   4.219   2.479   3.869
 4720TIP3    H114124   4.173   2.488   3.953
 4720TIP3    H214125   4.205   2.388   3.844
 4721TIP3   OH214126   0.274   6.640   5.057
 4721TIP3    H114127   0.277   6.571   4.991
 4721TIP3    H214128   0.326   6.711   5.021
 4722TIP3   OH214129   2.835   4.143   5.237
 4722TIP3    H114130   2.889   4.069   5.263
 4722TIP3    H214131   2.758   4.104   5.196
 4723TIP3   OH214132   1.375   5.149   3.345
 4723TIP3    H114133   1.331   5.064   3.345
 4723TIP3    H214134   1.468   5.128   3.335
 4724TIP3   OH214135   5.623   4.561   3.571
 4724TIP3    H114136   5.694   4.592   3.515
 4724TIP3    H214137   5.654   4.477   3.605
 4725TIP3   OH214138   3.533   1.383   5.057
 4725TIP3    H114139   3.590   1.329   5.111
 4725TIP3    H214140   3.569   1.471   5.066
 4726TIP3   OH214141   2.955   6.088   0.818
 4726TIP3    H114142   3.050   6.098   0.811
 4726TIP3    H214143   2.927   6.065   0.730
 4727TIP3   OH214144   5.150   5.814   2.789
 4727TIP3    H114145   5.168   5.757   2.714
 4727TIP3    H214146   5.226   5.803   2.846
 4728TIP3   OH214147   0.860   5.842   3.860
 4728TIP3    H114148   0.773   5.876   3.881
 4728TIP3    H214149   0.855   5.749   3.882
 4729TIP3   OH214150   1.886   1.838   4.855
 4729TIP3    H114151   1.797   1.872   4.852
 4729TIP3    H214152   1.913   1.829   4.764
 4730TIP3   OH214153   6.006   0.876   5.918
 4730TIP3    H114154   6.014   0.893   5.824
 4730TIP3    H214155   5.923   0.831   5.927
 4731TIP3   OH214156   1.647   3.925   4.216
 4731TIP3    H114157   1.599   3.895   4.139
 4731TIP3    H214158   1.736   3.892   4.204
 4732TIP3   OH214159   0.551   1.790   5.432
 4732TIP3    H114160   0.526   1.766   5.521
 4732TIP3    H214161   0.618   1.727   5.408
 4733TIP3   OH214162   2.749   4.240   1.690
 4733TIP3    H114163   2.787   4.200   1.612
 4733TIP3    H214164   2.819   4.293   1.726
 4734TIP3   OH214165   2.193   6.519   2.282
 4734TIP3    H114166   2.173   6.518   2.376
 4734TIP3    H214167   2.285   6.544   2.278
 4735TIP3   OH214168   4.774   1.130   0.127
 4735TIP3    H114169   4.713   1.204   0.130
 4735TIP3    H214170   4.858   1.166   0.155
 4736TIP3   OH214171   1.044   1.156   4.334
 4736TIP3    H114172   1.018   1.213   4.262
 4736TIP3    H214173   0.970   1.159   4.395
 4737TIP3   OH214174   2.145   0.181   0.128
 4737TIP3    H114175   2.187   0.261   0.095
 4737TIP3    H214176   2.214   0.136   0.177
 4738TIP3   OH214177   3.808   5.668   1.785
 4738TIP3    H114178   3.756   5.591   1.807
 4738TIP3    H214179   3.896   5.634   1.767
 4739TIP3   OH214180   6.036   2.797   0.533
 4739TIP3    H114181   5.950   2.754   0.531
 4739TIP3    H214182   6.079   2.767   0.453
 4740TIP3   OH214183   0.717   2.930   2.322
 4740TIP3    H114184   0.757   2.854   2.365
 4740TIP3    H214185   0.656   2.892   2.259
 4741TIP3   OH214186   6.401   4.104   2.049
 4741TIP3    H114187   6.408   4.121   1.955
 4741TIP3    H214188   6.489   4.077   2.075
 4742TIP3   OH214189   3.460   4.483   1.886
 4742TIP3    H114190   3.538   4.437   1.855
 4742TIP3    H214191   3.449   4.455   1.976
 4743TIP3   OH214192   3.258   3.417   2.416
 4743TIP3    H114193   3.242   3.437   2.508
 4743TIP3    H214194   3.339   3.366   2.417
 4744TIP3   OH214195   6.533   1.621   3.671
 4744TIP3    H114196   6.517   1.657   3.584
 4744TIP3    H214197   6.490   1.683   3.731
 4745TIP3   OH214198   0.888   4.183   1.882
 4745TIP3    H114199   0.896   4.088   1.891
 4745TIP3    H214200   0.861   4.196   1.791
 4746TIP3   OH214201   0.336   5.630   3.943
 4746TIP3    H114202   0.426   5.598   3.943
 4746TIP3    H214203   0.313   5.640   4.035
 4747TIP3   OH214204   6.854   1.242   0.112
 4747TIP3    H114205   6.895   1.328   0.102
 4747TIP3    H214206   6.918   1.181   0.077
 4748TIP3   OH214207   2.426   1.059   1.405
 4748TIP3    H114208   2.392   1.145   1.379
 4748TIP3    H214209   2.477   1.077   1.484
 4749TIP3   OH214210   1.016   4.651   1.746
 4749TIP3    H114211   1.006   4.575   1.804
 4749TIP3    H214212   0.935   4.701   1.758
 4750TIP3   OH214213   5.017   6.396   3.279
 4750TIP3    H114214   5.109   6.415   3.295
 4750TIP3    H214215   5.016   6.356   3.192
 4751TIP3   OH214216   1.936   3.052   5.251
 4751TIP3    H114217   1.863   3.065   5.191
 4751TIP3    H214218   1.970   3.140   5.266
 4752TIP3   OH214219   4.461   4.727   3.786
 4752TIP3    H114220   4.395   4.793   3.806
 4752TIP3    H214221   4.412   4.644   3.787
 4753TIP3   OH214222   5.159   1.450   0.232
 4753TIP3    H114223   5.233   1.509   0.248
 4753TIP3    H214224   5.198   1.362   0.235
 4754TIP3   OH214225   6.791   1.729   4.746
 4754TIP3    H114226   6.736   1.791   4.793
 4754TIP3    H214227   6.879   1.742   4.783
 4755TIP3   OH214228   0.402   2.356   5.342
 4755TIP3    H114229   0.365   2.301   5.272
 4755TIP3    H214230   0.480   2.309   5.370
 4756TIP3   OH214231   0.662   3.626   2.130
 4756TIP3    H114232   0.602   3.551   2.128
 4756TIP3    H214233   0.749   3.588   2.125
 4757TIP3   OH214234   6.162   3.000   2.760
 4757TIP3    H114235   6.123   2.938   2.698
 4757TIP3    H214236   6.095   3.067   2.772
 4758TIP3   OH214237   1.247   3.331   4.249
 4758TIP3    H114238   1.326   3.315   4.300
 4758TIP3    H214239   1.267   3.295   4.162
 4759TIP3   OH214240   4.018   1.548   0.142
 4759TIP3    H114241   4.032   1.635   0.181
 4759TIP3    H214242   4.107   1.515   0.126
 4760TIP3   OH214243   3.477   2.661   1.498
 4760TIP3    H114244   3.481   2.582   1.443
 4760TIP3    H214245   3.555   2.711   1.473
 4761TIP3   OH214246   3.196   5.337   2.221
 4761TIP3    H114247   3.183   5.394   2.297
 4761TIP3    H214248   3.224   5.254   2.258
 4762TIP3   OH214249   6.049   2.068   4.896
 4762TIP3    H114250   6.089   2.078   4.809
 4762TIP3    H214251   6.096   2.130   4.951
 4763TIP3   OH214252   2.420   5.562   1.870
 4763TIP3    H114253   2.438   5.598   1.784
 4763TIP3    H214254   2.328   5.582   1.886
 4764TIP3   OH214255   5.404   4.019   5.492
 4764TIP3    H114256   5.500   4.030   5.492
 4764TIP3    H214257   5.391   3.930   5.526
 4765TIP3   OH214258   5.427   5.398   0.496
 4765TIP3    H114259   5.446   5.491   0.482
 4765TIP3    H214260   5.373   5.397   0.575
 4766TIP3   OH214261   4.269   4.588   2.885
 4766TIP3    H114262   4.339   4.631   2.836
 4766TIP3    H214263   4.233   4.523   2.824
 4767TIP3   OH214264   3.677   4.430   5.181
 4767TIP3    H114265   3.729   4.507   5.157
 4767TIP3    H214266   3.688   4.421   5.275
 4768TIP3   OH214267   3.253   3.113   4.797
 4768TIP3    H114268   3.206   3.118   4.881
 4768TIP3    H214269   3.322   3.049   4.813
 4769TIP3   OH214270   4.221   3.871   1.230
 4769TIP3    H114271   4.316   3.868   1.241
 4769TIP3    H214272   4.204   3.822   1.150
 4770TIP3   OH214273   3.761   0.368   0.965
 4770TIP3    H114274   3.840   0.388   1.016
 4770TIP3    H214275   3.690   0.368   1.030
 4771TIP3   OH214276   3.543   2.363   4.497
 4771TIP3    H114277   3.527   2.363   4.403
 4771TIP3    H214278   3.598   2.286   4.512
 4772TIP3   OH214279   0.058   2.020   3.742
 4772TIP3    H114280   0.019   2.002   3.657
 4772TIP3    H214281   0.013   1.961   3.802
 4773TIP3   OH214282   2.620   2.311   1.993
 4773TIP3    H114283   2.707   2.296   2.029
 4773TIP3    H214284   2.592   2.226   1.960
 4774TIP3   OH214285   2.358   1.281   5.468
 4774TIP3    H114286   2.377   1.335   5.544
 4774TIP3    H214287   2.391   1.194   5.492
 4775TIP3   OH214288   5.723   5.286   4.412
 4775TIP3    H114289   5.751   5.205   4.455
 4775TIP3    H214290   5.706   5.346   4.484
 4776TIP3   OH214291   4.246   4.937   3.781
 4776TIP3    H114292   4.228   4.894   3.864
 4776TIP3    H214293   4.235   5.030   3.799
 4777TIP3   OH214294   4.259   5.934   4.649
 4777TIP3    H114295   4.276   5.840   4.648
 4777TIP3    H214296   4.336   5.973   4.608
 4778TIP3   OH214297   1.974   4.138   4.677
 4778TIP3    H114298   2.032   4.095   4.740
 4778TIP3    H214299   2.018   4.221   4.656
 4779TIP3   OH214300   5.359   5.071   2.459
 4779TIP3    H114301   5.399   5.050   2.543
 4779TIP3    H214302   5.286   5.128   2.480
 4780TIP3   OH214303   0.561   2.959   3.022
 4780TIP3    H114304   0.566   2.867   3.048
 4780TIP3    H214305   0.527   2.957   2.932
 4781TIP3   OH214306   1.078   6.799   5.565
 4781TIP3    H114307   1.081   6.708   5.597
 4781TIP3    H214308   0.988   6.827   5.583
 4782TIP3   OH214309   2.403   2.441   0.724
 4782TIP3    H114310   2.327   2.487   0.689
 4782TIP3    H214311   2.475   2.464   0.666
 4783TIP3   OH214312   0.086   3.920   5.341
 4783TIP3    H114313   0.165   3.881   5.304
 4783TIP3    H214314   0.021   3.914   5.272
 4784TIP3   OH214315   6.024   1.956   1.047
 4784TIP3    H114316   6.104   1.908   1.069
 4784TIP3    H214317   5.985   1.905   0.976
 4785TIP3   OH214318   3.226   5.418   5.098
 4785TIP3    H114319   3.197   5.392   5.011
 4785TIP3    H214320   3.284   5.347   5.127
 4786TIP3   OH214321   6.746   3.085   4.986
 4786TIP3    H114322   6.697   3.158   4.947
 4786TIP3    H214323   6.832   3.122   5.006
 4787TIP3   OH214324   4.902   3.999   3.927
 4787TIP3    H114325   4.840   3.951   3.982
 4787TIP3    H214326   4.963   4.039   3.989
 4788TIP3   OH214327   6.135   2.432   0.280
 4788TIP3    H114328   6.175   2.436   0.367
 4788TIP3    H214329   6.083   2.352   0.281
 4789TIP3   OH214330   5.004   2.834   0.495
 4789TIP3    H114331   5.070   2.824   0.427
 4789TIP3    H214332   4.975   2.745   0.514
 4790TIP3   OH214333   3.585   2.985   2.750
 4790TIP3    H114334   3.554   2.958   2.836
 4790TIP3    H214335   3.604   3.078   2.759
 4791TIP3   OH214336   0.095   1.200   5.338
 4791TIP3    H114337   0.061   1.140   5.405
 4791TIP3    H214338   0.067   1.161   5.255
 4792TIP3   OH214339   3.201   6.256   0.098
 4792TIP3    H114340   3.267   6.230   0.163
 4792TIP3    H214341   3.244   6.241   0.014
 4793TIP3   OH214342   3.532   6.513   4.854
 4793TIP3    H114343   3.563   6.422   4.852
 4793TIP3    H214344   3.524   6.537   4.762
 4794TIP3   OH214345   6.455   4.769   5.608
 4794TIP3    H114346   6.397   4.801   5.677
 4794TIP3    H214347   6.491   4.849   5.569
 4795TIP3   OH214348   5.736   5.236   4.137
 4795TIP3    H114349   5.809   5.287   4.104
 4795TIP3    H214350   5.715   5.277   4.221
 4796TIP3   OH214351   6.811   3.223   1.389
 4796TIP3    H114352   6.758   3.144   1.380
 4796TIP3    H214353   6.747   3.295   1.391
 4797TIP3   OH214354   4.620   6.489   0.501
 4797TIP3    H114355   4.675   6.472   0.578
 4797TIP3    H214356   4.673   6.459   0.428
 4798TIP3   OH214357   0.675   0.183   0.410
 4798TIP3    H114358   0.686   0.101   0.361
 4798TIP3    H214359   0.640   0.244   0.345
 4799TIP3   OH214360   2.037   2.579   2.406
 4799TIP3    H114361   2.102   2.620   2.463
 4799TIP3    H214362   1.996   2.512   2.462
 4800TIP3   OH214363   4.386   0.789   0.376
 4800TIP3    H114364   4.343   0.724   0.432
 4800TIP3    H214365   4.453   0.828   0.433
 4801TIP3   OH214366   4.857   2.427   2.770
 4801TIP3    H114367   4.815   2.394   2.690
 4801TIP3    H214368   4.786   2.430   2.834
 4802TIP3   OH214369   2.574   5.522   2.175
 4802TIP3    H114370   2.519   5.569   2.112
 4802TIP3    H214371   2.516   5.503   2.248
 4803TIP3   OH214372   3.240   5.738   2.762
 4803TIP3    H114373   3.323   5.703   2.732
 4803TIP3    H214374   3.205   5.671   2.821
 4804TIP3   OH214375   2.732   2.531   3.389
 4804TIP3    H114376   2.652   2.549   3.437
 4804TIP3    H214377   2.789   2.605   3.408
 4805TIP3   OH214378   4.548   3.850   0.922
 4805TIP3    H114379   4.508   3.936   0.908
 4805TIP3    H214380   4.612   3.842   0.852
 4806TIP3   OH214381   0.541   6.699   1.857
 4806TIP3    H114382   0.519   6.686   1.765
 4806TIP3    H214383   0.554   6.611   1.891
 4807TIP3   OH214384   2.277   3.439   3.820
 4807TIP3    H114385   2.349   3.383   3.849
 4807TIP3    H214386   2.199   3.400   3.859
 4808TIP3   OH214387   6.704   3.985   2.015
 4808TIP3    H114388   6.779   4.039   1.992
 4808TIP3    H214389   6.697   3.922   1.943
 4809TIP3   OH214390   2.079   0.426   0.737
 4809TIP3    H114391   2.086   0.458   0.827
 4809TIP3    H214392   2.082   0.331   0.746
 4810TIP3   OH214393   6.377   6.273   0.098
 4810TIP3    H114394   6.429   6.323   0.162
 4810TIP3    H214395   6.423   6.190   0.090
 4811TIP3   OH214396   5.968   1.648   1.228
 4811TIP3    H114397   6.001   1.686   1.147
 4811TIP3    H214398   5.986   1.554   1.220
 4812TIP3   OH214399   0.016   4.854   4.370
 4812TIP3    H114400   0.058   4.785   4.319
 4812TIP3    H214401   0.082   4.923   4.375
 4813TIP3   OH214402   6.323   2.739   2.124
 4813TIP3    H114403   6.390   2.803   2.101
 4813TIP3    H214404   6.364   2.684   2.190
 4814TIP3   OH214405   1.152   5.795   4.144
 4814TIP3    H114406   1.066   5.820   4.179
 4814TIP3    H214407   1.209   5.795   4.221
 4815TIP3   OH214408   4.044   2.689   0.803
 4815TIP3    H114409   3.999   2.745   0.867
 4815TIP3    H214410   4.018   2.725   0.718
 4816TIP3   OH214411   4.132   1.050   5.363
 4816TIP3    H114412   4.127   1.140   5.393
 4816TIP3    H214413   4.113   0.998   5.441
 4817TIP3   OH214414   6.548   0.399   5.141
 4817TIP3    H114415   6.629   0.401   5.090
 4817TIP3    H214416   6.564   0.458   5.214
 4818TIP3   OH214417   6.135   6.314   3.526
 4818TIP3    H114418   6.115   6.366   3.448
 4818TIP3    H214419   6.069   6.245   3.526
 4819TIP3   OH214420   0.566   2.143   5.715
 4819TIP3    H114421   0.637   2.103   5.765
 4819TIP3    H214422   0.595   2.137   5.624
 4820TIP3   OH214423   3.434   1.630   1.727
 4820TIP3    H114424   3.455   1.559   1.666
 4820TIP3    H214425   3.500   1.623   1.796
 4821TIP3   OH214426   2.485   2.668   4.853
 4821TIP3    H114427   2.534   2.596   4.894
 4821TIP3    H214428   2.519   2.747   4.895
 4822TIP3   OH214429   6.115   3.493   2.633
 4822TIP3    H114430   6.067   3.554   2.577
 4822TIP3    H214431   6.065   3.411   2.628
 4823TIP3   OH214432   4.920   4.327   2.887
 4823TIP3    H114433   4.973   4.407   2.889
 4823TIP3    H214434   4.848   4.345   2.947
 4824TIP3   OH214435   0.098   5.409   4.849
 4824TIP3    H114436   0.131   5.497   4.865
 4824TIP3    H214437   0.029   5.420   4.784
 4825TIP3   OH214438   6.911   3.526   2.524
 4825TIP3    H114439   6.928   3.557   2.613
 4825TIP3    H214440   6.912   3.605   2.471
 4826TIP3   OH214441   0.199   4.127   5.112
 4826TIP3    H114442   0.147   4.139   5.191
 4826TIP3    H214443   0.284   4.166   5.133
 4827TIP3   OH214444   5.012   5.985   0.321
 4827TIP3    H114445   4.941   5.980   0.257
 4827TIP3    H214446   4.996   5.912   0.381
 4828TIP3   OH214447   0.898   6.304   4.707
 4828TIP3    H114448   0.830   6.294   4.640
 4828TIP3    H214449   0.902   6.219   4.750
 4829TIP3   OH214450   3.079   5.534   4.483
 4829TIP3    H114451   3.044   5.621   4.468
 4829TIP3    H214452   3.149   5.547   4.547
 4830TIP3   OH214453   5.757   0.807   2.467
 4830TIP3    H114454   5.735   0.789   2.375
 4830TIP3    H214455   5.837   0.858   2.463
 4831TIP3   OH214456   2.131   2.989   5.758
 4831TIP3    H114457   2.121   2.948   5.672
 4831TIP3    H214458   2.047   2.975   5.802
 4832TIP3   OH214459   7.163   1.243   0.464
 4832TIP3    H114460   7.112   1.318   0.494
 4832TIP3    H214461   7.167   1.184   0.540
 4833TIP3   OH214462   4.793   0.282   3.073
 4833TIP3    H114463   4.843   0.362   3.053
 4833TIP3    H214464   4.753   0.258   2.990
 4834TIP3   OH214465   4.875   6.264   0.967
 4834TIP3    H114466   4.937   6.253   1.039
 4834TIP3    H214467   4.791   6.278   1.011
 4835TIP3   OH214468   3.117   4.827   1.806
 4835TIP3    H114469   3.151   4.757   1.750
 4835TIP3    H214470   3.171   4.823   1.885
 4836TIP3   OH214471   5.776   1.032   0.326
 4836TIP3    H114472   5.862   1.067   0.349
 4836TIP3    H214473   5.795   0.959   0.267
 4837TIP3   OH214474   4.414   3.414   1.756
 4837TIP3    H114475   4.364   3.493   1.777
 4837TIP3    H214476   4.497   3.446   1.722
 4838TIP3   OH214477   2.528   3.585   5.593
 4838TIP3    H114478   2.611   3.545   5.568
 4838TIP3    H214479   2.551   3.643   5.667
 4839TIP3   OH214480   3.163   1.312   3.267
 4839TIP3    H114481   3.096   1.352   3.212
 4839TIP3    H214482   3.114   1.262   3.332
 4840TIP3   OH214483   6.855   6.411   3.456
 4840TIP3    H114484   6.814   6.417   3.542
 4840TIP3    H214485   6.948   6.425   3.472
 4841TIP3   OH214486   3.389   3.399   1.264
 4841TIP3    H114487   3.398   3.444   1.180
 4841TIP3    H214488   3.300   3.420   1.294
 4842TIP3   OH214489   3.919   4.403   2.407
 4842TIP3    H114490   3.965   4.486   2.420
 4842TIP3    H214491   3.988   4.339   2.393
 4843TIP3   OH214492   2.973   5.425   0.560
 4843TIP3    H114493   2.912   5.426   0.634
 4843TIP3    H214494   3.005   5.335   0.557
 4844TIP3   OH214495   1.693   1.894   1.240
 4844TIP3    H114496   1.721   1.827   1.302
 4844TIP3    H214497   1.598   1.895   1.247
 4845TIP3   OH214498   1.299   5.641   1.685
 4845TIP3    H114499   1.347   5.589   1.749
 4845TIP3    H214500   1.221   5.670   1.732
 4846TIP3   OH214501   5.529   1.948   4.431
 4846TIP3    H114502   5.505   1.941   4.524
 4846TIP3    H214503   5.615   1.990   4.432
 4847TIP3   OH214504   4.336   0.645   4.826
 4847TIP3    H114505   4.411   0.617   4.878
 4847TIP3    H214506   4.309   0.727   4.865
 4848TIP3   OH214507   3.008   4.747   1.323
 4848TIP3    H114508   2.999   4.756   1.228
 4848TIP3    H214509   3.087   4.797   1.344
 4849TIP3   OH214510   3.210   6.625   1.785
 4849TIP3    H114511   3.201   6.575   1.867
 4849TIP3    H214512   3.133   6.601   1.733
 4850TIP3   OH214513   0.457   4.903   0.462
 4850TIP3    H114514   0.469   4.826   0.517
 4850TIP3    H214515   0.379   4.883   0.410
 4851TIP3   OH214516   2.153   3.254   1.087
 4851TIP3    H114517   2.115   3.255   1.175
 4851TIP3    H214518   2.176   3.162   1.072
 4852TIP3   OH214519   2.828   2.028   4.057
 4852TIP3    H114520   2.908   2.043   4.008
 4852TIP3    H214521   2.816   1.933   4.058
 4853TIP3   OH214522   4.156   4.977   4.863
 4853TIP3    H114523   4.219   4.920   4.906
 4853TIP3    H214524   4.113   5.025   4.934
 4854TIP3   OH214525   4.288   0.313   5.179
 4854TIP3    H114526   4.245   0.375   5.120
 4854TIP3    H214527   4.342   0.259   5.122
 4855TIP3   OH214528   0.875   0.209   0.960
 4855TIP3    H114529   0.814   0.282   0.970
 4855TIP3    H214530   0.918   0.202   1.046
 4856TIP3   OH214531   0.001   6.449   4.468
 4856TIP3    H114532   0.004   6.535   4.426
 4856TIP3    H214533   0.090   6.435   4.500
 4857TIP3   OH214534   3.878   2.035   1.557
 4857TIP3    H114535   3.806   1.973   1.568
 4857TIP3    H214536   3.943   1.988   1.506
 4858TIP3   OH214537   4.512   0.930   4.775
 4858TIP3    H114538   4.602   0.956   4.796
 4858TIP3    H214539   4.522   0.851   4.721
 4859TIP3   OH214540   5.843   5.127   1.564
 4859TIP3    H114541   5.773   5.068   1.593
 4859TIP3    H214542   5.862   5.181   1.641
 4860TIP3   OH214543   0.786   4.946   4.928
 4860TIP3    H114544   0.739   4.992   4.997
 4860TIP3    H214545   0.878   4.960   4.947
 4861TIP3   OH214546   0.873   4.865   4.187
 4861TIP3    H114547   0.967   4.848   4.185
 4861TIP3    H214548   0.864   4.939   4.248
 4862TIP3   OH214549   0.807   6.028   1.773
 4862TIP3    H114550   0.782   5.955   1.829
 4862TIP3    H214551   0.828   5.987   1.689
 4863TIP3   OH214552   5.124   4.248   1.744
 4863TIP3    H114553   5.061   4.177   1.736
 4863TIP3    H214554   5.136   4.280   1.655
 4864TIP3   OH214555   7.037   2.532   1.479
 4864TIP3    H114556   7.066   2.613   1.437
 4864TIP3    H214557   6.946   2.522   1.452
 4865TIP3   OH214558   5.593   4.268   1.686
 4865TIP3    H114559   5.527   4.296   1.749
 4865TIP3    H214560   5.649   4.208   1.735
 4866TIP3   OH214561   2.978   6.039   3.549
 4866TIP3    H114562   2.894   6.082   3.534
 4866TIP3    H214563   3.043   6.106   3.532
 4867TIP3   OH214564   0.825   3.765   1.716
 4867TIP3    H114565   0.746   3.755   1.770
 4867TIP3    H214566   0.792   3.788   1.629
 4868TIP3   OH214567   4.619   2.711   5.856
 4868TIP3    H114568   4.618   2.756   5.941
 4868TIP3    H214569   4.606   2.619   5.878
 4869TIP3   OH214570   0.601   5.668   3.675
 4869TIP3    H114571   0.572   5.632   3.591
 4869TIP3    H214572   0.614   5.761   3.658
 4870TIP3   OH214573   2.857   0.689   4.685
 4870TIP3    H114574   2.854   0.721   4.775
 4870TIP3    H214575   2.941   0.719   4.651
 4871TIP3   OH214576   2.142   4.842   1.113
 4871TIP3    H114577   2.223   4.842   1.061
 4871TIP3    H214578   2.121   4.749   1.124
 4872TIP3   OH214579   4.218   3.275   3.685
 4872TIP3    H114580   4.153   3.238   3.745
 4872TIP3    H214581   4.291   3.213   3.688
 4873TIP3   OH214582   0.208   0.209   4.377
 4873TIP3    H114583   0.119   0.235   4.351
 4873TIP3    H214584   0.251   0.189   4.294
 4874TIP3   OH214585   0.933   5.705   0.581
 4874TIP3    H114586   0.952   5.790   0.542
 4874TIP3    H214587   0.934   5.644   0.507
 4875TIP3   OH214588   4.943   2.914   3.575
 4875TIP3    H114589   4.959   2.981   3.509
 4875TIP3    H214590   5.029   2.876   3.591
 4876TIP3   OH214591   1.607   0.749   2.087
 4876TIP3    H114592   1.526   0.758   2.137
 4876TIP3    H214593   1.615   0.831   2.039
 4877TIP3   OH214594   2.786   5.124   4.428
 4877TIP3    H114595   2.871   5.151   4.461
 4877TIP3    H214596   2.767   5.185   4.356
 4878TIP3   OH214597   1.479   0.513   3.347
 4878TIP3    H114598   1.499   0.544   3.259
 4878TIP3    H214599   1.478   0.593   3.401
 4879TIP3   OH214600   6.725   5.872   0.563
 4879TIP3    H114601   6.636   5.907   0.560
 4879TIP3    H214602   6.746   5.869   0.656
 4880TIP3   OH214603   2.580   6.747   0.871
 4880TIP3    H114604   2.650   6.801   0.834
 4880TIP3    H214605   2.556   6.687   0.801
 4881TIP3   OH214606   5.068   6.417   3.937
 4881TIP3    H114607   5.159   6.390   3.922
 4881TIP3    H214608   5.024   6.337   3.965
 4882TIP3   OH214609   0.668   3.572   4.817
 4882TIP3    H114610   0.708   3.558   4.731
 4882TIP3    H214611   0.741   3.564   4.878
 4883TIP3   OH214612   3.574   0.775   2.848
 4883TIP3    H114613   3.501   0.753   2.791
 4883TIP3    H214614   3.651   0.737   2.805
 4884TIP3   OH214615   6.290   6.545   5.324
 4884TIP3    H114616   6.208   6.591   5.341
 4884TIP3    H214617   6.316   6.509   5.409
 4885TIP3   OH214618   4.937   0.226   3.794
 4885TIP3    H114619   4.938   0.267   3.881
 4885TIP3    H214620   5.020   0.253   3.754
 4886TIP3   OH214621   6.018   0.575   3.019
 4886TIP3    H114622   6.059   0.490   3.003
 4886TIP3    H214623   6.003   0.611   2.932
 4887TIP3   OH214624   0.559   0.641   5.114
 4887TIP3    H114625   0.535   0.701   5.184
 4887TIP3    H214626   0.534   0.686   5.033
 4888TIP3   OH214627   4.686   4.674   0.055
 4888TIP3    H114628   4.758   4.611   0.047
 4888TIP3    H214629   4.700   4.716   0.140
 4889TIP3   OH214630   5.023   5.250   2.932
 4889TIP3    H114631   5.038   5.321   2.994
 4889TIP3    H214632   4.928   5.248   2.920
 4890TIP3   OH214633   4.807   0.992   4.785
 4890TIP3    H114634   4.864   0.974   4.860
 4890TIP3    H214635   4.804   1.087   4.780
 4891TIP3   OH214636   2.115   2.468   0.382
 4891TIP3    H114637   2.041   2.506   0.335
 4891TIP3    H214638   2.119   2.517   0.465
 4892TIP3   OH214639   5.315   2.810   0.495
 4892TIP3    H114640   5.330   2.738   0.435
 4892TIP3    H214641   5.327   2.772   0.582
 4893TIP3   OH214642   2.861   3.553   3.067
 4893TIP3    H114643   2.806   3.592   2.999
 4893TIP3    H214644   2.919   3.624   3.094
 4894TIP3   OH214645   4.719   3.362   3.634
 4894TIP3    H114646   4.631   3.374   3.599
 4894TIP3    H214647   4.720   3.271   3.665
 4895TIP3   OH214648   0.709   6.127   2.918
 4895TIP3    H114649   0.696   6.085   3.003
 4895TIP3    H214650   0.648   6.081   2.860
 4896TIP3   OH214651   6.582   4.976   2.005
 4896TIP3    H114652   6.635   4.930   2.070
 4896TIP3    H214653   6.619   5.065   2.002
 4897TIP3   OH214654   3.716   4.600   0.398
 4897TIP3    H114655   3.751   4.514   0.420
 4897TIP3    H214656   3.793   4.654   0.382
 4898TIP3   OH214657   5.618   1.799   1.046
 4898TIP3    H114658   5.629   1.883   1.091
 4898TIP3    H214659   5.533   1.806   1.003
 4899TIP3   OH214660   2.501   2.495   3.092
 4899TIP3    H114661   2.464   2.432   3.154
 4899TIP3    H214662   2.477   2.580   3.127
 4900TIP3   OH214663   1.910   6.620   0.818
 4900TIP3    H114664   1.836   6.681   0.821
 4900TIP3    H214665   1.880   6.548   0.763
 4901TIP3   OH214666   3.761   1.603   1.654
 4901TIP3    H114667   3.685   1.546   1.642
 4901TIP3    H214668   3.724   1.687   1.681
 4902TIP3   OH214669   3.061   0.226   5.818
 4902TIP3    H114670   3.101   0.312   5.829
 4902TIP3    H214671   2.967   0.243   5.811
 4903TIP3   OH214672   5.828   5.324   2.903
 4903TIP3    H114673   5.760   5.367   2.955
 4903TIP3    H214674   5.907   5.332   2.957
 4904TIP3   OH214675   0.184   0.831   2.717
 4904TIP3    H114676   0.237   0.788   2.650
 4904TIP3    H214677   0.134   0.897   2.670
 4905TIP3   OH214678   3.683   2.545   2.124
 4905TIP3    H114679   3.747   2.560   2.054
 4905TIP3    H214680   3.723   2.582   2.202
 4906TIP3   OH214681   4.265   4.782   0.540
 4906TIP3    H114682   4.356   4.774   0.570
 4906TIP3    H214683   4.239   4.870   0.568
 4907TIP3   OH214684   1.354   3.862   2.273
 4907TIP3    H114685   1.363   3.768   2.257
 4907TIP3    H214686   1.265   3.883   2.246
 4908TIP3   OH214687   5.053   1.128   5.108
 4908TIP3    H114688   5.008   1.043   5.101
 4908TIP3    H214689   5.091   1.127   5.196
 4909TIP3   OH214690   1.106   4.413   2.929
 4909TIP3    H114691   1.149   4.347   2.876
 4909TIP3    H214692   1.109   4.493   2.876
 4910TIP3   OH214693   0.821   4.757   0.635
 4910TIP3    H114694   0.816   4.826   0.568
 4910TIP3    H214695   0.914   4.751   0.656
 4911TIP3   OH214696   0.804   3.422   4.357
 4911TIP3    H114697   0.898   3.443   4.356
 4911TIP3    H214698   0.801   3.326   4.356
 4912TIP3   OH214699   2.458   2.363   4.157
 4912TIP3    H114700   2.530   2.317   4.115
 4912TIP3    H214701   2.496   2.445   4.189
 4913TIP3   OH214702   6.981   1.286   4.154
 4913TIP3    H114703   6.973   1.319   4.243
 4913TIP3    H214704   7.035   1.351   4.109
 4914TIP3   OH214705   3.808   6.079   1.639
 4914TIP3    H114706   3.730   6.023   1.637
 4914TIP3    H214707   3.862   6.043   1.710
 4915TIP3   OH214708   1.087   6.099   1.822
 4915TIP3    H114709   1.049   6.081   1.908
 4915TIP3    H214710   1.018   6.146   1.775
 4916TIP3   OH214711   3.812   0.895   2.497
 4916TIP3    H114712   3.816   0.895   2.402
 4916TIP3    H214713   3.794   0.804   2.520
 4917TIP3   OH214714   4.132   1.174   1.348
 4917TIP3    H114715   4.170   1.234   1.412
 4917TIP3    H214716   4.204   1.156   1.287
 4918TIP3   OH214717   2.050   6.698   0.464
 4918TIP3    H114718   2.100   6.718   0.543
 4918TIP3    H214719   1.991   6.627   0.490
 4919TIP3   OH214720   0.078   3.206   1.566
 4919TIP3    H114721   0.144   3.160   1.515
 4919TIP3    H214722   0.122   3.225   1.650
 4920TIP3   OH214723   0.448   4.258   5.403
 4920TIP3    H114724   0.472   4.350   5.415
 4920TIP3    H214725   0.453   4.244   5.308
 4921TIP3   OH214726   6.134   4.131   2.094
 4921TIP3    H114727   6.229   4.124   2.105
 4921TIP3    H214728   6.123   4.177   2.011
 4922TIP3   OH214729   4.395   0.990   1.000
 4922TIP3    H114730   4.314   0.945   0.974
 4922TIP3    H214731   4.366   1.053   1.066
 4923TIP3   OH214732   7.034   0.398   0.773
 4923TIP3    H114733   6.962   0.461   0.778
 4923TIP3    H214734   6.996   0.316   0.804
 4924TIP3   OH214735   0.201   4.768   0.995
 4924TIP3    H114736   0.171   4.857   1.013
 4924TIP3    H214737   0.130   4.712   1.024
 4925TIP3   OH214738   0.900   3.579   4.993
 4925TIP3    H114739   0.982   3.532   5.009
 4925TIP3    H214740   0.846   3.561   5.070
 4926TIP3   OH214741   4.040   0.448   4.403
 4926TIP3    H114742   4.062   0.363   4.367
 4926TIP3    H214743   4.105   0.462   4.472
 4927TIP3   OH214744   4.854   6.518   1.327
 4927TIP3    H114745   4.946   6.529   1.350
 4927TIP3    H214746   4.847   6.427   1.297
 4928TIP3   OH214747   3.708   6.423   0.002
 4928TIP3    H114748   3.801   6.426   0.024
 4928TIP3    H214749   3.682   6.515  -0.004
 4929TIP3   OH214750   0.996   2.231   1.846
 4929TIP3    H114751   0.963   2.215   1.758
 4929TIP3    H214752   1.018   2.324   1.849
 4930TIP3   OH214753   2.963   3.880   2.212
 4930TIP3    H114754   2.899   3.947   2.187
 4930TIP3    H214755   3.040   3.899   2.159
 4931TIP3   OH214756   5.299   0.972   4.584
 4931TIP3    H114757   5.344   0.992   4.502
 4931TIP3    H214758   5.364   0.993   4.652
 4932TIP3   OH214759   1.470   2.162   4.021
 4932TIP3    H114760   1.515   2.138   3.940
 4932TIP3    H214761   1.458   2.257   4.015
 4933TIP3   OH214762   3.019   4.690   0.133
 4933TIP3    H114763   2.974   4.650   0.058
 4933TIP3    H214764   2.959   4.759   0.163
 4934TIP3   OH214765   2.772   4.219   2.900
 4934TIP3    H114766   2.847   4.222   2.959
 4934TIP3    H214767   2.702   4.264   2.948
 4935TIP3   OH214768   5.533   3.732   4.606
 4935TIP3    H114769   5.619   3.692   4.594
 4935TIP3    H214770   5.502   3.698   4.690
 4936TIP3   OH214771   1.513   5.845   3.746
 4936TIP3    H114772   1.546   5.755   3.755
 4936TIP3    H214773   1.419   5.835   3.732
 4937TIP3   OH214774   3.448   5.683   1.917
 4937TIP3    H114775   3.406   5.650   1.996
 4937TIP3    H214776   3.427   5.619   1.849
 4938TIP3   OH214777   2.221   0.575   3.442
 4938TIP3    H114778   2.269   0.511   3.389
 4938TIP3    H214779   2.134   0.537   3.454
 4939TIP3   OH214780   2.705   1.741   3.765
 4939TIP3    H114781   2.799   1.753   3.778
 4939TIP3    H214782   2.697   1.656   3.723
 4940TIP3   OH214783   3.200   6.380   1.407
 4940TIP3    H114784   3.233   6.301   1.363
 4940TIP3    H214785   3.274   6.439   1.409
 4941TIP3   OH214786   3.062   3.821   4.951
 4941TIP3    H114787   3.146   3.863   4.931
 4941TIP3    H214788   2.997   3.889   4.935
 4942TIP3   OH214789   4.285   6.386   0.916
 4942TIP3    H114790   4.280   6.466   0.969
 4942TIP3    H214791   4.231   6.404   0.839
 4943TIP3   OH214792   6.114   0.209   1.904
 4943TIP3    H114793   6.165   0.153   1.846
 4943TIP3    H214794   6.175   0.279   1.930
 4944TIP3   OH214795   0.295   3.897   0.775
 4944TIP3    H114796   0.314   3.810   0.740
 4944TIP3    H214797   0.349   3.956   0.722
 4945TIP3   OH214798   4.612   2.114   2.417
 4945TIP3    H114799   4.634   2.177   2.348
 4945TIP3    H214800   4.530   2.074   2.387
 4946TIP3   OH214801   6.495   5.699   3.679
 4946TIP3    H114802   6.400   5.701   3.666
 4946TIP3    H214803   6.525   5.624   3.628
 4947TIP3   OH214804   4.636   2.451   5.221
 4947TIP3    H114805   4.587   2.416   5.147
 4947TIP3    H214806   4.593   2.533   5.243
 4948TIP3   OH214807   6.080   4.803   5.081
 4948TIP3    H114808   6.011   4.831   5.141
 4948TIP3    H214809   6.062   4.710   5.066
 4949TIP3   OH214810   4.248   4.167   5.810
 4949TIP3    H114811   4.324   4.122   5.772
 4949TIP3    H214812   4.212   4.103   5.871
 4950TIP3   OH214813   0.238   2.004   3.435
 4950TIP3    H114814   0.243   2.043   3.348
 4950TIP3    H214815   0.146   1.981   3.447
 4951TIP3   OH214816   2.049   1.607   4.895
 4951TIP3    H114817   2.125   1.659   4.869
 4951TIP3    H214818   1.975   1.666   4.884
 4952TIP3   OH214819   3.007   5.011   5.386
 4952TIP3    H114820   2.957   5.089   5.365
 4952TIP3    H214821   2.989   4.950   5.314
 4953TIP3   OH214822   6.950   1.957   1.525
 4953TIP3    H114823   6.918   1.970   1.436
 4953TIP3    H214824   7.045   1.958   1.517
 4954TIP3   OH214825   1.704   6.671   0.414
 4954TIP3    H114826   1.759   6.602   0.451
 4954TIP3    H214827   1.616   6.633   0.414
 4955TIP3   OH214828   5.350   1.786   1.256
 4955TIP3    H114829   5.414   1.737   1.308
 4955TIP3    H214830   5.381   1.776   1.165
 4956TIP3   OH214831   4.709   5.024   0.392
 4956TIP3    H114832   4.802   5.008   0.406
 4956TIP3    H214833   4.679   5.064   0.474
 4957TIP3   OH214834   2.297   1.676   1.472
 4957TIP3    H114835   2.356   1.633   1.534
 4957TIP3    H214836   2.274   1.608   1.409
 4958TIP3   OH214837   2.529   2.907   4.987
 4958TIP3    H114838   2.498   2.943   5.070
 4958TIP3    H214839   2.610   2.954   4.968
 4959TIP3   OH214840   2.948   5.701   0.734
 4959TIP3    H114841   3.038   5.713   0.763
 4959TIP3    H214842   2.952   5.709   0.639
 4960TIP3   OH214843   6.622   6.004   1.974
 4960TIP3    H114844   6.557   6.069   1.999
 4960TIP3    H214845   6.621   5.939   2.044
 4961TIP3   OH214846   5.370   4.826   2.374
 4961TIP3    H114847   5.381   4.827   2.279
 4961TIP3    H214848   5.371   4.918   2.400
 4962TIP3   OH214849   0.066   5.247   4.049
 4962TIP3    H114850   0.146   5.227   4.098
 4962TIP3    H214851   0.084   5.332   4.008
 4963TIP3   OH214852   2.952   4.193   3.123
 4963TIP3    H114853   2.962   4.221   3.214
 4963TIP3    H214854   2.884   4.125   3.127
 4964TIP3   OH214855   3.026   0.992   4.415
 4964TIP3    H114856   3.081   1.045   4.358
 4964TIP3    H214857   2.953   0.964   4.359
 4965TIP3   OH214858   0.212   2.599   0.127
 4965TIP3    H114859   0.164   2.661   0.181
 4965TIP3    H214860   0.225   2.644   0.044
 4966TIP3   OH214861   0.831   6.115   0.516
 4966TIP3    H114862   0.766   6.054   0.481
 4966TIP3    H214863   0.914   6.085   0.479
 4967TIP3   OH214864   3.852   3.178   4.153
 4967TIP3    H114865   3.935   3.203   4.191
 4967TIP3    H214866   3.801   3.259   4.150
 4968TIP3   OH214867   3.988   6.091   3.550
 4968TIP3    H114868   4.010   6.134   3.632
 4968TIP3    H214869   4.054   6.023   3.539
 4969TIP3   OH214870   2.871   3.557   2.513
 4969TIP3    H114871   2.863   3.479   2.458
 4969TIP3    H214872   2.938   3.610   2.470
 4970TIP3   OH214873   0.359   3.135   4.931
 4970TIP3    H114874   0.320   3.193   4.866
 4970TIP3    H214875   0.448   3.167   4.943
 4971TIP3   OH214876   0.033   0.840   1.573
 4971TIP3    H114877   0.075   0.759   1.545
 4971TIP3    H214878  -0.060   0.826   1.556
 4972TIP3   OH214879   0.613   4.230   4.770
 4972TIP3    H114880   0.610   4.314   4.817
 4972TIP3    H214881   0.532   4.227   4.720
 4973TIP3   OH214882   3.974   0.074   3.506
 4973TIP3    H114883   4.026   0.020   3.565
 4973TIP3    H214884   3.993   0.040   3.418
 4974TIP3   OH214885   0.764   1.945   4.544
 4974TIP3    H114886   0.778   1.978   4.633
 4974TIP3    H214887   0.849   1.913   4.517
 4975TIP3   OH214888   5.773   5.897   0.053
 4975TIP3    H114889   5.850   5.919  -0.001
 4975TIP3    H214890   5.810   5.856   0.131
 4976TIP3   OH214891   4.783   6.434   5.511
 4976TIP3    H114892   4.770   6.382   5.432
 4976TIP3    H214893   4.697   6.436   5.553
 4977TIP3   OH214894   6.033   4.054   4.203
 4977TIP3    H114895   6.020   4.094   4.289
 4977TIP3    H214896   5.999   4.119   4.141
 4978TIP3   OH214897   2.742   5.092   2.209
 4978TIP3    H114898   2.801   5.024   2.242
 4978TIP3    H214899   2.786   5.127   2.132
 4979TIP3   OH214900   6.266   6.726   2.333
 4979TIP3    H114901   6.214   6.779   2.272
 4979TIP3    H214902   6.224   6.640   2.332
 4980TIP3   OH214903   5.791   2.447   0.301
 4980TIP3    H114904   5.798   2.492   0.385
 4980TIP3    H214905   5.719   2.385   0.314
 4981TIP3   OH214906   7.116   5.036   3.604
 4981TIP3    H114907   7.163   4.986   3.670
 4981TIP3    H214908   7.070   4.971   3.552
 4982TIP3   OH214909   3.304   2.352   0.691
 4982TIP3    H114910   3.287   2.277   0.634
 4982TIP3    H214911   3.219   2.375   0.727
 4983TIP3   OH214912   0.810   3.727   4.141
 4983TIP3    H114913   0.853   3.811   4.160
 4983TIP3    H214914   0.868   3.661   4.178
 4984TIP3   OH214915   5.563   6.301   4.889
 4984TIP3    H114916   5.614   6.258   4.820
 4984TIP3    H214917   5.547   6.389   4.857
 4985TIP3   OH214918   4.097   6.131   4.443
 4985TIP3    H114919   4.053   6.091   4.368
 4985TIP3    H214920   4.043   6.107   4.518
 4986TIP3   OH214921   6.051   3.920   0.459
 4986TIP3    H114922   5.980   3.959   0.509
 4986TIP3    H214923   6.024   3.829   0.445
 4987TIP3   OH214924   0.268   6.834   2.325
 4987TIP3    H114925   0.189   6.797   2.364
 4987TIP3    H214926   0.336   6.770   2.342
 4988TIP3   OH214927   5.248   2.545   5.868
 4988TIP3    H114928   5.256   2.454   5.900
 4988TIP3    H214929   5.160   2.549   5.831
 4989TIP3   OH214930   1.635   1.760   1.012
 4989TIP3    H114931   1.649   1.811   1.092
 4989TIP3    H214932   1.632   1.669   1.042
 4990TIP3   OH214933   3.251   3.127   1.132
 4990TIP3    H114934   3.314   3.197   1.150
 4990TIP3    H214935   3.167   3.173   1.121
 4991TIP3   OH214936   2.458   5.394   2.401
 4991TIP3    H114937   2.409   5.338   2.460
 4991TIP3    H214938   2.526   5.433   2.455
 4992TIP3   OH214939   3.190   5.783   0.898
 4992TIP3    H114940   3.226   5.721   0.962
 4992TIP3    H214941   3.258   5.790   0.832
 4993TIP3   OH214942   5.064   5.700   4.465
 4993TIP3    H114943   5.148   5.667   4.497
 4993TIP3    H214944   5.025   5.626   4.420
 4994TIP3   OH214945   5.598   5.686   1.204
 4994TIP3    H114946   5.688   5.672   1.235
 4994TIP3    H214947   5.605   5.761   1.146
 4995TIP3   OH214948   4.542   6.315   0.152
 4995TIP3    H114949   4.509   6.226   0.141
 4995TIP3    H214950   4.470   6.371   0.122
 4996TIP3   OH214951   0.575   0.177   0.091
 4996TIP3    H114952   0.593   0.135   0.175
 4996TIP3    H214953   0.525   0.112   0.042
 4997TIP3   OH214954   1.013   3.631   2.413
 4997TIP3    H114955   1.059   3.591   2.340
 4997TIP3    H214956   0.926   3.589   2.413
 4998TIP3   OH214957   0.901   0.057   4.866
 4998TIP3    H114958   0.986   0.013   4.855
 4998TIP3    H214959   0.924   0.149   4.882
 4999TIP3   OH214960   1.599   2.355   2.720
 4999TIP3    H114961   1.527   2.333   2.661
 4999TIP3    H214962   1.654   2.415   2.670
 5000TIP3   OH214963   3.342   5.186   1.577
 5000TIP3    H114964   3.292   5.267   1.570
 5000TIP3    H214965   3.291   5.131   1.637
 5001TIP3   OH214966   2.378   4.359   5.750
 5001TIP3    H114967   2.375   4.298   5.824
 5001TIP3    H214968   2.434   4.430   5.780
 5002TIP3   OH214969   6.375   2.473   2.742
 5002TIP3    H114970   6.325   2.554   2.747
 5002TIP3    H214971   6.464   2.500   2.718
 5003TIP3   OH214972   7.189   4.141   2.594
 5003TIP3    H114973   7.100   4.157   2.561
 5003TIP3    H214974   7.236   4.222   2.574
 5004TIP3   OH214975   0.382   4.192   0.079
 5004TIP3    H114976   0.352   4.274   0.039
 5004TIP3    H214977   0.388   4.213   0.173
 5005TIP3   OH214978   4.679   0.635   2.875
 5005TIP3    H114979   4.761   0.589   2.862
 5005TIP3    H214980   4.695   0.691   2.951
 5006TIP3   OH214981   6.029   5.571   1.007
 5006TIP3    H114982   6.024   5.637   0.938
 5006TIP3    H214983   6.086   5.503   0.971
 5007TIP3   OH214984   5.450   2.518   2.321
 5007TIP3    H114985   5.383   2.584   2.300
 5007TIP3    H214986   5.404   2.455   2.376
 5008TIP3   OH214987   5.590   1.352   1.861
 5008TIP3    H114988   5.561   1.295   1.931
 5008TIP3    H214989   5.618   1.293   1.791
 5009TIP3   OH214990   1.100   5.465   5.689
 5009TIP3    H114991   1.119   5.554   5.661
 5009TIP3    H214992   1.010   5.449   5.659
 5010TIP3   OH214993   6.130   6.773   4.065
 5010TIP3    H114994   6.141   6.734   4.151
 5010TIP3    H214995   6.036   6.790   4.058
 5011TIP3   OH214996   4.422   1.739   1.338
 5011TIP3    H114997   4.328   1.738   1.357
 5011TIP3    H214998   4.430   1.693   1.254
 5012TIP3   OH214999   1.421   4.116   0.390
 5012TIP3    H115000   1.501   4.164   0.370
 5012TIP3    H215001   1.444   4.024   0.376
 5013TIP3   OH215002   2.928   3.200   3.448
 5013TIP3    H115003   2.887   3.267   3.393
 5013TIP3    H215004   2.902   3.223   3.537
 5014TIP3   OH215005   3.403   4.082  -0.001
 5014TIP3    H115006   3.468   4.031  -0.050
 5014TIP3    H215007   3.447   4.104   0.081
 5015TIP3   OH215008   3.319   4.149   1.291
 5015TIP3    H115009   3.414   4.135   1.291
 5015TIP3    H215010   3.301   4.197   1.372
 5016TIP3   OH215011   1.955   4.917   2.563
 5016TIP3    H115012   1.901   4.886   2.490
 5016TIP3    H215013   1.896   4.917   2.638
 5017TIP3   OH215014   3.035   0.189   0.711
 5017TIP3    H115015   3.063   0.168   0.622
 5017TIP3    H215016   2.979   0.116   0.737
 5018TIP3   OH215017   6.979   2.959   3.945
 5018TIP3    H115018   6.973   2.863   3.948
 5018TIP3    H215019   6.896   2.989   3.981
 5019TIP3   OH215020   0.922   0.545   1.726
 5019TIP3    H115021   0.948   0.456   1.749
 5019TIP3    H215022   0.830   0.551   1.751
 5020TIP3   OH215023   1.946   6.008   4.952
 5020TIP3    H115024   2.010   5.994   5.021
 5020TIP3    H215025   1.862   6.008   4.997
 5021TIP3   OH215026   0.486   4.720   5.537
 5021TIP3    H115027   0.421   4.756   5.477
 5021TIP3    H215028   0.439   4.653   5.586
 5022TIP3   OH215029   3.264   6.467   2.723
 5022TIP3    H115030   3.233   6.540   2.669
 5022TIP3    H215031   3.323   6.507   2.786
 5023TIP3   OH215032   5.033   0.202   5.450
 5023TIP3    H115033   5.106   0.250   5.410
 5023TIP3    H215034   4.994   0.152   5.378
 5024TIP3   OH215035   0.084   1.036   2.533
 5024TIP3    H115036   0.099   1.125   2.563
 5024TIP3    H215037  -0.011   1.028   2.524
 5025TIP3   OH215038   6.637   4.165   4.032
 5025TIP3    H115039   6.701   4.206   3.973
 5025TIP3    H215040   6.574   4.234   4.051
 5026TIP3   OH215041   0.630   3.753   3.939
 5026TIP3    H115042   0.603   3.662   3.933
 5026TIP3    H215043   0.718   3.750   3.976
 5027TIP3   OH215044   6.561   5.544   4.532
 5027TIP3    H115045   6.538   5.456   4.502
 5027TIP3    H215046   6.650   5.535   4.565
 5028TIP3   OH215047   4.975   1.255   1.188
 5028TIP3    H115048   4.955   1.341   1.224
 5028TIP3    H215049   4.898   1.230   1.138
 5029TIP3   OH215050   6.223   5.493   5.462
 5029TIP3    H115051   6.198   5.571   5.512
 5029TIP3    H215052   6.271   5.438   5.524
 5030TIP3   OH215053   6.293   0.559   3.991
 5030TIP3    H115054   6.387   0.548   3.977
 5030TIP3    H215055   6.280   0.653   3.998
 5031TIP3   OH215056   2.957   4.843   5.166
 5031TIP3    H115057   2.955   4.755   5.129
 5031TIP3    H215058   2.895   4.893   5.111
 5032TIP3   OH215059   6.608   0.997   4.036
 5032TIP3    H115060   6.627   1.039   3.953
 5032TIP3    H215061   6.686   1.011   4.089
 5033TIP3   OH215062   5.726   6.588   0.419
 5033TIP3    H115063   5.809   6.633   0.438
 5033TIP3    H215064   5.680   6.589   0.503
 5034TIP3   OH215065   6.657   5.821   1.761
 5034TIP3    H115066   6.670   5.882   1.833
 5034TIP3    H215067   6.563   5.825   1.743
 5035TIP3   OH215068   5.006   5.779   2.478
 5035TIP3    H115069   4.971   5.863   2.449
 5035TIP3    H215070   4.929   5.722   2.486
 5036TIP3   OH215071  -0.005   0.687   0.942
 5036TIP3    H115072   0.086   0.711   0.926
 5036TIP3    H215073  -0.011   0.595   0.914
 5037TIP3   OH215074   5.339   3.742   0.403
 5037TIP3    H115075   5.424   3.781   0.381
 5037TIP3    H215076   5.327   3.674   0.336
 5038TIP3   OH215077   2.543   6.559   0.674
 5038TIP3    H115078   2.468   6.506   0.649
 5038TIP3    H215079   2.602   6.555   0.599
 5039TIP3   OH215080   0.522   5.320   5.173
 5039TIP3    H115081   0.485   5.407   5.188
 5039TIP3    H215082   0.505   5.272   5.255
 5040TIP3   OH215083   3.455   1.617   3.528
 5040TIP3    H115084   3.392   1.682   3.561
 5040TIP3    H215085   3.538   1.640   3.569
 5041TIP3   OH215086   6.913   4.780   3.538
 5041TIP3    H115087   6.929   4.791   3.631
 5041TIP3    H215088   6.983   4.722   3.508
 5042TIP3   OH215089   7.069   2.709   1.032
 5042TIP3    H115090   6.987   2.750   1.059
 5042TIP3    H215091   7.056   2.688   0.939
 5043TIP3   OH215092   6.861   4.440   3.533
 5043TIP3    H115093   6.791   4.504   3.522
 5043TIP3    H215094   6.937   4.479   3.489
 5044TIP3   OH215095   6.059   6.416   4.477
 5044TIP3    H115096   6.136   6.364   4.455
 5044TIP3    H215097   5.991   6.351   4.497
 5045TIP3   OH215098   6.642   4.012   5.637
 5045TIP3    H115099   6.595   4.075   5.583
 5045TIP3    H215100   6.588   3.933   5.637
 5046TIP3   OH215101   6.677   1.974   0.902
 5046TIP3    H115102   6.596   2.024   0.899
 5046TIP3    H215103   6.662   1.906   0.968
 5047TIP3   OH215104   4.700   6.660   4.938
 5047TIP3    H115105   4.689   6.575   4.981
 5047TIP3    H215106   4.613   6.683   4.907
 5048TIP3   OH215107   6.882   2.438   2.194
 5048TIP3    H115108   6.819   2.369   2.216
 5048TIP3    H215109   6.872   2.451   2.100
 5049TIP3   OH215110   5.594   2.658   3.397
 5049TIP3    H115111   5.543   2.633   3.475
 5049TIP3    H215112   5.545   2.731   3.359
 5050TIP3   OH215113   1.572   3.984   0.733
 5050TIP3    H115114   1.477   3.975   0.728
 5050TIP3    H215115   1.596   3.943   0.817
 5051TIP3   OH215116   1.624   3.309   5.107
 5051TIP3    H115117   1.715   3.338   5.106
 5051TIP3    H215118   1.629   3.215   5.090
 5052TIP3   OH215119   4.693   4.409   2.706
 5052TIP3    H115120   4.736   4.324   2.701
 5052TIP3    H215121   4.765   4.472   2.707
 5053TIP3   OH215122   4.513   0.787   5.836
 5053TIP3    H115123   4.444   0.796   5.770
 5053TIP3    H215124   4.571   0.719   5.801
 5054TIP3   OH215125   3.543   5.623   4.462
 5054TIP3    H115126   3.519   5.703   4.508
 5054TIP3    H215127   3.525   5.642   4.370
 5055TIP3   OH215128   3.330   5.351   4.293
 5055TIP3    H115129   3.381   5.286   4.245
 5055TIP3    H215130   3.336   5.324   4.384
 5056TIP3   OH215131   3.977   1.549   1.867
 5056TIP3    H115132   3.974   1.455   1.848
 5056TIP3    H215133   3.944   1.590   1.787
 5057TIP3   OH215134   6.967   2.311   3.162
 5057TIP3    H115135   6.873   2.297   3.152
 5057TIP3    H215136   6.998   2.329   3.074
 5058TIP3   OH215137   2.621   5.797   5.781
 5058TIP3    H115138   2.638   5.851   5.858
 5058TIP3    H215139   2.654   5.710   5.804
 5059TIP3   OH215140   2.238   3.307   2.005
 5059TIP3    H115141   2.267   3.283   2.094
 5059TIP3    H215142   2.311   3.357   1.969
 5060TIP3   OH215143   3.834   1.105   4.070
 5060TIP3    H115144   3.832   1.064   3.984
 5060TIP3    H215145   3.822   1.033   4.132
 5061TIP3   OH215146   1.956   2.268   0.292
 5061TIP3    H115147   1.928   2.231   0.375
 5061TIP3    H215148   2.029   2.326   0.315
 5062TIP3   OH215149   5.323   6.508   3.285
 5062TIP3    H115150   5.405   6.524   3.331
 5062TIP3    H215151   5.283   6.595   3.278
 5063TIP3   OH215152   6.733   3.242   0.290
 5063TIP3    H115153   6.818   3.207   0.266
 5063TIP3    H215154   6.695   3.176   0.349
 5064TIP3   OH215155   1.349   2.983   4.468
 5064TIP3    H115156   1.270   2.948   4.510
 5064TIP3    H215157   1.415   2.984   4.538
 5065TIP3   OH215158   0.115   2.493   0.539
 5065TIP3    H115159   0.166   2.572   0.525
 5065TIP3    H215160   0.092   2.495   0.632
 5066TIP3   OH215161   0.416   5.175   2.520
 5066TIP3    H115162   0.374   5.093   2.492
 5066TIP3    H215163   0.492   5.183   2.462
 5067TIP3   OH215164   0.094   2.157   2.989
 5067TIP3    H115165   0.137   2.124   2.910
 5067TIP3    H215166   0.161   2.150   3.057
 5068TIP3   OH215167   1.077   5.047   5.588
 5068TIP3    H115168   1.114   4.965   5.554
 5068TIP3    H215169   1.019   5.078   5.519
 5069TIP3   OH215170   2.261   4.712   5.489
 5069TIP3    H115171   2.278   4.794   5.443
 5069TIP3    H215172   2.270   4.734   5.582
 5070TIP3   OH215173   1.549   6.823   2.381
 5070TIP3    H115174   1.564   6.803   2.474
 5070TIP3    H215175   1.603   6.760   2.334
 5071TIP3   OH215176   4.388   6.633   0.345
 5071TIP3    H115177   4.457   6.686   0.305
 5071TIP3    H215178   4.421   6.543   0.339
 5072TIP3   OH215179   3.302   0.704   2.119
 5072TIP3    H115180   3.239   0.634   2.133
 5072TIP3    H215181   3.285   0.735   2.030
 5073TIP3   OH215182   1.995   2.190   3.079
 5073TIP3    H115183   2.019   2.259   3.141
 5073TIP3    H215184   2.065   2.191   3.013
 5074TIP3   OH215185   2.756   5.174   2.469
 5074TIP3    H115186   2.762   5.137   2.381
 5074TIP3    H215187   2.679   5.133   2.508
 5075TIP3   OH215188   3.948   4.515   2.959
 5075TIP3    H115189   3.897   4.470   3.026
 5075TIP3    H215190   3.887   4.578   2.921
 5076TIP3   OH215191   2.854   4.850   1.787
 5076TIP3    H115192   2.816   4.934   1.813
 5076TIP3    H215193   2.949   4.863   1.792
 5077TIP3   OH215194   6.024   5.780   0.144
 5077TIP3    H115195   6.014   5.774   0.049
 5077TIP3    H215196   6.109   5.739   0.161
 5078TIP3   OH215197   4.245   0.641   0.569
 5078TIP3    H115198   4.315   0.576   0.564
 5078TIP3    H215199   4.236   0.659   0.662
 5079TIP3   OH215200   4.644   6.438   3.095
 5079TIP3    H115201   4.661   6.360   3.148
 5079TIP3    H215202   4.559   6.469   3.126
 5080TIP3   OH215203   0.670   2.452   2.730
 5080TIP3    H115204   0.652   2.396   2.654
 5080TIP3    H215205   0.637   2.538   2.705
 5081TIP3   OH215206   2.554   1.218   3.398
 5081TIP3    H115207   2.535   1.147   3.336
 5081TIP3    H215208   2.469   1.243   3.433
 5082TIP3   OH215209   5.530   5.319   2.632
 5082TIP3    H115210   5.480   5.316   2.713
 5082TIP3    H215211   5.567   5.408   2.630
 5083TIP3   OH215212   0.416   5.433   3.592
 5083TIP3    H115213   0.384   5.350   3.556
 5083TIP3    H215214   0.441   5.411   3.682
 5084TIP3   OH215215   5.087   0.456   0.159
 5084TIP3    H115216   5.061   0.546   0.176
 5084TIP3    H215217   5.005   0.412   0.134
 5085TIP3   OH215218   0.412   4.193   3.202
 5085TIP3    H115219   0.413   4.117   3.261
 5085TIP3    H215220   0.493   4.185   3.151
 5086TIP3   OH215221   5.942   3.137   3.252
 5086TIP3    H115222   5.963   3.198   3.182
 5086TIP3    H215223   6.008   3.153   3.319
 5087TIP3   OH215224   6.366   4.502   2.718
 5087TIP3    H115225   6.452   4.462   2.730
 5087TIP3    H215226   6.310   4.430   2.689
 5088TIP3   OH215227   6.203   2.679   2.861
 5088TIP3    H115228   6.226   2.670   2.953
 5088TIP3    H215229   6.256   2.753   2.830
 5089TIP3   OH215230   5.398   5.418   5.449
 5089TIP3    H115231   5.312   5.432   5.487
 5089TIP3    H215232   5.388   5.340   5.395
 5090TIP3   OH215233   2.886   5.511   2.903
 5090TIP3    H115234   2.919   5.587   2.952
 5090TIP3    H215235   2.792   5.513   2.918
 5091TIP3   OH215236   5.747   5.764   3.635
 5091TIP3    H115237   5.667   5.797   3.676
 5091TIP3    H215238   5.718   5.690   3.582
 5092TIP3   OH215239   2.515   4.438   2.294
 5092TIP3    H115240   2.438   4.483   2.329
 5092TIP3    H215241   2.583   4.451   2.360
 5093TIP3   OH215242   6.463   6.124   3.919
 5093TIP3    H115243   6.388   6.127   3.860
 5093TIP3    H215244   6.520   6.056   3.883
 5094TIP3   OH215245   4.787   5.824   5.470
 5094TIP3    H115246   4.723   5.853   5.535
 5094TIP3    H215247   4.850   5.896   5.464
 5095TIP3   OH215248   1.200   5.293   1.767
 5095TIP3    H115249   1.239   5.253   1.845
 5095TIP3    H215250   1.111   5.259   1.764
 5096TIP3   OH215251   1.913   0.185   2.106
 5096TIP3    H115252   1.914   0.119   2.037
 5096TIP3    H215253   1.994   0.234   2.094
 5097TIP3   OH215254   2.361   4.414   4.334
 5097TIP3    H115255   2.405   4.419   4.419
 5097TIP3    H215256   2.321   4.500   4.321
 5098TIP3   OH215257   2.447   5.662   0.946
 5098TIP3    H115258   2.489   5.593   0.999
 5098TIP3    H215259   2.481   5.648   0.858
 5099TIP3   OH215260   0.602   2.600   3.750
 5099TIP3    H115261   0.512   2.611   3.781
 5099TIP3    H215262   0.652   2.579   3.829
 5100TIP3   OH215263   1.868   6.476   0.552
 5100TIP3    H115264   1.938   6.430   0.599
 5100TIP3    H215265   1.821   6.406   0.506
 5101TIP3   OH215266   6.866   6.163   3.333
 5101TIP3    H115267   6.849   6.227   3.402
 5101TIP3    H215268   6.911   6.214   3.265
 5102TIP3   OH215269   5.702   3.927   3.612
 5102TIP3    H115270   5.652   3.948   3.534
 5102TIP3    H215271   5.637   3.916   3.681
 5103TIP3   OH215272   4.052   1.865   0.495
 5103TIP3    H115273   3.994   1.892   0.424
 5103TIP3    H215274   4.133   1.839   0.450
 5104TIP3   OH215275   2.782   3.800   1.431
 5104TIP3    H115276   2.809   3.709   1.417
 5104TIP3    H215277   2.686   3.796   1.437
 5105TIP3   OH215278   1.379   6.334   3.071
 5105TIP3    H115279   1.400   6.427   3.084
 5105TIP3    H215280   1.287   6.326   3.097
 5106TIP3   OH215281   3.386   5.894   3.709
 5106TIP3    H115282   3.451   5.949   3.754
 5106TIP3    H215283   3.391   5.921   3.618
 5107TIP3   OH215284   3.581   3.791   2.068
 5107TIP3    H115285   3.507   3.772   2.010
 5107TIP3    H215286   3.569   3.884   2.091
 5108TIP3   OH215287   5.835   5.556   1.219
 5108TIP3    H115288   5.906   5.565   1.283
 5108TIP3    H215289   5.878   5.571   1.135
 5109TIP3   OH215290   2.005   2.256   5.027
 5109TIP3    H115291   1.943   2.329   5.017
 5109TIP3    H215292   2.039   2.266   5.116
 5110TIP3   OH215293   3.657   6.191   3.349
 5110TIP3    H115294   3.664   6.276   3.391
 5110TIP3    H215295   3.664   6.210   3.255
 5111TIP3   OH215296   0.549   5.921   2.387
 5111TIP3    H115297   0.568   6.006   2.349
 5111TIP3    H215298   0.609   5.913   2.460
 5112TIP3   OH215299   2.134   5.722   1.541
 5112TIP3    H115300   2.087   5.743   1.622
 5112TIP3    H215301   2.147   5.807   1.499
 5113TIP3   OH215302   2.809   2.954   4.111
 5113TIP3    H115303   2.776   3.027   4.165
 5113TIP3    H215304   2.889   2.988   4.071
 5114TIP3   OH215305   2.469   1.196   0.960
 5114TIP3    H115306   2.373   1.198   0.958
 5114TIP3    H215307   2.493   1.130   0.895
 5115TIP3   OH215308   2.454   0.766   2.056
 5115TIP3    H115309   2.491   0.800   2.138
 5115TIP3    H215310   2.364   0.741   2.080
 5116TIP3   OH215311   5.844   0.553   3.977
 5116TIP3    H115312   5.918   0.587   4.028
 5116TIP3    H215313   5.861   0.459   3.969
 5117TIP3   OH215314   6.410   5.274   0.150
 5117TIP3    H115315   6.456   5.278   0.234
 5117TIP3    H215316   6.454   5.204   0.102
 5118TIP3   OH215317   2.370   1.902   0.585
 5118TIP3    H115318   2.384   1.994   0.610
 5118TIP3    H215319   2.275   1.892   0.585
 5119TIP3   OH215320   4.196   5.605   3.871
 5119TIP3    H115321   4.193   5.540   3.941
 5119TIP3    H215322   4.230   5.684   3.912
 5120TIP3   OH215323   1.872   1.304   0.897
 5120TIP3    H115324   1.937   1.374   0.911
 5120TIP3    H215325   1.895   1.267   0.812
 5121TIP3   OH215326   1.574   0.306   4.424
 5121TIP3    H115327   1.488   0.287   4.461
 5121TIP3    H215328   1.581   0.249   4.348
 5122TIP3   OH215329   0.132   2.611   4.172
 5122TIP3    H115330   0.096   2.534   4.216
 5122TIP3    H215331   0.211   2.632   4.222
 5123TIP3   OH215332   3.653   4.858   3.733
 5123TIP3    H115333   3.658   4.790   3.666
 5123TIP3    H215334   3.585   4.918   3.701
 5124TIP3   OH215335   7.046   2.992   2.702
 5124TIP3    H115336   7.142   2.995   2.703
 5124TIP3    H215337   7.022   2.968   2.792
 5125TIP3   OH215338   3.954   5.442   1.048
 5125TIP3    H115339   3.872   5.489   1.030
 5125TIP3    H215340   4.023   5.508   1.034
 5126TIP3   OH215341   0.308   3.313   2.635
 5126TIP3    H115342   0.286   3.327   2.727
 5126TIP3    H215343   0.299   3.399   2.595
 5127TIP3   OH215344   6.500   5.385   5.396
 5127TIP3    H115345   6.480   5.420   5.483
 5127TIP3    H215346   6.448   5.437   5.336
 5128TIP3   OH215347   2.270   4.567   1.365
 5128TIP3    H115348   2.182   4.534   1.382
 5128TIP3    H215349   2.320   4.489   1.339
 5129TIP3   OH215350   0.901   2.316   5.015
 5129TIP3    H115351   0.839   2.351   4.951
 5129TIP3    H215352   0.931   2.392   5.065
 5130TIP3   OH215353   6.632   6.078   1.645
 5130TIP3    H115354   6.639   5.995   1.692
 5130TIP3    H215355   6.586   6.056   1.564
 5131TIP3   OH215356   4.399   3.552   2.512
 5131TIP3    H115357   4.489   3.540   2.482
 5131TIP3    H215358   4.393   3.499   2.592
 5132TIP3   OH215359   5.323   1.748   0.941
 5132TIP3    H115360   5.352   1.820   0.886
 5132TIP3    H215361   5.349   1.669   0.893
 5133TIP3   OH215362   0.089   5.871   0.144
 5133TIP3    H115363   0.122   5.792   0.101
 5133TIP3    H215364   0.107   5.942   0.083
 5134TIP3   OH215365   1.483   6.427   2.253
 5134TIP3    H115366   1.575   6.429   2.279
 5134TIP3    H215367   1.484   6.428   2.158
 5135TIP3   OH215368   4.424   5.203   4.733
 5135TIP3    H115369   4.472   5.284   4.714
 5135TIP3    H215370   4.438   5.188   4.826
 5136TIP3   OH215371   0.762   3.458   2.398
 5136TIP3    H115372   0.745   3.384   2.340
 5136TIP3    H215373   0.801   3.419   2.476
 5137TIP3   OH215374   4.888   4.542   3.235
 5137TIP3    H115375   4.851   4.622   3.199
 5137TIP3    H215376   4.982   4.551   3.224
 5138TIP3   OH215377   3.585   2.926   1.785
 5138TIP3    H115378   3.573   2.871   1.862
 5138TIP3    H215379   3.630   2.870   1.722
 5139TIP3   OH215380   4.847   0.298   2.091
 5139TIP3    H115381   4.793   0.226   2.059
 5139TIP3    H215382   4.924   0.299   2.035
 5140TIP3   OH215383   3.236   3.123   1.830
 5140TIP3    H115384   3.173   3.181   1.871
 5140TIP3    H215385   3.316   3.134   1.881
 5141TIP3   OH215386   2.583   1.877   4.146
 5141TIP3    H115387   2.527   1.921   4.082
 5141TIP3    H215388   2.586   1.786   4.117
 5142TIP3   OH215389   4.714   3.066   3.701
 5142TIP3    H115390   4.778   3.015   3.651
 5142TIP3    H215391   4.631   3.052   3.656
 5143TIP3   OH215392   3.618   0.444   2.616
 5143TIP3    H115393   3.530   0.421   2.584
 5143TIP3    H215394   3.677   0.412   2.549
 5144TIP3   OH215395   6.597   1.714   1.657
 5144TIP3    H115396   6.527   1.704   1.722
 5144TIP3    H215397   6.648   1.633   1.664
 5145TIP3   OH215398   3.961   4.806   5.550
 5145TIP3    H115399   4.000   4.812   5.637
 5145TIP3    H215400   3.867   4.800   5.566
 5146TIP3   OH215401   3.188   5.983   2.216
 5146TIP3    H115402   3.094   5.970   2.202
 5146TIP3    H215403   3.230   5.915   2.162
 5147TIP3   OH215404   2.882   2.949   3.052
 5147TIP3    H115405   2.800   2.948   3.101
 5147TIP3    H215406   2.944   2.993   3.110
 5148TIP3   OH215407   5.114   3.719   5.556
 5148TIP3    H115408   5.183   3.784   5.567
 5148TIP3    H215409   5.101   3.682   5.644
 5149TIP3   OH215410   1.480   2.425   4.002
 5149TIP3    H115411   1.497   2.478   4.080
 5149TIP3    H215412   1.510   2.480   3.930
 5150TIP3   OH215413   3.927   1.920   0.910
 5150TIP3    H115414   3.878   1.857   0.857
 5150TIP3    H215415   3.985   1.964   0.848
 5151TIP3   OH215416   4.931   3.164   1.182
 5151TIP3    H115417   4.960   3.074   1.198
 5151TIP3    H215418   4.836   3.156   1.168
 5152TIP3   OH215419   6.187   4.470   4.087
 5152TIP3    H115420   6.112   4.442   4.140
 5152TIP3    H215421   6.153   4.474   3.998
 5153TIP3   OH215422   5.815   0.971   2.040
 5153TIP3    H115423   5.852   0.942   1.957
 5153TIP3    H215424   5.794   0.889   2.086
 5154TIP3   OH215425   5.756   5.639   4.059
 5154TIP3    H115426   5.814   5.617   4.132
 5154TIP3    H215427   5.809   5.694   4.002
 5155TIP3   OH215428   3.506   1.853   2.048
 5155TIP3    H115429   3.592   1.859   2.005
 5155TIP3    H215430   3.468   1.772   2.012
 5156TIP3   OH215431   2.919   5.926   2.136
 5156TIP3    H115432   2.903   6.018   2.157
 5156TIP3    H215433   2.833   5.884   2.145
 5157TIP3   OH215434   0.030   1.962   1.181
 5157TIP3    H115435  -0.040   2.014   1.141
 5157TIP3    H215436   0.037   1.997   1.271
 5158TIP3   OH215437   4.075   5.315   3.629
 5158TIP3    H115438   4.053   5.356   3.545
 5158TIP3    H215439   4.151   5.363   3.661
 5159TIP3   OH215440   1.005   5.839   5.316
 5159TIP3    H115441   0.966   5.859   5.401
 5159TIP3    H215442   1.005   5.744   5.311
 5160TIP3   OH215443   3.003   2.044   2.184
 5160TIP3    H115444   3.019   1.953   2.208
 5160TIP3    H215445   3.090   2.084   2.182
 5161TIP3   OH215446   1.010   6.795   3.647
 5161TIP3    H115447   0.971   6.713   3.678
 5161TIP3    H215448   1.007   6.853   3.722
 5162TIP3   OH215449   6.860   5.144   0.767
 5162TIP3    H115450   6.861   5.061   0.719
 5162TIP3    H215451   6.946   5.149   0.808
 5163TIP3   OH215452   5.330   0.068   2.899
 5163TIP3    H115453   5.321   0.163   2.896
 5163TIP3    H215454   5.250   0.038   2.943
 5164TIP3   OH215455   5.337   5.673   1.890
 5164TIP3    H115456   5.373   5.675   1.802
 5164TIP3    H215457   5.413   5.668   1.948
 5165TIP3   OH215458   1.237   6.583   5.588
 5165TIP3    H115459   1.331   6.600   5.597
 5165TIP3    H215460   1.233   6.495   5.550
 5166TIP3   OH215461   1.708   6.388   1.652
 5166TIP3    H115462   1.661   6.431   1.580
 5166TIP3    H215463   1.669   6.300   1.655
 5167TIP3   OH215464   6.555   3.596   2.468
 5167TIP3    H115465   6.571   3.582   2.562
 5167TIP3    H215466   6.508   3.679   2.464
 5168TIP3   OH215467   5.688   6.619   2.088
 5168TIP3    H115468   5.714   6.554   2.023
 5168TIP3    H215469   5.598   6.642   2.064
 5169TIP3   OH215470   0.643   5.112   1.741
 5169TIP3    H115471   0.696   5.113   1.820
 5169TIP3    H215472   0.555   5.092   1.772
 5170TIP3   OH215473   5.018   6.428   3.000
 5170TIP3    H115474   5.073   6.505   3.011
 5170TIP3    H215475   5.034   6.400   2.909
 5171TIP3   OH215476   0.819   4.218   4.152
 5171TIP3    H115477   0.728   4.194   4.138
 5171TIP3    H215478   0.818   4.268   4.233
 5172TIP3   OH215479   5.021   4.043   3.098
 5172TIP3    H115480   5.026   4.107   3.169
 5172TIP3    H215481   5.110   4.038   3.063
 5173TIP3   OH215482   5.558   1.313   0.909
 5173TIP3    H115483   5.618   1.381   0.941
 5173TIP3    H215484   5.582   1.235   0.960
 5174TIP3   OH215485   0.498   5.189   4.930
 5174TIP3    H115486   0.424   5.132   4.951
 5174TIP3    H215487   0.524   5.226   5.014
 5175TIP3   OH215488   2.381   0.070   0.216
 5175TIP3    H115489   2.397  -0.008   0.164
 5175TIP3    H215490   2.361   0.037   0.304
 5176TIP3   OH215491   3.285   2.288   5.560
 5176TIP3    H115492   3.209   2.242   5.525
 5176TIP3    H215493   3.358   2.227   5.546
 5177TIP3   OH215494   5.895   3.076   0.633
 5177TIP3    H115495   5.808   3.099   0.601
 5177TIP3    H215496   5.894   2.981   0.640
 5178TIP3   OH215497   4.665   3.501   2.394
 5178TIP3    H115498   4.713   3.543   2.466
 5178TIP3    H215499   4.688   3.553   2.317
 5179TIP3   OH215500   4.876   6.152   1.825
 5179TIP3    H115501   4.792   6.187   1.856
 5179TIP3    H215502   4.923   6.127   1.904
 5180TIP3   OH215503   6.055   5.239   0.231
 5180TIP3    H115504   6.090   5.313   0.181
 5180TIP3    H215505   6.076   5.259   0.322
 5181TIP3   OH215506   1.944   5.415   1.097
 5181TIP3    H115507   1.977   5.330   1.067
 5181TIP3    H215508   1.922   5.462   1.017
 5182TIP3   OH215509   2.634   1.574   4.432
 5182TIP3    H115510   2.622   1.602   4.522
 5182TIP3    H215511   2.719   1.611   4.407
 5183TIP3   OH215512   6.802   1.513   1.293
 5183TIP3    H115513   6.893   1.502   1.321
 5183TIP3    H215514   6.781   1.604   1.314
 5184TIP3   OH215515   1.902   0.376   0.506
 5184TIP3    H115516   1.968   0.392   0.575
 5184TIP3    H215517   1.829   0.433   0.530
 5185TIP3   OH215518   2.121   3.556   4.548
 5185TIP3    H115519   2.195   3.604   4.586
 5185TIP3    H215520   2.141   3.550   4.455
 5186TIP3   OH215521   3.636   2.018   2.609
 5186TIP3    H115522   3.641   2.113   2.610
 5186TIP3    H215523   3.543   1.999   2.620
 5187TIP3   OH215524   6.713   3.330   3.790
 5187TIP3    H115525   6.711   3.236   3.771
 5187TIP3    H215526   6.784   3.364   3.735
 5188TIP3   OH215527   4.759   1.430   4.323
 5188TIP3    H115528   4.812   1.506   4.300
 5188TIP3    H215529   4.668   1.460   4.315
 5189TIP3   OH215530   6.727   2.776   3.332
 5189TIP3    H115531   6.796   2.710   3.320
 5189TIP3    H215532   6.657   2.747   3.274
 5190TIP3   OH215533   4.270   5.881   4.316
 5190TIP3    H115534   4.256   5.796   4.359
 5190TIP3    H215535   4.247   5.946   4.383
 5191TIP3   OH215536   0.736   6.452   5.182
 5191TIP3    H115537   0.797   6.523   5.202
 5191TIP3    H215538   0.764   6.421   5.096
 5192TIP3   OH215539   3.768   4.289   0.142
 5192TIP3    H115540   3.814   4.366   0.109
 5192TIP3    H215541   3.780   4.292   0.237
 5193TIP3   OH215542   4.318   5.684   0.216
 5193TIP3    H115543   4.322   5.606   0.272
 5193TIP3    H215544   4.369   5.660   0.138
 5194TIP3   OH215545   1.268   5.321   4.048
 5194TIP3    H115546   1.324   5.252   4.084
 5194TIP3    H215547   1.179   5.288   4.057
 5195TIP3   OH215548   0.469   4.547   4.082
 5195TIP3    H115549   0.536   4.539   4.014
 5195TIP3    H215550   0.495   4.625   4.132
 5196TIP3   OH215551   0.868   2.532   0.277
 5196TIP3    H115552   0.957   2.498   0.267
 5196TIP3    H215553   0.835   2.538   0.187
 5197TIP3   OH215554   6.280   1.809   0.448
 5197TIP3    H115555   6.311   1.836   0.535
 5197TIP3    H215556   6.359   1.782   0.402
 5198TIP3   OH215557   4.712   2.970   4.333
 5198TIP3    H115558   4.753   3.051   4.363
 5198TIP3    H215559   4.626   2.971   4.374
 5199TIP3   OH215560   5.693   0.906   5.722
 5199TIP3    H115561   5.777   0.897   5.677
 5199TIP3    H215562   5.646   0.825   5.701
 5200TIP3   OH215563   1.595   5.408   0.465
 5200TIP3    H115564   1.642   5.482   0.504
 5200TIP3    H215565   1.515   5.400   0.518
 5201TIP3   OH215566   5.134   1.600   5.281
 5201TIP3    H115567   5.218   1.639   5.306
 5201TIP3    H215568   5.070   1.668   5.298
 5202TIP3   OH215569   3.866   1.380   4.459
 5202TIP3    H115570   3.873   1.292   4.422
 5202TIP3    H215571   3.790   1.376   4.517
 5203TIP3   OH215572   5.574   2.289   1.050
 5203TIP3    H115573   5.514   2.247   0.988
 5203TIP3    H215574   5.651   2.231   1.051
 5204TIP3   OH215575   3.953   0.616   3.653
 5204TIP3    H115576   3.984   0.630   3.563
 5204TIP3    H215577   4.029   0.583   3.700
 5205TIP3   OH215578   6.871   4.567   4.788
 5205TIP3    H115579   6.915   4.488   4.819
 5205TIP3    H215580   6.919   4.640   4.828
 5206TIP3   OH215581   6.482   2.617   5.453
 5206TIP3    H115582   6.418   2.653   5.391
 5206TIP3    H215583   6.550   2.685   5.458
 5207TIP3   OH215584   2.498   3.042   0.384
 5207TIP3    H115585   2.567   3.010   0.441
 5207TIP3    H215586   2.438   3.088   0.444
 5208TIP3   OH215587   2.904   4.033   4.847
 5208TIP3    H115588   2.916   4.112   4.899
 5208TIP3    H215589   2.810   4.030   4.827
 5209TIP3   OH215590   3.408   0.487   4.909
 5209TIP3    H115591   3.495   0.475   4.870
 5209TIP3    H215592   3.353   0.515   4.836
 5210TIP3   OH215593   3.410   3.891   2.776
 5210TIP3    H115594   3.490   3.923   2.733
 5210TIP3    H215595   3.388   3.811   2.728
 5211TIP3   OH215596   5.497   4.528   5.775
 5211TIP3    H115597   5.456   4.483   5.701
 5211TIP3    H215598   5.590   4.507   5.768
 5212TIP3   OH215599   3.205   4.942   1.459
 5212TIP3    H115600   3.237   5.017   1.509
 5212TIP3    H215601   3.284   4.893   1.436
 5213TIP3   OH215602   0.837   2.842   3.432
 5213TIP3    H115603   0.883   2.849   3.516
 5213TIP3    H215604   0.745   2.835   3.456
 5214TIP3   OH215605   3.807   4.096   1.189
 5214TIP3    H115606   3.774   4.173   1.235
 5214TIP3    H215607   3.821   4.031   1.259
 5215TIP3   OH215608   3.427   0.681   0.992
 5215TIP3    H115609   3.492   0.669   1.061
 5215TIP3    H215610   3.380   0.761   1.016
 5216TIP3   OH215611   1.829   2.368   0.006
 5216TIP3    H115612   1.816   2.307   0.078
 5216TIP3    H215613   1.923   2.364  -0.012
 5217TIP3   OH215614   5.468   1.805   3.165
 5217TIP3    H115615   5.423   1.731   3.123
 5217TIP3    H215616   5.557   1.803   3.129
 5218TIP3   OH215617   2.556   4.472   3.654
 5218TIP3    H115618   2.528   4.540   3.715
 5218TIP3    H215619   2.475   4.444   3.610
 5219TIP3   OH215620   5.908   3.113   2.759
 5219TIP3    H115621   5.876   3.023   2.753
 5219TIP3    H215622   5.852   3.154   2.825
 5220TIP3   OH215623   2.748   2.190   0.161
 5220TIP3    H115624   2.772   2.262   0.102
 5220TIP3    H215625   2.676   2.146   0.116
 5221TIP3   OH215626   5.515   2.248   4.006
 5221TIP3    H115627   5.430   2.215   3.977
 5221TIP3    H215628   5.529   2.204   4.090
 5222TIP3   OH215629   5.377   2.291   5.553
 5222TIP3    H115630   5.392   2.203   5.590
 5222TIP3    H215631   5.436   2.347   5.603
 5223TIP3   OH215632   2.932   3.024   2.442
 5223TIP3    H115633   2.938   3.028   2.538
 5223TIP3    H215634   2.984   2.947   2.418
 5224TIP3   OH215635   5.748   2.064   0.260
 5224TIP3    H115636   5.684   2.128   0.292
 5224TIP3    H215637   5.699   2.008   0.200
 5225TIP3   OH215638   3.209   2.285   3.743
 5225TIP3    H115639   3.150   2.210   3.744
 5225TIP3    H215640   3.289   2.252   3.704
 5226TIP3   OH215641   0.222   3.789   4.258
 5226TIP3    H115642   0.179   3.864   4.215
 5226TIP3    H215643   0.315   3.806   4.246
 5227TIP3   OH215644   6.322   0.564   0.730
 5227TIP3    H115645   6.327   0.566   0.634
 5227TIP3    H215646   6.253   0.500   0.749
 5228TIP3   OH215647   2.671   1.232   2.885
 5228TIP3    H115648   2.727   1.185   2.824
 5228TIP3    H215649   2.582   1.220   2.851
 5229TIP3   OH215650   7.042   5.360   0.381
 5229TIP3    H115651   7.117   5.303   0.369
 5229TIP3    H215652   7.080   5.445   0.404
 5230TIP3   OH215653   3.180   0.003   1.332
 5230TIP3    H115654   3.225   0.082   1.360
 5230TIP3    H215655   3.171   0.012   1.237
 5231TIP3   OH215656   7.074   5.404   5.047
 5231TIP3    H115657   7.092   5.349   4.971
 5231TIP3    H215658   7.149   5.463   5.051
 5232TIP3   OH215659   0.515   5.895   3.388
 5232TIP3    H115660   0.559   5.937   3.462
 5232TIP3    H215661   0.530   5.802   3.402
 5233TIP3   OH215662   0.554   4.835   1.532
 5233TIP3    H115663   0.463   4.810   1.511
 5233TIP3    H215664   0.565   4.921   1.492
 5234TIP3   OH215665   5.979   0.777   3.588
 5234TIP3    H115666   5.910   0.824   3.635
 5234TIP3    H215667   5.953   0.685   3.593
 5235TIP3   OH215668   3.231   1.020   1.749
 5235TIP3    H115669   3.246   0.935   1.791
 5235TIP3    H215670   3.192   0.999   1.664
 5236TIP3   OH215671   5.363   2.217   0.891
 5236TIP3    H115672   5.351   2.304   0.853
 5236TIP3    H215673   5.283   2.201   0.940
 5237TIP3   OH215674   1.904   1.277   1.225
 5237TIP3    H115675   1.851   1.198   1.218
 5237TIP3    H215676   1.994   1.248   1.215
 5238TIP3   OH215677   6.958   6.158   2.379
 5238TIP3    H115678   7.029   6.130   2.437
 5238TIP3    H215679   6.889   6.093   2.393
 5239TIP3   OH215680   5.725   5.909   0.669
 5239TIP3    H115681   5.655   5.907   0.734
 5239TIP3    H215682   5.770   5.825   0.680
 5240TIP3   OH215683   3.885   2.346   5.621
 5240TIP3    H115684   3.912   2.323   5.532
 5240TIP3    H215685   3.967   2.360   5.668
 5241TIP3   OH215686   0.338   6.744   3.803
 5241TIP3    H115687   0.324   6.660   3.759
 5241TIP3    H215688   0.250   6.780   3.815
 5242TIP3   OH215689   2.103   3.402   0.321
 5242TIP3    H115690   2.073   3.406   0.230
 5242TIP3    H215691   2.043   3.341   0.364
 5243TIP3   OH215692   6.250   2.089   0.779
 5243TIP3    H115693   6.334   2.129   0.803
 5243TIP3    H215694   6.221   2.138   0.702
 5244TIP3   OH215695   1.562   5.513   1.577
 5244TIP3    H115696   1.603   5.427   1.580
 5244TIP3    H215697   1.603   5.562   1.649
 5245TIP3   OH215698   3.701   5.737   2.785
 5245TIP3    H115699   3.777   5.748   2.728
 5245TIP3    H215700   3.652   5.818   2.774
 5246TIP3   OH215701   6.744   5.237   1.177
 5246TIP3    H115702   6.806   5.184   1.227
 5246TIP3    H215703   6.699   5.175   1.121
 5247TIP3   OH215704   0.050   4.261   0.079
 5247TIP3    H115705   0.098   4.327   0.030
 5247TIP3    H215706  -0.032   4.303   0.105
 5248TIP3   OH215707   5.616   4.137   4.078
 5248TIP3    H115708   5.660   4.158   3.996
 5248TIP3    H215709   5.652   4.052   4.103
 5249TIP3   OH215710   6.271   3.362   5.288
 5249TIP3    H115711   6.189   3.391   5.250
 5249TIP3    H215712   6.263   3.267   5.294
 5250TIP3   OH215713   4.173   3.192   0.768
 5250TIP3    H115714   4.189   3.103   0.738
 5250TIP3    H215715   4.089   3.217   0.729
 5251TIP3   OH215716   2.332   3.435   2.328
 5251TIP3    H115717   2.376   3.351   2.310
 5251TIP3    H215718   2.367   3.462   2.413
 5252TIP3   OH215719   7.144   3.979   2.820
 5252TIP3    H115720   7.196   3.899   2.834
 5252TIP3    H215721   7.173   4.010   2.734
 5253TIP3   OH215722   5.766   0.809   0.145
 5253TIP3    H115723   5.697   0.825   0.080
 5253TIP3    H215724   5.727   0.749   0.208
 5254TIP3   OH215725   1.890   5.609   4.383
 5254TIP3    H115726   1.887   5.513   4.376
 5254TIP3    H215727   1.871   5.640   4.295
 5255TIP3   OH215728   3.201   2.884   1.989
 5255TIP3    H115729   3.210   2.806   1.933
 5255TIP3    H215730   3.239   2.955   1.937
 5256TIP3   OH215731   6.757   0.461   4.958
 5256TIP3    H115732   6.729   0.504   4.877
 5256TIP3    H215733   6.795   0.378   4.929
 5257TIP3   OH215734   0.679   4.097   0.049
 5257TIP3    H115735   0.670   4.072  -0.043
 5257TIP3    H215736   0.601   4.062   0.091
 5258TIP3   OH215737   2.142   5.182   2.903
 5258TIP3    H115738   2.077   5.201   2.835
 5258TIP3    H215739   2.102   5.115   2.958
 5259TIP3   OH215740   0.877   2.829   2.088
 5259TIP3    H115741   0.965   2.830   2.051
 5259TIP3    H215742   0.888   2.866   2.176
 5260TIP3   OH215743   4.171   3.119   1.315
 5260TIP3    H115744   4.158   3.127   1.409
 5260TIP3    H215745   4.243   3.178   1.294
 5261TIP3   OH215746   0.411   0.495   0.812
 5261TIP3    H115747   0.404   0.418   0.868
 5261TIP3    H215748   0.505   0.512   0.805
 5262TIP3   OH215749   1.837   3.936   0.616
 5262TIP3    H115750   1.876   3.978   0.693
 5262TIP3    H215751   1.743   3.946   0.629
 5263TIP3   OH215752   3.162   2.337   1.256
 5263TIP3    H115753   3.082   2.385   1.235
 5263TIP3    H215754   3.164   2.266   1.192
 5264TIP3   OH215755   0.037   1.814   2.885
 5264TIP3    H115756   0.046   1.735   2.831
 5264TIP3    H215757   0.074   1.884   2.831
 5265TIP3   OH215758   2.633   4.174   2.657
 5265TIP3    H115759   2.691   4.181   2.733
 5265TIP3    H215760   2.588   4.258   2.653
 5266TIP3   OH215761   6.608   3.624   5.859
 5266TIP3    H115762   6.703   3.633   5.863
 5266TIP3    H215763   6.591   3.539   5.901
 5267TIP3   OH215764   3.460   0.688   2.417
 5267TIP3    H115765   3.462   0.692   2.513
 5267TIP3    H215766   3.453   0.595   2.397
 5268TIP3   OH215767   4.718   1.285   2.454
 5268TIP3    H115768   4.717   1.201   2.500
 5268TIP3    H215769   4.706   1.263   2.362
 5269TIP3   OH215770   3.006   1.571   4.079
 5269TIP3    H115771   3.082   1.618   4.044
 5269TIP3    H215772   2.951   1.640   4.117
 5270TIP3   OH215773   2.709   3.163   5.453
 5270TIP3    H115774   2.673   3.170   5.364
 5270TIP3    H215775   2.761   3.242   5.464
 5271TIP3   OH215776   2.003   4.757   2.015
 5271TIP3    H115777   1.942   4.691   2.048
 5271TIP3    H215778   2.084   4.741   2.062
 5272TIP3   OH215779   3.691   6.027   3.587
 5272TIP3    H115780   3.705   6.097   3.524
 5272TIP3    H215781   3.763   6.036   3.649
 5273TIP3   OH215782   5.047   2.928   1.225
 5273TIP3    H115783   5.097   2.937   1.307
 5273TIP3    H215784   5.098   2.866   1.173
 5274TIP3   OH215785   7.014   5.881   1.928
 5274TIP3    H115786   7.057   5.952   1.975
 5274TIP3    H215787   6.960   5.838   1.994
 5275TIP3   OH215788   2.230   5.576   0.168
 5275TIP3    H115789   2.298   5.578   0.101
 5275TIP3    H215790   2.223   5.484   0.194
 5276TIP3   OH215791   2.969   0.236   1.759
 5276TIP3    H115792   2.990   0.147   1.729
 5276TIP3    H215793   2.979   0.291   1.682
 5277TIP3   OH215794   1.698   2.960   1.354
 5277TIP3    H115795   1.778   2.907   1.355
 5277TIP3    H215796   1.628   2.896   1.339
 5278TIP3   OH215797   5.157   2.240   1.103
 5278TIP3    H115798   5.112   2.231   1.020
 5278TIP3    H215799   5.114   2.314   1.146
 5279TIP3   OH215800   1.140   0.355   3.836
 5279TIP3    H115801   1.047   0.349   3.859
 5279TIP3    H215802   1.141   0.359   3.741
 5280TIP3   OH215803   1.048   3.379   2.894
 5280TIP3    H115804   1.034   3.458   2.842
 5280TIP3    H215805   0.961   3.339   2.903
 5281TIP3   OH215806   6.797   0.133   4.586
 5281TIP3    H115807   6.731   0.158   4.650
 5281TIP3    H215808   6.807   0.039   4.597
 5282TIP3   OH215809   1.796   3.989   2.211
 5282TIP3    H115810   1.725   3.930   2.236
 5282TIP3    H215811   1.769   4.074   2.245
 5283TIP3   OH215812   0.832   6.066   1.356
 5283TIP3    H115813   0.766   6.013   1.400
 5283TIP3    H215814   0.801   6.156   1.365
 5284TIP3   OH215815   1.579   6.429   0.837
 5284TIP3    H115816   1.606   6.444   0.928
 5284TIP3    H215817   1.618   6.344   0.815
 5285TIP3   OH215818   3.322   3.058   5.306
 5285TIP3    H115819   3.297   3.000   5.378
 5285TIP3    H215820   3.350   3.139   5.349
 5286TIP3   OH215821   2.115   5.798   3.191
 5286TIP3    H115822   2.069   5.780   3.109
 5286TIP3    H215823   2.047   5.828   3.251
 5287TIP3   OH215824   4.306   5.131   0.666
 5287TIP3    H115825   4.213   5.122   0.684
 5287TIP3    H215826   4.310   5.162   0.575
 5288TIP3   OH215827   0.474   6.408   5.277
 5288TIP3    H115828   0.438   6.385   5.191
 5288TIP3    H215829   0.567   6.423   5.260
 5289TIP3   OH215830   2.517   1.186   3.798
 5289TIP3    H115831   2.569   1.139   3.733
 5289TIP3    H215832   2.427   1.155   3.785
 5290TIP3   OH215833   0.455   2.022   2.022
 5290TIP3    H115834   0.434   1.935   2.058
 5290TIP3    H215835   0.534   2.008   1.970
 5291TIP3   OH215836   1.271   5.476   0.058
 5291TIP3    H115837   1.274   5.571   0.059
 5291TIP3    H215838   1.178   5.454   0.052
 5292TIP3   OH215839   4.482   1.239   0.095
 5292TIP3    H115840   4.451   1.148   0.095
 5292TIP3    H215841   4.403   1.291   0.113
 5293TIP3   OH215842   0.850   4.814   3.670
 5293TIP3    H115843   0.833   4.779   3.757
 5293TIP3    H215844   0.825   4.906   3.676
 5294TIP3   OH215845   6.056   5.742   4.404
 5294TIP3    H115846   6.055   5.668   4.464
 5294TIP3    H215847   6.051   5.702   4.317
 5295TIP3   OH215848   0.212   3.395   2.309
 5295TIP3    H115849   0.277   3.448   2.354
 5295TIP3    H215850   0.220   3.421   2.217
 5296TIP3   OH215851   0.373   3.791   2.046
 5296TIP3    H115852   0.436   3.725   2.018
 5296TIP3    H215853   0.381   3.793   2.142
 5297TIP3   OH215854   0.940   4.749   2.325
 5297TIP3    H115855   0.909   4.707   2.405
 5297TIP3    H215856   0.883   4.716   2.256
 5298TIP3   OH215857   0.138   2.132   5.499
 5298TIP3    H115858   0.184   2.062   5.452
 5298TIP3    H215859   0.174   2.128   5.588
 5299TIP3   OH215860   6.224   4.810   1.531
 5299TIP3    H115861   6.162   4.738   1.525
 5299TIP3    H215862   6.173   4.883   1.566
 5300TIP3   OH215863   5.453   1.558   3.022
 5300TIP3    H115864   5.485   1.545   2.933
 5300TIP3    H215865   5.361   1.529   3.019
 5301TIP3   OH215866   1.669   5.115   5.105
 5301TIP3    H115867   1.658   5.060   5.028
 5301TIP3    H215868   1.694   5.055   5.175
 5302TIP3   OH215869   5.862   4.899   4.332
 5302TIP3    H115870   5.935   4.847   4.300
 5302TIP3    H215871   5.812   4.921   4.253
 5303TIP3   OH215872   3.274   1.031   3.075
 5303TIP3    H115873   3.366   1.040   3.048
 5303TIP3    H215874   3.234   1.114   3.050
 5304TIP3   OH215875   1.304   4.717   5.261
 5304TIP3    H115876   1.232   4.660   5.233
 5304TIP3    H215877   1.348   4.668   5.330
 5305TIP3   OH215878   4.862   0.335   4.083
 5305TIP3    H115879   4.792   0.323   4.146
 5305TIP3    H215880   4.862   0.428   4.064
 5306TIP3   OH215881   4.302   6.463   0.061
 5306TIP3    H115882   4.304   6.528  -0.009
 5306TIP3    H215883   4.219   6.479   0.106
 5307TIP3   OH215884   3.695   2.845   1.438
 5307TIP3    H115885   3.740   2.898   1.504
 5307TIP3    H215886   3.756   2.842   1.364
 5308TIP3   OH215887   5.938   4.981   2.872
 5308TIP3    H115888   5.855   5.016   2.841
 5308TIP3    H215889   5.989   5.058   2.896
 5309TIP3   OH215890   2.985   3.816   3.091
 5309TIP3    H115891   3.059   3.852   3.042
 5309TIP3    H215892   2.922   3.888   3.098
 5310TIP3   OH215893   1.136   2.240   1.387
 5310TIP3    H115894   1.194   2.273   1.318
 5310TIP3    H215895   1.196   2.208   1.455
 5311TIP3   OH215896   1.029   4.182   5.650
 5311TIP3    H115897   1.083   4.119   5.601
 5311TIP3    H215898   0.976   4.128   5.708
 5312TIP3   OH215899   2.088   3.058   4.156
 5312TIP3    H115900   2.177   3.035   4.183
 5312TIP3    H215901   2.057   3.116   4.226
 5313TIP3   OH215902   6.658   3.731   4.622
 5313TIP3    H115903   6.647   3.774   4.537
 5313TIP3    H215904   6.621   3.792   4.685
 5314TIP3   OH215905   0.526   2.816   1.774
 5314TIP3    H115906   0.449   2.768   1.805
 5314TIP3    H215907   0.600   2.774   1.818
 5315TIP3   OH215908   0.756   6.384   1.398
 5315TIP3    H115909   0.815   6.446   1.355
 5315TIP3    H215910   0.738   6.422   1.484
 5316TIP3   OH215911   5.730   1.434   3.625
 5316TIP3    H115912   5.819   1.444   3.593
 5316TIP3    H215913   5.674   1.450   3.549
 5317TIP3   OH215914   5.183   0.914   4.821
 5317TIP3    H115915   5.272   0.927   4.854
 5317TIP3    H215916   5.188   0.937   4.728
 5318TIP3   OH215917   5.875   6.495   1.524
 5318TIP3    H115918   5.868   6.402   1.504
 5318TIP3    H215919   5.962   6.520   1.495
 5319TIP3   OH215920   1.828   3.354   2.608
 5319TIP3    H115921   1.817   3.274   2.556
 5319TIP3    H215922   1.888   3.408   2.557
 5320TIP3   OH215923   1.571   5.353   3.406
 5320TIP3    H115924   1.552   5.439   3.445
 5320TIP3    H215925   1.486   5.319   3.379
 5321TIP3   OH215926   3.478   5.262   2.409
 5321TIP3    H115927   3.438   5.305   2.484
 5321TIP3    H215928   3.490   5.331   2.344
 5322TIP3   OH215929   1.249   2.091   4.493
 5322TIP3    H115930   1.218   2.033   4.424
 5322TIP3    H215931   1.315   2.146   4.450
 5323TIP3   OH215932   3.912   3.439   5.513
 5323TIP3    H115933   3.850   3.512   5.504
 5323TIP3    H215934   3.986   3.462   5.457
 5324TIP3   OH215935   0.382   4.514   0.506
 5324TIP3    H115936   0.295   4.545   0.480
 5324TIP3    H215937   0.416   4.582   0.564
 5325TIP3   OH215938   6.831   6.049   4.287
 5325TIP3    H115939   6.744   6.019   4.311
 5325TIP3    H215940   6.831   6.142   4.310
 5326TIP3   OH215941   6.055   3.839   2.965
 5326TIP3    H115942   6.099   3.791   3.035
 5326TIP3    H215943   6.070   3.931   2.985
 5327TIP3   OH215944   6.342   3.562   0.277
 5327TIP3    H115945   6.436   3.550   0.265
 5327TIP3    H215946   6.332   3.655   0.299
 5328TIP3   OH215947   5.493   5.915   5.555
 5328TIP3    H115948   5.405   5.945   5.530
 5328TIP3    H215949   5.533   5.991   5.597
 5329TIP3   OH215950   5.791   6.080   2.401
 5329TIP3    H115951   5.723   6.127   2.449
 5329TIP3    H215952   5.847   6.043   2.469
 5330TIP3   OH215953   2.828   0.695   3.911
 5330TIP3    H115954   2.796   0.780   3.880
 5330TIP3    H215955   2.897   0.717   3.974
 5331TIP3   OH215956   0.492   0.302   3.773
 5331TIP3    H115957   0.536   0.254   3.704
 5331TIP3    H215958   0.558   0.313   3.841
 5332TIP3   OH215959   4.846   3.544   1.173
 5332TIP3    H115960   4.923   3.498   1.206
 5332TIP3    H215961   4.814   3.593   1.249
 5333TIP3   OH215962   7.060   3.060   1.016
 5333TIP3    H115963   7.004   2.983   1.014
 5333TIP3    H215964   7.128   3.039   1.080
 5334TIP3   OH215965   1.222   1.861   4.351
 5334TIP3    H115966   1.219   1.768   4.371
 5334TIP3    H215967   1.274   1.867   4.271
 5335TIP3   OH215968   6.554   0.120   3.660
 5335TIP3    H115969   6.470   0.154   3.691
 5335TIP3    H215970   6.542   0.025   3.658
 5336TIP3   OH215971   0.074   2.746   5.850
 5336TIP3    H115972   0.116   2.660   5.857
 5336TIP3    H215973   0.021   2.740   5.771
 5337TIP3   OH215974   2.901   5.921   0.024
 5337TIP3    H115975   2.890   5.858   0.095
 5337TIP3    H215976   2.871   5.875  -0.054
 5338TIP3   OH215977   6.124   2.846   3.335
 5338TIP3    H115978   6.082   2.761   3.329
 5338TIP3    H215979   6.118   2.882   3.246
 5339TIP3   OH215980   4.668   5.000   5.152
 5339TIP3    H115981   4.711   5.070   5.200
 5339TIP3    H215982   4.739   4.943   5.124
 5340TIP3   OH215983   7.072   3.773   1.924
 5340TIP3    H115984   7.134   3.844   1.905
 5340TIP3    H215985   6.994   3.796   1.873
 5341TIP3   OH215986   2.658   0.410   1.998
 5341TIP3    H115987   2.628   0.500   2.011
 5341TIP3    H215988   2.580   0.357   2.010
 5342TIP3   OH215989   5.868   6.482   0.734
 5342TIP3    H115990   5.795   6.537   0.706
 5342TIP3    H215991   5.833   6.430   0.806
 5343TIP3   OH215992   5.914   5.359   0.842
 5343TIP3    H115993   5.999   5.365   0.886
 5343TIP3    H215994   5.929   5.302   0.767
 5344TIP3   OH215995   6.153   5.762   2.569
 5344TIP3    H115996   6.104   5.686   2.601
 5344TIP3    H215997   6.237   5.757   2.614
 5345TIP3   OH215998   1.558   3.320   2.384
 5345TIP3    H115999   1.588   3.389   2.325
 5345TIP3    H216000   1.632   3.260   2.391
 5346TIP3   OH216001   6.339   0.061   4.177
 5346TIP3    H116002   6.358   0.151   4.152
 5346TIP3    H216003   6.286   0.027   4.105
 5347TIP3   OH216004   6.354   4.236   4.086
 5347TIP3    H116005   6.314   4.321   4.070
 5347TIP3    H216006   6.389   4.241   4.174
 5348TIP3   OH216007   3.056   3.241   0.375
 5348TIP3    H116008   3.065   3.320   0.321
 5348TIP3    H216009   3.046   3.274   0.464
 5349TIP3   OH216010   6.244   3.798   1.469
 5349TIP3    H116011   6.177   3.865   1.484
 5349TIP3    H216012   6.196   3.725   1.431
 5350TIP3   OH216013   0.434   6.042   3.959
 5350TIP3    H116014   0.414   6.133   3.935
 5350TIP3    H216015   0.406   5.991   3.883
 5351TIP3   OH216016   4.994   4.979   0.010
 5351TIP3    H116017   4.899   4.976   0.000
 5351TIP3    H216018   5.016   5.072   0.008
 5352TIP3   OH216019   2.743   6.161   0.954
 5352TIP3    H116020   2.833   6.142   0.928
 5352TIP3    H216021   2.723   6.246   0.914
 5353TIP3   OH216022   0.355   5.171   1.444
 5353TIP3    H116023   0.295   5.136   1.510
 5353TIP3    H216024   0.428   5.207   1.494
 5354TIP3   OH216025   6.614   1.245   1.813
 5354TIP3    H116026   6.543   1.279   1.758
 5354TIP3    H216027   6.584   1.160   1.843
 5355TIP3   OH216028   4.592   3.415   1.049
 5355TIP3    H116029   4.596   3.352   0.977
 5355TIP3    H216030   4.677   3.406   1.093
 5356TIP3   OH216031   1.944   6.358   2.773
 5356TIP3    H116032   1.980   6.272   2.754
 5356TIP3    H216033   1.849   6.345   2.770
 5357TIP3   OH216034   1.802   3.472   1.363
 5357TIP3    H116035   1.806   3.516   1.278
 5357TIP3    H216036   1.866   3.520   1.417
 5358TIP3   OH216037   5.245   4.064   4.711
 5358TIP3    H116038   5.153   4.061   4.685
 5358TIP3    H216039   5.275   4.150   4.684
 5359TIP3   OH216040   0.947   6.705   2.926
 5359TIP3    H116041   0.929   6.798   2.915
 5359TIP3    H216042   0.889   6.661   2.864
 5360TIP3   OH216043   1.159   2.882   1.787
 5360TIP3    H116044   1.183   2.815   1.851
 5360TIP3    H216045   1.163   2.964   1.836
 5361TIP3   OH216046   2.178   5.637   1.915
 5361TIP3    H116047   2.140   5.549   1.909
 5361TIP3    H216048   2.109   5.695   1.882
 5362TIP3   OH216049   2.677   3.270   5.188
 5362TIP3    H116050   2.642   3.359   5.188
 5362TIP3    H216051   2.717   3.259   5.102
 5363TIP3   OH216052   1.652   4.958   2.350
 5363TIP3    H116053   1.710   4.881   2.347
 5363TIP3    H216054   1.671   5.005   2.270
 5364TIP3   OH216055   4.940   1.320   5.502
 5364TIP3    H116056   4.905   1.272   5.577
 5364TIP3    H216057   4.976   1.401   5.539
 5365TIP3   OH216058   4.872   1.869   0.377
 5365TIP3    H116059   4.783   1.865   0.340
 5365TIP3    H216060   4.921   1.804   0.328
 5366TIP3   OH216061   5.467   1.337   4.319
 5366TIP3    H116062   5.466   1.352   4.414
 5366TIP3    H216063   5.447   1.244   4.309
 5367TIP3   OH216064   1.379   4.620   3.283
 5367TIP3    H116065   1.316   4.649   3.216
 5367TIP3    H216066   1.401   4.531   3.258
 5368TIP3   OH216067   3.501   2.885   5.133
 5368TIP3    H116068   3.446   2.863   5.208
 5368TIP3    H216069   3.558   2.955   5.164
 5369TIP3   OH216070   2.941   6.419   5.579
 5369TIP3    H116071   3.013   6.475   5.608
 5369TIP3    H216072   2.928   6.443   5.487
 5370TIP3   OH216073   2.816   5.480   0.802
 5370TIP3    H116074   2.853   5.568   0.794
 5370TIP3    H216075   2.726   5.488   0.772
 5371TIP3   OH216076   0.704   0.946   5.856
 5371TIP3    H116077   0.705   0.856   5.823
 5371TIP3    H216078   0.629   0.949   5.916
 5372TIP3   OH216079   5.153   1.625   4.363
 5372TIP3    H116080   5.223   1.608   4.300
 5372TIP3    H216081   5.078   1.650   4.310
 5373TIP3   OH216082   3.492   5.754   1.293
 5373TIP3    H116083   3.463   5.746   1.384
 5373TIP3    H216084   3.413   5.736   1.241
 5374TIP3   OH216085   3.407   0.093   0.445
 5374TIP3    H116086   3.322   0.077   0.486
 5374TIP3    H216087   3.471   0.058   0.507
 5375TIP3   OH216088   1.169   3.100   4.878
 5375TIP3    H116089   1.170   3.186   4.835
 5375TIP3    H216090   1.248   3.098   4.931
 5376TIP3   OH216091   0.048   0.639   1.195
 5376TIP3    H116092   0.009   0.669   1.113
 5376TIP3    H216093   0.030   0.545   1.197
 5377TIP3   OH216094   7.110   4.381   4.746
 5377TIP3    H116095   7.097   4.459   4.692
 5377TIP3    H216096   7.146   4.414   4.828
 5378TIP3   OH216097   0.060   4.268   5.783
 5378TIP3    H116098   0.093   4.206   5.848
 5378TIP3    H216099  -0.022   4.301   5.821
 5379TIP3   OH216100   6.792   1.286   0.409
 5379TIP3    H116101   6.851   1.340   0.461
 5379TIP3    H216102   6.834   1.281   0.323
 5380TIP3   OH216103   6.801   5.379   0.545
 5380TIP3    H116104   6.832   5.455   0.594
 5380TIP3    H216105   6.881   5.336   0.514
 5381TIP3   OH216106   0.195   5.316   2.772
 5381TIP3    H116107   0.261   5.316   2.842
 5381TIP3    H216108   0.140   5.392   2.792
 5382TIP3   OH216109   4.055   6.599   4.778
 5382TIP3    H116110   4.038   6.674   4.835
 5382TIP3    H216111   4.151   6.595   4.772
 5383TIP3   OH216112   1.995   3.081   1.770
 5383TIP3    H116113   2.033   3.017   1.831
 5383TIP3    H216114   1.990   3.034   1.686
 5384TIP3   OH216115   6.799   4.558   1.701
 5384TIP3    H116116   6.850   4.505   1.762
 5384TIP3    H216117   6.796   4.645   1.741
 5385TIP3   OH216118   3.589   1.871   5.097
 5385TIP3    H116119   3.556   1.959   5.117
 5385TIP3    H216120   3.684   1.878   5.108
 5386TIP3   OH216121   1.134   5.469   2.056
 5386TIP3    H116122   1.177   5.493   2.138
 5386TIP3    H216123   1.081   5.392   2.079
 5387TIP3   OH216124   5.218   5.261   0.925
 5387TIP3    H116125   5.199   5.194   0.859
 5387TIP3    H216126   5.237   5.212   1.005
 5388TIP3   OH216127   2.777   4.685   0.812
 5388TIP3    H116128   2.751   4.763   0.762
 5388TIP3    H216129   2.856   4.712   0.859
 5389TIP3   OH216130   6.499   2.661   5.132
 5389TIP3    H116131   6.430   2.722   5.159
 5389TIP3    H216132   6.458   2.575   5.135
 5390TIP3   OH216133   7.063   0.828   4.406
 5390TIP3    H116134   6.984   0.793   4.365
 5390TIP3    H216135   7.127   0.757   4.397
 5391TIP3   OH216136   6.330   4.267   2.475
 5391TIP3    H116137   6.337   4.206   2.549
 5391TIP3    H216138   6.236   4.281   2.464
 5392TIP3   OH216139   4.337   4.797   3.360
 5392TIP3    H116140   4.385   4.747   3.295
 5392TIP3    H216141   4.366   4.888   3.348
 5393TIP3   OH216142   2.261   1.328   1.692
 5393TIP3    H116143   2.347   1.295   1.663
 5393TIP3    H216144   2.199   1.287   1.632
 5394TIP3   OH216145   4.626   1.638   3.463
 5394TIP3    H116146   4.646   1.729   3.439
 5394TIP3    H216147   4.669   1.585   3.396
 5395TIP3   OH216148   0.354   3.847   3.916
 5395TIP3    H116149   0.439   3.850   3.960
 5395TIP3    H216150   0.295   3.894   3.975
 5396TIP3   OH216151   2.375   6.223   2.333
 5396TIP3    H116152   2.457   6.259   2.299
 5396TIP3    H216153   2.372   6.249   2.425
 5397TIP3   OH216154   6.280   1.847   1.180
 5397TIP3    H116155   6.279   1.836   1.085
 5397TIP3    H216156   6.357   1.901   1.198
 5398TIP3   OH216157   2.648   2.851   1.386
 5398TIP3    H116158   2.714   2.906   1.429
 5398TIP3    H216159   2.566   2.900   1.397
 5399TIP3   OH216160   7.166   4.070   1.640
 5399TIP3    H116161   7.088   4.121   1.618
 5399TIP3    H216162   7.183   4.016   1.563
 5400TIP3   OH216163   0.187   4.551   1.840
 5400TIP3    H116164   0.216   4.551   1.749
 5400TIP3    H216165   0.203   4.641   1.869
 5401TIP3   OH216166   5.146   0.134   3.421
 5401TIP3    H116167   5.181   0.223   3.422
 5401TIP3    H216168   5.071   0.138   3.362
 5402TIP3   OH216169   0.253   1.417   3.374
 5402TIP3    H116170   0.338   1.447   3.406
 5402TIP3    H216171   0.189   1.461   3.429
 5403TIP3   OH216172   1.902   6.447   5.229
 5403TIP3    H116173   1.974   6.508   5.246
 5403TIP3    H216174   1.918   6.373   5.288
 5404TIP3   OH216175   4.653   4.214   5.748
 5404TIP3    H116176   4.583   4.156   5.718
 5404TIP3    H216177   4.712   4.221   5.673
 5405TIP3   OH216178   7.117   5.576   0.025
 5405TIP3    H116179   7.191   5.621   0.066
 5405TIP3    H216180   7.156   5.525  -0.046
 5406TIP3   OH216181   0.556   4.892   2.919
 5406TIP3    H116182   0.573   4.958   2.852
 5406TIP3    H216183   0.484   4.840   2.885
 5407TIP3   OH216184   3.902   4.000   3.526
 5407TIP3    H116185   3.886   4.093   3.543
 5407TIP3    H216186   3.918   3.995   3.432
 5408TIP3   OH216187   0.107   0.055   2.316
 5408TIP3    H116188   0.182   0.003   2.344
 5408TIP3    H216189   0.079   0.101   2.396
 5409TIP3   OH216190   0.182   6.236   0.518
 5409TIP3    H116191   0.234   6.161   0.547
 5409TIP3    H216192   0.100   6.197   0.488
 5410TIP3   OH216193   4.248   0.093   2.803
 5410TIP3    H116194   4.211   0.111   2.717
 5410TIP3    H216195   4.237   0.174   2.852
 5411TIP3   OH216196   3.379   0.616   3.649
 5411TIP3    H116197   3.291   0.597   3.615
 5411TIP3    H216198   3.438   0.598   3.576
 5412TIP3   OH216199   2.583   1.790   2.185
 5412TIP3    H116200   2.520   1.853   2.219
 5412TIP3    H216201   2.542   1.757   2.104
 5413TIP3   OH216202   2.507   6.578   5.117
 5413TIP3    H116203   2.504   6.642   5.046
 5413TIP3    H216204   2.421   6.537   5.116
 5414TIP3   OH216205   4.922   2.183   1.461
 5414TIP3    H116206   4.867   2.154   1.388
 5414TIP3    H216207   4.866   2.173   1.538
 5415TIP3   OH216208   4.423   1.349   2.331
 5415TIP3    H116209   4.447   1.267   2.373
 5415TIP3    H216210   4.382   1.401   2.401
 5416TIP3   OH216211   4.857   4.845   5.021
 5416TIP3    H116212   4.845   4.781   4.951
 5416TIP3    H216213   4.920   4.805   5.081
 5417TIP3   OH216214   4.832   5.144   5.643
 5417TIP3    H116215   4.875   5.092   5.711
 5417TIP3    H216216   4.880   5.227   5.642
 5418TIP3   OH216217   6.365   1.057   0.405
 5418TIP3    H116218   6.327   1.000   0.338
 5418TIP3    H216219   6.302   1.129   0.413
 5419TIP3   OH216220   1.991   5.605   2.310
 5419TIP3    H116221   2.023   5.519   2.340
 5419TIP3    H216222   1.933   5.584   2.237
 5420TIP3   OH216223   3.859   3.231   2.340
 5420TIP3    H116224   3.935   3.254   2.287
 5420TIP3    H216225   3.867   3.136   2.353
 5421TIP3   OH216226   7.154   2.442   4.536
 5421TIP3    H116227   7.213   2.420   4.464
 5421TIP3    H216228   7.212   2.452   4.612
 5422TIP3   OH216229   6.767   5.480   4.257
 5422TIP3    H116230   6.770   5.516   4.346
 5422TIP3    H216231   6.778   5.385   4.269
 5423TIP3   OH216232   4.463   0.372   4.782
 5423TIP3    H116233   4.532   0.415   4.732
 5423TIP3    H216234   4.478   0.400   4.873
 5424TIP3   OH216235   1.150   1.559   4.429
 5424TIP3    H116236   1.178   1.482   4.478
 5424TIP3    H216237   1.216   1.567   4.359
 5425TIP3   OH216238   3.634   6.587   1.784
 5425TIP3    H116239   3.701   6.529   1.749
 5425TIP3    H216240   3.562   6.581   1.721
 5426TIP3   OH216241   3.516   6.449   3.996
 5426TIP3    H116242   3.577   6.389   4.040
 5426TIP3    H216243   3.561   6.474   3.916
 5427TIP3   OH216244   3.533   1.014   1.111
 5427TIP3    H116245   3.533   0.924   1.144
 5427TIP3    H216246   3.593   1.061   1.170
 5428TIP3   OH216247   3.796   3.924   0.123
 5428TIP3    H116248   3.870   3.890   0.072
 5428TIP3    H216249   3.769   3.850   0.177
 5429TIP3   OH216250   2.461   5.357   0.300
 5429TIP3    H116251   2.482   5.450   0.305
 5429TIP3    H216252   2.377   5.354   0.254
 5430TIP3   OH216253   5.540   0.938   3.701
 5430TIP3    H116254   5.472   0.880   3.734
 5430TIP3    H216255   5.493   1.014   3.666
 5431TIP3   OH216256   6.274   6.322   1.341
 5431TIP3    H116257   6.357   6.302   1.384
 5431TIP3    H216258   6.272   6.417   1.336
 5432TIP3   OH216259   2.635   3.557   2.899
 5432TIP3    H116260   2.622   3.607   2.818
 5432TIP3    H216261   2.572   3.595   2.961
 5433TIP3   OH216262   0.393   3.604   0.453
 5433TIP3    H116263   0.330   3.594   0.524
 5433TIP3    H216264   0.469   3.645   0.493
 5434TIP3   OH216265   6.727   1.184   5.417
 5434TIP3    H116266   6.700   1.093   5.430
 5434TIP3    H216267   6.770   1.209   5.499
 5435TIP3   OH216268   0.801   2.888   4.391
 5435TIP3    H116269   0.825   2.855   4.305
 5435TIP3    H216270   0.706   2.876   4.396
 5436TIP3   OH216271   2.358   1.292   1.259
 5436TIP3    H116272   2.441   1.337   1.243
 5436TIP3    H216273   2.295   1.362   1.274
 5437TIP3   OH216274   6.425   4.743   0.133
 5437TIP3    H116275   6.515   4.726   0.103
 5437TIP3    H216276   6.382   4.658   0.129
 5438TIP3   OH216277   2.275   0.682   1.865
 5438TIP3    H116278   2.287   0.774   1.891
 5438TIP3    H216279   2.261   0.686   1.770
 5439TIP3   OH216280   3.942   1.719   0.714
 5439TIP3    H116281   4.007   1.659   0.749
 5439TIP3    H216282   3.981   1.752   0.633
 5440TIP3   OH216283   6.213   2.255   2.680
 5440TIP3    H116284   6.263   2.323   2.726
 5440TIP3    H216285   6.249   2.173   2.712
 5441TIP3   OH216286   4.980   0.835   2.822
 5441TIP3    H116287   4.921   0.779   2.772
 5441TIP3    H216288   4.989   0.914   2.768
 5442TIP3   OH216289   7.098   1.921   2.508
 5442TIP3    H116290   7.092   2.006   2.552
 5442TIP3    H216291   7.021   1.873   2.539
 5443TIP3   OH216292   3.969   1.409   5.568
 5443TIP3    H116293   4.034   1.448   5.509
 5443TIP3    H216294   3.982   1.453   5.652
 5444TIP3   OH216295   0.706   4.364   2.872
 5444TIP3    H116296   0.740   4.452   2.891
 5444TIP3    H216297   0.682   4.329   2.958
 5445TIP3   OH216298   2.804   3.420   4.583
 5445TIP3    H116299   2.814   3.453   4.673
 5445TIP3    H216300   2.892   3.397   4.556
 5446TIP3   OH216301   1.922   0.659   4.727
 5446TIP3    H116302   1.844   0.605   4.734
 5446TIP3    H216303   1.984   0.621   4.789
 5447TIP3   OH216304   0.354   1.519   4.091
 5447TIP3    H116305   0.349   1.601   4.140
 5447TIP3    H216306   0.356   1.546   3.999
 5448TIP3   OH216307   0.979   5.567   0.313
 5448TIP3    H116308   1.062   5.608   0.336
 5448TIP3    H216309   1.003   5.484   0.272
 5449TIP3   OH216310   2.446   4.342   4.028
 5449TIP3    H116311   2.422   4.266   4.081
 5449TIP3    H216312   2.365   4.367   3.984
 5450TIP3   OH216313   3.268   3.881   3.874
 5450TIP3    H116314   3.181   3.916   3.894
 5450TIP3    H216315   3.252   3.810   3.812
 5451TIP3   OH216316   4.926   6.302   2.639
 5451TIP3    H116317   4.987   6.235   2.668
 5451TIP3    H216318   4.981   6.379   2.622
 5452TIP3   OH216319   1.901   0.480   5.630
 5452TIP3    H116320   1.974   0.530   5.594
 5452TIP3    H216321   1.863   0.537   5.697
 5453TIP3   OH216322   4.550   2.381   2.681
 5453TIP3    H116323   4.614   2.311   2.672
 5453TIP3    H216324   4.593   2.446   2.737
 5454TIP3   OH216325   4.429   6.685   4.902
 5454TIP3    H116326   4.378   6.615   4.943
 5454TIP3    H216327   4.423   6.668   4.808
 5455TIP3   OH216328   3.040   1.297   1.302
 5455TIP3    H116329   3.112   1.287   1.364
 5455TIP3    H216330   3.065   1.241   1.228
 5456TIP3   OH216331   0.515   1.122   2.250
 5456TIP3    H116332   0.543   1.192   2.309
 5456TIP3    H216333   0.486   1.052   2.309
 5457TIP3   OH216334   1.856   5.581   3.592
 5457TIP3    H116335   1.849   5.540   3.506
 5457TIP3    H216336   1.852   5.675   3.574
 5458TIP3   OH216337   2.633   1.183   2.003
 5458TIP3    H116338   2.668   1.201   1.916
 5458TIP3    H216339   2.701   1.132   2.047
 5459TIP3   OH216340   3.868   3.238   3.728
 5459TIP3    H116341   3.789   3.242   3.782
 5459TIP3    H216342   3.882   3.328   3.699
 5460TIP3   OH216343   2.276   2.161   4.150
 5460TIP3    H116344   2.245   2.139   4.238
 5460TIP3    H216345   2.354   2.215   4.164
 5461TIP3   OH216346   2.111   4.437   4.720
 5461TIP3    H116347   2.110   4.532   4.707
 5461TIP3    H216348   2.164   4.425   4.799
 5462TIP3   OH216349   4.380   2.258   1.294
 5462TIP3    H116350   4.348   2.312   1.223
 5462TIP3    H216351   4.418   2.319   1.357
 5463TIP3   OH216352   2.747   2.459   1.745
 5463TIP3    H116353   2.743   2.503   1.830
 5463TIP3    H216354   2.658   2.428   1.730
 5464TIP3   OH216355   5.355   6.536   0.432
 5464TIP3    H116356   5.313   6.581   0.359
 5464TIP3    H216357   5.346   6.443   0.410
 5465TIP3   OH216358   0.938   6.133   3.608
 5465TIP3    H116359   0.937   6.228   3.618
 5465TIP3    H216360   0.930   6.100   3.698
 5466TIP3   OH216361   3.901   0.188   0.527
 5466TIP3    H116362   3.838   0.157   0.591
 5466TIP3    H216363   3.940   0.266   0.567
 5467TIP3   OH216364   0.133   6.013   1.102
 5467TIP3    H116365   0.224   6.030   1.124
 5467TIP3    H216366   0.083   6.069   1.161
 5468TIP3   OH216367   0.195   0.626   5.031
 5468TIP3    H116368   0.253   0.694   4.998
 5468TIP3    H216369   0.107   0.658   5.013
 5469TIP3   OH216370   4.872   5.187   0.723
 5469TIP3    H116371   4.790   5.161   0.681
 5469TIP3    H216372   4.873   5.283   0.715
 5470TIP3   OH216373   6.307   4.633   3.287
 5470TIP3    H116374   6.301   4.584   3.369
 5470TIP3    H216375   6.388   4.600   3.246
 5471TIP3   OH216376   5.359   2.854   2.539
 5471TIP3    H116377   5.342   2.938   2.582
 5471TIP3    H216378   5.405   2.801   2.605
 5472TIP3   OH216379   2.417   5.824   5.097
 5472TIP3    H116380   2.392   5.915   5.088
 5472TIP3    H216381   2.512   5.824   5.092
 5473TIP3   OH216382   5.888   3.672   5.849
 5473TIP3    H116383   5.929   3.589   5.824
 5473TIP3    H216384   5.886   3.670   5.945
 5474TIP3   OH216385   2.452   0.608   4.155
 5474TIP3    H116386   2.501   0.617   4.073
 5474TIP3    H216387   2.516   0.627   4.224
 5475TIP3   OH216388   6.734   2.956   1.458
 5475TIP3    H116389   6.807   2.925   1.404
 5475TIP3    H216390   6.767   2.951   1.548
 5476TIP3   OH216391   3.893   6.755   1.539
 5476TIP3    H116392   3.839   6.691   1.494
 5476TIP3    H216393   3.936   6.706   1.609
 5477TIP3   OH216394   3.100   6.795   4.445
 5477TIP3    H116395   3.155   6.734   4.395
 5477TIP3    H216396   3.163   6.847   4.496
 5478TIP3   OH216397   6.013   6.815   4.880
 5478TIP3    H116398   5.997   6.724   4.854
 5478TIP3    H216399   6.085   6.844   4.824
 5479TIP3   OH216400   1.808   1.400   2.348
 5479TIP3    H116401   1.768   1.378   2.433
 5479TIP3    H216402   1.735   1.430   2.294
 5480TIP3   OH216403   5.791   4.465   1.668
 5480TIP3    H116404   5.701   4.433   1.676
 5480TIP3    H216405   5.805   4.517   1.747
 5481TIP3   OH216406   0.009   0.504   0.437
 5481TIP3    H116407   0.078   0.474   0.496
 5481TIP3    H216408  -0.054   0.431   0.434
 5482TIP3   OH216409   6.542   4.493   5.360
 5482TIP3    H116410   6.484   4.417   5.356
 5482TIP3    H216411   6.483   4.568   5.365
 5483TIP3   OH216412   2.357   6.216   3.889
 5483TIP3    H116413   2.315   6.273   3.825
 5483TIP3    H216414   2.421   6.272   3.932
 5484TIP3   OH216415   3.866   4.027   3.885
 5484TIP3    H116416   3.777   3.997   3.864
 5484TIP3    H216417   3.879   4.104   3.829
 5485TIP3   OH216418   2.453   1.147   2.732
 5485TIP3    H116419   2.458   1.187   2.645
 5485TIP3    H216420   2.489   1.060   2.720
 5486TIP3   OH216421   1.021   1.269   1.664
 5486TIP3    H116422   1.007   1.362   1.648
 5486TIP3    H216423   1.104   1.249   1.621
 5487TIP3   OH216424   1.369   4.685   0.843
 5487TIP3    H116425   1.383   4.602   0.797
 5487TIP3    H216426   1.335   4.744   0.776
 5488TIP3   OH216427   4.942   4.154   2.638
 5488TIP3    H116428   5.029   4.146   2.599
 5488TIP3    H216429   4.958   4.194   2.724
 5489TIP3   OH216430   2.340   4.145   3.463
 5489TIP3    H116431   2.320   4.142   3.557
 5489TIP3    H216432   2.275   4.088   3.423
 5490TIP3   OH216433   5.304   4.086   0.338
 5490TIP3    H116434   5.248   4.029   0.391
 5490TIP3    H216435   5.348   4.026   0.277
 5491TIP3   OH216436   0.970   3.036   2.922
 5491TIP3    H116437   0.889   3.008   2.877
 5491TIP3    H216438   0.949   3.030   3.015
 5492TIP3   OH216439   4.402   5.709   4.754
 5492TIP3    H116440   4.396   5.735   4.846
 5492TIP3    H216441   4.483   5.749   4.723
 5493TIP3   OH216442   2.721   5.490   1.672
 5493TIP3    H116443   2.697   5.400   1.693
 5493TIP3    H216444   2.637   5.533   1.652
 5494TIP3   OH216445   0.356   2.610   3.894
 5494TIP3    H116446   0.360   2.528   3.845
 5494TIP3    H216447   0.403   2.591   3.976
 5495TIP3   OH216448   5.788   1.044   4.812
 5495TIP3    H116449   5.860   0.992   4.776
 5495TIP3    H216450   5.830   1.121   4.849
 5496TIP3   OH216451   3.059   2.354   2.647
 5496TIP3    H116452   3.122   2.323   2.712
 5496TIP3    H216453   2.974   2.350   2.691
 5497TIP3   OH216454   6.679   4.585   2.008
 5497TIP3    H116455   6.753   4.635   1.975
 5497TIP3    H216456   6.648   4.535   1.933
 5498TIP3   OH216457   5.079   0.547   3.666
 5498TIP3    H116458   5.058   0.570   3.757
 5498TIP3    H216459   5.150   0.483   3.674
 5499TIP3   OH216460   4.537   6.258   4.172
 5499TIP3    H116461   4.466   6.297   4.223
 5499TIP3    H216462   4.579   6.332   4.128
 5500TIP3   OH216463   4.156   0.411   4.006
 5500TIP3    H116464   4.075   0.444   4.045
 5500TIP3    H216465   4.175   0.471   3.934
 5501TIP3   OH216466   0.615   1.452   2.193
 5501TIP3    H116467   0.551   1.452   2.122
 5501TIP3    H216468   0.695   1.418   2.154
 5502TIP3   OH216469   4.169   2.899   5.389
 5502TIP3    H116470   4.152   2.967   5.324
 5502TIP3    H216471   4.263   2.904   5.405
 5503TIP3   OH216472   2.190   0.867   2.850
 5503TIP3    H116473   2.101   0.859   2.815
 5503TIP3    H216474   2.229   0.781   2.835
 5504TIP3   OH216475   5.441   5.084   4.513
 5504TIP3    H116476   5.446   5.124   4.426
 5504TIP3    H216477   5.418   4.993   4.496
 5505TIP3   OH216478   5.290   3.294   1.183
 5505TIP3    H116479   5.369   3.344   1.204
 5505TIP3    H216480   5.318   3.230   1.118
 5506TIP3   OH216481   6.339   3.223   3.790
 5506TIP3    H116482   6.424   3.188   3.817
 5506TIP3    H216483   6.275   3.167   3.831
 5507TIP3   OH216484   2.188   3.623   1.878
 5507TIP3    H116485   2.261   3.568   1.906
 5507TIP3    H216486   2.209   3.710   1.913
 5508TIP3   OH216487   5.191   6.459   1.129
 5508TIP3    H116488   5.234   6.419   1.053
 5508TIP3    H216489   5.196   6.553   1.112
 5509TIP3   OH216490   5.485   4.098   2.241
 5509TIP3    H116491   5.506   4.015   2.200
 5509TIP3    H216492   5.568   4.130   2.276
 5510TIP3   OH216493   1.152   2.529   5.187
 5510TIP3    H116494   1.194   2.448   5.216
 5510TIP3    H216495   1.207   2.599   5.223
 5511TIP3   OH216496   5.217   1.765   3.765
 5511TIP3    H116497   5.171   1.681   3.761
 5511TIP3    H216498   5.272   1.766   3.686
 5512TIP3   OH216499   6.910   0.088   1.874
 5512TIP3    H116500   6.947   0.120   1.792
 5512TIP3    H216501   6.986   0.075   1.931
 5513TIP3   OH216502   5.504   0.951   1.038
 5513TIP3    H116503   5.468   0.904   1.113
 5513TIP3    H216504   5.584   0.904   1.016
 5514TIP3   OH216505   7.116   1.091   1.590
 5514TIP3    H116506   7.190   1.144   1.619
 5514TIP3    H216507   7.148   1.001   1.596
 5515TIP3   OH216508   2.206   0.124   3.586
 5515TIP3    H116509   2.176   0.033   3.586
 5515TIP3    H216510   2.237   0.139   3.497
 5516TIP3   OH216511   1.763   0.840   0.324
 5516TIP3    H116512   1.718   0.888   0.255
 5516TIP3    H216513   1.716   0.757   0.332
 5517TIP3   OH216514   5.678   4.016   5.220
 5517TIP3    H116515   5.583   4.024   5.215
 5517TIP3    H216516   5.711   4.089   5.166
 5518TIP3   OH216517   0.943   1.981   0.988
 5518TIP3    H116518   0.861   1.933   0.999
 5518TIP3    H216519   0.980   1.985   1.076
 5519TIP3   OH216520   5.913   2.329   3.006
 5519TIP3    H116521   5.945   2.275   3.078
 5519TIP3    H216522   5.974   2.402   3.001
 5520TIP3   OH216523   3.279   3.082   1.567
 5520TIP3    H116524   3.241   3.104   1.652
 5520TIP3    H216525   3.351   3.145   1.556
 5521TIP3   OH216526   6.493   0.076   2.059
 5521TIP3    H116527   6.575   0.121   2.038
 5521TIP3    H216528   6.424   0.134   2.025
 5522TIP3   OH216529   3.573   1.163   0.851
 5522TIP3    H116530   3.576   1.121   0.937
 5522TIP3    H216531   3.582   1.091   0.789
 5523TIP3   OH216532   0.931   2.204   5.829
 5523TIP3    H116533   0.918   2.140   5.759
 5523TIP3    H216534   1.020   2.187   5.861
 5524TIP3   OH216535   0.765   3.617   4.566
 5524TIP3    H116536   0.791   3.704   4.536
 5524TIP3    H216537   0.783   3.559   4.492
 5525TIP3   OH216538   4.519   2.690   0.866
 5525TIP3    H116539   4.508   2.737   0.783
 5525TIP3    H216540   4.443   2.717   0.919
 5526TIP3   OH216541   6.564   4.072   5.124
 5526TIP3    H116542   6.615   3.998   5.091
 5526TIP3    H216543   6.508   4.035   5.191
 5527TIP3   OH216544   2.711   6.476   4.869
 5527TIP3    H116545   2.704   6.566   4.836
 5527TIP3    H216546   2.743   6.426   4.794
 5528TIP3   OH216547   3.200   1.283   3.686
 5528TIP3    H116548   3.280   1.334   3.674
 5528TIP3    H216549   3.222   1.220   3.754
 5529TIP3   OH216550   1.678   4.845   4.997
 5529TIP3    H116551   1.616   4.824   5.066
 5529TIP3    H216552   1.690   4.762   4.950
 5530TIP3   OH216553   2.298   4.594   3.846
 5530TIP3    H116554   2.242   4.518   3.832
 5530TIP3    H216555   2.295   4.642   3.763
 5531TIP3   OH216556   4.378   1.868   1.597
 5531TIP3    H116557   4.468   1.875   1.568
 5531TIP3    H216558   4.381   1.890   1.690
 5532TIP3   OH216559   3.019   5.108   1.383
 5532TIP3    H116560   3.051   5.031   1.430
 5532TIP3    H216561   2.976   5.161   1.449
 5533TIP3   OH216562   6.248   0.446   5.375
 5533TIP3    H116563   6.241   0.384   5.448
 5533TIP3    H216564   6.187   0.411   5.309
 5534TIP3   OH216565   3.697   4.280   0.861
 5534TIP3    H116566   3.712   4.373   0.844
 5534TIP3    H216567   3.608   4.275   0.894
 5535TIP3   OH216568   4.900   4.801   0.829
 5535TIP3    H116569   4.929   4.738   0.895
 5535TIP3    H216570   4.892   4.884   0.877
 5536TIP3   OH216571   0.987   2.029   2.350
 5536TIP3    H116572   0.920   2.082   2.393
 5536TIP3    H216573   0.968   2.036   2.257
 5537TIP3   OH216574   0.503   0.323   2.681
 5537TIP3    H116575   0.526   0.333   2.774
 5537TIP3    H216576   0.585   0.341   2.634
 5538TIP3   OH216577   4.354   4.920   4.176
 5538TIP3    H116578   4.382   5.008   4.149
 5538TIP3    H216579   4.322   4.879   4.096
 5539TIP3   OH216580   5.711   6.007   0.370
 5539TIP3    H116581   5.624   5.972   0.353
 5539TIP3    H216582   5.723   6.075   0.303
 5540TIP3   OH216583   2.262   4.093   4.531
 5540TIP3    H116584   2.241   4.046   4.612
 5540TIP3    H216585   2.354   4.115   4.540
 5541TIP3   OH216586   7.201   1.096   5.098
 5541TIP3    H116587   7.207   1.159   5.026
 5541TIP3    H216588   7.157   1.020   5.059
 5542TIP3   OH216589   1.188   0.639   2.133
 5542TIP3    H116590   1.214   0.678   2.049
 5542TIP3    H216591   1.112   0.689   2.161
 5543TIP3   OH216592   7.033   2.171   1.088
 5543TIP3    H116593   6.940   2.162   1.068
 5543TIP3    H216594   7.043   2.263   1.114
 5544TIP3   OH216595   6.871   1.388   3.588
 5544TIP3    H116596   6.894   1.427   3.504
 5544TIP3    H216597   6.894   1.454   3.653
 5545TIP3   OH216598   2.528   1.557   4.733
 5545TIP3    H116599   2.595   1.620   4.758
 5545TIP3    H216600   2.547   1.479   4.786
 5546TIP3   OH216601   3.619   3.636   2.865
 5546TIP3    H116602   3.641   3.644   2.957
 5546TIP3    H216603   3.665   3.709   2.823
 5547TIP3   OH216604   4.800   5.036   3.892
 5547TIP3    H116605   4.741   5.013   3.964
 5547TIP3    H216606   4.752   5.100   3.840
 5548TIP3   OH216607   1.447   2.822   4.936
 5548TIP3    H116608   1.398   2.889   4.983
 5548TIP3    H216609   1.497   2.776   5.003
 5549TIP3   OH216610   3.196   4.412   2.191
 5549TIP3    H116611   3.156   4.486   2.145
 5549TIP3    H216612   3.276   4.394   2.142
 5550TIP3   OH216613   6.110   4.702   4.690
 5550TIP3    H116614   6.190   4.687   4.740
 5550TIP3    H216615   6.132   4.675   4.601
 5551TIP3   OH216616   2.248   4.029   3.994
 5551TIP3    H116617   2.154   4.046   3.999
 5551TIP3    H216618   2.279   4.043   4.084
 5552TIP3   OH216619   7.169   5.894   4.139
 5552TIP3    H116620   7.097   5.857   4.190
 5552TIP3    H216621   7.177   5.837   4.063
 5553TIP3   OH216622   6.440   0.530   4.730
 5553TIP3    H116623   6.440   0.517   4.636
 5553TIP3    H216624   6.348   0.536   4.754
 5554TIP3   OH216625   4.948   0.275   1.089
 5554TIP3    H116626   4.938   0.259   0.995
 5554TIP3    H216627   5.042   0.263   1.105
 5555TIP3   OH216628   2.346   5.071   4.468
 5555TIP3    H116629   2.431   5.068   4.513
 5555TIP3    H216630   2.367   5.049   4.377
 5556TIP3   OH216631   3.758   1.938   3.181
 5556TIP3    H116632   3.815   2.011   3.204
 5556TIP3    H216633   3.670   1.971   3.199
 5557TIP3   OH216634   2.135   2.566   5.360
 5557TIP3    H116635   2.111   2.586   5.451
 5557TIP3    H216636   2.091   2.633   5.308
 5558TIP3   OH216637   2.500   5.191   2.171
 5558TIP3    H116638   2.496   5.265   2.231
 5558TIP3    H216639   2.584   5.149   2.189
 5559TIP3   OH216640   2.182   4.821   2.854
 5559TIP3    H116641   2.119   4.842   2.923
 5559TIP3    H216642   2.265   4.810   2.900
 5560TIP3   OH216643   0.280   2.148   4.013
 5560TIP3    H116644   0.236   2.072   4.050
 5560TIP3    H216645   0.211   2.214   4.006
 5561TIP3   OH216646   1.057   1.806   4.134
 5561TIP3    H116647   1.098   1.885   4.170
 5561TIP3    H216648   1.128   1.761   4.089
 5562TIP3   OH216649   3.052   4.171   0.561
 5562TIP3    H116650   3.077   4.144   0.650
 5562TIP3    H216651   3.127   4.147   0.507
 5563TIP3   OH216652   5.121   4.239   3.267
 5563TIP3    H116653   5.125   4.318   3.321
 5563TIP3    H216654   5.204   4.237   3.221
 5564TIP3   OH216655   3.579   4.109   0.209
 5564TIP3    H116656   3.634   4.038   0.175
 5564TIP3    H216657   3.630   4.189   0.193
 5565TIP3   OH216658   5.964   4.343   0.335
 5565TIP3    H116659   6.036   4.365   0.395
 5565TIP3    H216660   5.955   4.248   0.341
 5566TIP3   OH216661   5.588   4.964   3.104
 5566TIP3    H116662   5.655   4.980   3.170
 5566TIP3    H216663   5.629   4.990   3.021
 5567TIP3   OH216664   6.695   0.884   4.622
 5567TIP3    H116665   6.663   0.955   4.566
 5567TIP3    H216666   6.729   0.819   4.560
 5568TIP3   OH216667   0.410   4.899   3.700
 5568TIP3    H116668   0.364   4.821   3.731
 5568TIP3    H216669   0.406   4.893   3.604
 5569TIP3   OH216670   5.429   0.300   1.973
 5569TIP3    H116671   5.352   0.357   1.966
 5569TIP3    H216672   5.487   0.330   1.904
 5570TIP3   OH216673   3.479   5.370   2.116
 5570TIP3    H116674   3.436   5.295   2.073
 5570TIP3    H216675   3.406   5.425   2.144
 5571TIP3   OH216676   2.921   1.598   0.628
 5571TIP3    H116677   3.008   1.637   0.623
 5571TIP3    H216678   2.861   1.673   0.623
 5572TIP3   OH216679   2.157   5.359   3.595
 5572TIP3    H116680   2.162   5.440   3.646
 5572TIP3    H216681   2.141   5.388   3.505
 5573TIP3   OH216682   5.189   4.848   5.800
 5573TIP3    H116683   5.154   4.759   5.810
 5573TIP3    H216684   5.284   4.837   5.805
 5574TIP3   OH216685   6.949   1.478   3.025
 5574TIP3    H116686   6.954   1.554   3.083
 5574TIP3    H216687   6.868   1.490   2.977
 5575TIP3   OH216688   5.022   2.141   3.660
 5575TIP3    H116689   4.994   2.050   3.666
 5575TIP3    H216690   5.103   2.139   3.610
 5576TIP3   OH216691   2.222   5.387   4.731
 5576TIP3    H116692   2.312   5.372   4.704
 5576TIP3    H216693   2.201   5.315   4.790
 5577TIP3   OH216694   0.226   4.155   1.691
 5577TIP3    H116695   0.146   4.107   1.671
 5577TIP3    H216696   0.290   4.122   1.627
 5578TIP3   OH216697   5.147   6.027   3.229
 5578TIP3    H116698   5.116   6.009   3.317
 5578TIP3    H216699   5.075   6.074   3.187
 5579TIP3   OH216700   1.035   4.312   2.175
 5579TIP3    H116701   1.029   4.245   2.108
 5579TIP3    H216702   1.078   4.269   2.249
 5580TIP3   OH216703   6.339   2.509   5.654
 5580TIP3    H116704   6.374   2.553   5.577
 5580TIP3    H216705   6.245   2.502   5.637
 5581TIP3   OH216706   5.732   3.322   3.668
 5581TIP3    H116707   5.676   3.396   3.694
 5581TIP3    H216708   5.769   3.349   3.584
 5582TIP3   OH216709   6.690   4.278   3.046
 5582TIP3    H116710   6.595   4.271   3.039
 5582TIP3    H216711   6.722   4.271   2.956
 5583TIP3   OH216712   4.133   0.186   3.828
 5583TIP3    H116713   4.124   0.258   3.891
 5583TIP3    H216714   4.111   0.108   3.877
 5584TIP3   OH216715   1.388   0.295   3.725
 5584TIP3    H116716   1.461   0.350   3.752
 5584TIP3    H216717   1.324   0.301   3.797
 5585TIP3   OH216718   2.283   6.269   1.958
 5585TIP3    H116719   2.251   6.205   2.021
 5585TIP3    H216720   2.350   6.319   2.005
 5586TIP3   OH216721   2.505   5.022   4.164
 5586TIP3    H116722   2.591   5.008   4.124
 5586TIP3    H216723   2.455   4.944   4.140
 5587TIP3   OH216724   1.667   1.915   4.196
 5587TIP3    H116725   1.684   1.827   4.229
 5587TIP3    H216726   1.677   1.908   4.102
 5588TIP3   OH216727   6.087   3.225   3.008
 5588TIP3    H116728   6.178   3.250   2.992
 5588TIP3    H216729   6.048   3.218   2.921
 5589TIP3   OH216730   5.091   0.806   4.429
 5589TIP3    H116731   5.084   0.892   4.471
 5589TIP3    H216732   5.171   0.769   4.466
 5590TIP3   OH216733   1.015   1.550   1.590
 5590TIP3    H116734   0.988   1.631   1.632
 5590TIP3    H216735   1.105   1.566   1.561
 5591TIP3   OH216736   1.774   5.542   3.328
 5591TIP3    H116737   1.765   5.598   3.251
 5591TIP3    H216738   1.684   5.523   3.354
 5592TIP3   OH216739   1.939   0.316   1.164
 5592TIP3    H116740   1.931   0.325   1.259
 5592TIP3    H216741   1.944   0.406   1.132
 5593TIP3   OH216742   2.765   1.978   2.038
 5593TIP3    H116743   2.857   1.966   2.062
 5593TIP3    H216744   2.717   1.919   2.097
 5594TIP3   OH216745   1.477   6.182   5.423
 5594TIP3    H116746   1.417   6.116   5.457
 5594TIP3    H216747   1.535   6.133   5.364
 5595TIP3   OH216748   5.091   3.414   4.345
 5595TIP3    H116749   5.167   3.379   4.299
 5595TIP3    H216750   5.017   3.367   4.308
 5596TIP3   OH216751   0.809   2.758   3.052
 5596TIP3    H116752   0.791   2.830   2.992
 5596TIP3    H216753   0.796   2.679   3.000
 5597TIP3   OH216754   0.353   6.054   3.215
 5597TIP3    H116755   0.420   6.019   3.273
 5597TIP3    H216756   0.377   6.146   3.202
 5598TIP3   OH216757   0.198   3.139   2.431
 5598TIP3    H116758   0.187   3.222   2.383
 5598TIP3    H216759   0.286   3.145   2.469
 5599TIP3   OH216760   2.497   0.433   2.441
 5599TIP3    H116761   2.469   0.524   2.449
 5599TIP3    H216762   2.415   0.384   2.437
 5600TIP3   OH216763   0.519   0.654   3.776
 5600TIP3    H116764   0.601   0.615   3.807
 5600TIP3    H216765   0.493   0.714   3.846
 5601TIP3   OH216766   4.438   1.088   2.430
 5601TIP3    H116767   4.485   1.066   2.510
 5601TIP3    H216768   4.424   1.004   2.386
 5602TIP3   OH216769   6.482   6.012   0.522
 5602TIP3    H116770   6.426   6.050   0.455
 5602TIP3    H216771   6.460   6.061   0.602
 5603TIP3   OH216772   3.733   5.046   4.111
 5603TIP3    H116773   3.755   5.071   4.200
 5603TIP3    H216774   3.813   5.063   4.060
 5604TIP3   OH216775   3.443   6.036   1.503
 5604TIP3    H116776   3.494   5.956   1.517
 5604TIP3    H216777   3.376   6.034   1.570
 5605TIP3   OH216778   0.248   3.341   3.459
 5605TIP3    H116779   0.207   3.343   3.545
 5605TIP3    H216780   0.289   3.255   3.454
 5606TIP3   OH216781   5.803   2.908   3.255
 5606TIP3    H116782   5.851   2.986   3.227
 5606TIP3    H216783   5.826   2.841   3.191
 5607TIP3   OH216784   1.037   3.863   5.722
 5607TIP3    H116785   0.952   3.875   5.678
 5607TIP3    H216786   1.019   3.882   5.814
 5608TIP3   OH216787   2.931   1.034   1.758
 5608TIP3    H116788   2.973   0.977   1.823
 5608TIP3    H216789   2.956   0.996   1.674
 5609TIP3   OH216790   6.933   3.008   4.395
 5609TIP3    H116791   6.867   2.956   4.442
 5609TIP3    H216792   7.006   3.015   4.456
 5610TIP3   OH216793   3.643   3.501   5.052
 5610TIP3    H116794   3.664   3.557   4.977
 5610TIP3    H216795   3.724   3.497   5.103
 5611TIP3   OH216796   0.400   2.129   2.458
 5611TIP3    H116797   0.445   2.045   2.455
 5611TIP3    H216798   0.470   2.194   2.464
 5612TIP3   OH216799   1.153   2.350   0.468
 5612TIP3    H116800   1.156   2.367   0.374
 5612TIP3    H216801   1.238   2.378   0.501
 5613TIP3   OH216802   5.351   4.379   3.192
 5613TIP3    H116803   5.371   4.442   3.261
 5613TIP3    H216804   5.374   4.294   3.230
 5614TIP3   OH216805   5.248   6.011   4.505
 5614TIP3    H116806   5.199   5.928   4.502
 5614TIP3    H216807   5.216   6.055   4.583
 5615TIP3   OH216808   1.803   1.256   1.590
 5615TIP3    H116809   1.781   1.174   1.547
 5615TIP3    H216810   1.737   1.266   1.659
 5616TIP3   OH216811   1.048   4.673   0.212
 5616TIP3    H116812   0.959   4.659   0.181
 5616TIP3    H216813   1.061   4.604   0.277
 5617TIP3   OH216814   4.086   3.720   0.256
 5617TIP3    H116815   4.149   3.789   0.274
 5617TIP3    H216816   4.006   3.748   0.301
 5618TIP3   OH216817   0.351   5.773   2.606
 5618TIP3    H116818   0.440   5.794   2.575
 5618TIP3    H216819   0.351   5.678   2.616
 5619TIP3   OH216820   5.392   6.515   2.414
 5619TIP3    H116821   5.304   6.485   2.440
 5619TIP3    H216822   5.417   6.457   2.342
 5620TIP3   OH216823   6.385   1.036   0.690
 5620TIP3    H116824   6.410   0.944   0.694
 5620TIP3    H216825   6.393   1.059   0.597
 5621TIP3   OH216826   3.980   6.693   5.186
 5621TIP3    H116827   3.922   6.752   5.138
 5621TIP3    H216828   4.004   6.741   5.265
 5622TIP3   OH216829   1.896   1.029   3.663
 5622TIP3    H116830   1.932   0.964   3.603
 5622TIP3    H216831   1.807   1.044   3.633
 5623TIP3   OH216832   4.295   1.773   5.001
 5623TIP3    H116833   4.378   1.747   4.962
 5623TIP3    H216834   4.302   1.867   5.014
 5624TIP3   OH216835   1.129   5.379   2.990
 5624TIP3    H116836   1.067   5.341   3.052
 5624TIP3    H216837   1.200   5.414   3.044
 5625TIP3   OH216838   6.428   5.264   1.045
 5625TIP3    H116839   6.499   5.260   0.981
 5625TIP3    H216840   6.432   5.179   1.090
 5626TIP3   OH216841   6.720   3.220   4.060
 5626TIP3    H116842   6.758   3.281   4.124
 5626TIP3    H216843   6.752   3.252   3.976
 5627TIP3   OH216844   6.739   2.729   0.785
 5627TIP3    H116845   6.763   2.641   0.814
 5627TIP3    H216846   6.814   2.758   0.733
 5628TIP3   OH216847   3.436   5.595   5.052
 5628TIP3    H116848   3.500   5.574   5.120
 5628TIP3    H216849   3.364   5.534   5.068
 5629TIP3   OH216850   1.219   2.677   4.831
 5629TIP3    H116851   1.242   2.587   4.851
 5629TIP3    H216852   1.299   2.727   4.847
 5630TIP3   OH216853   6.561   4.023   1.601
 5630TIP3    H116854   6.627   4.068   1.549
 5630TIP3    H216855   6.518   3.964   1.540
 5631TIP3   OH216856   2.839   5.430   0.263
 5631TIP3    H116857   2.780   5.505   0.257
 5631TIP3    H216858   2.859   5.422   0.356
 5632TIP3   OH216859   1.795   4.988   2.105
 5632TIP3    H116860   1.885   4.960   2.124
 5632TIP3    H216861   1.759   4.916   2.053
 5633TIP3   OH216862   2.111   2.445   4.369
 5633TIP3    H116863   2.049   2.507   4.407
 5633TIP3    H216864   2.058   2.369   4.345
 5634TIP3   OH216865   3.237   2.933   5.545
 5634TIP3    H116866   3.217   2.843   5.520
 5634TIP3    H216867   3.177   2.952   5.617
 5635TIP3   OH216868   0.187   5.729   4.527
 5635TIP3    H116869   0.254   5.750   4.461
 5635TIP3    H216870   0.234   5.679   4.593
 5636TIP3   OH216871   1.477   6.046   5.706
 5636TIP3    H116872   1.540   6.118   5.708
 5636TIP3    H216873   1.514   5.984   5.643
 5637TIP3   OH216874   4.401   6.334   3.436
 5637TIP3    H116875   4.429   6.423   3.459
 5637TIP3    H216876   4.440   6.278   3.503
 5638TIP3   OH216877   1.977   5.763   1.166
 5638TIP3    H116878   2.066   5.738   1.141
 5638TIP3    H216879   1.931   5.680   1.179
 5639TIP3   OH216880   4.310   2.390   1.068
 5639TIP3    H116881   4.268   2.381   0.982
 5639TIP3    H216882   4.259   2.458   1.112
 5640TIP3   OH216883   0.029   3.829   3.377
 5640TIP3    H116884  -0.059   3.863   3.392
 5640TIP3    H216885   0.049   3.778   3.455
 5641TIP3   OH216886   1.852   0.756   2.238
 5641TIP3    H116887   1.768   0.768   2.194
 5641TIP3    H216888   1.876   0.843   2.270
 5642TIP3   OH216889   1.942   4.345   3.140
 5642TIP3    H116890   1.907   4.257   3.156
 5642TIP3    H216891   2.036   4.333   3.133
 5643TIP3   OH216892   3.651   6.380   0.301
 5643TIP3    H116893   3.743   6.351   0.302
 5643TIP3    H216894   3.647   6.442   0.228
 5644TIP3   OH216895   6.410   1.344   1.226
 5644TIP3    H116896   6.480   1.301   1.274
 5644TIP3    H216897   6.400   1.429   1.268
 5645TIP3   OH216898   1.653   4.466   0.529
 5645TIP3    H116899   1.655   4.395   0.594
 5645TIP3    H216900   1.563   4.466   0.497
 5646TIP3   OH216901   2.665   4.666   3.154
 5646TIP3    H116902   2.572   4.651   3.139
 5646TIP3    H216903   2.667   4.736   3.219
 5647TIP3   OH216904   2.820   3.879   4.103
 5647TIP3    H116905   2.847   3.820   4.173
 5647TIP3    H216906   2.892   3.876   4.040
 5648TIP3   OH216907   6.119   6.660   5.668
 5648TIP3    H116908   6.161   6.719   5.730
 5648TIP3    H216909   6.076   6.717   5.605
 5649TIP3   OH216910   2.311   2.932   4.540
 5649TIP3    H116911   2.311   3.025   4.565
 5649TIP3    H216912   2.304   2.932   4.445
 5650TIP3   OH216913   5.997   1.518   3.443
 5650TIP3    H116914   5.965   1.558   3.362
 5650TIP3    H216915   6.036   1.591   3.492
 5651TIP3   OH216916   3.554   4.479   2.488
 5651TIP3    H116917   3.587   4.411   2.430
 5651TIP3    H216918   3.619   4.485   2.557
 5652TIP3   OH216919   4.712   6.702   0.830
 5652TIP3    H116920   4.658   6.623   0.829
 5652TIP3    H216921   4.721   6.724   0.923
 5653TIP3   OH216922   2.087   5.151   3.750
 5653TIP3    H116923   2.133   5.180   3.829
 5653TIP3    H216924   2.101   5.222   3.687
 5654TIP3   OH216925   2.793   6.231   5.207
 5654TIP3    H116926   2.715   6.215   5.260
 5654TIP3    H216927   2.800   6.326   5.203
 5655TIP3   OH216928   5.953   5.197   1.831
 5655TIP3    H116929   5.911   5.144   1.898
 5655TIP3    H216930   5.973   5.280   1.875
 5656TIP3   OH216931   2.788   6.622   4.081
 5656TIP3    H116932   2.696   6.639   4.103
 5656TIP3    H216933   2.827   6.591   4.162
 5657TIP3   OH216934   2.832   1.666   1.079
 5657TIP3    H116935   2.777   1.728   1.126
 5657TIP3    H216936   2.795   1.580   1.098
 5658TIP3   OH216937   6.552   2.621   3.207
 5658TIP3    H116938   6.525   2.560   3.138
 5658TIP3    H216939   6.491   2.695   3.200
 5659TIP3   OH216940   4.469   2.723   1.215
 5659TIP3    H116941   4.460   2.818   1.222
 5659TIP3    H216942   4.561   2.707   1.236
 5660TIP3   OH216943   1.812   6.475   4.942
 5660TIP3    H116944   1.838   6.460   5.033
 5660TIP3    H216945   1.763   6.395   4.918
 5661TIP3   OH216946   1.698   2.765   0.319
 5661TIP3    H116947   1.754   2.700   0.279
 5661TIP3    H216948   1.756   2.837   0.341
 5662TIP3   OH216949   5.875   6.134   1.866
 5662TIP3    H116950   5.863   6.042   1.889
 5662TIP3    H216951   5.826   6.144   1.784
 5663TIP3   OH216952   1.248   5.710   3.008
 5663TIP3    H116953   1.189   5.762   3.063
 5663TIP3    H216954   1.207   5.711   2.922
 5664TIP3   OH216955   0.711   3.604   5.745
 5664TIP3    H116956   0.658   3.582   5.669
 5664TIP3    H216957   0.680   3.690   5.772
 5665TIP3   OH216958   3.634   6.036   2.114
 5665TIP3    H116959   3.658   5.943   2.104
 5665TIP3    H216960   3.554   6.045   2.063
 5666TIP3   OH216961   5.596   4.970   1.816
 5666TIP3    H116962   5.674   4.914   1.812
 5666TIP3    H216963   5.617   5.036   1.881
 5667TIP3   OH216964   1.328   3.988   3.663
 5667TIP3    H116965   1.245   3.967   3.621
 5667TIP3    H216966   1.308   4.066   3.716
 5668TIP3   OH216967   1.603   0.145   0.555
 5668TIP3    H116968   1.595   0.082   0.483
 5668TIP3    H216969   1.578   0.095   0.633
 5669TIP3   OH216970   1.982   1.467   4.215
 5669TIP3    H116971   1.906   1.433   4.168
 5669TIP3    H216972   2.047   1.485   4.147
 5670TIP3   OH216973   0.703   5.853   1.982
 5670TIP3    H116974   0.704   5.772   2.034
 5670TIP3    H216975   0.612   5.882   1.985
 5671TIP3   OH216976   2.887   3.280   1.739
 5671TIP3    H116977   2.937   3.297   1.659
 5671TIP3    H216978   2.873   3.185   1.739
 5672TIP3   OH216979   5.724   3.519   4.974
 5672TIP3    H116980   5.813   3.553   4.988
 5672TIP3    H216981   5.729   3.471   4.891
 5673TIP3   OH216982   5.507   5.529   5.208
 5673TIP3    H116983   5.515   5.525   5.303
 5673TIP3    H216984   5.413   5.537   5.192
 5674TIP3   OH216985   5.763   6.247   5.475
 5674TIP3    H116986   5.729   6.182   5.414
 5674TIP3    H216987   5.686   6.300   5.498
 5675TIP3   OH216988   0.692   2.296   3.077
 5675TIP3    H116989   0.629   2.231   3.110
 5675TIP3    H216990   0.751   2.247   3.021
 5676TIP3   OH216991   1.192   0.219   5.481
 5676TIP3    H116992   1.106   0.250   5.452
 5676TIP3    H216993   1.222   0.286   5.543
 5677TIP3   OH216994   4.350   3.683   1.421
 5677TIP3    H116995   4.398   3.677   1.338
 5677TIP3    H216996   4.418   3.698   1.487
 5678TIP3   OH216997   1.342   3.252   1.954
 5678TIP3    H116998   1.377   3.215   1.873
 5678TIP3    H216999   1.400   3.326   1.973
 5679TIP3   OH217000   3.301   0.209   1.426
 5679TIP3    H117001   3.389   0.230   1.396
 5679TIP3    H217002   3.306   0.210   1.521
 5680TIP3   OH217003   0.597   2.576   2.157
 5680TIP3    H117004   0.563   2.496   2.116
 5680TIP3    H217005   0.522   2.613   2.203
 5681TIP3   OH217006   6.666   3.850   3.606
 5681TIP3    H117007   6.591   3.869   3.550
 5681TIP3    H217008   6.627   3.820   3.688
 5682TIP3   OH217009   6.483   5.807   1.225
 5682TIP3    H117010   6.539   5.797   1.148
 5682TIP3    H217011   6.394   5.813   1.190
 5683TIP3   OH217012   0.213   4.299   3.774
 5683TIP3    H117013   0.236   4.233   3.709
 5683TIP3    H217014   0.215   4.382   3.726
 5684TIP3   OH217015   4.860   5.112   3.370
 5684TIP3    H117016   4.925   5.106   3.300
 5684TIP3    H217017   4.879   5.195   3.414
 5685TIP3   OH217018   5.042   1.521   4.833
 5685TIP3    H117019   5.077   1.488   4.750
 5685TIP3    H217020   5.095   1.477   4.900
 5686TIP3   OH217021   0.054   4.126   1.338
 5686TIP3    H117022   0.122   4.137   1.272
 5686TIP3    H217023  -0.022   4.094   1.290
 5687TIP3   OH217024   4.301   1.588   4.702
 5687TIP3    H117025   4.377   1.537   4.673
 5687TIP3    H217026   4.259   1.532   4.768
 5688TIP3   OH217027   3.300   3.438   5.062
 5688TIP3    H117028   3.232   3.431   5.128
 5688TIP3    H217029   3.260   3.488   4.991
 5689TIP3   OH217030   0.012   0.622   3.788
 5689TIP3    H117031   0.002   0.691   3.722
 5689TIP3    H217032   0.099   0.638   3.826
 5690TIP3   OH217033   5.403   1.367   4.569
 5690TIP3    H117034   5.311   1.379   4.595
 5690TIP3    H217035   5.451   1.364   4.652
 5691TIP3   OH217036   4.888   0.833   5.637
 5691TIP3    H117037   4.828   0.830   5.563
 5691TIP3    H217038   4.857   0.764   5.696
 5692TIP3   OH217039   3.645   4.939   4.920
 5692TIP3    H117040   3.659   4.868   4.857
 5692TIP3    H217041   3.576   4.908   4.978
 5693TIP3   OH217042   1.627   4.287   5.774
 5693TIP3    H117043   1.678   4.249   5.702
 5693TIP3    H217044   1.693   4.308   5.841
 5694TIP3   OH217045   6.732   2.134   1.122
 5694TIP3    H117046   6.646   2.146   1.161
 5694TIP3    H217047   6.715   2.098   1.035
 5695TIP3   OH217048   6.884   0.739   1.070
 5695TIP3    H117049   6.838   0.799   1.011
 5695TIP3    H217050   6.959   0.789   1.102
 5696TIP3   OH217051   1.055   3.600   0.292
 5696TIP3    H117052   1.051   3.680   0.239
 5696TIP3    H217053   1.012   3.534   0.238
 5697TIP3   OH217054   4.353   3.341   2.037
 5697TIP3    H117055   4.401   3.372   1.960
 5697TIP3    H217056   4.377   3.404   2.106
 5698TIP3   OH217057   1.207   0.032   3.172
 5698TIP3    H117058   1.288  -0.019   3.178
 5698TIP3    H217059   1.163  -0.003   3.094
 5699TIP3   OH217060   6.380   4.390   1.520
 5699TIP3    H117061   6.322   4.405   1.445
 5699TIP3    H217062   6.468   4.404   1.485
 5700TIP3   OH217063   6.793   3.768   3.384
 5700TIP3    H117064   6.742   3.691   3.359
 5700TIP3    H217065   6.748   3.803   3.461
 5701TIP3   OH217066   3.974   5.639   3.673
 5701TIP3    H117067   4.063   5.626   3.708
 5701TIP3    H217068   3.939   5.550   3.665
 5702TIP3   OH217069   4.905   4.563   0.929
 5702TIP3    H117070   4.994   4.556   0.895
 5702TIP3    H217071   4.914   4.559   1.024
 5703TIP3   OH217072   0.104   0.169   5.135
 5703TIP3    H117073   0.139   0.258   5.129
 5703TIP3    H217074   0.169   0.115   5.089
 5704TIP3   OH217075   2.433   5.685   1.316
 5704TIP3    H117076   2.383   5.765   1.334
 5704TIP3    H217077   2.509   5.714   1.265
 5705TIP3   OH217078   6.384   3.777   4.976
 5705TIP3    H117079   6.366   3.738   4.891
 5705TIP3    H217080   6.346   3.864   4.972
 5706TIP3   OH217081   5.298   1.945   4.209
 5706TIP3    H117082   5.364   1.969   4.273
 5706TIP3    H217083   5.345   1.893   4.144
 5707TIP3   OH217084   4.936   3.262   1.491
 5707TIP3    H117085   4.848   3.298   1.495
 5707TIP3    H217086   4.924   3.167   1.483
 5708TIP3   OH217087   4.126   4.211   2.417
 5708TIP3    H117088   4.219   4.214   2.438
 5708TIP3    H217089   4.098   4.123   2.441
 5709TIP3   OH217090   6.155   4.732   3.495
 5709TIP3    H117091   6.173   4.721   3.402
 5709TIP3    H217092   6.068   4.772   3.497
 5710TIP3   OH217093   5.317   4.278   5.550
 5710TIP3    H117094   5.311   4.183   5.549
 5710TIP3    H217095   5.402   4.297   5.509
 5711TIP3   OH217096   1.917   1.473   2.591
 5711TIP3    H117097   1.953   1.387   2.573
 5711TIP3    H217098   1.919   1.480   2.687
 5712TIP3   OH217099   0.387   3.188   0.858
 5712TIP3    H117100   0.357   3.229   0.939
 5712TIP3    H217101   0.328   3.114   0.846
 5713TIP3   OH217102   3.802   4.518   2.187
 5713TIP3    H117103   3.794   4.475   2.272
 5713TIP3    H217104   3.778   4.450   2.124
 5714TIP3   OH217105   4.431   0.163   4.991
 5714TIP3    H117106   4.368   0.124   4.932
 5714TIP3    H217107   4.516   0.150   4.949
 5715TIP3   OH217108   2.090   4.371   0.599
 5715TIP3    H117109   2.079   4.282   0.633
 5715TIP3    H217110   2.051   4.427   0.665
 5716TIP3   OH217111   5.241   5.077   4.694
 5716TIP3    H117112   5.217   4.986   4.712
 5716TIP3    H217113   5.330   5.072   4.660
 5717TIP3   OH217114   1.830   5.667   1.524
 5717TIP3    H117115   1.924   5.680   1.514
 5717TIP3    H217116   1.808   5.600   1.460
 5718TIP3   OH217117   0.287   4.822   3.076
 5718TIP3    H117118   0.248   4.789   3.157
 5718TIP3    H217119   0.238   4.901   3.056
 5719TIP3   OH217120   1.036   5.238   3.213
 5719TIP3    H117121   1.082   5.293   3.277
 5719TIP3    H217122   0.978   5.184   3.266
 5720TIP3   OH217123   3.684   1.283   0.053
 5720TIP3    H117124   3.682   1.269   0.147
 5720TIP3    H217125   3.686   1.195   0.016
 5721TIP3   OH217126   5.709   4.164   3.810
 5721TIP3    H117127   5.770   4.091   3.795
 5721TIP3    H217128   5.697   4.204   3.724
 5722TIP3   OH217129   3.006   2.067   0.018
 5722TIP3    H117130   3.030   2.095  -0.070
 5722TIP3    H217131   3.047   2.131   0.076
 5723TIP3   OH217132   3.952   5.791   2.659
 5723TIP3    H117133   3.953   5.842   2.740
 5723TIP3    H217134   3.970   5.855   2.590
 5724TIP3   OH217135   6.551   4.243   5.542
 5724TIP3    H117136   6.542   4.336   5.562
 5724TIP3    H217137   6.540   4.238   5.447
 5725TIP3   OH217138   6.763   5.317   5.570
 5725TIP3    H117139   6.711   5.314   5.489
 5725TIP3    H217140   6.720   5.384   5.623
 5726TIP3   OH217141   4.229   1.488   1.364
 5726TIP3    H117142   4.143   1.505   1.401
 5726TIP3    H217143   4.287   1.484   1.439
 5727TIP3   OH217144   4.094   2.028   4.684
 5727TIP3    H117145   4.177   1.991   4.656
 5727TIP3    H217146   4.072   1.981   4.764
 5728TIP3   OH217147   0.472   2.729   1.091
 5728TIP3    H117148   0.480   2.815   1.050
 5728TIP3    H217149   0.525   2.671   1.036
 5729TIP3   OH217150   5.604   5.211   0.358
 5729TIP3    H117151   5.539   5.246   0.419
 5729TIP3    H217152   5.579   5.119   0.347
 5730TIP3   OH217153   3.440   4.299   0.982
 5730TIP3    H117154   3.382   4.358   0.933
 5730TIP3    H217155   3.383   4.260   1.048
 5731TIP3   OH217156   1.820   0.489   1.769
 5731TIP3    H117157   1.847   0.397   1.762
 5731TIP3    H217158   1.727   0.484   1.792
 5732TIP3   OH217159   0.211   3.468   5.446
 5732TIP3    H117160   0.137   3.410   5.425
 5732TIP3    H217161   0.237   3.443   5.534
 5733TIP3   OH217162   2.107   4.909   4.504
 5733TIP3    H117163   2.171   4.980   4.499
 5733TIP3    H217164   2.138   4.854   4.576
 5734TIP3   OH217165   5.992   4.081   3.633
 5734TIP3    H117166   5.927   4.072   3.563
 5734TIP3    H217167   5.954   4.033   3.707
 5735TIP3   OH217168   2.818   6.346   4.662
 5735TIP3    H117169   2.773   6.324   4.580
 5735TIP3    H217170   2.907   6.313   4.650
 5736TIP3   OH217171   3.811   1.368   1.130
 5736TIP3    H117172   3.803   1.286   1.081
 5736TIP3    H217173   3.815   1.341   1.222
 5737TIP3   OH217174   4.985   2.544   0.490
 5737TIP3    H117175   4.928   2.557   0.414
 5737TIP3    H217176   5.032   2.462   0.472
 5738TIP3   OH217177   3.569   1.729   5.655
 5738TIP3    H117178   3.493   1.695   5.608
 5738TIP3    H217179   3.555   1.823   5.658
 5739TIP3   OH217180   1.555   1.879   3.512
 5739TIP3    H117181   1.515   1.965   3.521
 5739TIP3    H217182   1.495   1.820   3.557
 5740TIP3   OH217183   3.395   2.704   4.732
 5740TIP3    H117184   3.313   2.693   4.684
 5740TIP3    H217185   3.463   2.686   4.668
 5741TIP3   OH217186   5.404   0.107   3.649
 5741TIP3    H117187   5.394   0.029   3.703
 5741TIP3    H217188   5.433   0.074   3.564
 5742TIP3   OH217189   6.745   5.479   1.027
 5742TIP3    H117190   6.807   5.529   1.080
 5742TIP3    H217191   6.750   5.390   1.061
 5743TIP3   OH217192   4.480   6.487   2.687
 5743TIP3    H117193   4.519   6.564   2.646
 5743TIP3    H217194   4.554   6.434   2.715
 5744TIP3   OH217195   1.496   2.607   5.091
 5744TIP3    H117196   1.455   2.538   5.039
 5744TIP3    H217197   1.565   2.563   5.140
 5745TIP3   OH217198   5.960   2.848   5.596
 5745TIP3    H117199   5.949   2.780   5.662
 5745TIP3    H217200   5.958   2.801   5.513
 5746TIP3   OH217201   0.465   0.893   2.412
 5746TIP3    H117202   0.432   0.923   2.496
 5746TIP3    H217203   0.390   0.849   2.371
 5747TIP3   OH217204   2.989   6.372   2.518
 5747TIP3    H117205   3.004   6.359   2.612
 5747TIP3    H217206   3.075   6.361   2.478
 5748TIP3   OH217207   3.401   5.005   0.159
 5748TIP3    H117208   3.354   5.084   0.185
 5748TIP3    H217209   3.493   5.027   0.169
 5749TIP3   OH217210   5.833   0.768   3.304
 5749TIP3    H117211   5.814   0.808   3.388
 5749TIP3    H217212   5.805   0.832   3.239
 5750TIP3   OH217213   3.211   4.491   3.953
 5750TIP3    H117214   3.120   4.506   3.926
 5750TIP3    H217215   3.245   4.579   3.969
 5751TIP3   OH217216   6.783   3.981   0.489
 5751TIP3    H117217   6.823   4.045   0.430
 5751TIP3    H217218   6.847   3.968   0.558
 5752TIP3   OH217219   3.502   4.833   0.787
 5752TIP3    H117220   3.592   4.845   0.758
 5752TIP3    H217221   3.451   4.832   0.706
 5753TIP3   OH217222   5.374   6.623   5.356
 5753TIP3    H117223   5.406   6.559   5.293
 5753TIP3    H217224   5.423   6.604   5.436
 5754TIP3   OH217225   0.910   0.995   5.389
 5754TIP3    H117226   0.946   1.049   5.319
 5754TIP3    H217227   0.858   1.057   5.442
 5755TIP3   OH217228   3.036   3.048   5.753
 5755TIP3    H117229   2.999   3.134   5.735
 5755TIP3    H217230   3.119   3.066   5.796
 5756TIP3   OH217231   0.868   6.580   5.542
 5756TIP3    H117232   0.884   6.514   5.610
 5756TIP3    H217233   0.854   6.661   5.590
 5757TIP3   OH217234   6.638   6.049   5.512
 5757TIP3    H117235   6.551   6.056   5.473
 5757TIP3    H217236   6.691   6.004   5.446
 5758TIP3   OH217237   1.949   1.959   4.410
 5758TIP3    H117238   1.976   1.918   4.492
 5758TIP3    H217239   1.996   1.912   4.342
 5759TIP3   OH217240  -0.018   3.341   4.652
 5759TIP3    H117241   0.065   3.306   4.621
 5759TIP3    H217242  -0.001   3.368   4.742
 5760TIP3   OH217243   3.014   5.411   3.627
 5760TIP3    H117244   3.062   5.494   3.636
 5760TIP3    H217245   2.935   5.423   3.680
 5761TIP3   OH217246   5.724   5.848   5.303
 5761TIP3    H117247   5.734   5.844   5.398
 5761TIP3    H217248   5.771   5.928   5.277
 5762TIP3   OH217249   7.134   6.073   2.601
 5762TIP3    H117250   7.181   6.151   2.573
 5762TIP3    H217251   7.203   6.010   2.622
 5763TIP3   OH217252   1.870   5.386   4.953
 5763TIP3    H117253   1.916   5.312   4.994
 5763TIP3    H217254   1.817   5.345   4.884
 5764TIP3   OH217255   3.420   4.466   5.610
 5764TIP3    H117256   3.493   4.523   5.633
 5764TIP3    H217257   3.345   4.505   5.656
 5765TIP3   OH217258   2.408   6.402   0.522
 5765TIP3    H117259   2.345   6.368   0.458
 5765TIP3    H217260   2.471   6.451   0.470
 5766TIP3   OH217261   3.163   4.552   5.703
 5766TIP3    H117262   3.108   4.615   5.749
 5766TIP3    H217263   3.101   4.487   5.668
 5767TIP3   OH217264   6.083   3.614   3.555
 5767TIP3    H117265   6.134   3.568   3.489
 5767TIP3    H217266   6.148   3.661   3.608
 5768TIP3   OH217267   3.749   5.266   3.452
 5768TIP3    H117268   3.793   5.182   3.462
 5768TIP3    H217269   3.682   5.250   3.385
 5769TIP3   OH217270   6.086   4.015   5.387
 5769TIP3    H117271   6.089   4.008   5.292
 5769TIP3    H217272   6.090   4.108   5.405
 5770TIP3   OH217273   5.079   4.001   5.027
 5770TIP3    H117274   5.164   4.009   4.984
 5770TIP3    H217275   5.018   3.982   4.955
 5771TIP3   OH217276   5.808   4.137   3.381
 5771TIP3    H117277   5.764   4.064   3.337
 5771TIP3    H217278   5.897   4.136   3.345
 5772TIP3   OH217279   3.836   5.389   3.796
 5772TIP3    H117280   3.896   5.321   3.766
 5772TIP3    H217281   3.842   5.386   3.892
 5773TIP3   OH217282   5.322   3.690   3.460
 5773TIP3    H117283   5.280   3.714   3.378
 5773TIP3    H217284   5.318   3.594   3.461
 5774TIP3   OH217285   0.326   3.024   3.304
 5774TIP3    H117286   0.244   3.026   3.254
 5774TIP3    H217287   0.363   2.937   3.288
 5775TIP3   OH217288   5.457   1.172   3.583
 5775TIP3    H117289   5.419   1.170   3.495
 5775TIP3    H217290   5.444   1.261   3.613
 5776TIP3   OH217291   5.355   0.486   0.110
 5776TIP3    H117292   5.266   0.461   0.133
 5776TIP3    H217293   5.364   0.575   0.142
 5777TIP3   OH217294   4.005   0.849   3.987
 5777TIP3    H117295   3.973   0.773   4.037
 5777TIP3    H217296   3.931   0.873   3.931
 5778TIP3   OH217297   2.493   2.585   0.427
 5778TIP3    H117298   2.403   2.553   0.425
 5778TIP3    H217299   2.547   2.507   0.411
 5779TIP3   OH217300   5.403   0.811   0.555
 5779TIP3    H117301   5.382   0.721   0.527
 5779TIP3    H217302   5.420   0.857   0.473
 5780TIP3   OH217303   2.649   4.277   0.733
 5780TIP3    H117304   2.732   4.244   0.766
 5780TIP3    H217305   2.601   4.305   0.811
 5781TIP3   OH217306   1.318   1.801   5.382
 5781TIP3    H117307   1.402   1.761   5.363
 5781TIP3    H217308   1.273   1.738   5.437
 5782TIP3   OH217309   4.626   3.869   0.176
 5782TIP3    H117310   4.593   3.803   0.237
 5782TIP3    H217311   4.686   3.921   0.229
 5783TIP3   OH217312   6.689   1.789   5.777
 5783TIP3    H117313   6.661   1.697   5.781
 5783TIP3    H217314   6.648   1.823   5.698
 5784TIP3   OH217315   0.944   3.940   2.613
 5784TIP3    H117316   0.942   3.944   2.517
 5784TIP3    H217317   0.856   3.913   2.638
 5785TIP3   OH217318   1.391   3.297   0.365
 5785TIP3    H117319   1.475   3.258   0.388
 5785TIP3    H217320   1.373   3.266   0.276
 5786TIP3   OH217321   2.945   4.203   2.578
 5786TIP3    H117322   3.014   4.173   2.636
 5786TIP3    H217323   2.872   4.142   2.592
 5787TIP3   OH217324   1.432   3.551   0.137
 5787TIP3    H117325   1.449   3.644   0.126
 5787TIP3    H217326   1.512   3.516   0.176
 5788TIP3   OH217327   7.127   4.790   5.898
 5788TIP3    H117328   7.127   4.862   5.835
 5788TIP3    H217329   7.035   4.761   5.902
 5789TIP3   OH217330   2.312   0.805   5.365
 5789TIP3    H117331   2.278   0.793   5.454
 5789TIP3    H217332   2.247   0.762   5.309
 5790TIP3   OH217333   2.181   0.340   1.374
 5790TIP3    H117334   2.146   0.283   1.305
 5790TIP3    H217335   2.271   0.309   1.387
 5791TIP3   OH217336   6.097   2.638   4.861
 5791TIP3    H117337   6.179   2.688   4.867
 5791TIP3    H217338   6.084   2.603   4.949
 5792TIP3   OH217339   1.224   0.856   3.043
 5792TIP3    H117340   1.230   0.927   2.979
 5792TIP3    H217341   1.178   0.786   2.998
 5793TIP3   OH217342   6.996   4.190   4.578
 5793TIP3    H117343   7.032   4.237   4.653
 5793TIP3    H217344   6.967   4.107   4.613
 5794TIP3   OH217345   3.453   4.728   4.404
 5794TIP3    H117346   3.373   4.679   4.386
 5794TIP3    H217347   3.496   4.735   4.319
 5795TIP3   OH217348   4.510   4.960   1.785
 5795TIP3    H117349   4.498   4.898   1.857
 5795TIP3    H217350   4.604   4.959   1.767
 5796TIP3   OH217351   2.913   1.341   5.147
 5796TIP3    H117352   2.966   1.339   5.067
 5796TIP3    H217353   2.975   1.359   5.217
 5797TIP3   OH217354   5.874   6.066   5.243
 5797TIP3    H117355   5.870   6.142   5.185
 5797TIP3    H217356   5.968   6.051   5.255
 5798TIP3   OH217357   0.258   2.803   5.612
 5798TIP3    H117358   0.265   2.714   5.580
 5798TIP3    H217359   0.256   2.794   5.708
 5799TIP3   OH217360   0.465   0.807   5.311
 5799TIP3    H117361   0.373   0.802   5.335
 5799TIP3    H217362   0.476   0.894   5.272
 5800TIP3   OH217363   1.730   6.105   2.981
 5800TIP3    H117364   1.735   6.046   2.906
 5800TIP3    H217365   1.660   6.069   3.036
 5801TIP3   OH217366   0.543   0.687   3.482
 5801TIP3    H117367   0.524   0.656   3.571
 5801TIP3    H217368   0.493   0.768   3.474
 5802TIP3   OH217369   3.434   5.673   0.792
 5802TIP3    H117370   3.477   5.588   0.783
 5802TIP3    H217371   3.441   5.695   0.885
 5803TIP3   OH217372   0.438   1.463   1.987
 5803TIP3    H117373   0.377   1.491   2.055
 5803TIP3    H217374   0.403   1.498   1.906
 5804TIP3   OH217375   1.921   6.148   3.176
 5804TIP3    H117376   1.866   6.162   3.099
 5804TIP3    H217377   2.005   6.120   3.140
 5805TIP3   OH217378   4.707   0.010   3.683
 5805TIP3    H117379   4.728   0.062   3.761
 5805TIP3    H217380   4.612   0.016   3.674
 5806TIP3   OH217381   6.508   2.114   0.078
 5806TIP3    H117382   6.437   2.165   0.040
 5806TIP3    H217383   6.570   2.101   0.006
 5807TIP3   OH217384   2.125   3.761   4.147
 5807TIP3    H117385   2.140   3.828   4.213
 5807TIP3    H217386   2.168   3.794   4.068
 5808TIP3   OH217387   1.041   6.532   2.493
 5808TIP3    H117388   1.089   6.472   2.549
 5808TIP3    H217389   0.969   6.564   2.548
 5809TIP3   OH217390   0.416   5.182   0.450
 5809TIP3    H117391   0.345   5.182   0.385
 5809TIP3    H217392   0.446   5.091   0.452
 5810TIP3   OH217393   0.879   1.384   1.344
 5810TIP3    H117394   0.865   1.397   1.250
 5810TIP3    H217395   0.941   1.453   1.368
 5811TIP3   OH217396   0.180   2.950   5.395
 5811TIP3    H117397   0.266   2.922   5.364
 5811TIP3    H217398   0.174   2.917   5.485
 5812TIP3   OH217399   7.119   2.013   5.547
 5812TIP3    H117400   7.200   2.048   5.509
 5812TIP3    H217401   7.148   1.965   5.625
 5813TIP3   OH217402   3.734   4.071   2.991
 5813TIP3    H117403   3.713   4.152   2.944
 5813TIP3    H217404   3.779   4.017   2.926
 5814TIP3   OH217405   5.433   4.772   3.283
 5814TIP3    H117406   5.494   4.826   3.233
 5814TIP3    H217407   5.354   4.825   3.290
 5815TIP3   OH217408   6.054   0.061   1.609
 5815TIP3    H117409   6.144   0.027   1.603
 5815TIP3    H217410   6.002  -0.015   1.636
 5816TIP3   OH217411   2.193   0.256   2.053
 5816TIP3    H117412   2.285   0.255   2.079
 5816TIP3    H217413   2.177   0.347   2.027
 5817TIP3   OH217414   0.318   1.139   0.253
 5817TIP3    H117415   0.378   1.065   0.259
 5817TIP3    H217416   0.303   1.165   0.344
 5818TIP3   OH217417   6.868   3.954   5.796
 5818TIP3    H117418   6.925   4.011   5.744
 5818TIP3    H217419   6.780   3.975   5.765
 5819TIP3   OH217420   3.620   2.412   3.409
 5819TIP3    H117421   3.525   2.415   3.398
 5819TIP3    H217422   3.636   2.325   3.448
 5820TIP3   OH217423   7.000   3.315   0.166
 5820TIP3    H117424   7.093   3.311   0.143
 5820TIP3    H217425   6.960   3.242   0.119
 5821TIP3   OH217426   5.185   2.798   4.825
 5821TIP3    H117427   5.245   2.732   4.859
 5821TIP3    H217428   5.231   2.837   4.751
 5822TIP3   OH217429   0.204   0.131   0.891
 5822TIP3    H117430   0.151   0.113   0.968
 5822TIP3    H217431   0.167   0.213   0.856
 5823TIP3   OH217432   1.001   3.450   3.175
 5823TIP3    H117433   1.075   3.509   3.184
 5823TIP3    H217434   1.002   3.424   3.082
 5824TIP3   OH217435   6.429   2.323   4.582
 5824TIP3    H117436   6.495   2.253   4.590
 5824TIP3    H217437   6.441   2.375   4.662
 5825TIP3   OH217438   2.422   5.898   2.014
 5825TIP3    H117439   2.366   5.954   2.067
 5825TIP3    H217440   2.384   5.810   2.022
 5826TIP3   OH217441   2.665   2.960   3.200
 5826TIP3    H117442   2.689   2.922   3.284
 5826TIP3    H217443   2.626   3.044   3.222
 5827TIP3   OH217444   0.554   6.557   2.953
 5827TIP3    H117445   0.640   6.515   2.961
 5827TIP3    H217446   0.500   6.493   2.908
 5828TIP3   OH217447   1.758   3.229   3.411
 5828TIP3    H117448   1.799   3.277   3.483
 5828TIP3    H217449   1.676   3.196   3.447
 5829TIP3   OH217450   5.859   3.926   4.843
 5829TIP3    H117451   5.794   3.874   4.891
 5829TIP3    H217452   5.931   3.865   4.828
 5830TIP3   OH217453   2.020   1.811   4.623
 5830TIP3    H117454   2.027   1.730   4.572
 5830TIP3    H217455   2.108   1.826   4.656
 5831TIP3   OH217456   0.808   2.764   1.024
 5831TIP3    H117457   0.747   2.831   1.052
 5831TIP3    H217458   0.792   2.754   0.930
 5832TIP3   OH217459   7.179   4.929   3.324
 5832TIP3    H117460   7.154   4.853   3.271
 5832TIP3    H217461   7.118   4.998   3.297
 5833TIP3   OH217462   3.218   1.394   4.750
 5833TIP3    H117463   3.238   1.301   4.739
 5833TIP3    H217464   3.140   1.395   4.806
 5834TIP3   OH217465   1.907   6.761   3.106
 5834TIP3    H117466   1.942   6.674   3.086
 5834TIP3    H217467   1.961   6.822   3.056
 5835TIP3   OH217468   7.111   4.003   4.363
 5835TIP3    H117469   7.016   4.009   4.367
 5835TIP3    H217470   7.138   3.981   4.452
 5836TIP3   OH217471   2.352   2.163   1.307
 5836TIP3    H117472   2.350   2.076   1.347
 5836TIP3    H217473   2.439   2.196   1.329
 5837TIP3   OH217474   7.144   1.943   4.288
 5837TIP3    H117475   7.112   2.015   4.342
 5837TIP3    H217476   7.181   1.880   4.351
 5838TIP3   OH217477   3.045   3.545   3.547
 5838TIP3    H117478   2.982   3.500   3.603
 5838TIP3    H217479   3.031   3.508   3.460
 5839TIP3   OH217480   1.103   3.875   4.459
 5839TIP3    H117481   1.011   3.888   4.477
 5839TIP3    H217482   1.119   3.782   4.476
 5840TIP3   OH217483   3.766   0.262   4.736
 5840TIP3    H117484   3.825   0.241   4.808
 5840TIP3    H217485   3.725   0.178   4.714
 5841TIP3   OH217486   4.047   1.449   2.638
 5841TIP3    H117487   4.066   1.488   2.553
 5841TIP3    H217488   4.054   1.522   2.700
 5842TIP3   OH217489   0.473   6.255   5.730
 5842TIP3    H117490   0.461   6.321   5.663
 5842TIP3    H217491   0.555   6.210   5.705
 5843TIP3   OH217492   6.040   2.102   2.165
 5843TIP3    H117493   6.025   2.086   2.072
 5843TIP3    H217494   6.093   2.181   2.168
 5844TIP3   OH217495   2.961   4.583   5.086
 5844TIP3    H117496   3.003   4.541   5.161
 5844TIP3    H217497   3.005   4.546   5.009
 5845TIP3   OH217498   5.041   4.620   5.793
 5845TIP3    H117499   4.949   4.643   5.784
 5845TIP3    H217500   5.052   4.540   5.742
 5846TIP3   OH217501   5.213   5.501   2.859
 5846TIP3    H117502   5.273   5.427   2.868
 5846TIP3    H217503   5.221   5.527   2.767
 5847TIP3   OH217504   3.129   5.449   0.336
 5847TIP3    H117505   3.063   5.474   0.400
 5847TIP3    H217506   3.088   5.464   0.251
 5848TIP3   OH217507   6.299   1.705   2.745
 5848TIP3    H117508   6.287   1.616   2.711
 5848TIP3    H217509   6.221   1.753   2.715
 5849TIP3   OH217510   0.017   3.092   0.809
 5849TIP3    H117511  -0.046   3.061   0.873
 5849TIP3    H217512   0.097   3.043   0.829
 5850TIP3   OH217513   0.356   4.739   4.458
 5850TIP3    H117514   0.369   4.792   4.536
 5850TIP3    H217515   0.439   4.693   4.445
 5851TIP3   OH217516   3.827   2.857   0.948
 5851TIP3    H117517   3.786   2.942   0.937
 5851TIP3    H217518   3.773   2.797   0.897
 5852TIP3   OH217519   2.060   5.882   2.855
 5852TIP3    H117520   2.147   5.848   2.835
 5852TIP3    H217521   2.000   5.820   2.812
 5853TIP3   OH217522   3.378   6.280   5.464
 5853TIP3    H117523   3.429   6.207   5.499
 5853TIP3    H217524   3.442   6.334   5.416
 5854TIP3   OH217525   4.100   1.632   3.755
 5854TIP3    H117526   4.022   1.576   3.755
 5854TIP3    H217527   4.105   1.665   3.665
 5855TIP3   OH217528   2.810   0.469   2.304
 5855TIP3    H117529   2.899   0.433   2.305
 5855TIP3    H217530   2.754   0.395   2.328
 5856TIP3   OH217531   0.471   5.870   5.448
 5856TIP3    H117532   0.505   5.932   5.383
 5856TIP3    H217533   0.462   5.788   5.400
 5857TIP3   OH217534   2.612   3.891   2.968
 5857TIP3    H117535   2.650   3.888   2.880
 5857TIP3    H217536   2.535   3.834   2.963
 5858TIP3   OH217537   5.437   0.908   5.167
 5858TIP3    H117538   5.445   0.818   5.199
 5858TIP3    H217539   5.513   0.953   5.204
 5859TIP3   OH217540   7.045   4.064   5.393
 5859TIP3    H117541   7.026   4.028   5.306
 5859TIP3    H217542   7.076   4.153   5.375
 5860TIP3   OH217543   2.585   2.801   4.131
 5860TIP3    H117544   2.563   2.771   4.219
 5860TIP3    H217545   2.666   2.851   4.141
 5861TIP3   OH217546   3.736   4.643   4.806
 5861TIP3    H117547   3.678   4.568   4.811
 5861TIP3    H217548   3.787   4.629   4.726
 5862TIP3   OH217549   3.878   1.696   2.392
 5862TIP3    H117550   3.794   1.682   2.437
 5862TIP3    H217551   3.929   1.749   2.453
 5863TIP3   OH217552   6.709   4.821   1.829
 5863TIP3    H117553   6.791   4.869   1.838
 5863TIP3    H217554   6.655   4.850   1.903
 5864TIP3   OH217555   4.125   3.254   4.300
 5864TIP3    H117556   4.092   3.321   4.359
 5864TIP3    H217557   4.220   3.264   4.302
 5865TIP3   OH217558   6.687   0.423   0.583
 5865TIP3    H117559   6.733   0.490   0.634
 5865TIP3    H217560   6.666   0.355   0.646
 5866TIP3   OH217561   0.591   4.064   4.397
 5866TIP3    H117562   0.518   4.107   4.352
 5866TIP3    H217563   0.648   4.135   4.423
 5867TIP3   OH217564   2.556   5.020   0.890
 5867TIP3    H117565   2.570   5.102   0.939
 5867TIP3    H217566   2.628   5.018   0.827
 5868TIP3   OH217567   0.280   5.127   3.780
 5868TIP3    H117568   0.348   5.063   3.762
 5868TIP3    H217569   0.201   5.075   3.792
 5869TIP3   OH217570   5.377   4.808   4.242
 5869TIP3    H117571   5.345   4.723   4.212
 5869TIP3    H217572   5.320   4.872   4.200
 5870TIP3   OH217573   2.895   6.288   3.422
 5870TIP3    H117574   2.847   6.350   3.477
 5870TIP3    H217575   2.987   6.304   3.442
 5871TIP3   OH217576   2.009   3.560   1.533
 5871TIP3    H117577   2.021   3.650   1.562
 5871TIP3    H217578   2.052   3.557   1.448
 5872TIP3   OH217579   5.354   0.538   3.206
 5872TIP3    H117580   5.415   0.491   3.262
 5872TIP3    H217581   5.379   0.630   3.214
 5873TIP3   OH217582   2.232   4.407   5.523
 5873TIP3    H117583   2.255   4.498   5.502
 5873TIP3    H217584   2.233   4.404   5.619
 5874TIP3   OH217585   3.315   5.549   5.444
 5874TIP3    H117586   3.358   5.564   5.528
 5874TIP3    H217587   3.266   5.630   5.428
 5875TIP3   OH217588   3.665   1.816   0.420
 5875TIP3    H117589   3.666   1.766   0.339
 5875TIP3    H217590   3.723   1.890   0.403
 5876TIP3   OH217591   5.985   3.527   1.109
 5876TIP3    H117592   5.929   3.582   1.055
 5876TIP3    H217593   5.927   3.461   1.146
 5877TIP3   OH217594   0.352   5.576   0.319
 5877TIP3    H117595   0.408   5.506   0.287
 5877TIP3    H217596   0.292   5.532   0.380
 5878TIP3   OH217597   6.302   3.321   0.096
 5878TIP3    H117598   6.301   3.410   0.130
 5878TIP3    H217599   6.327   3.267   0.170
 5879TIP3   OH217600   0.860   1.541   3.688
 5879TIP3    H117601   0.792   1.542   3.755
 5879TIP3    H217602   0.923   1.475   3.719
 5880TIP3   OH217603   0.614   4.998   5.552
 5880TIP3    H117604   0.552   4.936   5.590
 5880TIP3    H217605   0.699   4.971   5.588
 5881TIP3   OH217606   4.413   6.276   5.615
 5881TIP3    H117607   4.447   6.365   5.603
 5881TIP3    H217608   4.357   6.261   5.538
 5882TIP3   OH217609   0.337   0.103   2.745
 5882TIP3    H117610   0.409   0.159   2.717
 5882TIP3    H217611   0.258   0.153   2.724
 5883TIP3   OH217612   1.749   4.537   3.186
 5883TIP3    H117613   1.797   4.460   3.215
 5883TIP3    H217614   1.689   4.504   3.119
 5884TIP3   OH217615   3.812   3.509   2.134
 5884TIP3    H117616   3.896   3.504   2.179
 5884TIP3    H217617   3.758   3.564   2.189
 5885TIP3   OH217618   0.775   4.779   3.918
 5885TIP3    H117619   0.783   4.740   4.004
 5885TIP3    H217620   0.691   4.825   3.920
 5886TIP3   OH217621   1.252   5.858   0.615
 5886TIP3    H117622   1.264   5.877   0.708
 5886TIP3    H217623   1.252   5.763   0.610
 5887TIP3   OH217624   2.406   3.267   4.529
 5887TIP3    H117625   2.413   3.334   4.597
 5887TIP3    H217626   2.477   3.287   4.469
 5888TIP3   OH217627   1.055   4.879   3.452
 5888TIP3    H117628   1.011   4.872   3.367
 5888TIP3    H217629   0.983   4.891   3.514
 5889TIP3   OH217630   4.988   2.874   5.017
 5889TIP3    H117631   5.051   2.866   4.946
 5889TIP3    H217632   5.038   2.908   5.091
 5890TIP3   OH217633   0.240   6.406   4.566
 5890TIP3    H117634   0.328   6.369   4.560
 5890TIP3    H217635   0.251   6.486   4.618
 5891TIP3   OH217636   4.387   1.763   2.539
 5891TIP3    H117637   4.332   1.820   2.484
 5891TIP3    H217638   4.447   1.722   2.477
 5892TIP3   OH217639   2.070   3.580   5.375
 5892TIP3    H117640   2.015   3.637   5.322
 5892TIP3    H217641   2.127   3.640   5.423
 5893TIP3   OH217642   6.702   4.665   3.840
 5893TIP3    H117643   6.782   4.703   3.804
 5893TIP3    H217644   6.732   4.592   3.894
 5894TIP3   OH217645   0.673   3.222   4.967
 5894TIP3    H117646   0.714   3.151   5.016
 5894TIP3    H217647   0.647   3.286   5.034
 5895TIP3   OH217648   1.813   4.567   2.038
 5895TIP3    H117649   1.777   4.514   2.109
 5895TIP3    H217650   1.837   4.504   1.970
 5896TIP3   OH217651   4.252   4.037   3.594
 5896TIP3    H117652   4.203   4.117   3.611
 5896TIP3    H217653   4.228   4.012   3.505
 5897TIP3   OH217654   0.802   4.995   2.234
 5897TIP3    H117655   0.860   4.922   2.257
 5897TIP3    H217656   0.722   4.953   2.201
 5898TIP3   OH217657   0.616   6.362   2.255
 5898TIP3    H117658   0.538   6.375   2.201
 5898TIP3    H217659   0.687   6.355   2.191
 5899TIP3   OH217660   5.786   6.287   5.752
 5899TIP3    H117661   5.844   6.357   5.783
 5899TIP3    H217662   5.785   6.297   5.657
 5900TIP3   OH217663   3.018   2.672   1.583
 5900TIP3    H117664   2.987   2.710   1.666
 5900TIP3    H217665   3.113   2.665   1.594
 5901TIP3   OH217666   2.053   5.006   1.878
 5901TIP3    H117667   2.031   4.927   1.926
 5901TIP3    H217668   2.001   5.001   1.797
 5902TIP3   OH217669   0.597   6.335   0.902
 5902TIP3    H117670   0.604   6.326   0.807
 5902TIP3    H217671   0.535   6.266   0.927
 5903TIP3   OH217672   4.270   3.072   3.068
 5903TIP3    H117673   4.332   3.024   3.014
 5903TIP3    H217674   4.190   3.075   3.016
 5904TIP3   OH217675   5.954   4.957   0.496
 5904TIP3    H117676   5.952   4.971   0.401
 5904TIP3    H217677   6.016   4.885   0.509
 5905TIP3   OH217678   3.908   4.494   5.670
 5905TIP3    H117679   3.986   4.544   5.692
 5905TIP3    H217680   3.916   4.413   5.721
 5906TIP3   OH217681   0.166   1.669   1.600
 5906TIP3    H117682   0.248   1.619   1.604
 5906TIP3    H217683   0.116   1.639   1.676
 5907TIP3   OH217684   1.409   0.857   1.439
 5907TIP3    H117685   1.484   0.798   1.445
 5907TIP3    H217686   1.334   0.799   1.425
 5908TIP3   OH217687   3.534   2.750   1.993
 5908TIP3    H117688   3.597   2.689   2.031
 5908TIP3    H217689   3.474   2.694   1.944
 5909TIP3   OH217690   3.644   2.699   0.523
 5909TIP3    H117691   3.603   2.715   0.438
 5909TIP3    H217692   3.621   2.609   0.544
 5910TIP3   OH217693   4.707   6.254   2.468
 5910TIP3    H117694   4.774   6.283   2.529
 5910TIP3    H217695   4.656   6.189   2.517
 5911TIP3   OH217696   4.637   5.926   0.766
 5911TIP3    H117697   4.720   5.932   0.718
 5911TIP3    H217698   4.571   5.917   0.698
 5912TIP3   OH217699   7.219   4.662   5.586
 5912TIP3    H117700   7.126   4.675   5.567
 5912TIP3    H217701   7.226   4.667   5.681
 5913TIP3   OH217702   5.949   2.261   3.261
 5913TIP3    H117703   5.983   2.260   3.351
 5913TIP3    H217704   5.891   2.336   3.259
 5914TIP3   OH217705   6.883   1.556   4.569
 5914TIP3    H117706   6.977   1.567   4.579
 5914TIP3    H217707   6.844   1.627   4.620
 5915TIP3   OH217708   2.322   6.210   4.818
 5915TIP3    H117709   2.227   6.203   4.811
 5915TIP3    H217710   2.355   6.159   4.744
 5916TIP3   OH217711   2.362   6.368   4.392
 5916TIP3    H117712   2.410   6.401   4.316
 5916TIP3    H217713   2.355   6.274   4.378
 5917TIP3   OH217714   2.492   5.281   3.769
 5917TIP3    H117715   2.416   5.332   3.796
 5917TIP3    H217716   2.466   5.239   3.687
 5918TIP3   OH217717   6.058   6.337   1.116
 5918TIP3    H117718   5.992   6.298   1.174
 5918TIP3    H217719   6.120   6.380   1.174
 5919TIP3   OH217720   1.621   4.356   1.587
 5919TIP3    H117721   1.678   4.282   1.568
 5919TIP3    H217722   1.580   4.378   1.503
 5920TIP3   OH217723   7.149   0.815   3.624
 5920TIP3    H117724   7.178   0.887   3.568
 5920TIP3    H217725   7.055   0.829   3.634
 5921TIP3   OH217726   6.484   2.202   0.896
 5921TIP3    H117727   6.495   2.252   0.815
 5921TIP3    H217728   6.513   2.261   0.965
 5922TIP3   OH217729   3.268   4.698   2.390
 5922TIP3    H117730   3.194   4.648   2.354
 5922TIP3    H217731   3.269   4.675   2.483
 5923TIP3   OH217732   5.225   5.779   3.505
 5923TIP3    H117733   5.241   5.741   3.592
 5923TIP3    H217734   5.273   5.723   3.445
 5924TIP3   OH217735   1.345   6.806   4.915
 5924TIP3    H117736   1.275   6.848   4.963
 5924TIP3    H217737   1.301   6.749   4.852
 5925TIP3   OH217738   3.400   2.041   1.818
 5925TIP3    H117739   3.406   1.973   1.886
 5925TIP3    H217740   3.310   2.073   1.824
 5926TIP3   OH217741   1.775   6.761   0.113
 5926TIP3    H117742   1.835   6.778   0.186
 5926TIP3    H217743   1.787   6.668   0.095
 5927TIP3   OH217744   4.922   5.583   5.419
 5927TIP3    H117745   4.886   5.537   5.343
 5927TIP3    H217746   4.876   5.667   5.419
 5928TIP3   OH217747   3.518   1.335   3.064
 5928TIP3    H117748   3.611   1.323   3.081
 5928TIP3    H217749   3.475   1.318   3.148
 5929TIP3   OH217750   4.303   5.526   5.399
 5929TIP3    H117751   4.363   5.461   5.364
 5929TIP3    H217752   4.337   5.547   5.486
 5930TIP3   OH217753   0.015   2.169   5.840
 5930TIP3    H117754   0.027   2.077   5.817
 5930TIP3    H217755   0.100   2.210   5.821
 5931TIP3   OH217756   4.782   5.804   1.705
 5931TIP3    H117757   4.713   5.757   1.753
 5931TIP3    H217758   4.814   5.741   1.642
 5932TIP3   OH217759   6.795   5.667   2.353
 5932TIP3    H117760   6.747   5.673   2.270
 5932TIP3    H217761   6.729   5.639   2.417
 5933TIP3   OH217762   1.548   1.192   1.383
 5933TIP3    H117763   1.475   1.153   1.334
 5933TIP3    H217764   1.626   1.160   1.338
 5934TIP3   OH217765   0.879   0.980   3.370
 5934TIP3    H117766   0.888   0.933   3.453
 5934TIP3    H217767   0.961   0.962   3.323
 5935TIP3   OH217768   4.472   1.380   4.974
 5935TIP3    H117769   4.480   1.362   5.068
 5935TIP3    H217770   4.552   1.427   4.952
 5936TIP3   OH217771   2.122   3.840   0.503
 5936TIP3    H117772   2.115   3.865   0.595
 5936TIP3    H217773   2.178   3.908   0.464
 5937TIP3   OH217774   5.049   4.721   5.170
 5937TIP3    H117775   5.013   4.650   5.223
 5937TIP3    H217776   5.138   4.694   5.149
 5938TIP3   OH217777   6.897   1.092   2.838
 5938TIP3    H117778   6.926   1.146   2.765
 5938TIP3    H217779   6.935   1.134   2.916
 5939TIP3   OH217780   4.439   1.429   3.027
 5939TIP3    H117781   4.426   1.395   3.115
 5939TIP3    H217782   4.521   1.390   2.998
 5940TIP3   OH217783   6.178   4.159   0.484
 5940TIP3    H117784   6.125   4.079   0.479
 5940TIP3    H217785   6.159   4.194   0.571
 5941TIP3   OH217786   1.409   5.395   0.667
 5941TIP3    H117787   1.383   5.356   0.751
 5941TIP3    H217788   1.353   5.473   0.659
 5942TIP3   OH217789   1.460   0.224   4.160
 5942TIP3    H117790   1.378   0.258   4.196
 5942TIP3    H217791   1.434   0.151   4.104
 5943TIP3   OH217792   6.192   4.508   1.293
 5943TIP3    H117793   6.143   4.538   1.217
 5943TIP3    H217794   6.154   4.558   1.366
 5944TIP3   OH217795   3.421   0.117   1.021
 5944TIP3    H117796   3.381   0.184   0.966
 5944TIP3    H217797   3.347   0.070   1.060
 5945TIP3   OH217798   0.795   5.350   3.575
 5945TIP3    H117799   0.782   5.348   3.480
 5945TIP3    H217800   0.840   5.432   3.592
 5946TIP3   OH217801   3.436   3.219   4.358
 5946TIP3    H117802   3.495   3.195   4.287
 5946TIP3    H217803   3.418   3.313   4.344
 5947TIP3   OH217804   2.483   6.294   3.297
 5947TIP3    H117805   2.434   6.323   3.374
 5947TIP3    H217806   2.416   6.278   3.230
 5948TIP3   OH217807   6.841   4.484   3.204
 5948TIP3    H117808   6.836   4.401   3.158
 5948TIP3    H217809   6.935   4.496   3.222
 5949TIP3   OH217810   0.085   4.504   1.193
 5949TIP3    H117811   0.027   4.448   1.142
 5949TIP3    H217812   0.043   4.590   1.192
 5950TIP3   OH217813   0.724   0.481   1.504
 5950TIP3    H117814   0.805   0.475   1.554
 5950TIP3    H217815   0.655   0.469   1.569
 5951TIP3   OH217816   4.241   5.420   2.018
 5951TIP3    H117817   4.152   5.400   2.044
 5951TIP3    H217818   4.266   5.348   1.959
 5952TIP3   OH217819   5.405   2.417   3.803
 5952TIP3    H117820   5.453   2.392   3.882
 5952TIP3    H217821   5.335   2.474   3.834
 5953TIP3   OH217822   5.330   2.425   3.433
 5953TIP3    H117823   5.309   2.465   3.349
 5953TIP3    H217824   5.355   2.498   3.489
 5954TIP3   OH217825   4.651   4.114   4.232
 5954TIP3    H117826   4.647   4.209   4.225
 5954TIP3    H217827   4.623   4.095   4.321
 5955TIP3   OH217828   3.860   2.867   4.504
 5955TIP3    H117829   3.925   2.855   4.574
 5955TIP3    H217830   3.912   2.893   4.428
 5956TIP3   OH217831   1.402   1.827   4.590
 5956TIP3    H117832   1.335   1.892   4.570
 5956TIP3    H217833   1.439   1.802   4.506
 5957TIP3   OH217834   6.551   4.774   1.608
 5957TIP3    H117835   6.606   4.804   1.681
 5957TIP3    H217836   6.477   4.731   1.651
 5958TIP3   OH217837   7.032   6.279   1.726
 5958TIP3    H117838   7.065   6.340   1.792
 5958TIP3    H217839   6.943   6.259   1.755
 5959TIP3   OH217840   0.718   3.483   0.894
 5959TIP3    H117841   0.737   3.444   0.809
 5959TIP3    H217842   0.731   3.411   0.956
 5960TIP3   OH217843   2.433   4.764   4.067
 5960TIP3    H117844   2.484   4.704   4.122
 5960TIP3    H217845   2.402   4.710   3.994
 5961TIP3   OH217846   4.738   6.809   4.527
 5961TIP3    H117847   4.825   6.771   4.540
 5961TIP3    H217848   4.698   6.755   4.459
 5962TIP3   OH217849   5.373   6.382   2.723
 5962TIP3    H117850   5.315   6.457   2.730
 5962TIP3    H217851   5.345   6.337   2.644
 5963TIP3   OH217852   3.094   1.571   1.136
 5963TIP3    H117853   3.169   1.607   1.183
 5963TIP3    H217854   3.125   1.487   1.102
 5964TIP3   OH217855   2.072   1.767   0.093
 5964TIP3    H117856   2.144   1.797   0.036
 5964TIP3    H217857   2.072   1.672   0.084
 5965TIP3   OH217858   3.252   2.670   1.839
 5965TIP3    H117859   3.328   2.614   1.825
 5965TIP3    H217860   3.255   2.734   1.767
 5966TIP3   OH217861   3.834   0.640   2.173
 5966TIP3    H117862   3.862   0.604   2.256
 5966TIP3    H217863   3.889   0.597   2.108
 5967TIP3   OH217864   4.911   3.804   0.571
 5967TIP3    H117865   4.831   3.857   0.566
 5967TIP3    H217866   4.880   3.714   0.563
 5968TIP3   OH217867   2.745   6.287   3.214
 5968TIP3    H117868   2.653   6.270   3.233
 5968TIP3    H217869   2.786   6.298   3.299
 5969TIP3   OH217870   1.537   5.434   3.986
 5969TIP3    H117871   1.572   5.373   4.050
 5969TIP3    H217872   1.442   5.423   3.991
 5970TIP3   OH217873   4.740   2.936   3.255
 5970TIP3    H117874   4.706   2.996   3.321
 5970TIP3    H217875   4.702   2.967   3.173
 5971TIP3   OH217876   1.271   0.817   4.476
 5971TIP3    H117877   1.337   0.777   4.533
 5971TIP3    H217878   1.247   0.898   4.522
 5972TIP3   OH217879   1.896   1.893   0.305
 5972TIP3    H117880   1.935   1.888   0.218
 5972TIP3    H217881   1.892   1.801   0.335
 5973TIP3   OH217882   4.807   5.758   3.522
 5973TIP3    H117883   4.876   5.818   3.495
 5973TIP3    H217884   4.835   5.727   3.608
 5974TIP3   OH217885   1.138   4.529   4.661
 5974TIP3    H117886   1.178   4.557   4.744
 5974TIP3    H217887   1.152   4.434   4.658
 5975TIP3   OH217888   5.738   3.043   0.124
 5975TIP3    H117889   5.681   3.059   0.049
 5975TIP3    H217890   5.690   2.980   0.178
 5976TIP3   OH217891   5.308   0.101   2.100
 5976TIP3    H117892   5.384   0.065   2.146
 5976TIP3    H217893   5.345   0.171   2.045
 5977TIP3   OH217894   2.560   3.680   2.641
 5977TIP3    H117895   2.571   3.586   2.629
 5977TIP3    H217896   2.561   3.716   2.552
 5978TIP3   OH217897   0.348   1.263   1.811
 5978TIP3    H117898   0.319   1.183   1.854
 5978TIP3    H217899   0.409   1.303   1.873
 5979TIP3   OH217900   2.858   5.369   5.654
 5979TIP3    H117901   2.919   5.296   5.657
 5979TIP3    H217902   2.909   5.442   5.618
 5980TIP3   OH217903   6.551   3.589   2.772
 5980TIP3    H117904   6.645   3.584   2.792
 5980TIP3    H217905   6.511   3.617   2.854
 5981TIP3   OH217906   5.554   0.346   5.504
 5981TIP3    H117907   5.550   0.432   5.547
 5981TIP3    H217908   5.606   0.361   5.425
 5982TIP3   OH217909   6.185   4.551   4.413
 5982TIP3    H117910   6.236   4.561   4.332
 5982TIP3    H217911   6.096   4.535   4.384
 5983TIP3   OH217912   1.990   3.757   5.077
 5983TIP3    H117913   1.930   3.810   5.130
 5983TIP3    H217914   2.077   3.777   5.112
 5984TIP3   OH217915   3.462   5.072   3.707
 5984TIP3    H117916   3.413   5.068   3.625
 5984TIP3    H217917   3.501   5.159   3.707
 5985TIP3   OH217918   4.715   0.105   0.842
 5985TIP3    H117919   4.738   0.043   0.912
 5985TIP3    H217920   4.732   0.056   0.761
 5986TIP3   OH217921   6.651   4.353   4.629
 5986TIP3    H117922   6.722   4.351   4.693
 5986TIP3    H217923   6.695   4.350   4.544
 5987TIP3   OH217924   6.155   3.571   2.879
 5987TIP3    H117925   6.165   3.561   2.785
 5987TIP3    H217926   6.078   3.628   2.889
 5988TIP3   OH217927   7.114   5.126   4.578
 5988TIP3    H117928   7.189   5.068   4.566
 5988TIP3    H217929   7.146   5.213   4.556
 5989TIP3   OH217930   5.008   4.974   2.184
 5989TIP3    H117931   5.019   4.966   2.279
 5989TIP3    H217932   4.917   4.948   2.168
 5990TIP3   OH217933   3.862   4.206   4.356
 5990TIP3    H117934   3.862   4.223   4.450
 5990TIP3    H217935   3.954   4.188   4.336
 5991TIP3   OH217936   4.703   4.136   0.798
 5991TIP3    H117937   4.760   4.120   0.874
 5991TIP3    H217938   4.617   4.152   0.835
 5992TIP3   OH217939   6.434   1.908   0.665
 5992TIP3    H117940   6.491   1.966   0.716
 5992TIP3    H217941   6.380   1.863   0.730
 5993TIP3   OH217942   5.091   5.247   2.191
 5993TIP3    H117943   5.165   5.255   2.130
 5993TIP3    H217944   5.062   5.156   2.182
 5994TIP3   OH217945   3.331   4.107   5.615
 5994TIP3    H117946   3.326   4.030   5.672
 5994TIP3    H217947   3.356   4.179   5.673
 5995TIP3   OH217948   0.744   1.264   2.021
 5995TIP3    H117949   0.670   1.208   1.997
 5995TIP3    H217950   0.739   1.337   1.960
 5996TIP3   OH217951   1.654   5.483  -0.017
 5996TIP3    H117952   1.745   5.484   0.009
 5996TIP3    H217953   1.605   5.488   0.065
 5997TIP3   OH217954   6.264   5.839   1.879
 5997TIP3    H117955   6.278   5.932   1.899
 5997TIP3    H217956   6.267   5.834   1.784
 5998TIP3   OH217957   0.899   2.784   0.053
 5998TIP3    H117958   0.868   2.823  -0.028
 5998TIP3    H217959   0.839   2.711   0.070
 5999TIP3   OH217960   2.544   2.581   4.333
 5999TIP3    H117961   2.503   2.556   4.415
 5999TIP3    H217962   2.625   2.625   4.359
 6000TIP3   OH217963   0.651   1.185   3.445
 6000TIP3    H117964   0.712   1.118   3.415
 6000TIP3    H217965   0.592   1.199   3.371
 6001TIP3   OH217966   2.605   5.291   0.078
 6001TIP3    H117967   2.642   5.204   0.095
 6001TIP3    H217968   2.588   5.328   0.164
 6002TIP3   OH217969   6.432   5.164   0.696
 6002TIP3    H117970   6.349   5.210   0.712
 6002TIP3    H217971   6.495   5.207   0.754
 6003TIP3   OH217972   0.867   0.798   3.575
 6003TIP3    H117973   0.793   0.843   3.617
 6003TIP3    H217974   0.834   0.710   3.559
 6004TIP3   OH217975   6.363   6.133   5.479
 6004TIP3    H117976   6.302   6.143   5.552
 6004TIP3    H217977   6.310   6.097   5.408
 6005TIP3   OH217978   4.685   5.564   1.050
 6005TIP3    H117979   4.712   5.475   1.071
 6005TIP3    H217980   4.649   5.598   1.132
 6006TIP3   OH217981   1.970   5.041   1.036
 6006TIP3    H117982   2.042   5.104   1.035
 6006TIP3    H217983   2.012   4.957   1.057
 6007TIP3   OH217984   0.281   1.615   4.456
 6007TIP3    H117985   0.334   1.644   4.530
 6007TIP3    H217986   0.292   1.683   4.390
 6008TIP3   OH217987   3.768   1.432   4.175
 6008TIP3    H117988   3.858   1.459   4.195
 6008TIP3    H217989   3.724   1.431   4.260
 6009TIP3   OH217990   6.569   1.636   0.718
 6009TIP3    H117991   6.508   1.709   0.731
 6009TIP3    H217992   6.648   1.677   0.684
 6010TIP3   OH217993   4.777   5.895   3.129
 6010TIP3    H117994   4.833   5.838   3.076
 6010TIP3    H217995   4.688   5.871   3.105
 6011TIP3   OH217996   2.923   3.160   3.911
 6011TIP3    H117997   3.017   3.162   3.892
 6011TIP3    H217998   2.913   3.219   3.985
 6012TIP3   OH217999   0.896   6.725   0.845
 6012TIP3    H118000   0.866   6.754   0.759
 6012TIP3    H218001   0.991   6.741   0.843
 6013TIP3   OH218002   2.278   3.192   0.115
 6013TIP3    H118003   2.255   3.280   0.144
 6013TIP3    H218004   2.373   3.188   0.124
 6014TIP3   OH218005   5.365   3.846   0.723
 6014TIP3    H118006   5.331   3.921   0.773
 6014TIP3    H218007   5.317   3.849   0.640
 6015TIP3   OH218008   3.654   0.051   3.839
 6015TIP3    H118009   3.697   0.108   3.903
 6015TIP3    H218010   3.658   0.100   3.757
 6016TIP3   OH218011   6.357   1.988   2.456
 6016TIP3    H118012   6.368   2.082   2.445
 6016TIP3    H218013   6.268   1.971   2.426
 6017TIP3   OH218014   4.935   6.206   3.476
 6017TIP3    H118015   4.952   6.250   3.393
 6017TIP3    H218016   4.906   6.276   3.535
 6018TIP3   OH218017   1.885   5.665   5.002
 6018TIP3    H118018   1.898   5.570   5.000
 6018TIP3    H218019   1.903   5.694   4.912
 6019TIP3   OH218020   5.056   2.107   3.238
 6019TIP3    H118021   5.083   2.018   3.216
 6019TIP3    H218022   5.076   2.158   3.160
 6020TIP3   OH218023   1.545   1.675   3.896
 6020TIP3    H118024   1.496   1.689   3.815
 6020TIP3    H218025   1.619   1.735   3.889
 6021TIP3   OH218026   0.512   6.470   5.546
 6021TIP3    H118027   0.600   6.505   5.561
 6021TIP3    H218028   0.499   6.476   5.452
 6022TIP3   OH218029   6.688   6.413   3.218
 6022TIP3    H118030   6.749   6.451   3.282
 6022TIP3    H218031   6.606   6.459   3.234
 6023TIP3   OH218032   5.902   1.604   4.043
 6023TIP3    H118033   5.901   1.699   4.029
 6023TIP3    H218034   5.980   1.589   4.097
 6024TIP3   OH218035   3.616   3.892   3.854
 6024TIP3    H118036   3.613   3.814   3.799
 6024TIP3    H218037   3.597   3.860   3.942
 6025TIP3   OH218038   2.142   3.836   2.905
 6025TIP3    H118039   2.227   3.825   2.862
 6025TIP3    H218040   2.078   3.823   2.835
 6026TIP3   OH218041   5.531   5.047   0.970
 6026TIP3    H118042   5.557   5.098   0.893
 6026TIP3    H218043   5.491   5.112   1.029
 6027TIP3   OH218044   3.901   2.795   0.597
 6027TIP3    H118045   3.932   2.771   0.510
 6027TIP3    H218046   3.806   2.791   0.591
 6028TIP3   OH218047   6.427   0.541   0.084
 6028TIP3    H118048   6.460   0.464   0.037
 6028TIP3    H218049   6.493   0.558   0.151
 6029TIP3   OH218050   6.838   2.038   4.022
 6029TIP3    H118051   6.833   2.042   3.927
 6029TIP3    H218052   6.759   2.084   4.052
 6030TIP3   OH218053   3.042   5.859   5.501
 6030TIP3    H118054   3.007   5.946   5.521
 6030TIP3    H218055   3.127   5.876   5.460
 6031TIP3   OH218056   7.132   3.028   0.544
 6031TIP3    H118057   7.216   2.983   0.556
 6031TIP3    H218058   7.131   3.096   0.611
 6032TIP3   OH218059   2.533   3.574   5.004
 6032TIP3    H118060   2.496   3.489   4.977
 6032TIP3    H218061   2.491   3.593   5.087
 6033TIP3   OH218062   5.816   1.172   3.666
 6033TIP3    H118063   5.776   1.259   3.661
 6033TIP3    H218064   5.890   1.176   3.606
 6034TIP3   OH218065   1.117   5.669   1.873
 6034TIP3    H118066   1.118   5.616   1.952
 6034TIP3    H218067   1.095   5.757   1.903
 6035TIP3   OH218068   6.913   6.642   0.497
 6035TIP3    H118069   6.867   6.613   0.419
 6035TIP3    H218070   6.855   6.707   0.537
 6036TIP3   OH218071   3.130   0.969   3.545
 6036TIP3    H118072   3.051   0.917   3.533
 6036TIP3    H218073   3.191   0.936   3.480
 6037TIP3   OH218074   7.031   0.910   2.575
 6037TIP3    H118075   7.083   0.841   2.616
 6037TIP3    H218076   6.940   0.886   2.594
 6038TIP3   OH218077   3.952   2.315   0.914
 6038TIP3    H118078   3.920   2.326   1.004
 6038TIP3    H218079   3.950   2.220   0.900
 6039TIP3   OH218080   3.427   4.035   4.272
 6039TIP3    H118081   3.519   4.052   4.251
 6039TIP3    H218082   3.428   3.952   4.319
 6040TIP3   OH218083   5.424   2.332   3.072
 6040TIP3    H118084   5.360   2.275   3.028
 6040TIP3    H218085   5.507   2.287   3.062
 6041TIP3   OH218086   3.923   3.679   1.043
 6041TIP3    H118087   4.018   3.689   1.052
 6041TIP3    H218088   3.896   3.635   1.124
 6042TIP3   OH218089   0.970   4.486   1.385
 6042TIP3    H118090   0.939   4.441   1.307
 6042TIP3    H218091   1.065   4.474   1.383
 6043TIP3   OH218092   0.312   4.024   4.553
 6043TIP3    H118093   0.382   4.088   4.550
 6043TIP3    H218094   0.355   3.941   4.571
 6044TIP3   OH218095   4.013   0.437   0.607
 6044TIP3    H118096   4.099   0.439   0.649
 6044TIP3    H218097   4.022   0.494   0.530
 6045TIP3   OH218098   2.553   1.327   4.879
 6045TIP3    H118099   2.603   1.268   4.822
 6045TIP3    H218100   2.468   1.284   4.890
 6046TIP3   OH218101   4.497   2.979   1.679
 6046TIP3    H118102   4.444   2.902   1.656
 6046TIP3    H218103   4.477   2.996   1.771
 6047TIP3   OH218104   5.915   3.963   2.190
 6047TIP3    H118105   5.873   4.022   2.252
 6047TIP3    H218106   5.983   4.017   2.149
 6048TIP3   OH218107   5.470   0.422   5.850
 6048TIP3    H118108   5.497   0.487   5.786
 6048TIP3    H218109   5.380   0.401   5.827
 6049TIP3   OH218110   3.518   6.071   1.242
 6049TIP3    H118111   3.540   6.037   1.329
 6049TIP3    H218112   3.564   6.155   1.236
 6050TIP3   OH218113   1.604   5.259   0.812
 6050TIP3    H118114   1.625   5.168   0.792
 6050TIP3    H218115   1.536   5.283   0.749
 6051TIP3   OH218116   5.103   0.612   2.138
 6051TIP3    H118117   5.096   0.708   2.146
 6051TIP3    H218118   5.032   0.578   2.192
 6052TIP3   OH218119   5.123   3.910   0.414
 6052TIP3    H118120   5.186   3.839   0.428
 6052TIP3    H218121   5.047   3.885   0.467
 6053TIP3   OH218122   1.144   4.702   3.753
 6053TIP3    H118123   1.231   4.741   3.758
 6053TIP3    H218124   1.104   4.741   3.676
 6054TIP3   OH218125   2.011   6.029   3.616
 6054TIP3    H118126   2.050   6.081   3.546
 6054TIP3    H218127   2.085   5.980   3.653
 6055TIP3   OH218128   3.966   5.253   5.189
 6055TIP3    H118129   3.972   5.209   5.104
 6055TIP3    H218130   3.912   5.194   5.242
 6056TIP3   OH218131   0.844   5.561   2.771
 6056TIP3    H118132   0.802   5.478   2.794
 6056TIP3    H218133   0.824   5.619   2.845
 6057TIP3   OH218134   4.771   1.920   3.424
 6057TIP3    H118135   4.778   2.015   3.416
 6057TIP3    H218136   4.853   1.894   3.467
 6058TIP3   OH218137   2.648   6.088   1.953
 6058TIP3    H118138   2.668   5.999   1.924
 6058TIP3    H218139   2.567   6.078   2.004
 6059TIP3   OH218140   3.513   0.212   3.025
 6059TIP3    H118141   3.495   0.159   2.947
 6059TIP3    H218142   3.581   0.273   2.998
 6060TIP3   OH218143   2.896   3.265   2.991
 6060TIP3    H118144   2.894   3.359   3.013
 6060TIP3    H218145   2.989   3.243   2.990
 6061TIP3   OH218146   3.157   2.935   0.424
 6061TIP3    H118147   3.220   2.921   0.495
 6061TIP3    H218148   3.147   3.030   0.420
 6062TIP3   OH218149   0.986   0.897   2.511
 6062TIP3    H118150   1.046   0.958   2.469
 6062TIP3    H218151   0.903   0.908   2.465
 6063TIP3   OH218152   3.487   5.531   3.040
 6063TIP3    H118153   3.556   5.585   3.077
 6063TIP3    H218154   3.515   5.441   3.054
 6064TIP3   OH218155   0.106   3.033   2.683
 6064TIP3    H118156   0.165   3.060   2.612
 6064TIP3    H218157   0.144   3.073   2.761
 6065TIP3   OH218158   4.861   2.162   2.917
 6065TIP3    H118159   4.795   2.184   2.851
 6065TIP3    H218160   4.878   2.245   2.962
 6066TIP3   OH218161   4.961   4.487   5.237
 6066TIP3    H118162   4.902   4.457   5.168
 6066TIP3    H218163   5.016   4.410   5.256
 6067TIP3   OH218164   1.742   2.915   1.983
 6067TIP3    H118165   1.658   2.947   2.017
 6067TIP3    H218166   1.778   2.990   1.936
 6068TIP3   OH218167   1.504   5.886   1.649
 6068TIP3    H118168   1.588   5.870   1.691
 6068TIP3    H218169   1.440   5.850   1.710
 6069TIP3   OH218170   5.278   2.802   2.077
 6069TIP3    H118171   5.267   2.775   2.168
 6069TIP3    H218172   5.191   2.790   2.038
 6070TIP3   OH218173   7.059   1.077   0.247
 6070TIP3    H118174   7.108   0.995   0.259
 6070TIP3    H218175   7.095   1.136   0.314
 6071TIP3   OH218176   6.144   6.510   0.787
 6071TIP3    H118177   6.199   6.555   0.723
 6071TIP3    H218178   6.066   6.484   0.738
 6072TIP3   OH218179   4.875   5.908   4.574
 6072TIP3    H118180   4.847   5.958   4.497
 6072TIP3    H218181   4.910   5.826   4.539
 6073TIP3   OH218182   3.559   4.533   1.120
 6073TIP3    H118183   3.501   4.463   1.090
 6073TIP3    H218184   3.605   4.561   1.041
 6074TIP3   OH218185   2.849   3.105   2.195
 6074TIP3    H118186   2.855   3.067   2.282
 6074TIP3    H218187   2.921   3.169   2.192
 6075TIP3   OH218188   3.060   0.206   3.150
 6075TIP3    H118189   3.128   0.159   3.199
 6075TIP3    H218190   3.045   0.154   3.072
 6076TIP3   OH218191   6.933   6.464   0.799
 6076TIP3    H118192   6.857   6.454   0.742
 6076TIP3    H218193   6.915   6.407   0.874
 6077TIP3   OH218194   2.169   1.298   4.300
 6077TIP3    H118195   2.158   1.235   4.229
 6077TIP3    H218196   2.095   1.358   4.291
 6078TIP3   OH218197   2.895   6.420   1.139
 6078TIP3    H118198   2.929   6.330   1.131
 6078TIP3    H218199   2.831   6.427   1.068
 6079TIP3   OH218200   6.435   0.416   5.741
 6079TIP3    H118201   6.500   0.383   5.803
 6079TIP3    H218202   6.390   0.486   5.788
 6080TIP3   OH218203   3.941   2.273   2.065
 6080TIP3    H118204   3.847   2.283   2.054
 6080TIP3    H218205   3.968   2.217   1.992
 6081TIP3   OH218206   2.739   0.323   0.534
 6081TIP3    H118207   2.768   0.414   0.538
 6081TIP3    H218208   2.740   0.302   0.440
 6082TIP3   OH218209   4.903   3.726   1.738
 6082TIP3    H118210   4.808   3.726   1.753
 6082TIP3    H218211   4.935   3.652   1.790
 6083TIP3   OH218212   0.099   0.822   2.027
 6083TIP3    H118213   0.023   0.829   1.969
 6083TIP3    H218214   0.092   0.735   2.066
 6084TIP3   OH218215   1.703   4.035   3.945
 6084TIP3    H118216   1.684   4.122   3.980
 6084TIP3    H218217   1.618   3.999   3.921
 6085TIP3   OH218218   6.287   3.854   1.843
 6085TIP3    H118219   6.301   3.948   1.846
 6085TIP3    H218220   6.341   3.824   1.770
 6086TIP3   OH218221   4.213   5.064   2.064
 6086TIP3    H118222   4.134   5.043   2.114
 6086TIP3    H218223   4.281   5.074   2.130
 6087TIP3   OH218224   2.683   1.224   0.183
 6087TIP3    H118225   2.681   1.319   0.195
 6087TIP3    H218226   2.677   1.211   0.089
 6088TIP3   OH218227   5.815   4.641   2.600
 6088TIP3    H118228   5.792   4.721   2.647
 6088TIP3    H218229   5.808   4.571   2.665
 6089TIP3   OH218230   3.112   0.502   2.186
 6089TIP3    H118231   3.081   0.426   2.235
 6089TIP3    H218232   3.073   0.492   2.099
 6090TIP3   OH218233   7.202   5.201   5.243
 6090TIP3    H118234   7.272   5.233   5.187
 6090TIP3    H218235   7.129   5.261   5.227
 6091TIP3   OH218236   5.912   0.494   3.691
 6091TIP3    H118237   5.938   0.403   3.704
 6091TIP3    H218238   5.874   0.520   3.776
 6092TIP3   OH218239   6.558   2.736   1.010
 6092TIP3    H118240   6.616   2.660   1.007
 6092TIP3    H218241   6.576   2.783   0.928
 6093TIP3   OH218242   0.269   0.558   3.876
 6093TIP3    H118243   0.292   0.480   3.928
 6093TIP3    H218244   0.348   0.577   3.826
 6094TIP3   OH218245   0.242   6.631   4.720
 6094TIP3    H118246   0.248   6.717   4.677
 6094TIP3    H218247   0.161   6.635   4.770
 6095TIP3   OH218248   6.325   2.716   0.658
 6095TIP3    H118249   6.274   2.796   0.667
 6095TIP3    H218250   6.415   2.745   0.642
 6096TIP3   OH218251   0.736   3.379   1.529
 6096TIP3    H118252   0.821   3.335   1.537
 6096TIP3    H218253   0.673   3.317   1.565
 6097TIP3   OH218254   0.286   3.173   1.770
 6097TIP3    H118255   0.351   3.170   1.840
 6097TIP3    H218256   0.255   3.083   1.762
 6098TIP3   OH218257   1.286   1.389   2.168
 6098TIP3    H118258   1.333   1.466   2.133
 6098TIP3    H218259   1.202   1.424   2.197
 6099TIP3   OH218260   0.060   4.326   3.398
 6099TIP3    H118261   0.061   4.260   3.467
 6099TIP3    H218262   0.066   4.409   3.445
 6100TIP3   OH218263   0.137   2.567   2.144
 6100TIP3    H118264   0.055   2.569   2.193
 6100TIP3    H218265   0.169   2.478   2.155
 6101TIP3   OH218266   2.944   1.131   3.925
 6101TIP3    H118267   3.024   1.106   3.880
 6101TIP3    H218268   2.877   1.072   3.890
 6102TIP3   OH218269   3.089   1.956   0.433
 6102TIP3    H118270   3.095   1.885   0.369
 6102TIP3    H218271   3.004   1.996   0.417
 6103TIP3   OH218272   2.117   6.499   3.241
 6103TIP3    H118273   2.045   6.488   3.304
 6103TIP3    H218274   2.074   6.519   3.158
 6104TIP3   OH218275   4.232   0.818   2.721
 6104TIP3    H118276   4.143   0.845   2.742
 6104TIP3    H218277   4.229   0.797   2.628
 6105TIP3   OH218278   4.692   3.495   1.869
 6105TIP3    H118279   4.763   3.454   1.820
 6105TIP3    H218280   4.648   3.551   1.805
 6106TIP3   OH218281   3.780   1.282   3.140
 6106TIP3    H118282   3.815   1.345   3.077
 6106TIP3    H218283   3.853   1.221   3.154
 6107TIP3   OH218284   3.658   0.896   5.136
 6107TIP3    H118285   3.728   0.864   5.079
 6107TIP3    H218286   3.664   0.839   5.213
 6108TIP3   OH218287   7.000   5.133   1.316
 6108TIP3    H118288   7.066   5.110   1.250
 6108TIP3    H218289   7.046   5.191   1.376
 6109TIP3   OH218290   0.832   4.626   2.893
 6109TIP3    H118291   0.923   4.645   2.872
 6109TIP3    H218292   0.796   4.710   2.921
 6110TIP3   OH218293   0.606   4.455   3.413
 6110TIP3    H118294   0.687   4.505   3.423
 6110TIP3    H218295   0.551   4.510   3.358
 6111TIP3   OH218296   5.918   2.665   0.876
 6111TIP3    H118297   5.874   2.690   0.957
 6111TIP3    H218298   5.872   2.714   0.808
 6112TIP3   OH218299   0.558   5.391   0.305
 6112TIP3    H118300   0.585   5.356   0.220
 6112TIP3    H218301   0.552   5.313   0.361
 6113TIP3   OH218302   2.994   6.658   3.738
 6113TIP3    H118303   2.905   6.634   3.765
 6113TIP3    H218304   3.041   6.672   3.820
 6114TIP3   OH218305   3.944   4.898   1.894
 6114TIP3    H118306   3.946   4.954   1.971
 6114TIP3    H218307   3.963   4.810   1.927
 6115TIP3   OH218308   1.258   6.463   1.766
 6115TIP3    H118309   1.191   6.500   1.709
 6115TIP3    H218310   1.299   6.393   1.715
 6116TIP3   OH218311   0.424   1.196   3.282
 6116TIP3    H118312   0.449   1.221   3.193
 6116TIP3    H218313   0.360   1.262   3.309
 6117TIP3   OH218314   0.377   3.624   3.337
 6117TIP3    H118315   0.328   3.565   3.395
 6117TIP3    H218316   0.431   3.566   3.284
 6118TIP3   OH218317   7.134   5.893   0.685
 6118TIP3    H118318   7.082   5.961   0.728
 6118TIP3    H218319   7.148   5.927   0.596
 6119TIP3   OH218320   4.788   1.668   3.681
 6119TIP3    H118321   4.728   1.639   3.749
 6119TIP3    H218322   4.740   1.655   3.599
 6120TIP3   OH218323   0.200   2.470   2.782
 6120TIP3    H118324   0.188   2.396   2.723
 6120TIP3    H218325   0.277   2.449   2.834
 6121TIP3   OH218326   5.722   4.503   1.942
 6121TIP3    H118327   5.650   4.544   1.990
 6121TIP3    H218328   5.731   4.416   1.981
 6122TIP3   OH218329   5.289   0.248   4.104
 6122TIP3    H118330   5.369   0.234   4.053
 6122TIP3    H218331   5.317   0.244   4.195
 6123TIP3   OH218332   4.993   2.545   5.772
 6123TIP3    H118333   4.940   2.625   5.765
 6123TIP3    H218334   4.973   2.497   5.691
 6124TIP3   OH218335   1.290   0.269   1.419
 6124TIP3    H118336   1.239   0.347   1.442
 6124TIP3    H218337   1.242   0.197   1.460
 6125TIP3   OH218338   1.591   3.653   1.263
 6125TIP3    H118339   1.598   3.596   1.340
 6125TIP3    H218340   1.658   3.620   1.203
 6126TIP3   OH218341   0.158   2.027   2.341
 6126TIP3    H118342   0.249   2.054   2.352
 6126TIP3    H218343   0.155   1.937   2.375
 6127TIP3   OH218344   5.751   6.262   4.252
 6127TIP3    H118345   5.752   6.255   4.347
 6127TIP3    H218346   5.839   6.234   4.225
 6128TIP3   OH218347   2.080   2.068   1.683
 6128TIP3    H118348   2.122   1.989   1.649
 6128TIP3    H218349   2.002   2.037   1.729
 6129TIP3   OH218350   6.068   6.596   4.659
 6129TIP3    H118351   6.150   6.645   4.658
 6129TIP3    H218352   6.077   6.534   4.587
 6130TIP3   OH218353   3.717   3.146   4.542
 6130TIP3    H118354   3.730   3.062   4.497
 6130TIP3    H218355   3.624   3.165   4.531
 6131TIP3   OH218356   0.483   5.245   4.472
 6131TIP3    H118357   0.517   5.299   4.400
 6131TIP3    H218358   0.398   5.282   4.492
 6132TIP3   OH218359   1.824   3.578   0.243
 6132TIP3    H118360   1.816   3.648   0.178
 6132TIP3    H218361   1.810   3.621   0.327
 6133TIP3   OH218362   6.894   4.318   5.486
 6133TIP3    H118363   6.836   4.258   5.439
 6133TIP3    H218364   6.921   4.269   5.564
 6134TIP3   OH218365   4.381   3.074   1.912
 6134TIP3    H118366   4.314   3.122   1.862
 6134TIP3    H218367   4.402   3.132   1.985
 6135TIP3   OH218368   6.530   3.510   3.112
 6135TIP3    H118369   6.583   3.430   3.116
 6135TIP3    H218370   6.530   3.544   3.201
 6136TIP3   OH218371   4.471   5.464   4.728
 6136TIP3    H118372   4.544   5.468   4.789
 6136TIP3    H218373   4.430   5.550   4.733
 6137TIP3   OH218374   0.889   4.435   2.382
 6137TIP3    H118375   0.950   4.466   2.450
 6137TIP3    H218376   0.945   4.417   2.307
 6138TIP3   OH218377   1.540   6.795   1.987
 6138TIP3    H118378   1.572   6.803   1.898
 6138TIP3    H218379   1.463   6.738   1.980
 6139TIP3   OH218380   2.961   1.412   0.842
 6139TIP3    H118381   2.954   1.466   0.763
 6139TIP3    H218382   2.877   1.369   0.850
 6140TIP3   OH218383   0.864   4.279   3.600
 6140TIP3    H118384   0.893   4.368   3.581
 6140TIP3    H218385   0.827   4.284   3.689
 6141TIP3   OH218386   4.440   4.410   2.627
 6141TIP3    H118387   4.532   4.418   2.653
 6141TIP3    H218388   4.441   4.344   2.557
 6142TIP3   OH218389   3.962   0.859   2.763
 6142TIP3    H118390   3.925   0.772   2.746
 6142TIP3    H218391   3.923   0.915   2.696
 6143TIP3   OH218392   1.202   1.494   4.758
 6143TIP3    H118393   1.227   1.436   4.830
 6143TIP3    H218394   1.277   1.552   4.746
 6144TIP3   OH218395   2.591   0.238   0.262
 6144TIP3    H118396   2.595   0.305   0.194
 6144TIP3    H218397   2.521   0.179   0.235
 6145TIP3   OH218398   3.039   2.594   3.180
 6145TIP3    H118399   2.962   2.556   3.136
 6145TIP3    H218400   3.063   2.668   3.125
 6146TIP3   OH218401   5.813   5.289   3.706
 6146TIP3    H118402   5.899   5.280   3.746
 6146TIP3    H218403   5.830   5.338   3.625
 6147TIP3   OH218404   2.064   1.079   0.931
 6147TIP3    H118405   2.061   1.055   1.024
 6147TIP3    H218406   2.120   1.157   0.928
 6148TIP3   OH218407   4.077   5.007   3.057
 6148TIP3    H118408   4.064   5.077   2.992
 6148TIP3    H218409   4.157   4.962   3.027
 6149TIP3   OH218410   4.787   5.136   2.626
 6149TIP3    H118411   4.818   5.162   2.713
 6149TIP3    H218412   4.847   5.179   2.565
 6150TIP3   OH218413   4.102   2.553   4.104
 6150TIP3    H118414   4.155   2.535   4.181
 6150TIP3    H218415   4.012   2.540   4.134
 6151TIP3   OH218416   2.753   5.126   3.234
 6151TIP3    H118417   2.751   5.035   3.264
 6151TIP3    H218418   2.772   5.177   3.313
 6152TIP3   OH218419   2.610   0.846   4.831
 6152TIP3    H118420   2.650   0.774   4.782
 6152TIP3    H218421   2.516   0.835   4.818
 6153TIP3   OH218422   4.123   0.410   5.849
 6153TIP3    H118423   4.167   0.483   5.890
 6153TIP3    H218424   4.030   0.435   5.849
 6154TIP3   OH218425   0.678   3.876   5.278
 6154TIP3    H118426   0.742   3.880   5.350
 6154TIP3    H218427   0.673   3.783   5.256
 6155TIP3   OH218428   4.947   3.277   4.849
 6155TIP3    H118429   4.862   3.245   4.820
 6155TIP3    H218430   4.990   3.308   4.769
 6156TIP3   OH218431   6.990   1.324   4.876
 6156TIP3    H118432   7.017   1.401   4.926
 6156TIP3    H218433   7.073   1.283   4.850
 6157TIP3   OH218434   5.880   5.527   0.209
 6157TIP3    H118435   5.886   5.553   0.117
 6157TIP3    H218436   5.924   5.597   0.257
 6158TIP3   OH218437   6.030   4.864   5.577
 6158TIP3    H118438   6.088   4.914   5.520
 6158TIP3    H218439   5.985   4.931   5.629
 6159TIP3   OH218440   4.288   2.007   4.433
 6159TIP3    H118441   4.311   1.948   4.360
 6159TIP3    H218442   4.372   2.028   4.474
 6160TIP3   OH218443   1.044   2.652   3.126
 6160TIP3    H118444   0.963   2.702   3.117
 6160TIP3    H218445   1.113   2.720   3.127
 6161TIP3   OH218446   5.575   0.394   1.771
 6161TIP3    H118447   5.572   0.309   1.729
 6161TIP3    H218448   5.664   0.400   1.807
 6162TIP3   OH218449   1.556   2.637   0.123
 6162TIP3    H118450   1.590   2.709   0.177
 6162TIP3    H218451   1.579   2.558   0.171
 6163TIP3   OH218452   1.416   4.749   3.839
 6163TIP3    H118453   1.403   4.752   3.934
 6163TIP3    H218454   1.444   4.659   3.821
 6164TIP3   OH218455   6.733   0.484   1.401
 6164TIP3    H118456   6.658   0.459   1.348
 6164TIP3    H218457   6.705   0.564   1.447
 6165TIP3   OH218458   5.682   3.359   3.104
 6165TIP3    H118459   5.660   3.296   3.036
 6165TIP3    H218460   5.628   3.335   3.179
 6166TIP3   OH218461   5.322   0.552   0.550
 6166TIP3    H118462   5.361   0.469   0.522
 6166TIP3    H218463   5.235   0.554   0.509
 6167TIP3   OH218464   1.582   1.139   0.351
 6167TIP3    H118465   1.513   1.077   0.327
 6167TIP3    H218466   1.628   1.097   0.423
 6168TIP3   OH218467   2.525   5.306   0.917
 6168TIP3    H118468   2.543   5.371   0.849
 6168TIP3    H218469   2.443   5.265   0.889
 6169TIP3   OH218470   4.639   4.878   4.068
 6169TIP3    H118471   4.695   4.815   4.023
 6169TIP3    H218472   4.569   4.824   4.107
 6170TIP3   OH218473   5.471   6.629   1.928
 6170TIP3    H118474   5.480   6.632   1.833
 6170TIP3    H218475   5.440   6.540   1.946
 6171TIP3   OH218476   2.343   6.325   2.611
 6171TIP3    H118477   2.404   6.363   2.673
 6171TIP3    H218478   2.271   6.388   2.606
 6172TIP3   OH218479   2.649   5.750   1.159
 6172TIP3    H118480   2.703   5.674   1.137
 6172TIP3    H218481   2.652   5.805   1.080
 6173TIP3   OH218482   4.548   5.692   1.812
 6173TIP3    H118483   4.545   5.609   1.765
 6173TIP3    H218484   4.481   5.746   1.770
 6174TIP3   OH218485   4.787   2.202   1.728
 6174TIP3    H118486   4.718   2.196   1.662
 6174TIP3    H218487   4.741   2.192   1.812
 6175TIP3   OH218488   4.622   2.177   1.501
 6175TIP3    H118489   4.549   2.163   1.561
 6175TIP3    H218490   4.599   2.127   1.422
 6176TIP3   OH218491   6.487   0.617   3.589
 6176TIP3    H118492   6.398   0.650   3.576
 6176TIP3    H218493   6.486   0.530   3.550
 6177TIP3   OH218494   3.236   6.142   2.827
 6177TIP3    H118495   3.264   6.228   2.861
 6177TIP3    H218496   3.281   6.079   2.883
 6178TIP3   OH218497   6.482   2.382   3.797
 6178TIP3    H118498   6.529   2.384   3.713
 6178TIP3    H218499   6.545   2.415   3.861
 6179TIP3   OH218500   4.076   3.935   2.409
 6179TIP3    H118501   4.100   3.895   2.492
 6179TIP3    H218502   4.076   3.863   2.346
 6180TIP3   OH218503   6.756   6.181   4.980
 6180TIP3    H118504   6.713   6.267   4.988
 6180TIP3    H218505   6.689   6.118   5.004
 6181TIP3   OH218506   5.408   6.768   2.543
 6181TIP3    H118507   5.400   6.692   2.485
 6181TIP3    H218508   5.454   6.734   2.620
 6182TIP3   OH218509   4.529   6.680   5.260
 6182TIP3    H118510   4.489   6.767   5.253
 6182TIP3    H218511   4.456   6.622   5.283
 6183TIP3   OH218512   2.548   3.614   4.742
 6183TIP3    H118513   2.626   3.602   4.688
 6183TIP3    H218514   2.579   3.603   4.832
 6184TIP3   OH218515   0.183   6.460   3.870
 6184TIP3    H118516   0.131   6.429   3.944
 6184TIP3    H218517   0.271   6.427   3.888
 6185TIP3   OH218518   6.226   4.953   2.058
 6185TIP3    H118519   6.316   4.971   2.084
 6185TIP3    H218520   6.209   4.863   2.086
 6186TIP3   OH218521   1.840   2.902   4.624
 6186TIP3    H118522   1.869   2.975   4.678
 6186TIP3    H218523   1.840   2.937   4.534
 6187TIP3   OH218524   1.399   1.098   0.878
 6187TIP3    H118525   1.401   1.012   0.920
 6187TIP3    H218526   1.305   1.117   0.868
 6188TIP3   OH218527   6.838   0.810   1.459
 6188TIP3    H118528   6.896   0.749   1.412
 6188TIP3    H218529   6.750   0.774   1.446
 6189TIP3   OH218530   3.359   2.838   4.248
 6189TIP3    H118531   3.344   2.830   4.342
 6189TIP3    H218532   3.437   2.893   4.241
 6190TIP3   OH218533   2.181   3.692   0.273
 6190TIP3    H118534   2.150   3.602   0.287
 6190TIP3    H218535   2.140   3.743   0.343
 6191TIP3   OH218536   2.695   1.407   5.287
 6191TIP3    H118537   2.722   1.360   5.367
 6191TIP3    H218538   2.763   1.386   5.224
 6192TIP3   OH218539   2.744   4.110   3.486
 6192TIP3    H118540   2.808   4.162   3.535
 6192TIP3    H218541   2.750   4.023   3.525
 6193TIP3   OH218542   7.173   5.039   5.781
 6193TIP3    H118543   7.268   5.042   5.770
 6193TIP3    H218544   7.148   5.128   5.805
 6194TIP3   OH218545   3.978   2.978   3.747
 6194TIP3    H118546   3.983   2.971   3.843
 6194TIP3    H218547   3.934   3.061   3.731
 6195TIP3   OH218548   6.798   4.556   5.452
 6195TIP3    H118549   6.828   4.469   5.476
 6195TIP3    H218550   6.713   4.542   5.410
 6196TIP3   OH218551   1.449   6.027   2.657
 6196TIP3    H118552   1.354   6.014   2.661
 6196TIP3    H218553   1.467   6.095   2.721
 6197TIP3   OH218554   1.817   1.769   3.295
 6197TIP3    H118555   1.901   1.803   3.262
 6197TIP3    H218556   1.836   1.679   3.320
 6198TIP3   OH218557   4.474   2.484   0.367
 6198TIP3    H118558   4.522   2.559   0.401
 6198TIP3    H218559   4.390   2.520   0.337
 6199TIP3   OH218560   6.525   1.963   5.634
 6199TIP3    H118561   6.455   1.987   5.694
 6199TIP3    H218562   6.565   2.046   5.609
 6200TIP3   OH218563   4.717   4.428   3.025
 6200TIP3    H118564   4.765   4.448   3.105
 6200TIP3    H218565   4.703   4.513   2.983
 6201TIP3   OH218566   3.274   1.577   3.275
 6201TIP3    H118567   3.364   1.588   3.304
 6201TIP3    H218568   3.262   1.482   3.267
 6202TIP3   OH218569   1.098   4.751   0.658
 6202TIP3    H118570   1.170   4.800   0.618
 6202TIP3    H218571   1.088   4.789   0.745
 6203TIP3   OH218572   4.580   2.451   1.053
 6203TIP3    H118573   4.571   2.546   1.043
 6203TIP3    H218574   4.494   2.415   1.031
 6204TIP3   OH218575   0.607   3.789   0.812
 6204TIP3    H118576   0.585   3.875   0.848
 6204TIP3    H218577   0.611   3.731   0.889
 6205TIP3   OH218578   5.332   1.643   0.461
 6205TIP3    H118579   5.263   1.675   0.519
 6205TIP3    H218580   5.404   1.705   0.474
 6206TIP3   OH218581   3.086   6.452   0.246
 6206TIP3    H118582   3.164   6.505   0.258
 6206TIP3    H218583   3.118   6.369   0.211
 6207TIP3   OH218584   4.857   3.885   2.695
 6207TIP3    H118585   4.835   3.925   2.779
 6207TIP3    H218586   4.907   3.953   2.649
 6208TIP3   OH218587   5.859   1.330   1.017
 6208TIP3    H118588   5.824   1.419   1.012
 6208TIP3    H218589   5.947   1.341   1.055
 6209TIP3   OH218590   7.076   3.663   2.939
 6209TIP3    H118591   7.069   3.678   3.034
 6209TIP3    H218592   7.014   3.592   2.922
 6210TIP3   OH218593   5.389   4.164   1.516
 6210TIP3    H118594   5.464   4.207   1.555
 6210TIP3    H218595   5.347   4.231   1.462
 6211TIP3   OH218596   2.467   1.038   5.607
 6211TIP3    H118597   2.545   1.042   5.662
 6211TIP3    H218598   2.428   0.953   5.627
 6212TIP3   OH218599   2.127   0.961   1.494
 6212TIP3    H118600   2.153   0.944   1.403
 6212TIP3    H218601   2.088   0.879   1.524
 6213TIP3   OH218602   3.969   1.309   3.944
 6213TIP3    H118603   3.902   1.252   3.980
 6213TIP3    H218604   3.928   1.349   3.866
 6214TIP3   OH218605   2.327   2.129   5.284
 6214TIP3    H118606   2.275   2.062   5.240
 6214TIP3    H218607   2.415   2.092   5.288
 6215TIP3   OH218608   7.019   5.880   0.078
 6215TIP3    H118609   6.975   5.798   0.102
 6215TIP3    H218610   7.112   5.863   0.096
 6216TIP3   OH218611   1.158   4.252   4.745
 6216TIP3    H118612   1.233   4.202   4.776
 6216TIP3    H218613   1.110   4.275   4.825
 6217TIP3   OH218614   3.350   4.962   5.677
 6217TIP3    H118615   3.260   4.962   5.645
 6217TIP3    H218616   3.355   4.886   5.735
 6218TIP3   OH218617   2.792   1.022   2.135
 6218TIP3    H118618   2.713   0.993   2.182
 6218TIP3    H218619   2.864   0.985   2.185
 6219TIP3   OH218620   3.297   3.047   5.862
 6219TIP3    H118621   3.367   2.985   5.844
 6219TIP3    H218622   3.342   3.126   5.894
 6220TIP3   OH218623   6.621   2.575   2.659
 6220TIP3    H118624   6.631   2.613   2.572
 6220TIP3    H218625   6.687   2.618   2.713
 6221TIP3   OH218626   6.036   1.818   4.556
 6221TIP3    H118627   6.002   1.796   4.470
 6221TIP3    H218628   6.081   1.738   4.584
 6222TIP3   OH218629   1.506   6.610   0.623
 6222TIP3    H118630   1.435   6.588   0.563
 6222TIP3    H218631   1.521   6.530   0.673
 6223TIP3   OH218632   2.191   0.880   0.771
 6223TIP3    H118633   2.175   0.951   0.832
 6223TIP3    H218634   2.235   0.812   0.823
 6224TIP3   OH218635   0.414   5.832   4.129
 6224TIP3    H118636   0.440   5.889   4.056
 6224TIP3    H218637   0.336   5.875   4.165
 6225TIP3   OH218638   1.796   1.799   5.424
 6225TIP3    H118639   1.722   1.760   5.376
 6225TIP3    H218640   1.821   1.732   5.487
 6226TIP3   OH218641   5.043   0.641   4.722
 6226TIP3    H118642   5.091   0.718   4.752
 6226TIP3    H218643   5.092   0.611   4.646
 6227TIP3   OH218644   5.121   3.710   1.269
 6227TIP3    H118645   5.168   3.626   1.263
 6227TIP3    H218646   5.033   3.686   1.298
 6228TIP3   OH218647   1.228   6.608   3.687
 6228TIP3    H118648   1.224   6.698   3.720
 6228TIP3    H218649   1.216   6.616   3.592
 6229TIP3   OH218650   0.519   1.911   4.373
 6229TIP3    H118651   0.609   1.938   4.387
 6229TIP3    H218652   0.467   1.973   4.423
 6230TIP3   OH218653   4.399   2.092   3.462
 6230TIP3    H118654   4.491   2.104   3.485
 6230TIP3    H218655   4.369   2.179   3.436
 6231TIP3   OH218656   3.921   1.291   1.692
 6231TIP3    H118657   3.826   1.285   1.696
 6231TIP3    H218658   3.952   1.205   1.720
 6232TIP3   OH218659   4.498   0.379   2.879
 6232TIP3    H118660   4.471   0.471   2.874
 6232TIP3    H218661   4.531   0.359   2.792
 6233TIP3   OH218662   1.919   1.391   5.013
 6233TIP3    H118663   1.985   1.444   4.969
 6233TIP3    H218664   1.904   1.436   5.096
 6234TIP3   OH218665   0.488   6.666   1.328
 6234TIP3    H118666   0.489   6.571   1.324
 6234TIP3    H218667   0.576   6.690   1.358
 6235TIP3   OH218668   7.152   4.736   1.136
 6235TIP3    H118669   7.094   4.742   1.060
 6235TIP3    H218670   7.185   4.825   1.148
 6236TIP3   OH218671   1.255   6.214   0.213
 6236TIP3    H118672   1.307   6.294   0.204
 6236TIP3    H218673   1.252   6.178   0.124
 6237TIP3   OH218674   2.413   4.890   1.987
 6237TIP3    H118675   2.374   4.821   1.933
 6237TIP3    H218676   2.363   4.886   2.069
 6238TIP3   OH218677   1.863   4.093   3.187
 6238TIP3    H118678   1.814   4.016   3.216
 6238TIP3    H218679   1.875   4.080   3.093
 6239TIP3   OH218680   2.301   6.697   4.766
 6239TIP3    H118681   2.223   6.684   4.711
 6239TIP3    H218682   2.318   6.611   4.803
 6240TIP3   OH218683   7.024   2.865   0.139
 6240TIP3    H118684   7.120   2.859   0.141
 6240TIP3    H218685   7.004   2.929   0.208
 6241TIP3   OH218686   3.529   6.493   3.719
 6241TIP3    H118687   3.462   6.425   3.725
 6241TIP3    H218688   3.588   6.463   3.650
 6242TIP3   OH218689   5.083   1.697   1.069
 6242TIP3    H118690   5.156   1.694   1.007
 6242TIP3    H218691   5.073   1.790   1.090
 6243TIP3   OH218692   1.952   3.264   1.280
 6243TIP3    H118693   1.868   3.229   1.252
 6243TIP3    H218694   1.931   3.350   1.318
 6244TIP3   OH218695   6.903   0.457   1.103
 6244TIP3    H118696   6.811   0.440   1.083
 6244TIP3    H218697   6.913   0.551   1.092
 6245TIP3   OH218698   3.275   4.783   3.761
 6245TIP3    H118699   3.314   4.869   3.747
 6245TIP3    H218700   3.322   4.748   3.836
 6246TIP3   OH218701   2.576   4.777   2.240
 6246TIP3    H118702   2.529   4.813   2.166
 6246TIP3    H218703   2.508   4.755   2.304
 6247TIP3   OH218704   3.921   2.448   0.693
 6247TIP3    H118705   3.933   2.412   0.781
 6247TIP3    H218706   3.965   2.533   0.695
 6248TIP3   OH218707   6.722   3.530   0.907
 6248TIP3    H118708   6.695   3.574   0.988
 6248TIP3    H218709   6.733   3.438   0.933
 6249TIP3   OH218710   7.117   5.128   0.218
 6249TIP3    H118711   7.200   5.156   0.180
 6249TIP3    H218712   7.108   5.037   0.191
 6250TIP3   OH218713   6.711   3.442   4.653
 6250TIP3    H118714   6.663   3.524   4.661
 6250TIP3    H218715   6.685   3.391   4.729
 6251TIP3   OH218716   4.163   4.287   3.648
 6251TIP3    H118717   4.095   4.315   3.709
 6251TIP3    H218718   4.128   4.310   3.562
 6252TIP3   OH218719   3.721   3.098   4.837
 6252TIP3    H118720   3.635   3.057   4.848
 6252TIP3    H218721   3.731   3.109   4.742
 6253TIP3   OH218722   5.141   1.392   4.619
 6253TIP3    H118723   5.062   1.387   4.565
 6253TIP3    H218724   5.131   1.321   4.682
 6254TIP3   OH218725   2.652   3.713   0.413
 6254TIP3    H118726   2.663   3.655   0.488
 6254TIP3    H218727   2.730   3.697   0.359
 6255TIP3   OH218728   5.060   5.266   5.769
 6255TIP3    H118729   5.088   5.286   5.680
 6255TIP3    H218730   5.022   5.348   5.801
 6256TIP3   OH218731   0.829   1.039   0.183
 6256TIP3    H118732   0.760   1.004   0.239
 6256TIP3    H218733   0.879   1.097   0.240
 6257TIP3   OH218734   4.488   0.535   2.469
 6257TIP3    H118735   4.533   0.457   2.500
 6257TIP3    H218736   4.558   0.591   2.435
 6258TIP3   OH218737   6.933   4.653   2.026
 6258TIP3    H118738   7.010   4.695   2.064
 6258TIP3    H218739   6.962   4.564   2.006
 6259TIP3   OH218740   5.164   4.278   5.278
 6259TIP3    H118741   5.173   4.272   5.182
 6259TIP3    H218742   5.254   4.285   5.309
 6260TIP3   OH218743   0.550   2.181   0.966
 6260TIP3    H118744   0.527   2.088   0.968
 6260TIP3    H218745   0.500   2.219   1.038
 6261TIP3   OH218746   6.112   0.036   3.215
 6261TIP3    H118747   6.153  -0.001   3.293
 6261TIP3    H218748   6.060   0.110   3.248
 6262TIP3   OH218749   1.121   5.686   4.448
 6262TIP3    H118750   1.059   5.661   4.380
 6262TIP3    H218751   1.196   5.628   4.435
 6263TIP3   OH218752   0.419   6.633   5.812
 6263TIP3    H118753   0.413   6.635   5.717
 6263TIP3    H218754   0.335   6.597   5.840
 6264TIP3   OH218755   6.421   4.896   2.315
 6264TIP3    H118756   6.423   4.989   2.339
 6264TIP3    H218757   6.513   4.870   2.311
 6265TIP3   OH218758   3.233   1.476   0.402
 6265TIP3    H118759   3.298   1.406   0.415
 6265TIP3    H218760   3.164   1.455   0.466
 6266TIP3   OH218761   6.719   4.866   4.048
 6266TIP3    H118762   6.757   4.841   4.132
 6266TIP3    H218763   6.691   4.783   4.008
 6267TIP3   OH218764   0.628   4.263   1.124
 6267TIP3    H118765   0.566   4.278   1.196
 6267TIP3    H218766   0.609   4.332   1.061
 6268TIP3   OH218767   2.523   5.258   5.770
 6268TIP3    H118768   2.558   5.191   5.828
 6268TIP3    H218769   2.429   5.242   5.768
 6269TIP3   OH218770   1.640   2.200   1.437
 6269TIP3    H118771   1.639   2.105   1.423
 6269TIP3    H218772   1.733   2.222   1.442
 6270TIP3   OH218773   3.059   0.481   0.468
 6270TIP3    H118774   3.148   0.464   0.501
 6270TIP3    H218775   3.057   0.440   0.382
 6271TIP3   OH218776   3.250   6.462   2.023
 6271TIP3    H118777   3.178   6.457   2.085
 6271TIP3    H218778   3.329   6.471   2.077
 6272TIP3   OH218779   1.112   4.930   2.181
 6272TIP3    H118780   1.168   4.867   2.136
 6272TIP3    H218781   1.054   4.876   2.234
 6273TIP3   OH218782   0.284   5.850   1.340
 6273TIP3    H118783   0.244   5.795   1.273
 6273TIP3    H218784   0.210   5.891   1.385
 6274TIP3   OH218785   4.843   2.795   5.664
 6274TIP3    H118786   4.760   2.774   5.707
 6274TIP3    H218787   4.822   2.866   5.603
 6275TIP3   OH218788   2.633   5.697   3.712
 6275TIP3    H118789   2.655   5.776   3.761
 6275TIP3    H218790   2.593   5.729   3.631
 6276TIP3   OH218791   2.184   6.676   0.697
 6276TIP3    H118792   2.218   6.595   0.736
 6276TIP3    H218793   2.108   6.698   0.750
 6277TIP3   OH218794   6.366   0.306   4.954
 6277TIP3    H118795   6.396   0.337   5.040
 6277TIP3    H218796   6.395   0.375   4.893
 6278TIP3   OH218797   0.473  -0.011   3.337
 6278TIP3    H118798   0.474   0.029   3.424
 6278TIP3    H218799   0.537   0.039   3.287
 6279TIP3   OH218800   5.388   2.489   0.786
 6279TIP3    H118801   5.324   2.560   0.794
 6279TIP3    H218802   5.415   2.492   0.694
 6280TIP3   OH218803   6.197   5.362   0.936
 6280TIP3    H118804   6.266   5.321   0.987
 6280TIP3    H218805   6.240   5.390   0.855
 6281TIP3   OH218806   4.393   2.023   4.976
 6281TIP3    H118807   4.487   2.033   4.993
 6281TIP3    H218808   4.374   2.089   4.909
 6282TIP3   OH218809   0.720   2.522   5.315
 6282TIP3    H118810   0.783   2.552   5.249
 6282TIP3    H218811   0.769   2.459   5.368
 6283TIP3   OH218812   0.411   5.186   2.075
 6283TIP3    H118813   0.398   5.240   2.153
 6283TIP3    H218814   0.429   5.249   2.005
 6284TIP3   OH218815   6.828   3.960   4.447
 6284TIP3    H118816   6.774   4.027   4.405
 6284TIP3    H218817   6.805   3.965   4.539
 6285TIP3   OH218818   2.997   5.705   3.073
 6285TIP3    H118819   2.960   5.773   3.130
 6285TIP3    H218820   3.090   5.726   3.068
 6286TIP3   OH218821   3.535   5.172   1.202
 6286TIP3    H118822   3.616   5.149   1.157
 6286TIP3    H218823   3.520   5.098   1.262
 6287TIP3   OH218824   1.183   6.675   1.462
 6287TIP3    H118825   1.274   6.670   1.492
 6287TIP3    H218826   1.190   6.683   1.367
 6288TIP3   OH218827   1.705   5.874   1.403
 6288TIP3    H118828   1.611   5.858   1.414
 6288TIP3    H218829   1.747   5.804   1.454
 6289TIP3   OH218830   0.079   0.425   3.267
 6289TIP3    H118831   0.071   0.330   3.269
 6289TIP3    H218832   0.143   0.445   3.335
 6290TIP3   OH218833   0.585   4.183   5.746
 6290TIP3    H118834   0.489   4.183   5.750
 6290TIP3    H218835   0.606   4.157   5.657
 6291TIP3   OH218836   2.011   3.100   3.892
 6291TIP3    H118837   2.091   3.111   3.840
 6291TIP3    H218838   2.042   3.088   3.982
 6292TIP3   OH218839   4.220   1.204   2.545
 6292TIP3    H118840   4.287   1.149   2.505
 6292TIP3    H218841   4.266   1.251   2.615
 6293TIP3   OH218842   1.838   4.876   1.297
 6293TIP3    H118843   1.876   4.843   1.215
 6293TIP3    H218844   1.780   4.947   1.270
 6294TIP3   OH218845   1.919   2.141   3.445
 6294TIP3    H118846   1.925   2.154   3.539
 6294TIP3    H218847   2.009   2.124   3.417
 6295TIP3   OH218848   1.314   4.716   2.080
 6295TIP3    H118849   1.318   4.676   2.166
 6295TIP3    H218850   1.326   4.644   2.019
 6296TIP3   OH218851   5.855   6.210   4.494
 6296TIP3    H118852   5.908   6.130   4.505
 6296TIP3    H218853   5.777   6.194   4.546
 6297TIP3   OH218854   1.809   1.695   4.286
 6297TIP3    H118855   1.826   1.631   4.217
 6297TIP3    H218856   1.888   1.750   4.287
 6298TIP3   OH218857   4.453   3.931   2.524
 6298TIP3    H118858   4.446   3.937   2.619
 6298TIP3    H218859   4.546   3.942   2.505
 6299TIP3   OH218860   0.396   1.511   1.589
 6299TIP3    H118861   0.390   1.519   1.494
 6299TIP3    H218862   0.449   1.433   1.604
 6300TIP3   OH218863   2.000   4.610   4.989
 6300TIP3    H118864   1.948   4.547   4.940
 6300TIP3    H218865   2.030   4.562   5.066
 6301TIP3   OH218866   7.235   2.452   2.498
 6301TIP3    H118867   7.211   2.508   2.425
 6301TIP3    H218868   7.183   2.483   2.572
 6302TIP3   OH218869   0.844   6.373   4.228
 6302TIP3    H118870   0.799   6.449   4.265
 6302TIP3    H218871   0.834   6.304   4.293
 6303TIP3   OH218872   1.073   5.773   3.557
 6303TIP3    H118873   1.146   5.787   3.616
 6303TIP3    H218874   1.112   5.773   3.469
 6304TIP3   OH218875   5.069   5.030   3.151
 6304TIP3    H118876   5.034   5.101   3.097
 6304TIP3    H218877   5.162   5.026   3.128
 6305TIP3   OH218878   1.772   6.126   2.443
 6305TIP3    H118879   1.858   6.168   2.440
 6305TIP3    H218880   1.790   6.032   2.441
 6306TIP3   OH218881   5.548   4.266   4.502
 6306TIP3    H118882   5.545   4.171   4.511
 6306TIP3    H218883   5.549   4.299   4.592
 6307TIP3   OH218884   6.352   2.712   1.187
 6307TIP3    H118885   6.433   2.718   1.136
 6307TIP3    H218886   6.317   2.801   1.186
 6308TIP3   OH218887   5.296   4.917   1.835
 6308TIP3    H118888   5.386   4.946   1.850
 6308TIP3    H218889   5.305   4.848   1.769
 6309TIP3   OH218890   2.267   2.921   2.883
 6309TIP3    H118891   2.199   2.947   2.821
 6309TIP3    H218892   2.275   2.995   2.943
 6310TIP3   OH218893   1.323   4.100   2.803
 6310TIP3    H118894   1.363   4.055   2.878
 6310TIP3    H218895   1.383   4.172   2.783
 6311TIP3   OH218896   1.771   3.951   5.236
 6311TIP3    H118897   1.780   3.918   5.326
 6311TIP3    H218898   1.676   3.956   5.222
 6312TIP3   OH218899   3.209   4.775   0.847
 6312TIP3    H118900   3.121   4.811   0.844
 6312TIP3    H218901   3.247   4.797   0.762
 6313TIP3   OH218902   1.146   6.495   0.142
 6313TIP3    H118903   1.072   6.555   0.154
 6313TIP3    H218904   1.173   6.509   0.052
 6314TIP3   OH218905   5.604   4.740   4.065
 6314TIP3    H118906   5.681   4.797   4.079
 6314TIP3    H218907   5.536   4.779   4.120
 6315TIP3   OH218908   0.436   5.445   1.002
 6315TIP3    H118909   0.507   5.453   0.938
 6315TIP3    H218910   0.438   5.353   1.028
 6316TIP3   OH218911   5.900   4.741   2.309
 6316TIP3    H118912   5.905   4.837   2.306
 6316TIP3    H218913   5.946   4.712   2.231
 6317TIP3   OH218914   1.854   2.743   4.077
 6317TIP3    H118915   1.879   2.652   4.060
 6317TIP3    H218916   1.920   2.775   4.138
 6318TIP3   OH218917   6.498   0.766   0.700
 6318TIP3    H118918   6.491   0.747   0.606
 6318TIP3    H218919   6.448   0.696   0.742
 6319TIP3   OH218920   5.999   1.386   1.457
 6319TIP3    H118921   6.043   1.468   1.435
 6319TIP3    H218922   6.063   1.318   1.437
 6320TIP3   OH218923   3.062   3.017   3.241
 6320TIP3    H118924   3.025   3.077   3.306
 6320TIP3    H218925   3.129   3.070   3.196
 6321TIP3   OH218926   1.622   1.296   1.802
 6321TIP3    H118927   1.618   1.390   1.784
 6321TIP3    H218928   1.537   1.276   1.840
 6322TIP3   OH218929   5.433   6.089   1.380
 6322TIP3    H118930   5.428   6.068   1.473
 6322TIP3    H218931   5.502   6.156   1.375
 6323TIP3   OH218932   6.505   0.688   4.159
 6323TIP3    H118933   6.459   0.651   4.234
 6323TIP3    H218934   6.441   0.745   4.117
 6324TIP3   OH218935   4.226   2.775   0.052
 6324TIP3    H118936   4.295   2.800  -0.009
 6324TIP3    H218937   4.147   2.814   0.015
 6325TIP3   OH218938   3.289   4.314   5.851
 6325TIP3    H118939   3.269   4.365   5.929
 6325TIP3    H218940   3.230   4.349   5.784
 6326TIP3   OH218941   5.568   6.574   5.546
 6326TIP3    H118942   5.664   6.581   5.544
 6326TIP3    H218943   5.542   6.631   5.619
 6327TIP3   OH218944   2.500   2.446   5.102
 6327TIP3    H118945   2.450   2.511   5.150
 6327TIP3    H218946   2.438   2.411   5.037
 6328TIP3   OH218947   5.202   2.355   1.803
 6328TIP3    H118948   5.258   2.348   1.881
 6328TIP3    H218949   5.183   2.264   1.779
 6329TIP3   OH218950   1.944   0.299   5.182
 6329TIP3    H118951   1.886   0.283   5.257
 6329TIP3    H218952   1.920   0.387   5.152
 6330TIP3   OH218953   4.697   4.045   2.453
 6330TIP3    H118954   4.761   4.062   2.522
 6330TIP3    H218955   4.718   4.108   2.385
 6331TIP3   OH218956   6.791   0.184   4.168
 6331TIP3    H118957   6.721   0.158   4.109
 6331TIP3    H218958   6.869   0.189   4.113
 6332TIP3   OH218959   2.520   3.955   1.751
 6332TIP3    H118960   2.504   4.043   1.717
 6332TIP3    H218961   2.458   3.945   1.823
 6333TIP3   OH218962   1.909   0.921   4.730
 6333TIP3    H118963   1.864   0.939   4.647
 6333TIP3    H218964   1.909   0.826   4.737
 6334TIP3   OH218965   4.454   5.034   1.017
 6334TIP3    H118966   4.485   4.979   1.088
 6334TIP3    H218967   4.462   4.980   0.939
 6335TIP3   OH218968   0.943   5.620   4.265
 6335TIP3    H118969   0.860   5.640   4.309
 6335TIP3    H218970   0.942   5.525   4.253
 6336TIP3   OH218971   0.376   6.144   2.379
 6336TIP3    H118972   0.311   6.087   2.338
 6336TIP3    H218973   0.401   6.206   2.311
 6337TIP3   OH218974   7.200   4.097   3.835
 6337TIP3    H118975   7.248   4.179   3.833
 6337TIP3    H218976   7.200   4.066   3.744
 6338TIP3   OH218977   3.906   5.940   1.862
 6338TIP3    H118978   3.926   5.968   1.951
 6338TIP3    H218979   3.867   5.853   1.872
 6339TIP3   OH218980   7.003   4.571   0.902
 6339TIP3    H118981   7.029   4.588   0.812
 6339TIP3    H218982   7.042   4.485   0.922
 6340TIP3   OH218983   1.576   0.245   1.423
 6340TIP3    H118984   1.488   0.279   1.405
 6340TIP3    H218985   1.584   0.170   1.364
 6341TIP3   OH218986   3.912   4.509   3.467
 6341TIP3    H118987   3.845   4.569   3.497
 6341TIP3    H218988   3.991   4.563   3.460
 6342TIP3   OH218989   5.946   5.555   4.236
 6342TIP3    H118990   5.978   5.481   4.184
 6342TIP3    H218991   5.963   5.530   4.327
 6343TIP3   OH218992   2.574   4.544   0.909
 6343TIP3    H118993   2.649   4.594   0.875
 6343TIP3    H218994   2.519   4.528   0.832
 6344TIP3   OH218995   5.692   5.815   2.887
 6344TIP3    H118996   5.602   5.832   2.860
 6344TIP3    H218997   5.684   5.757   2.962
 6345TIP3   OH218998   5.321   0.777   3.790
 6345TIP3    H118999   5.227   0.793   3.795
 6345TIP3    H219000   5.343   0.736   3.873
 6346TIP3   OH219001   6.261   4.894   3.264
 6346TIP3    H119002   6.296   4.805   3.269
 6346TIP3    H219003   6.338   4.950   3.259
 6347TIP3   OH219004   0.898   2.752   5.691
 6347TIP3    H119005   0.880   2.702   5.612
 6347TIP3    H219006   0.989   2.730   5.713
 6348TIP3   OH219007   6.413   3.329   1.155
 6348TIP3    H119008   6.363   3.410   1.168
 6348TIP3    H219009   6.350   3.259   1.172
 6349TIP3   OH219010   0.865   0.150   3.776
 6349TIP3    H119011   0.862   0.244   3.759
 6349TIP3    H219012   0.803   0.136   3.847
 6350TIP3   OH219013   1.030   2.728   0.579
 6350TIP3    H119014   1.035   2.634   0.593
 6350TIP3    H219015   1.120   2.755   0.561
 6351TIP3   OH219016   3.174   3.937   2.638
 6351TIP3    H119017   3.104   3.959   2.700
 6351TIP3    H219018   3.252   3.928   2.693
 6352TIP3   OH219019   3.211   2.288   2.847
 6352TIP3    H119020   3.200   2.243   2.931
 6352TIP3    H219021   3.304   2.279   2.827
 6353TIP3   OH219022   5.579   2.819   2.767
 6353TIP3    H119023   5.612   2.729   2.771
 6353TIP3    H219024   5.562   2.842   2.859
 6354TIP3   OH219025   4.464   1.348   5.258
 6354TIP3    H119026   4.557   1.347   5.279
 6354TIP3    H219027   4.438   1.255   5.262
 6355TIP3   OH219028   5.423   5.213   1.442
 6355TIP3    H119029   5.330   5.218   1.466
 6355TIP3    H219030   5.456   5.301   1.458
 6356TIP3   OH219031   1.247   0.396   4.113
 6356TIP3    H119032   1.214   0.367   4.029
 6356TIP3    H219033   1.312   0.464   4.092
 6357TIP3   OH219034   6.811   6.664   4.080
 6357TIP3    H119035   6.866   6.709   4.017
 6357TIP3    H219036   6.795   6.578   4.041
 6358TIP3   OH219037   1.838   3.662   3.389
 6358TIP3    H119038   1.779   3.730   3.354
 6358TIP3    H219039   1.780   3.601   3.433
 6359TIP3   OH219040   1.297   1.925   2.837
 6359TIP3    H119041   1.350   2.003   2.820
 6359TIP3    H219042   1.311   1.870   2.760
 6360TIP3   OH219043   0.119   1.598   2.714
 6360TIP3    H119044   0.055   1.527   2.721
 6360TIP3    H219045   0.202   1.557   2.737
 6361TIP3   OH219046   0.740   2.043   1.680
 6361TIP3    H119047   0.823   2.081   1.651
 6361TIP3    H219048   0.690   2.030   1.599
 6362TIP3   OH219049   6.663   5.892   5.117
 6362TIP3    H119050   6.698   5.877   5.029
 6362TIP3    H219051   6.568   5.888   5.107
 6363TIP3   OH219052   4.374   4.080   3.000
 6363TIP3    H119053   4.454   4.111   3.043
 6363TIP3    H219054   4.333   4.159   2.965
 6364TIP3   OH219055   3.305   2.742   0.625
 6364TIP3    H119056   3.336   2.832   0.614
 6364TIP3    H219057   3.247   2.745   0.701
 6365TIP3   OH219058   6.097   6.169   3.256
 6365TIP3    H119059   6.112   6.259   3.287
 6365TIP3    H219060   6.182   6.127   3.264
 6366TIP3   OH219061   6.307   1.081   4.103
 6366TIP3    H119062   6.402   1.071   4.111
 6366TIP3    H219063   6.296   1.153   4.041
 6367TIP3   OH219064   4.281   1.454   0.082
 6367TIP3    H119065   4.327   1.532   0.051
 6367TIP3    H219066   4.288   1.391   0.010
 6368TIP3   OH219067   6.228   5.143   3.564
 6368TIP3    H119068   6.281   5.222   3.549
 6368TIP3    H219069   6.290   5.071   3.558
 6369TIP3   OH219070   2.421   4.321   3.206
 6369TIP3    H119071   2.482   4.279   3.145
 6369TIP3    H219072   2.477   4.350   3.278
 6370TIP3   OH219073   5.922   3.860   1.548
 6370TIP3    H119074   5.874   3.919   1.490
 6370TIP3    H219075   5.956   3.792   1.490
 6371TIP3   OH219076   1.156   6.736   5.315
 6371TIP3    H119077   1.069   6.704   5.291
 6371TIP3    H219078   1.146   6.767   5.405
 6372TIP3   OH219079   6.518   5.238   3.787
 6372TIP3    H119080   6.509   5.172   3.719
 6372TIP3    H219081   6.591   5.207   3.841
 6373TIP3   OH219082   6.340   4.711   5.364
 6373TIP3    H119083   6.374   4.742   5.448
 6373TIP3    H219084   6.316   4.791   5.317
 6374TIP3   OH219085   6.918   2.018   2.814
 6374TIP3    H119086   6.893   1.957   2.745
 6374TIP3    H219087   6.911   1.967   2.895
 6375TIP3   OH219088   0.942   3.545   2.081
 6375TIP3    H119089   1.006   3.515   2.016
 6375TIP3    H219090   0.965   3.498   2.161
 6376TIP3   OH219091   4.643   2.718   4.520
 6376TIP3    H119092   4.738   2.732   4.523
 6376TIP3    H219093   4.621   2.728   4.427
 6377TIP3   OH219094   5.451   5.819   5.196
 6377TIP3    H119095   5.457   5.738   5.145
 6377TIP3    H219096   5.540   5.834   5.227
 6378TIP3   OH219097   4.264   0.804   3.279
 6378TIP3    H119098   4.343   0.754   3.257
 6378TIP3    H219099   4.265   0.879   3.219
 6379TIP3   OH219100   3.823   3.252   5.080
 6379TIP3    H119101   3.792   3.196   5.009
 6379TIP3    H219102   3.836   3.193   5.154
 6380TIP3   OH219103   2.603   2.170   3.964
 6380TIP3    H119104   2.681   2.114   3.965
 6380TIP3    H219105   2.533   2.112   3.935
 6381TIP3   OH219106   0.334   5.130   2.951
 6381TIP3    H119107   0.359   5.086   2.870
 6381TIP3    H219108   0.253   5.086   2.979
 6382TIP3   OH219109   5.242   5.685   3.043
 6382TIP3    H119110   5.249   5.607   2.989
 6382TIP3    H219111   5.148   5.702   3.050
 6383TIP3   OH219112   6.303   1.146   4.803
 6383TIP3    H119113   6.297   1.240   4.824
 6383TIP3    H219114   6.291   1.142   4.708
 6384TIP3   OH219115   6.972   3.105   2.093
 6384TIP3    H119116   6.978   3.200   2.085
 6384TIP3    H219117   7.013   3.084   2.176
 6385TIP3   OH219118   2.708   5.994   3.768
 6385TIP3    H119119   2.709   6.053   3.693
 6385TIP3    H219120   2.778   6.026   3.825
 6386TIP3   OH219121   6.112   5.569   1.289
 6386TIP3    H119122   6.077   5.571   1.200
 6386TIP3    H219123   6.199   5.530   1.280
 6387TIP3   OH219124   5.094   5.141   1.149
 6387TIP3    H119125   5.100   5.099   1.234
 6387TIP3    H219126   5.063   5.229   1.167
 6388TIP3   OH219127   3.903   1.579   3.195
 6388TIP3    H119128   3.976   1.570   3.134
 6388TIP3    H219129   3.825   1.559   3.142
 6389TIP3   OH219130   1.503   3.662   2.489
 6389TIP3    H119131   1.410   3.659   2.514
 6389TIP3    H219132   1.512   3.595   2.422
 6390TIP3   OH219133   6.970   0.924   5.625
 6390TIP3    H119134   6.960   0.938   5.719
 6390TIP3    H219135   6.881   0.929   5.590
 6391TIP3   OH219136   5.215   1.405   2.709
 6391TIP3    H119137   5.293   1.354   2.688
 6391TIP3    H219138   5.233   1.493   2.674
 6392TIP3   OH219139   3.561   1.275   5.669
 6392TIP3    H119140   3.611   1.285   5.588
 6392TIP3    H219141   3.577   1.357   5.717
 6393TIP3   OH219142   3.235   5.519   2.014
 6393TIP3    H119143   3.198   5.444   2.060
 6393TIP3    H219144   3.189   5.595   2.051
 6394TIP3   OH219145   0.724   4.654   1.164
 6394TIP3    H119146   0.635   4.657   1.200
 6394TIP3    H219147   0.716   4.694   1.077
 6395TIP3   OH219148   2.032   3.807   3.831
 6395TIP3    H119149   2.121   3.773   3.839
 6395TIP3    H219150   2.015   3.808   3.737
 6396TIP3   OH219151   6.365   4.088   2.929
 6396TIP3    H119152   6.357   4.031   2.852
 6396TIP3    H219153   6.373   4.028   3.003
 6397TIP3   OH219154   1.756   1.157   2.205
 6397TIP3    H119155   1.662   1.167   2.190
 6397TIP3    H219156   1.779   1.232   2.261
 6398TIP3   OH219157   2.952   0.630   3.293
 6398TIP3    H119158   3.006   0.586   3.226
 6398TIP3    H219159   2.934   0.716   3.257
 6399TIP3   OH219160   0.858   6.614   1.949
 6399TIP3    H119161   0.923   6.553   1.917
 6399TIP3    H219162   0.786   6.558   1.980
 6400TIP3   OH219163   4.014   6.616   1.749
 6400TIP3    H119164   4.025   6.539   1.806
 6400TIP3    H219165   4.082   6.677   1.778
 6401TIP3   OH219166   6.275   4.103   0.226
 6401TIP3    H119167   6.350   4.157   0.204
 6401TIP3    H219168   6.255   4.126   0.317
 6402TIP3   OH219169   0.181   5.044   1.626
 6402TIP3    H119170   0.107   5.063   1.684
 6402TIP3    H219171   0.147   4.977   1.566
 6403TIP3   OH219172   3.048   5.253   1.979
 6403TIP3    H119173   2.954   5.265   1.994
 6403TIP3    H219174   3.087   5.261   2.066
 6404TIP3   OH219175   5.898   3.699   2.143
 6404TIP3    H119176   5.940   3.656   2.068
 6404TIP3    H219177   5.929   3.789   2.140
 6405TIP3   OH219178   6.402   5.321   3.446
 6405TIP3    H119179   6.451   5.272   3.380
 6405TIP3    H219180   6.469   5.370   3.494
 6406TIP3   OH219181   0.762   1.573   4.556
 6406TIP3    H119182   0.775   1.627   4.633
 6406TIP3    H219183   0.796   1.625   4.483
 6407TIP3   OH219184   6.135   2.946   3.058
 6407TIP3    H119185   6.091   2.914   2.979
 6407TIP3    H219186   6.119   3.040   3.058
 6408TIP3   OH219187   5.168   0.948   1.603
 6408TIP3    H119188   5.222   0.973   1.528
 6408TIP3    H219189   5.141   0.859   1.583
 6409TIP3   OH219190   4.019   3.448   5.032
 6409TIP3    H119191   3.997   3.483   4.945
 6409TIP3    H219192   3.965   3.370   5.041
 6410TIP3   OH219193   4.052   2.798   3.020
 6410TIP3    H119194   3.962   2.828   3.008
 6410TIP3    H219195   4.096   2.823   2.939
 6411TIP3   OH219196   1.942   1.160   2.783
 6411TIP3    H119197   1.856   1.126   2.758
 6411TIP3    H219198   1.981   1.191   2.701
 6412TIP3   OH219199   0.111   6.660   3.587
 6412TIP3    H119200   0.116   6.564   3.584
 6412TIP3    H219201   0.161   6.689   3.511
 6413TIP3   OH219202   4.038   3.727   2.204
 6413TIP3    H119203   4.070   3.645   2.243
 6413TIP3    H219204   4.080   3.730   2.118
 6414TIP3   OH219205   6.232   5.327   4.397
 6414TIP3    H119206   6.251   5.395   4.332
 6414TIP3    H219207   6.318   5.289   4.418
 6415TIP3   OH219208   3.404   1.953   3.032
 6415TIP3    H119209   3.359   1.922   3.110
 6415TIP3    H219210   3.411   1.876   2.975
 6416TIP3   OH219211   6.758   3.652   0.081
 6416TIP3    H119212   6.675   3.675   0.040
 6416TIP3    H219213   6.734   3.592   0.152
 6417TIP3   OH219214   7.114   6.155   3.584
 6417TIP3    H119215   7.150   6.077   3.541
 6417TIP3    H219216   7.166   6.163   3.664
 6418TIP3   OH219217   5.602   6.125   0.886
 6418TIP3    H119218   5.590   6.126   0.791
 6418TIP3    H219219   5.694   6.146   0.899
 6419TIP3   OH219220   4.116   4.645   0.835
 6419TIP3    H119221   4.039   4.590   0.819
 6419TIP3    H219222   4.190   4.587   0.820
 6420TIP3   OH219223   6.925   0.188   5.291
 6420TIP3    H119224   6.944   0.276   5.257
 6420TIP3    H219225   6.847   0.199   5.345
 6421TIP3   OH219226   3.375   0.367   2.527
 6421TIP3    H119227   3.416   0.292   2.483
 6421TIP3    H219228   3.330   0.414   2.457
 6422TIP3   OH219229   7.062   1.874   3.887
 6422TIP3    H119230   7.024   1.962   3.885
 6422TIP3    H219231   7.036   1.839   3.972
 6423TIP3   OH219232   6.640   4.544   0.644
 6423TIP3    H119233   6.676   4.461   0.676
 6423TIP3    H219234   6.610   4.588   0.723
 6424TIP3   OH219235   0.794   5.289   0.456
 6424TIP3    H119236   0.747   5.362   0.417
 6424TIP3    H219237   0.850   5.255   0.386
 6425TIP3   OH219238   3.038   3.274   5.606
 6425TIP3    H119239   3.019   3.213   5.534
 6425TIP3    H219240   3.117   3.321   5.577
 6426TIP3   OH219241   6.198   1.580   0.615
 6426TIP3    H119242   6.243   1.516   0.559
 6426TIP3    H219243   6.151   1.637   0.553
 6427TIP3   OH219244   6.756   1.479   2.843
 6427TIP3    H119245   6.684   1.449   2.787
 6427TIP3    H219246   6.810   1.533   2.787
 6428TIP3   OH219247   3.965   4.631   0.606
 6428TIP3    H119248   3.978   4.541   0.634
 6428TIP3    H219249   4.052   4.671   0.610
 6429TIP3   OH219250   2.478   2.565   2.552
 6429TIP3    H119251   2.463   2.471   2.567
 6429TIP3    H219252   2.453   2.606   2.635
 6430TIP3   OH219253   7.018   1.202   3.109
 6430TIP3    H119254   7.016   1.278   3.050
 6430TIP3    H219255   6.979   1.234   3.190
 6431TIP3   OH219256   3.382   6.570   2.291
 6431TIP3    H119257   3.467   6.562   2.335
 6431TIP3    H219258   3.368   6.664   2.283
 6432TIP3   OH219259   1.836   6.082   0.301
 6432TIP3    H119260   1.876   5.996   0.286
 6432TIP3    H219261   1.745   6.071   0.272
 6433TIP3   OH219262   2.971   1.189   2.492
 6433TIP3    H119263   3.020   1.258   2.538
 6433TIP3    H219264   2.981   1.212   2.399
 6434TIP3   OH219265   6.746   2.181   0.235
 6434TIP3    H119266   6.761   2.272   0.207
 6434TIP3    H219267   6.670   2.153   0.184
 6435TIP3   OH219268   3.099   4.065   1.458
 6435TIP3    H119269   3.085   4.001   1.527
 6435TIP3    H219270   3.169   4.121   1.492
 6436TIP3   OH219271   3.610   6.765   3.766
 6436TIP3    H119272   3.547   6.820   3.719
 6436TIP3    H219273   3.570   6.677   3.764
 6437TIP3   OH219274   2.731   6.730   5.264
 6437TIP3    H119275   2.680   6.808   5.244
 6437TIP3    H219276   2.666   6.665   5.292
 6438TIP3   OH219277   1.175   2.850   1.509
 6438TIP3    H119278   1.162   2.885   1.597
 6438TIP3    H219279   1.163   2.925   1.451
 6439TIP3   OH219280   3.634   4.731   0.146
 6439TIP3    H119281   3.646   4.654   0.091
 6439TIP3    H219282   3.645   4.698   0.236
 6440TIP3   OH219283   2.086   1.499   0.851
 6440TIP3    H119284   2.079   1.523   0.759
 6440TIP3    H219285   2.139   1.570   0.889
 6441TIP3   OH219286   1.108   1.124   5.513
 6441TIP3    H119287   1.058   1.198   5.479
 6441TIP3    H219288   1.057   1.047   5.485
 6442TIP3   OH219289   1.210   0.765   0.948
 6442TIP3    H119290   1.247   0.742   0.862
 6442TIP3    H219291   1.166   0.686   0.977
 6443TIP3   OH219292   1.392   5.205   2.599
 6443TIP3    H119293   1.414   5.294   2.571
 6443TIP3    H219294   1.332   5.173   2.531
 6444TIP3   OH219295   0.401   3.538   0.911
 6444TIP3    H119296   0.438   3.601   0.973
 6444TIP3    H219297   0.477   3.488   0.880
 6445TIP3   OH219298   4.757   5.171   5.365
 6445TIP3    H119299   4.843   5.203   5.337
 6445TIP3    H219300   4.772   5.130   5.450
 6446TIP3   OH219301   6.692   3.375   0.543
 6446TIP3    H119302   6.736   3.374   0.458
 6446TIP3    H219303   6.761   3.360   0.607
 6447TIP3   OH219304   3.023   1.426   0.187
 6447TIP3    H119305   2.934   1.449   0.214
 6447TIP3    H219306   3.079   1.460   0.256
 6448TIP3   OH219307   6.355   1.773   4.693
 6448TIP3    H119308   6.266   1.738   4.695
 6448TIP3    H219309   6.401   1.721   4.627
 6449TIP3   OH219310   0.072   2.493   4.752
 6449TIP3    H119311   0.031   2.559   4.808
 6449TIP3    H219312   0.166   2.510   4.760
 6450TIP3   OH219313   1.485   1.166   2.146
 6450TIP3    H119314   1.448   1.078   2.158
 6450TIP3    H219315   1.423   1.224   2.189
 6451TIP3   OH219316   3.957   6.713   2.221
 6451TIP3    H119317   3.914   6.788   2.261
 6451TIP3    H219318   4.002   6.749   2.145
 6452TIP3   OH219319   1.295   5.197   4.940
 6452TIP3    H119320   1.201   5.178   4.950
 6452TIP3    H219321   1.300   5.249   4.859
 6453TIP3   OH219322   0.707   5.625   2.198
 6453TIP3    H119323   0.624   5.656   2.233
 6453TIP3    H219324   0.684   5.572   2.122
 6454TIP3   OH219325   5.712   3.397   4.050
 6454TIP3    H119326   5.762   3.479   4.052
 6454TIP3    H219327   5.634   3.418   4.000
 6455TIP3   OH219328   0.419   6.003   1.116
 6455TIP3    H119329   0.499   5.976   1.072
 6455TIP3    H219330   0.398   5.931   1.176
 6456TIP3   OH219331   2.641   0.018   2.674
 6456TIP3    H119332   2.649   0.061   2.759
 6456TIP3    H219333   2.732   0.003   2.646
 6457TIP3   OH219334   1.705   5.117   5.464
 6457TIP3    H119335   1.738   5.051   5.403
 6457TIP3    H219336   1.616   5.136   5.434
 6458TIP3   OH219337   6.563   5.840   0.807
 6458TIP3    H119338   6.640   5.801   0.850
 6458TIP3    H219339   6.534   5.774   0.745
 6459TIP3   OH219340   4.447   4.774   1.979
 6459TIP3    H119341   4.426   4.821   2.060
 6459TIP3    H219342   4.430   4.682   1.999
 6460TIP3   OH219343   5.535   3.376   4.253
 6460TIP3    H119344   5.592   3.385   4.177
 6460TIP3    H219345   5.536   3.462   4.294
 6461TIP3   OH219346   3.309   3.795   0.357
 6461TIP3    H119347   3.252   3.767   0.286
 6461TIP3    H219348   3.300   3.890   0.360
 6462TIP3   OH219349   0.797   2.756   0.734
 6462TIP3    H119350   0.875   2.730   0.685
 6462TIP3    H219351   0.806   2.850   0.745
 6463TIP3   OH219352   6.601   2.168   4.089
 6463TIP3    H119353   6.589   2.126   4.174
 6463TIP3    H219354   6.613   2.261   4.110
 6464TIP3   OH219355   4.468   2.418   0.644
 6464TIP3    H119356   4.470   2.428   0.549
 6464TIP3    H219357   4.545   2.465   0.675
 6465TIP3   OH219358   3.523   0.689   3.099
 6465TIP3    H119359   3.581   0.744   3.152
 6465TIP3    H219360   3.535   0.720   3.010
 6466TIP3   OH219361   5.672   3.200   0.911
 6466TIP3    H119362   5.611   3.126   0.914
 6466TIP3    H219363   5.686   3.216   0.818
 6467TIP3   OH219364   5.836   3.665   4.583
 6467TIP3    H119365   5.892   3.596   4.619
 6467TIP3    H219366   5.882   3.693   4.504
 6468TIP3   OH219367   7.208   4.385   0.567
 6468TIP3    H119368   7.240   4.313   0.512
 6468TIP3    H219369   7.118   4.400   0.537
 6469TIP3   OH219370   6.533   6.100   2.275
 6469TIP3    H119371   6.559   6.168   2.214
 6469TIP3    H219372   6.487   6.146   2.345
 6470TIP3   OH219373   4.366   1.181   1.195
 6470TIP3    H119374   4.412   1.140   1.268
 6470TIP3    H219375   4.434   1.221   1.143
 6471TIP3   OH219376   6.637   2.191   4.703
 6471TIP3    H119377   6.573   2.142   4.755
 6471TIP3    H219378   6.692   2.123   4.664
 6472TIP3   OH219379   4.001   1.137   2.883
 6472TIP3    H119380   3.959   1.073   2.941
 6472TIP3    H219381   3.955   1.127   2.799
 6473TIP3   OH219382   5.177   1.226   2.450
 6473TIP3    H119383   5.267   1.254   2.466
 6473TIP3    H219384   5.172   1.216   2.355
 6474TIP3   OH219385   3.000   3.314   1.476
 6474TIP3    H119386   2.922   3.330   1.423
 6474TIP3    H219387   3.015   3.219   1.469
 6475TIP3   OH219388   2.138   5.861   2.322
 6475TIP3    H119389   2.160   5.878   2.414
 6475TIP3    H219390   2.077   5.787   2.325
 6476TIP3   OH219391   7.004   0.627   0.033
 6476TIP3    H119392   6.919   0.586   0.053
 6476TIP3    H219393   7.047   0.565  -0.026
 6477TIP3   OH219394   6.046   1.850   1.841
 6477TIP3    H119395   5.988   1.815   1.909
 6477TIP3    H219396   6.054   1.943   1.863
 6478TIP3   OH219397   0.267   3.572   0.689
 6478TIP3    H119398   0.308   3.578   0.775
 6478TIP3    H219399   0.177   3.544   0.707
 6479TIP3   OH219400   2.379   4.363   0.420
 6479TIP3    H119401   2.333   4.412   0.489
 6479TIP3    H219402   2.471   4.366   0.447
 6480TIP3   OH219403   1.720   1.019   0.909
 6480TIP3    H119404   1.635   1.062   0.899
 6480TIP3    H219405   1.783   1.087   0.889
 6481TIP3   OH219406   0.331   5.634   5.714
 6481TIP3    H119407   0.348   5.688   5.636
 6481TIP3    H219408   0.365   5.686   5.787
 6482TIP3   OH219409   3.358   1.299   2.337
 6482TIP3    H119410   3.337   1.297   2.430
 6482TIP3    H219411   3.282   1.339   2.296
 6483TIP3   OH219412   5.953   1.291   4.839
 6483TIP3    H119413   5.928   1.384   4.840
 6483TIP3    H219414   5.967   1.269   4.931
 6484TIP3   OH219415   3.631   0.186   2.486
 6484TIP3    H119416   3.719   0.224   2.485
 6484TIP3    H219417   3.624   0.140   2.403
 6485TIP3   OH219418   2.491   0.866   3.709
 6485TIP3    H119419   2.524   0.801   3.647
 6485TIP3    H219420   2.404   0.888   3.677
 6486TIP3   OH219421   0.285   0.657   2.551
 6486TIP3    H119422   0.312   0.565   2.545
 6486TIP3    H219423   0.219   0.667   2.482
 6487TIP3   OH219424   5.277   1.512   5.068
 6487TIP3    H119425   5.248   1.428   5.102
 6487TIP3    H219426   5.224   1.577   5.114
 6488TIP3   OH219427   0.108   5.839   0.418
 6488TIP3    H119428   0.033   5.898   0.430
 6488TIP3    H219429   0.121   5.836   0.323
 6489TIP3   OH219430   3.673   6.525   3.115
 6489TIP3    H119431   3.651   6.568   3.198
 6489TIP3    H219432   3.726   6.590   3.069
 6490TIP3   OH219433   0.187   0.982   2.275
 6490TIP3    H119434   0.134   0.968   2.353
 6490TIP3    H219435   0.141   0.933   2.206
 6491TIP3   OH219436   5.850   0.255   1.605
 6491TIP3    H119437   5.816   0.270   1.517
 6491TIP3    H219438   5.930   0.204   1.590
 6492TIP3   OH219439   2.874   1.285   1.520
 6492TIP3    H119440   2.872   1.205   1.467
 6492TIP3    H219441   2.940   1.340   1.478
 6493TIP3   OH219442   3.718   3.162   1.865
 6493TIP3    H119443   3.681   3.223   1.801
 6493TIP3    H219444   3.673   3.079   1.847
 6494TIP3   OH219445   6.051   0.530   4.136
 6494TIP3    H119446   6.062   0.443   4.176
 6494TIP3    H219447   6.129   0.541   4.082
 6495TIP3   OH219448   5.630   3.581   2.110
 6495TIP3    H119449   5.614   3.560   2.018
 6495TIP3    H219450   5.724   3.597   2.116
 6496TIP3   OH219451   1.957   3.273   5.689
 6496TIP3    H119452   1.998   3.258   5.604
 6496TIP3    H219453   2.031   3.276   5.750
 6497TIP3   OH219454   1.283   2.809   3.702
 6497TIP3    H119455   1.346   2.858   3.755
 6497TIP3    H219456   1.263   2.868   3.630
 6498TIP3   OH219457   0.993   4.102   0.833
 6498TIP3    H119458   0.948   4.032   0.880
 6498TIP3    H219459   1.056   4.137   0.896
 6499TIP3   OH219460   4.328   6.442   3.150
 6499TIP3    H119461   4.373   6.360   3.169
 6499TIP3    H219462   4.332   6.491   3.232
 6500TIP3   OH219463   2.326   6.642   5.719
 6500TIP3    H119464   2.397   6.705   5.725
 6500TIP3    H219465   2.246   6.693   5.735
 6501TIP3   OH219466   6.081   5.787   4.692
 6501TIP3    H119467   6.034   5.847   4.751
 6501TIP3    H219468   6.129   5.845   4.633
 6502TIP3   OH219469   6.810   4.121   3.702
 6502TIP3    H119470   6.760   4.201   3.714
 6502TIP3    H219471   6.763   4.072   3.635
 6503TIP3   OH219472   3.663   1.746   2.581
 6503TIP3    H119473   3.687   1.760   2.672
 6503TIP3    H219474   3.659   1.834   2.543
 6504TIP3   OH219475   2.228   0.043   4.553
 6504TIP3    H119476   2.145   0.048   4.599
 6504TIP3    H219477   2.278   0.118   4.585
 6505TIP3   OH219478   2.713   0.930   0.436
 6505TIP3    H119479   2.774   0.937   0.363
 6505TIP3    H219480   2.668   1.014   0.439
 6506TIP3   OH219481   1.127   3.495   5.923
 6506TIP3    H119482   1.169   3.509   5.838
 6506TIP3    H219483   1.040   3.463   5.903
 6507TIP3   OH219484   3.661   2.844   2.535
 6507TIP3    H119485   3.580   2.797   2.512
 6507TIP3    H219486   3.634   2.909   2.599
 6508TIP3   OH219487   6.227   2.282   3.042
 6508TIP3    H119488   6.298   2.317   2.990
 6508TIP3    H219489   6.237   2.323   3.128
 6509TIP3   OH219490   6.320   5.523   4.218
 6509TIP3    H119491   6.410   5.550   4.197
 6509TIP3    H219492   6.267   5.559   4.148
 6510TIP3   OH219493   4.317   4.827   5.622
 6510TIP3    H119494   4.362   4.809   5.540
 6510TIP3    H219495   4.379   4.800   5.690
 6511TIP3   OH219496   2.315   4.367   5.179
 6511TIP3    H119497   2.381   4.301   5.201
 6511TIP3    H219498   2.288   4.345   5.090
 6512TIP3   OH219499   3.835   4.746   3.907
 6512TIP3    H119500   3.767   4.811   3.890
 6512TIP3    H219501   3.849   4.750   4.001
 6513TIP3   OH219502   4.650   3.004   0.172
 6513TIP3    H119503   4.708   3.052   0.231
 6513TIP3    H219504   4.670   3.038   0.085
 6514TIP3   OH219505   1.493   3.699   5.009
 6514TIP3    H119506   1.488   3.684   5.103
 6514TIP3    H219507   1.443   3.627   4.970
 6515TIP3   OH219508   0.506   3.188   2.465
 6515TIP3    H119509   0.596   3.182   2.497
 6515TIP3    H219510   0.463   3.248   2.526
 6516TIP3   OH219511   6.206   4.028   4.661
 6516TIP3    H119512   6.237   3.998   4.576
 6516TIP3    H219513   6.162   3.952   4.698
 6517TIP3   OH219514   4.042   2.565   5.494
 6517TIP3    H119515   4.100   2.557   5.418
 6517TIP3    H219516   3.958   2.595   5.457
 6518TIP3   OH219517   3.602   1.493   0.501
 6518TIP3    H119518   3.516   1.454   0.490
 6518TIP3    H219519   3.627   1.523   0.413
 6519TIP3   OH219520   1.200   1.304   0.277
 6519TIP3    H119521   1.105   1.300   0.291
 6519TIP3    H219522   1.227   1.386   0.317
 6520TIP3   OH219523   0.436   1.013   3.699
 6520TIP3    H119524   0.386   0.932   3.692
 6520TIP3    H219525   0.464   1.032   3.610
 6521TIP3   OH219526   5.047   0.151   4.176
 6521TIP3    H119527   5.139   0.175   4.161
 6521TIP3    H219528   4.998   0.231   4.156
 6522TIP3   OH219529   6.191   4.304   4.768
 6522TIP3    H119530   6.190   4.219   4.725
 6522TIP3    H219531   6.115   4.350   4.732
 6523TIP3   OH219532   5.106   5.970   5.663
 6523TIP3    H119533   5.061   6.003   5.585
 6523TIP3    H219534   5.199   5.982   5.644
 6524TIP3   OH219535   7.057   6.484   5.367
 6524TIP3    H119536   6.973   6.442   5.352
 6524TIP3    H219537   7.083   6.519   5.281
 6525TIP3   OH219538   0.743   2.463   1.746
 6525TIP3    H119539   0.736   2.543   1.798
 6525TIP3    H219540   0.723   2.491   1.657
 6526TIP3   OH219541   2.288   2.034   4.401
 6526TIP3    H119542   2.297   1.939   4.401
 6526TIP3    H219543   2.238   2.054   4.480
 6527TIP3   OH219544   5.491   4.947   5.154
 6527TIP3    H119545   5.516   4.863   5.114
 6527TIP3    H219546   5.546   4.953   5.232
 6528TIP3   OH219547   5.484   0.076   3.356
 6528TIP3    H119548   5.411   0.077   3.294
 6528TIP3    H219549   5.554   0.031   3.310
 6529TIP3   OH219550   1.628   3.099   4.064
 6529TIP3    H119551   1.673   3.176   4.100
 6529TIP3    H219552   1.545   3.096   4.112
 6530TIP3   OH219553   4.606   5.899   4.341
 6530TIP3    H119554   4.579   5.807   4.342
 6530TIP3    H219555   4.567   5.937   4.420
 6531TIP3   OH219556   0.462   5.740   4.484
 6531TIP3    H119557   0.538   5.790   4.454
 6531TIP3    H219558   0.465   5.748   4.579
 6532TIP3   OH219559   1.931   1.325   0.413
 6532TIP3    H119560   1.947   1.319   0.319
 6532TIP3    H219561   1.837   1.341   0.421
 6533TIP3   OH219562   3.922   1.941   5.724
 6533TIP3    H119563   3.910   1.888   5.645
 6533TIP3    H219564   4.015   1.964   5.722
 6534TIP3   OH219565   0.353   2.480   2.377
 6534TIP3    H119566   0.307   2.414   2.326
 6534TIP3    H219567   0.289   2.549   2.391
 6535TIP3   OH219568   3.657   2.175   3.865
 6535TIP3    H119569   3.740   2.197   3.908
 6535TIP3    H219570   3.598   2.153   3.938
 6536TIP3   OH219571   4.164   4.896   0.927
 6536TIP3    H119572   4.158   4.813   0.880
 6536TIP3    H219573   4.108   4.956   0.878
 6537TIP3   OH219574   3.818   0.071   4.349
 6537TIP3    H119575   3.890   0.104   4.296
 6537TIP3    H219576   3.768   0.014   4.291
 6538TIP3   OH219577   5.440   1.265   2.590
 6538TIP3    H119578   5.496   1.206   2.640
 6538TIP3    H219579   5.499   1.305   2.526
 6539TIP3   OH219580   5.353   2.248   0.493
 6539TIP3    H119581   5.264   2.242   0.460
 6539TIP3    H219582   5.364   2.171   0.549
 6540TIP3   OH219583   6.073   1.075   4.308
 6540TIP3    H119584   6.021   1.134   4.253
 6540TIP3    H219585   6.139   1.039   4.249
 6541TIP3   OH219586   6.211   6.080   2.253
 6541TIP3    H119587   6.299   6.116   2.249
 6541TIP3    H219588   6.172   6.122   2.331
 6542TIP3   OH219589   3.135   2.069   1.858
 6542TIP3    H119590   3.054   2.098   1.818
 6542TIP3    H219591   3.120   2.078   1.952
 6543TIP3   OH219592   2.242   3.464   2.882
 6543TIP3    H119593   2.319   3.410   2.900
 6543TIP3    H219594   2.201   3.477   2.968
 6544TIP3   OH219595   3.184   2.276   5.827
 6544TIP3    H119596   3.156   2.309   5.742
 6544TIP3    H219597   3.260   2.330   5.849
 6545TIP3   OH219598   6.460   3.668   1.671
 6545TIP3    H119599   6.402   3.662   1.595
 6545TIP3    H219600   6.462   3.579   1.706
 6546TIP3   OH219601   6.155   2.953   2.181
 6546TIP3    H119602   6.158   2.997   2.097
 6546TIP3    H219603   6.210   2.876   2.170
 6547TIP3   OH219604   7.168   6.478   1.091
 6547TIP3    H119605   7.261   6.477   1.113
 6547TIP3    H219606   7.123   6.484   1.176
 6548TIP3   OH219607   1.652   2.899   2.295
 6548TIP3    H119608   1.579   2.841   2.314
 6548TIP3    H219609   1.622   2.953   2.222
 6549TIP3   OH219610   2.069   1.093   5.165
 6549TIP3    H119611   2.164   1.099   5.175
 6549TIP3    H219612   2.052   1.118   5.074
 6550TIP3   OH219613   3.818   3.528   3.780
 6550TIP3    H119614   3.738   3.546   3.731
 6550TIP3    H219615   3.877   3.600   3.756
 6551TIP3   OH219616   1.969   2.355   1.954
 6551TIP3    H119617   1.958   2.443   1.990
 6551TIP3    H219618   2.024   2.310   2.018
 6552TIP3   OH219619   0.709   0.796   2.415
 6552TIP3    H119620   0.704   0.780   2.509
 6552TIP3    H219621   0.633   0.852   2.396
 6553TIP3   OH219622   0.591   5.906   1.421
 6553TIP3    H119623   0.565   5.876   1.508
 6553TIP3    H219624   0.512   5.946   1.385
 6554TIP3   OH219625   6.420   1.620   1.857
 6554TIP3    H119626   6.411   1.683   1.929
 6554TIP3    H219627   6.345   1.638   1.800
 6555TIP3   OH219628   5.198   6.067   2.317
 6555TIP3    H119629   5.188   5.983   2.271
 6555TIP3    H219630   5.243   6.045   2.398
 6556TIP3   OH219631   0.874   4.704   5.786
 6556TIP3    H119632   0.849   4.752   5.707
 6556TIP3    H219633   0.890   4.614   5.756
 6557TIP3   OH219634   0.296   5.847   3.777
 6557TIP3    H119635   0.289   5.809   3.690
 6557TIP3    H219636   0.310   5.772   3.835
 6558TIP3   OH219637   1.965   6.333   0.257
 6558TIP3    H119638   1.907   6.390   0.207
 6558TIP3    H219639   1.911   6.257   0.280
 6559TIP3   OH219640   3.370   6.746   0.530
 6559TIP3    H119641   3.353   6.686   0.603
 6559TIP3    H219642   3.424   6.815   0.567
 6560TIP3   OH219643   1.538   3.071   2.101
 6560TIP3    H119644   1.464   3.018   2.130
 6560TIP3    H219645   1.501   3.158   2.083
 6561TIP3   OH219646   3.724   0.377   1.559
 6561TIP3    H119647   3.722   0.369   1.654
 6561TIP3    H219648   3.810   0.343   1.534
 6562TIP3   OH219649   1.346   2.328   4.656
 6562TIP3    H119650   1.384   2.412   4.631
 6562TIP3    H219651   1.376   2.267   4.588
 6563TIP3   OH219652   1.972   6.723   4.842
 6563TIP3    H119653   2.025   6.704   4.919
 6563TIP3    H219654   1.922   6.643   4.826
 6564TIP3   OH219655   6.479   3.495   3.669
 6564TIP3    H119656   6.441   3.548   3.739
 6564TIP3    H219657   6.538   3.435   3.714
 6565TIP3   OH219658   1.115   2.890   5.208
 6565TIP3    H119659   1.210   2.881   5.204
 6565TIP3    H219660   1.090   2.913   5.119
 6566TIP3   OH219661   1.075   2.187   5.482
 6566TIP3    H119662   1.158   2.173   5.437
 6566TIP3    H219663   1.064   2.109   5.536
 6567TIP3   OH219664   3.306   6.577   1.029
 6567TIP3    H119665   3.287   6.499   1.082
 6567TIP3    H219666   3.292   6.651   1.088
 6568TIP3   OH219667   3.360   1.547   0.688
 6568TIP3    H119668   3.437   1.603   0.677
 6568TIP3    H219669   3.289   1.595   0.644
 6569TIP3   OH219670   4.402   1.819   4.282
 6569TIP3    H119671   4.494   1.841   4.264
 6569TIP3    H219672   4.407   1.737   4.330
 6570TIP3   OH219673   5.079   4.794   1.126
 6570TIP3    H119674   5.071   4.701   1.147
 6570TIP3    H219675   4.995   4.832   1.155
 6571TIP3   OH219676   6.972   5.188   3.890
 6571TIP3    H119677   6.998   5.278   3.872
 6571TIP3    H219678   7.008   5.137   3.817
 6572TIP3   OH219679   1.270   5.597   3.993
 6572TIP3    H119680   1.265   5.508   4.028
 6572TIP3    H219681   1.225   5.651   4.057
 6573TIP3   OH219682   5.134   1.123   3.829
 6573TIP3    H119683   5.075   1.049   3.820
 6573TIP3    H219684   5.217   1.084   3.858
 6574TIP3   OH219685   6.610   0.454   3.971
 6574TIP3    H119686   6.626   0.522   4.037
 6574TIP3    H219687   6.581   0.378   4.022
 6575TIP3   OH219688   3.626   1.233   1.695
 6575TIP3    H119689   3.607   1.144   1.664
 6575TIP3    H219690   3.652   1.222   1.786
 6576TIP3   OH219691   3.715   1.734   0.978
 6576TIP3    H119692   3.740   1.645   0.952
 6576TIP3    H219693   3.790   1.766   1.029
 6577TIP3   OH219694   1.879   1.324   4.679
 6577TIP3    H119695   1.854   1.348   4.768
 6577TIP3    H219696   1.796   1.320   4.631
 6578TIP3   OH219697   2.722   4.649   4.989
 6578TIP3    H119698   2.670   4.624   5.065
 6578TIP3    H219699   2.812   4.629   5.014
 6579TIP3   OH219700   4.650   3.979   5.475
 6579TIP3    H119701   4.723   3.949   5.529
 6579TIP3    H219702   4.678   4.064   5.441
 6580TIP3   OH219703   3.588   0.994   1.566
 6580TIP3    H119704   3.648   0.936   1.612
 6580TIP3    H219705   3.521   0.936   1.530
 6581TIP3   OH219706   2.535   6.453   2.761
 6581TIP3    H119707   2.596   6.440   2.834
 6581TIP3    H219708   2.590   6.485   2.690
 6582TIP3   OH219709   5.675   2.628   0.082
 6582TIP3    H119710   5.754   2.676   0.055
 6582TIP3    H219711   5.706   2.568   0.150
 6583TIP3   OH219712   5.239   5.633   2.554
 6583TIP3    H119713   5.319   5.680   2.531
 6583TIP3    H219714   5.169   5.679   2.508
 6584TIP3   OH219715   1.988   6.339   5.655
 6584TIP3    H119716   2.054   6.384   5.602
 6584TIP3    H219717   1.929   6.299   5.591
 6585TIP3   OH219718   4.321   0.931   3.978
 6585TIP3    H119719   4.346   0.842   3.953
 6585TIP3    H219720   4.225   0.929   3.980
 6586TIP3   OH219721   3.417   5.213   0.510
 6586TIP3    H119722   3.365   5.202   0.590
 6586TIP3    H219723   3.486   5.147   0.518
 6587TIP3   OH219724   5.364   1.704   5.643
 6587TIP3    H119725   5.454   1.717   5.673
 6587TIP3    H219726   5.312   1.764   5.697
 6588TIP3   OH219727   4.687   2.445   3.465
 6588TIP3    H119728   4.652   2.532   3.446
 6588TIP3    H219729   4.648   2.421   3.549
 6589TIP3   OH219730   4.307   3.198   4.054
 6589TIP3    H119731   4.216   3.228   4.060
 6589TIP3    H219732   4.306   3.132   3.985
 6590TIP3   OH219733   4.165   6.453   1.553
 6590TIP3    H119734   4.181   6.476   1.461
 6590TIP3    H219735   4.106   6.520   1.585
 6591TIP3   OH219736   4.242   0.522   4.594
 6591TIP3    H119737   4.322   0.489   4.553
 6591TIP3    H219738   4.270   0.548   4.682
 6592TIP3   OH219739   2.695   5.789   5.075
 6592TIP3    H119740   2.762   5.798   5.142
 6592TIP3    H219741   2.721   5.851   5.007
 6593TIP3   OH219742   4.669   3.079   1.133
 6593TIP3    H119743   4.590   3.054   1.086
 6593TIP3    H219744   4.650   3.057   1.225
 6594TIP3   OH219745   0.675   5.298   0.077
 6594TIP3    H119746   0.710   5.212   0.054
 6594TIP3    H219747   0.656   5.339  -0.008
 6595TIP3   OH219748   6.588   0.205   4.763
 6595TIP3    H119749   6.566   0.128   4.815
 6595TIP3    H219750   6.586   0.277   4.825
 6596TIP3   OH219751   3.604   1.215   2.227
 6596TIP3    H119752   3.541   1.270   2.273
 6596TIP3    H219753   3.685   1.225   2.277
 6597TIP3   OH219754   6.971   2.783   0.626
 6597TIP3    H119755   6.936   2.755   0.542
 6597TIP3    H219756   7.031   2.855   0.604
 6598TIP3   OH219757   0.190   2.248   2.621
 6598TIP3    H119758   0.119   2.280   2.565
 6598TIP3    H219759   0.252   2.207   2.561
 6599TIP3   OH219760   0.018   0.303   3.826
 6599TIP3    H119761   0.105   0.273   3.851
 6599TIP3    H219762   0.022   0.398   3.833
 6600TIP3   OH219763   0.536   1.256   3.775
 6600TIP3    H119764   0.597   1.193   3.812
 6600TIP3    H219765   0.464   1.203   3.739
 6601TIP3   OH219766   6.817   2.667   5.758
 6601TIP3    H119767   6.809   2.655   5.664
 6601TIP3    H219768   6.908   2.647   5.777
 6602TIP3   OH219769   5.382   4.987   2.702
 6602TIP3    H119770   5.385   5.002   2.797
 6602TIP3    H219771   5.289   4.998   2.680
 6603TIP3   OH219772   1.733   2.807   5.113
 6603TIP3    H119773   1.820   2.801   5.073
 6603TIP3    H219774   1.686   2.730   5.082
 6604TIP3   OH219775   4.272   5.163   3.398
 6604TIP3    H119776   4.232   5.205   3.475
 6604TIP3    H219777   4.224   5.081   3.388
 6605TIP3   OH219778   2.435   1.370   5.215
 6605TIP3    H119779   2.394   1.348   5.299
 6605TIP3    H219780   2.528   1.350   5.228
 6606TIP3   OH219781   4.071   2.307   5.170
 6606TIP3    H119782   4.001   2.308   5.236
 6606TIP3    H219783   4.131   2.376   5.197
 6607TIP3   OH219784   2.443   1.319   0.326
 6607TIP3    H119785   2.474   1.406   0.350
 6607TIP3    H219786   2.510   1.260   0.361
 6608TIP3   OH219787   1.845   3.182   2.167
 6608TIP3    H119788   1.782   3.146   2.105
 6608TIP3    H219789   1.906   3.233   2.113
 6609TIP3   OH219790   5.113   3.559   5.820
 6609TIP3    H119791   5.056   3.615   5.872
 6609TIP3    H219792   5.188   3.541   5.877
 6610TIP3   OH219793   2.284   0.750   5.023
 6610TIP3    H119794   2.205   0.739   4.969
 6610TIP3    H219795   2.310   0.661   5.046
 6611TIP3   OH219796   6.753   1.945   5.413
 6611TIP3    H119797   6.743   1.855   5.443
 6611TIP3    H219798   6.765   1.996   5.494
 6612TIP3   OH219799   2.255   0.736   3.219
 6612TIP3    H119800   2.189   0.723   3.150
 6612TIP3    H219801   2.228   0.676   3.289
 6613TIP3   OH219802   1.596   3.142   0.434
 6613TIP3    H119803   1.684   3.174   0.414
 6613TIP3    H219804   1.593   3.136   0.529
 6614TIP3   OH219805   5.537   6.688   4.422
 6614TIP3    H119806   5.596   6.614   4.409
 6614TIP3    H219807   5.588   6.751   4.472
 6615TIP3   OH219808   5.813   6.452   2.966
 6615TIP3    H119809   5.724   6.422   2.944
 6615TIP3    H219810   5.801   6.506   3.045
 6616TIP3   OH219811   0.422   0.505   4.131
 6616TIP3    H119812   0.493   0.459   4.175
 6616TIP3    H219813   0.377   0.436   4.081
 6617TIP3   OH219814   1.909   4.267   2.713
 6617TIP3    H119815   1.901   4.222   2.630
 6617TIP3    H219816   1.991   4.235   2.751
 6618TIP3   OH219817   3.792   0.574   4.535
 6618TIP3    H119818   3.865   0.531   4.490
 6618TIP3    H219819   3.735   0.605   4.465
 6619TIP3   OH219820   5.917   6.043   5.710
 6619TIP3    H119821   5.856   5.988   5.661
 6619TIP3    H219822   5.864   6.115   5.742
 6620TIP3   OH219823   5.336   1.513   1.711
 6620TIP3    H119824   5.421   1.499   1.668
 6620TIP3    H219825   5.272   1.482   1.648
 6621TIP3   OH219826   4.504   3.129   2.758
 6621TIP3    H119827   4.599   3.126   2.762
 6621TIP3    H219828   4.484   3.129   2.664
 6622TIP3   OH219829   4.650   3.524   4.012
 6622TIP3    H119830   4.646   3.559   3.923
 6622TIP3    H219831   4.625   3.432   4.002
 6623TIP3   OH219832   4.349   3.755   4.111
 6623TIP3    H119833   4.278   3.801   4.156
 6623TIP3    H219834   4.413   3.824   4.092
 6624TIP3   OH219835   2.062   3.225   0.633
 6624TIP3    H119836   2.063   3.314   0.670
 6624TIP3    H219837   1.982   3.186   0.668
 6625TIP3   OH219838   5.792   0.910   2.724
 6625TIP3    H119839   5.781   0.879   2.634
 6625TIP3    H219840   5.747   0.995   2.725
 6626TIP3   OH219841   1.252   2.043   5.238
 6626TIP3    H119842   1.249   1.959   5.283
 6626TIP3    H219843   1.304   2.027   5.159
 6627TIP3   OH219844   2.243   4.030   0.314
 6627TIP3    H119845   2.247   3.997   0.224
 6627TIP3    H219846   2.326   4.076   0.326
 6628TIP3   OH219847   5.438   3.407   1.470
 6628TIP3    H119848   5.403   3.318   1.475
 6628TIP3    H219849   5.463   3.418   1.379
 6629TIP3   OH219850   3.373   6.196   2.249
 6629TIP3    H119851   3.316   6.132   2.208
 6629TIP3    H219852   3.437   6.218   2.181
 6630TIP3   OH219853   0.137   1.671   4.838
 6630TIP3    H119854   0.232   1.671   4.850
 6630TIP3    H219855   0.116   1.760   4.811
 6631TIP3   OH219856   1.627   4.767   0.139
 6631TIP3    H119857   1.531   4.773   0.147
 6631TIP3    H219858   1.660   4.821   0.210
 6632TIP3   OH219859   5.590   4.516   0.061
 6632TIP3    H119860   5.671   4.495   0.015
 6632TIP3    H219861   5.612   4.591   0.115
 6633TIP3   OH219862   3.501   2.929   5.568
 6633TIP3    H119863   3.525   3.021   5.568
 6633TIP3    H219864   3.406   2.928   5.552
 6634TIP3   OH219865   0.110   6.092   2.246
 6634TIP3    H119866   0.125   6.169   2.301
 6634TIP3    H219867   0.053   6.124   2.176
 6635TIP3   OH219868   4.847   1.260   2.176
 6635TIP3    H119869   4.910   1.201   2.136
 6635TIP3    H219870   4.899   1.337   2.201
 6636TIP3   OH219871   5.434   1.240   2.904
 6636TIP3    H119872   5.491   1.201   2.970
 6636TIP3    H219873   5.370   1.290   2.955
 6637TIP3   OH219874   2.984   3.798   5.831
 6637TIP3    H119875   3.074   3.811   5.800
 6637TIP3    H219876   2.986   3.712   5.874
 6638TIP3   OH219877   1.033   4.261   4.472
 6638TIP3    H119878   1.105   4.254   4.410
 6638TIP3    H219879   1.074   4.248   4.558
 6639TIP3   OH219880   5.489   1.653   4.921
 6639TIP3    H119881   5.422   1.609   4.974
 6639TIP3    H219882   5.534   1.582   4.875
 6640TIP3   OH219883   4.210   4.593   2.246
 6640TIP3    H119884   4.259   4.674   2.229
 6640TIP3    H219885   4.236   4.568   2.334
 6641TIP3   OH219886   2.388   2.977   2.437
 6641TIP3    H119887   2.445   3.023   2.498
 6641TIP3    H219888   2.300   3.005   2.460
 6642TIP3   OH219889   6.894   5.479   0.174
 6642TIP3    H119890   6.964   5.473   0.109
 6642TIP3    H219891   6.934   5.451   0.256
 6643TIP3   OH219892   5.117   0.984   4.108
 6643TIP3    H119893   5.085   1.072   4.130
 6643TIP3    H219894   5.207   0.998   4.079
 6644TIP3   OH219895   2.794   5.772   4.266
 6644TIP3    H119896   2.887   5.758   4.248
 6644TIP3    H219897   2.749   5.720   4.199
 6645TIP3   OH219898   4.447   0.676   3.122
 6645TIP3    H119899   4.490   0.624   3.191
 6645TIP3    H219900   4.465   0.627   3.042
 6646TIP3   OH219901   5.641   0.086   1.725
 6646TIP3    H119902   5.658   0.005   1.774
 6646TIP3    H219903   5.718   0.096   1.668
 6647TIP3   OH219904   5.780   0.281   5.663
 6647TIP3    H119905   5.705   0.286   5.605
 6647TIP3    H219906   5.757   0.335   5.739
 6648TIP3   OH219907   3.770   3.855   4.522
 6648TIP3    H119908   3.866   3.862   4.515
 6648TIP3    H219909   3.749   3.896   4.606
 6649TIP3   OH219910   3.701   4.004   4.273
 6649TIP3    H119911   3.727   3.948   4.347
 6649TIP3    H219912   3.736   4.090   4.296
 6650TIP3   OH219913   3.204   3.998   3.024
 6650TIP3    H119914   3.283   3.948   3.048
 6650TIP3    H219915   3.193   4.060   3.096
 6651TIP3   OH219916   0.566   3.223   4.517
 6651TIP3    H119917   0.483   3.214   4.563
 6651TIP3    H219918   0.544   3.214   4.425
 6652TIP3   OH219919   3.099   1.439   5.636
 6652TIP3    H119920   3.024   1.390   5.669
 6652TIP3    H219921   3.175   1.392   5.672
 6653TIP3   OH219922   5.038   3.447   4.606
 6653TIP3    H119923   5.042   3.543   4.610
 6653TIP3    H219924   5.073   3.424   4.520
 6654TIP3   OH219925   0.796   3.612   3.055
 6654TIP3    H119926   0.858   3.637   3.123
 6654TIP3    H219927   0.821   3.524   3.030
 6655TIP3   OH219928   0.262   2.316   0.228
 6655TIP3    H119929   0.264   2.409   0.204
 6655TIP3    H219930   0.342   2.303   0.279
 6656TIP3   OH219931   3.417   0.435   3.245
 6656TIP3    H119932   3.437   0.509   3.187
 6656TIP3    H219933   3.412   0.359   3.188
 6657TIP3   OH219934   2.196   3.165   5.019
 6657TIP3    H119935   2.123   3.225   5.006
 6657TIP3    H219936   2.214   3.131   4.931
 6658TIP3   OH219937   0.029   3.219   3.870
 6658TIP3    H119938   0.012   3.200   3.963
 6658TIP3    H219939  -0.017   3.149   3.823
 6659TIP3   OH219940   6.238   5.275   4.785
 6659TIP3    H119941   6.213   5.238   4.870
 6659TIP3    H219942   6.185   5.354   4.777
 6660TIP3   OH219943   5.523   2.933   3.959
 6660TIP3    H119944   5.479   3.016   3.974
 6660TIP3    H219945   5.566   2.914   4.043
 6661TIP3   OH219946   0.278   3.121   3.733
 6661TIP3    H119947   0.222   3.046   3.751
 6661TIP3    H219948   0.225   3.197   3.759
 6662TIP3   OH219949   4.238   4.059   3.273
 6662TIP3    H119950   4.200   4.080   3.187
 6662TIP3    H219951   4.272   3.970   3.262
 6663TIP3   OH219952   1.301   2.765   2.682
 6663TIP3    H119953   1.311   2.683   2.633
 6663TIP3    H219954   1.207   2.771   2.699
 6664TIP3   OH219955   3.669   5.182   5.893
 6664TIP3    H119956   3.649   5.103   5.843
 6664TIP3    H219957   3.752   5.162   5.936
 6665TIP3   OH219958   4.739   4.946   2.150
 6665TIP3    H119959   4.718   4.872   2.206
 6665TIP3    H219960   4.717   5.023   2.203
 6666TIP3   OH219961   0.818   4.029   2.866
 6666TIP3    H119962   0.825   4.101   2.929
 6666TIP3    H219963   0.745   4.054   2.810
 6667TIP3   OH219964   4.123   0.692   5.857
 6667TIP3    H119965   4.044   0.664   5.811
 6667TIP3    H219966   4.176   0.734   5.789
 6668TIP3   OH219967   5.771   4.470   5.679
 6668TIP3    H119968   5.790   4.470   5.772
 6668TIP3    H219969   5.850   4.508   5.638
 6669TIP3   OH219970   1.303   5.912   5.865
 6669TIP3    H119971   1.383   5.958   5.840
 6669TIP3    H219972   1.235   5.980   5.865
 6670TIP3   OH219973   5.028   5.663   1.623
 6670TIP3    H119974   5.110   5.713   1.620
 6670TIP3    H219975   5.039   5.603   1.697
 6671TIP3   OH219976   0.838   1.142   0.947
 6671TIP3    H119977   0.780   1.085   0.997
 6671TIP3    H219978   0.919   1.092   0.938
 6672TIP3   OH219979   5.411   6.272   0.644
 6672TIP3    H119980   5.438   6.258   0.553
 6672TIP3    H219981   5.356   6.197   0.664
 6673TIP3   OH219982   2.987   1.413   2.645
 6673TIP3    H119983   2.943   1.384   2.724
 6673TIP3    H219984   2.947   1.498   2.625
 6674TIP3   OH219985   5.233   5.099   0.671
 6674TIP3    H119986   5.193   5.070   0.753
 6674TIP3    H219987   5.321   5.063   0.673
 6675TIP3   OH219988   6.446   5.128   5.753
 6675TIP3    H119989   6.480   5.081   5.677
 6675TIP3    H219990   6.376   5.072   5.786
 6676TIP3   OH219991   5.550   5.609   2.065
 6676TIP3    H119992   5.588   5.568   2.143
 6676TIP3    H219993   5.569   5.702   2.075
 6677TIP3   OH219994   2.469   6.013   4.638
 6677TIP3    H119995   2.554   6.008   4.595
 6677TIP3    H219996   2.464   5.932   4.690
 6678TIP3   OH219997   5.496   0.611   5.305
 6678TIP3    H119998   5.463   0.610   5.395
 6678TIP3    H219999   5.589   0.590   5.314
 6679TIP3   OH220000   5.612   5.465   2.988
 6679TIP3    H120001   5.606   5.487   3.081
 6679TIP3    H220002   5.535   5.411   2.971
 6680TIP3   OH220003   4.976   5.264   2.460
 6680TIP3    H120004   5.044   5.251   2.526
 6680TIP3    H220005   5.022   5.264   2.377
 6681TIP3   OH220006   5.970   3.887   5.708
 6681TIP3    H120007   5.885   3.872   5.668
 6681TIP3    H220008   5.975   3.822   5.778
 6682TIP3   OH220009   2.654   4.594   1.758
 6682TIP3    H120010   2.572   4.577   1.712
 6682TIP3    H220011   2.631   4.590   1.851
 6683TIP3   OH220012   6.270   1.287   3.870
 6683TIP3    H120013   6.359   1.322   3.867
 6683TIP3    H220014   6.227   1.323   3.792
 6684TIP3   OH220015   3.139   1.270   2.968
 6684TIP3    H120016   3.052   1.295   2.939
 6684TIP3    H220017   3.193   1.347   2.953
 6685TIP3   OH220018   6.043   6.389   5.801
 6685TIP3    H120019   6.055   6.467   5.747
 6685TIP3    H220020   6.080   6.412   5.886
 6686TIP3   OH220021   2.603   1.466   1.922
 6686TIP3    H120022   2.695   1.457   1.896
 6686TIP3    H220023   2.572   1.376   1.932
 6687TIP3   OH220024   2.967   2.779   5.504
 6687TIP3    H120025   2.921   2.700   5.475
 6687TIP3    H220026   2.907   2.820   5.566
 6688TIP3   OH220027   5.150   3.209   2.165
 6688TIP3    H120028   5.241   3.190   2.190
 6688TIP3    H220029   5.124   3.134   2.111
 6689TIP3   OH220030   4.239   1.276   1.565
 6689TIP3    H120031   4.236   1.334   1.642
 6689TIP3    H220032   4.267   1.192   1.600
 6690TIP3   OH220033   2.856   2.269   3.743
 6690TIP3    H120034   2.883   2.180   3.767
 6690TIP3    H220035   2.897   2.325   3.809
 6691TIP3   OH220036   3.745   0.482   5.031
 6691TIP3    H120037   3.732   0.505   4.939
 6691TIP3    H220038   3.662   0.507   5.073
 6692TIP3   OH220039   0.794   1.917   4.113
 6692TIP3    H120040   0.871   1.860   4.111
 6692TIP3    H220041   0.818   1.987   4.174
 6693TIP3   OH220042   1.550   1.138   3.804
 6693TIP3    H120043   1.518   1.221   3.840
 6693TIP3    H220044   1.487   1.073   3.836
 6694TIP3   OH220045   6.852   4.745   4.264
 6694TIP3    H120046   6.853   4.739   4.359
 6694TIP3    H220047   6.901   4.668   4.234
 6695TIP3   OH220048   4.627   4.169   3.088
 6695TIP3    H120049   4.662   4.192   3.174
 6695TIP3    H220050   4.620   4.252   3.042
 6696TIP3   OH220051   6.234   2.736   3.560
 6696TIP3    H120052   6.165   2.740   3.626
 6696TIP3    H220053   6.198   2.782   3.484
 6697TIP3   OH220054   0.960   0.252   0.189
 6697TIP3    H120055   0.883   0.309   0.198
 6697TIP3    H220056   1.001   0.254   0.276
 6698TIP3   OH220057   1.305   1.605   4.211
 6698TIP3    H120058   1.395   1.574   4.201
 6698TIP3    H220059   1.265   1.591   4.125
 6699TIP3   OH220060   0.274   5.049   5.051
 6699TIP3    H120061   0.264   4.976   5.112
 6699TIP3    H220062   0.214   5.028   4.979
 6700TIP3   OH220063   2.258   0.992   5.790
 6700TIP3    H120064   2.304   1.073   5.772
 6700TIP3    H220065   2.283   0.970   5.880
 6701TIP3   OH220066   3.892   2.531   1.565
 6701TIP3    H120067   3.859   2.449   1.527
 6701TIP3    H220068   3.982   2.511   1.590
 6702TIP3   OH220069   1.182   3.229   3.380
 6702TIP3    H120070   1.119   3.277   3.434
 6702TIP3    H220071   1.160   3.254   3.290
 6703TIP3   OH220072   5.354   6.118   3.785
 6703TIP3    H120073   5.298   6.045   3.761
 6703TIP3    H220074   5.435   6.103   3.736
 6704TIP3   OH220075   2.449   4.413   1.156
 6704TIP3    H120076   2.494   4.442   1.076
 6704TIP3    H220077   2.517   4.373   1.209
 6705TIP3   OH220078   4.768   3.649   3.773
 6705TIP3    H120079   4.853   3.694   3.767
 6705TIP3    H220080   4.775   3.577   3.710
 6706TIP3   OH220081   6.646   4.335   3.732
 6706TIP3    H120082   6.697   4.392   3.789
 6706TIP3    H220083   6.639   4.383   3.650
 6707TIP3   OH220084   5.818   6.765   5.258
 6707TIP3    H120085   5.778   6.715   5.328
 6707TIP3    H220086   5.753   6.832   5.235
 6708TIP3   OH220087   1.657   5.295   4.777
 6708TIP3    H120088   1.661   5.215   4.829
 6708TIP3    H220089   1.580   5.341   4.809
 6709TIP3   OH220090   0.919   3.050   5.043
 6709TIP3    H120091   0.866   2.971   5.030
 6709TIP3    H220092   1.002   3.031   4.998
 6710TIP3   OH220093   1.348   4.642   4.853
 6710TIP3    H120094   1.344   4.585   4.930
 6710TIP3    H220095   1.364   4.729   4.889
 6711TIP3   OH220096   1.242   0.055   0.192
 6711TIP3    H120097   1.240   0.150   0.205
 6711TIP3    H220098   1.304   0.042   0.121
 6712TIP3   OH220099   3.013   1.894   1.176
 6712TIP3    H120100   2.992   1.985   1.157
 6712TIP3    H220101   3.011   1.888   1.271
 6713TIP3   OH220102   1.880   2.753   1.399
 6713TIP3    H120103   1.809   2.689   1.412
 6713TIP3    H220104   1.960   2.701   1.405
 6714TIP3   OH220105   4.191   1.782   5.776
 6714TIP3    H120106   4.199   1.735   5.693
 6714TIP3    H220107   4.244   1.732   5.837
 6715TIP3   OH220108   1.827   4.577   5.251
 6715TIP3    H120109   1.851   4.567   5.159
 6715TIP3    H220110   1.906   4.554   5.299
 6716TIP3   OH220111   6.753   5.017   5.619
 6716TIP3    H120112   6.685   5.048   5.560
 6716TIP3    H220113   6.823   5.083   5.612
 6717TIP3   OH220114   2.310   0.439   5.075
 6717TIP3    H120115   2.308   0.453   5.169
 6717TIP3    H220116   2.294   0.345   5.064
 6718TIP3   OH220117   5.564   3.005   1.715
 6718TIP3    H120118   5.562   3.084   1.770
 6718TIP3    H220119   5.472   2.989   1.693
 6719TIP3   OH220120   5.463   4.993   0.638
 6719TIP3    H120121   5.503   4.929   0.696
 6719TIP3    H220122   5.493   4.969   0.550
 6720TIP3   OH220123   6.708   6.428   3.730
 6720TIP3    H120124   6.718   6.462   3.819
 6720TIP3    H220125   6.756   6.346   3.730
 6721TIP3   OH220126   5.027   4.464   3.872
 6721TIP3    H120127   5.002   4.550   3.905
 6721TIP3    H220128   4.968   4.449   3.798
 6722TIP3   OH220129   4.066   2.978   0.373
 6722TIP3    H120130   4.071   2.883   0.364
 6722TIP3    H220131   4.080   3.011   0.284
 6723TIP3   OH220132   6.478   5.566   1.538
 6723TIP3    H120133   6.516   5.569   1.626
 6723TIP3    H220134   6.527   5.498   1.493
 6724TIP3   OH220135   4.277   2.900   2.199
 6724TIP3    H120136   4.277   2.856   2.114
 6724TIP3    H220137   4.355   2.956   2.198
 6725TIP3   OH220138   5.396   5.621   1.403
 6725TIP3    H120139   5.460   5.651   1.338
 6725TIP3    H220140   5.432   5.649   1.487
 6726TIP3   OH220141   2.902   4.421   0.157
 6726TIP3    H120142   2.913   4.394   0.248
 6726TIP3    H220143   2.886   4.515   0.161
 6727TIP3   OH220144   4.944   5.973   4.841
 6727TIP3    H120145   4.856   6.007   4.850
 6727TIP3    H220146   4.958   5.965   4.746
 6728TIP3   OH220147   0.142   0.766   4.581
 6728TIP3    H120148   0.124   0.742   4.490
 6728TIP3    H220149   0.161   0.683   4.625
 6729TIP3   OH220150   2.591   0.609   4.376
 6729TIP3    H120151   2.597   0.695   4.417
 6729TIP3    H220152   2.589   0.548   4.450
 6730TIP3   OH220153   2.969   6.093   4.653
 6730TIP3    H120154   3.002   6.134   4.732
 6730TIP3    H220155   3.042   6.096   4.591
 6731TIP3   OH220156   2.721   6.546   2.598
 6731TIP3    H120157   2.794   6.604   2.620
 6731TIP3    H220158   2.760   6.478   2.544
 6732TIP3   OH220159   5.559   4.209   0.621
 6732TIP3    H120160   5.603   4.138   0.574
 6732TIP3    H220161   5.617   4.285   0.610
 6733TIP3   OH220162   0.904   2.677   3.726
 6733TIP3    H120163   0.911   2.660   3.820
 6733TIP3    H220164   0.814   2.652   3.703
 6734TIP3   OH220165   6.731   1.642   0.217
 6734TIP3    H120166   6.753   1.703   0.147
 6734TIP3    H220167   6.799   1.655   0.283
 6735TIP3   OH220168   6.205   4.192   1.370
 6735TIP3    H120169   6.197   4.176   1.464
 6735TIP3    H220170   6.181   4.283   1.358
 6736TIP3   OH220171   1.493   6.125   1.079
 6736TIP3    H120172   1.421   6.157   1.134
 6736TIP3    H220173   1.450   6.074   1.011
 6737TIP3   OH220174   6.413   1.703   2.150
 6737TIP3    H120175   6.441   1.776   2.206
 6737TIP3    H220176   6.484   1.640   2.156
 6738TIP3   OH220177   4.769   0.759   1.321
 6738TIP3    H120178   4.700   0.693   1.330
 6738TIP3    H220179   4.732   0.838   1.361
 6739TIP3   OH220180   6.908   2.117   3.770
 6739TIP3    H120181   6.980   2.178   3.756
 6739TIP3    H220182   6.839   2.146   3.710
 6740TIP3   OH220183   5.995   2.844   4.081
 6740TIP3    H120184   5.991   2.917   4.019
 6740TIP3    H220185   5.910   2.800   4.070
 6741TIP3   OH220186   6.867   1.580   0.989
 6741TIP3    H120187   6.937   1.611   1.046
 6741TIP3    H220188   6.792   1.570   1.047
 6742TIP3   OH220189   0.035   2.920   2.346
 6742TIP3    H120190   0.096   2.980   2.388
 6742TIP3    H220191  -0.051   2.952   2.370
 6743TIP3   OH220192   1.548   1.384   5.474
 6743TIP3    H120193   1.498   1.371   5.555
 6743TIP3    H220194   1.637   1.359   5.497
 6744TIP3   OH220195   5.506   5.715   2.508
 6744TIP3    H120196   5.561   5.696   2.433
 6744TIP3    H220197   5.535   5.653   2.575
 6745TIP3   OH220198   6.852   2.478   1.912
 6745TIP3    H120199   6.862   2.554   1.854
 6745TIP3    H220200   6.782   2.427   1.872
 6746TIP3   OH220201   6.246   1.917   5.446
 6746TIP3    H120202   6.255   1.982   5.515
 6746TIP3    H220203   6.326   1.924   5.395
 6747TIP3   OH220204   0.346   5.065   0.705
 6747TIP3    H120205   0.432   5.081   0.745
 6747TIP3    H220206   0.342   5.128   0.633
 6748TIP3   OH220207   4.982   1.860   3.637
 6748TIP3    H120208   4.909   1.802   3.662
 6748TIP3    H220209   5.059   1.818   3.675
 6749TIP3   OH220210   3.947   4.729   0.322
 6749TIP3    H120211   3.944   4.823   0.341
 6749TIP3    H220212   3.954   4.688   0.408
 6750TIP3   OH220213   4.464   4.504   0.352
 6750TIP3    H120214   4.522   4.580   0.342
 6750TIP3    H220215   4.503   4.436   0.297
 6751TIP3   OH220216   4.369   0.465   5.687
 6751TIP3    H120217   4.320   0.399   5.735
 6751TIP3    H220218   4.367   0.436   5.596
 6752TIP3   OH220219   1.892   2.598   0.200
 6752TIP3    H120220   1.877   2.517   0.151
 6752TIP3    H220221   1.920   2.661   0.134
 6753TIP3   OH220222   7.176   3.991   0.194
 6753TIP3    H120223   7.221   4.050   0.134
 6753TIP3    H220224   7.095   3.968   0.148
 6754TIP3   OH220225   5.583   1.389   4.775
 6754TIP3    H120226   5.664   1.412   4.729
 6754TIP3    H220227   5.609   1.376   4.866
 6755TIP3   OH220228   3.169   1.806   4.345
 6755TIP3    H120229   3.218   1.798   4.263
 6755TIP3    H220230   3.112   1.729   4.347
 6756TIP3   OH220231   6.457   5.593   0.928
 6756TIP3    H120232   6.399   5.544   0.870
 6756TIP3    H220233   6.505   5.526   0.977
 6757TIP3   OH220234   3.257   2.183   5.051
 6757TIP3    H120235   3.292   2.148   4.969
 6757TIP3    H220236   3.180   2.233   5.024
 6758TIP3   OH220237   0.501   2.234   0.363
 6758TIP3    H120238   0.527   2.314   0.408
 6758TIP3    H220239   0.561   2.226   0.289
 6759TIP3   OH220240   2.221   4.862   2.552
 6759TIP3    H120241   2.219   4.845   2.647
 6759TIP3    H220242   2.129   4.877   2.529
 6760TIP3   OH220243   4.840   4.788   3.161
 6760TIP3    H120244   4.775   4.819   3.224
 6760TIP3    H220245   4.915   4.846   3.173
 6761TIP3   OH220246   3.032   2.351   5.020
 6761TIP3    H120247   3.039   2.438   5.059
 6761TIP3    H220248   2.938   2.330   5.025
 6762TIP3   OH220249   6.814   0.214   1.420
 6762TIP3    H120250   6.818   0.309   1.410
 6762TIP3    H220251   6.767   0.183   1.343
 6763TIP3   OH220252   2.197   6.106   0.630
 6763TIP3    H120253   2.233   6.050   0.561
 6763TIP3    H220254   2.117   6.142   0.592
 6764TIP3   OH220255   5.985   0.378   4.872
 6764TIP3    H120256   5.916   0.318   4.901
 6764TIP3    H220257   6.000   0.354   4.781
 6765TIP3   OH220258   6.038   0.838   0.831
 6765TIP3    H120259   6.096   0.914   0.837
 6765TIP3    H220260   5.952   0.874   0.810
 6766TIP3   OH220261   4.369   5.242   2.706
 6766TIP3    H120262   4.415   5.287   2.777
 6766TIP3    H220263   4.285   5.217   2.744
 6767TIP3   OH220264   4.439   2.416   5.731
 6767TIP3    H120265   4.479   2.437   5.815
 6767TIP3    H220266   4.487   2.469   5.668
 6768TIP3   OH220267   5.362   0.595   3.585
 6768TIP3    H120268   5.354   0.671   3.643
 6768TIP3    H220269   5.412   0.628   3.510
 6769TIP3   OH220270   3.753   5.742   5.383
 6769TIP3    H120271   3.752   5.647   5.370
 6769TIP3    H220272   3.698   5.777   5.313
 6770TIP3   OH220273   2.265   2.615   0.099
 6770TIP3    H120274   2.316   2.660   0.166
 6770TIP3    H220275   2.330   2.569   0.046
 6771TIP3   OH220276   5.930   1.099   0.559
 6771TIP3    H120277   5.867   1.028   0.570
 6771TIP3    H220278   5.943   1.134   0.647
 6772TIP3   OH220279   0.358   4.242   0.951
 6772TIP3    H120280   0.390   4.313   1.006
 6772TIP3    H220281   0.338   4.284   0.867
 6773TIP3   OH220282   2.693   2.265   3.524
 6773TIP3    H120283   2.740   2.238   3.603
 6773TIP3    H220284   2.745   2.337   3.489
 6774TIP3   OH220285   5.902   3.056   1.910
 6774TIP3    H120286   5.994   3.081   1.918
 6774TIP3    H220287   5.855   3.124   1.960
 6775TIP3   OH220288   5.372   2.227   4.390
 6775TIP3    H120289   5.315   2.197   4.461
 6775TIP3    H220290   5.313   2.243   4.316
 6776TIP3   OH220291   6.764   1.832   2.996
 6776TIP3    H120292   6.697   1.793   2.940
 6776TIP3    H220293   6.739   1.924   3.003
 6777TIP3   OH220294   6.285   1.841   0.873
 6777TIP3    H120295   6.257   1.928   0.846
 6777TIP3    H220296   6.205   1.789   0.876
 6778TIP3   OH220297   2.929   3.166   2.704
 6778TIP3    H120298   2.964   3.095   2.756
 6778TIP3    H220299   2.922   3.240   2.764
 6779TIP3   OH220300   3.747   3.930   0.592
 6779TIP3    H120301   3.675   3.867   0.594
 6779TIP3    H220302   3.781   3.930   0.681
 6780TIP3   OH220303   1.746   5.435   1.894
 6780TIP3    H120304   1.801   5.386   1.833
 6780TIP3    H220305   1.737   5.378   1.970
 6781TIP3   OH220306   3.099   4.898   2.220
 6781TIP3    H120307   3.156   4.927   2.291
 6781TIP3    H220308   3.013   4.890   2.262
 6782TIP3   OH220309   4.094   1.236   0.916
 6782TIP3    H120310   4.010   1.210   0.955
 6782TIP3    H220311   4.116   1.318   0.960
 6783TIP3   OH220312   4.945   0.092   3.208
 6783TIP3    H120313   4.903   0.052   3.284
 6783TIP3    H220314   4.874   0.137   3.162
 6784TIP3   OH220315   6.804   0.566   0.801
 6784TIP3    H120316   6.772   0.530   0.884
 6784TIP3    H220317   6.807   0.661   0.816
 6785TIP3   OH220318   4.157   5.685   1.987
 6785TIP3    H120319   4.204   5.606   2.015
 6785TIP3    H220320   4.106   5.711   2.063
 6786TIP3   OH220321   0.071   0.067   1.128
 6786TIP3    H120322  -0.012   0.115   1.121
 6786TIP3    H220323   0.060   0.011   1.206
 6787TIP3   OH220324   6.005   4.671   1.779
 6787TIP3    H120325   6.059   4.596   1.753
 6787TIP3    H220326   5.960   4.698   1.699
 6788TIP3   OH220327   1.588   2.173   1.023
 6788TIP3    H120328   1.494   2.164   1.037
 6788TIP3    H220329   1.612   2.094   0.975
 6789TIP3   OH220330   4.961   1.371   0.510
 6789TIP3    H120331   4.870   1.391   0.487
 6789TIP3    H220332   4.996   1.454   0.544
 6790TIP3   OH220333   6.152   5.002   1.788
 6790TIP3    H120334   6.191   5.003   1.875
 6790TIP3    H220335   6.073   5.057   1.797
 6791TIP3   OH220336   5.986   0.558   2.476
 6791TIP3    H120337   5.910   0.530   2.525
 6791TIP3    H220338   6.037   0.478   2.462
 6792TIP3   OH220339   4.564   2.766   3.891
 6792TIP3    H120340   4.552   2.672   3.905
 6792TIP3    H220341   4.555   2.778   3.796
 6793TIP3   OH220342   6.251   3.271   1.666
 6793TIP3    H120343   6.186   3.337   1.642
 6793TIP3    H220344   6.200   3.189   1.673
 6794TIP3   OH220345   5.155   1.948   0.055
 6794TIP3    H120346   5.189   1.916  -0.028
 6794TIP3    H220347   5.060   1.945   0.044
 6795TIP3   OH220348   0.488   0.999   2.980
 6795TIP3    H120349   0.479   1.093   2.989
 6795TIP3    H220350   0.401   0.964   2.998
 6796TIP3   OH220351   3.729   3.672   4.855
 6796TIP3    H120352   3.802   3.619   4.823
 6796TIP3    H220353   3.747   3.759   4.819
 6797TIP3   OH220354   3.023   6.381   2.782
 6797TIP3    H120355   3.114   6.404   2.765
 6797TIP3    H220356   3.017   6.378   2.878
 6798TIP3   OH220357   2.823   3.040   1.669
 6798TIP3    H120358   2.900   3.011   1.620
 6798TIP3    H220359   2.776   2.959   1.688
 6799TIP3   OH220360   2.343   4.175   4.237
 6799TIP3    H120361   2.355   4.260   4.279
 6799TIP3    H220362   2.280   4.129   4.292
 6800TIP3   OH220363   1.747   6.803   5.113
 6800TIP3    H120364   1.672   6.861   5.126
 6800TIP3    H220365   1.714   6.733   5.057
 6801TIP3   OH220366   3.647   0.132   5.131
 6801TIP3    H120367   3.612   0.071   5.195
 6801TIP3    H220368   3.638   0.218   5.172
 6802TIP3   OH220369   0.811   4.163   1.610
 6802TIP3    H120370   0.889   4.108   1.615
 6802TIP3    H220371   0.763   4.130   1.534
 6803TIP3   OH220372   3.035   5.149   0.577
 6803TIP3    H120373   3.037   5.119   0.486
 6803TIP3    H220374   3.110   5.107   0.618
 6804TIP3   OH220375   6.971   6.324   2.593
 6804TIP3    H120376   6.883   6.360   2.607
 6804TIP3    H220377   6.974   6.304   2.500
 6805TIP3   OH220378   1.429   2.076   3.124
 6805TIP3    H120379   1.476   1.992   3.126
 6805TIP3    H220380   1.443   2.109   3.036
 6806TIP3   OH220381   0.743   3.211   2.205
 6806TIP3    H120382   0.724   3.126   2.245
 6806TIP3    H220383   0.745   3.194   2.111
 6807TIP3   OH220384   5.491   4.443   2.938
 6807TIP3    H120385   5.480   4.449   3.033
 6807TIP3    H220386   5.526   4.355   2.924
 6808TIP3   OH220387   2.884   3.661   4.267
 6808TIP3    H120388   2.872   3.566   4.271
 6808TIP3    H220389   2.974   3.675   4.297
 6809TIP3   OH220390   4.093   1.207   5.737
 6809TIP3    H120391   4.064   1.287   5.780
 6809TIP3    H220392   4.019   1.182   5.681
 6810TIP3   OH220393   3.283   0.749   1.845
 6810TIP3    H120394   3.257   0.681   1.782
 6810TIP3    H220395   3.372   0.773   1.818
 6811TIP3   OH220396   6.622   0.523   2.583
 6811TIP3    H120397   6.584   0.598   2.630
 6811TIP3    H220398   6.556   0.501   2.517
 6812TIP3   OH220399   4.167   5.617   3.395
 6812TIP3    H120400   4.116   5.538   3.405
 6812TIP3    H220401   4.143   5.650   3.308
 6813TIP3   OH220402   1.265   5.353   4.626
 6813TIP3    H120403   1.240   5.425   4.569
 6813TIP3    H220404   1.343   5.384   4.672
 6814TIP3   OH220405   1.414   3.730   1.069
 6814TIP3    H120406   1.478   3.698   1.133
 6814TIP3    H220407   1.416   3.666   0.999
 6815TIP3   OH220408   2.234   3.962   2.491
 6815TIP3    H120409   2.269   3.894   2.549
 6815TIP3    H220410   2.254   4.044   2.537
 6816TIP3   OH220411   0.578   0.770   2.101
 6816TIP3    H120412   0.617   0.692   2.140
 6816TIP3    H220413   0.649   0.835   2.101
 6817TIP3   OH220414   6.779   6.130   4.002
 6817TIP3    H120415   6.796   6.059   4.063
 6817TIP3    H220416   6.683   6.134   3.996
 6818TIP3   OH220417   2.996   6.010   2.700
 6818TIP3    H120418   3.067   6.034   2.760
 6818TIP3    H220419   3.037   6.013   2.614
 6819TIP3   OH220420   4.416   0.625   2.806
 6819TIP3    H120421   4.382   0.708   2.773
 6819TIP3    H220422   4.510   0.628   2.788
 6820TIP3   OH220423   3.785   5.558   1.446
 6820TIP3    H120424   3.866   5.507   1.451
 6820TIP3    H220425   3.723   5.510   1.500
 6821TIP3   OH220426   0.058   0.153   3.182
 6821TIP3    H120427  -0.016   0.111   3.138
 6821TIP3    H220428   0.103   0.083   3.227
 6822TIP3   OH220429   2.179   5.236   1.086
 6822TIP3    H120430   2.153   5.176   1.157
 6822TIP3    H220431   2.213   5.313   1.132
 6823TIP3   OH220432   2.016   0.819   5.173
 6823TIP3    H120433   2.024   0.914   5.177
 6823TIP3    H220434   1.948   0.804   5.107
 6824TIP3   OH220435   5.893   4.156   2.654
 6824TIP3    H120436   5.876   4.062   2.661
 6824TIP3    H220437   5.858   4.181   2.568
 6825TIP3   OH220438   5.675   5.112   2.839
 6825TIP3    H120439   5.732   5.188   2.848
 6825TIP3    H220440   5.587   5.147   2.852
 6826TIP3   OH220441   2.843   2.316   0.944
 6826TIP3    H120442   2.750   2.338   0.939
 6826TIP3    H220443   2.877   2.375   1.011
 6827TIP3   OH220444   6.974   1.822   5.768
 6827TIP3    H120445   7.020   1.763   5.708
 6827TIP3    H220446   6.890   1.779   5.785
 6828TIP3   OH220447   0.652   6.394   2.524
 6828TIP3    H120448   0.622   6.352   2.443
 6828TIP3    H220449   0.702   6.327   2.569
 6829TIP3   OH220450   0.603   2.774   3.535
 6829TIP3    H120451   0.525   2.828   3.546
 6829TIP3    H220452   0.594   2.704   3.600
 6830TIP3   OH220453   6.316   5.701   3.247
 6830TIP3    H120454   6.302   5.754   3.169
 6830TIP3    H220455   6.328   5.612   3.214
 6831TIP3   OH220456   5.806   1.978   4.487
 6831TIP3    H120457   5.851   2.059   4.464
 6831TIP3    H220458   5.869   1.909   4.465
 6832TIP3   OH220459   6.890   5.931   1.556
 6832TIP3    H120460   6.857   5.967   1.639
 6832TIP3    H220461   6.909   5.840   1.575
 6833TIP3   OH220462   1.964   6.177   4.738
 6833TIP3    H120463   1.961   6.114   4.811
 6833TIP3    H220464   2.016   6.132   4.671
 6834TIP3   OH220465   4.858   2.702   1.799
 6834TIP3    H120466   4.923   2.767   1.825
 6834TIP3    H220467   4.909   2.625   1.773
 6835TIP3   OH220468   3.096   2.986   4.135
 6835TIP3    H120469   3.191   2.987   4.129
 6835TIP3    H220470   3.078   2.974   4.228
 6836TIP3   OH220471   3.386   1.269   4.356
 6836TIP3    H120472   3.394   1.343   4.296
 6836TIP3    H220473   3.376   1.310   4.442
 6837TIP3   OH220474   6.756   4.193   5.283
 6837TIP3    H120475   6.677   4.153   5.247
 6837TIP3    H220476   6.813   4.207   5.207
 6838TIP3   OH220477  -0.011   0.414   1.343
 6838TIP3    H120478   0.068   0.383   1.299
 6838TIP3    H220479  -0.017   0.362   1.423
 6839TIP3   OH220480   1.283   0.082   2.182
 6839TIP3    H120481   1.235   0.124   2.110
 6839TIP3    H220482   1.257  -0.010   2.177
 6840TIP3   OH220483   0.764   0.448   0.257
 6840TIP3    H120484   0.700   0.518   0.245
 6840TIP3    H220485   0.844   0.493   0.286
 6841TIP3   OH220486   0.691   3.177   0.903
 6841TIP3    H120487   0.704   3.129   0.822
 6841TIP3    H220488   0.597   3.196   0.904
 6842TIP3   OH220489   2.819   5.058   5.072
 6842TIP3    H120490   2.874   5.109   5.012
 6842TIP3    H220491   2.807   5.115   5.148
 6843TIP3   OH220492   0.892   3.024   0.711
 6843TIP3    H120493   0.976   3.029   0.758
 6843TIP3    H220494   0.906   3.076   0.631
 6844TIP3   OH220495   1.109   0.614   4.942
 6844TIP3    H120496   1.120   0.703   4.909
 6844TIP3    H220497   1.184   0.566   4.906
 6845TIP3   OH220498   6.041   6.054   0.017
 6845TIP3    H120499   6.132   6.027   0.019
 6845TIP3    H220500   6.012   6.050   0.109
 6846TIP3   OH220501   5.688   4.707   5.125
 6846TIP3    H120502   5.761   4.668   5.174
 6846TIP3    H220503   5.724   4.721   5.037
 6847TIP3   OH220504   0.736   3.937   1.151
 6847TIP3    H120505   0.812   3.910   1.099
 6847TIP3    H220506   0.667   3.874   1.128
 6848TIP3   OH220507   2.317   2.923   4.220
 6848TIP3    H120508   2.326   2.895   4.129
 6848TIP3    H220509   2.406   2.939   4.250
 6849TIP3   OH220510   5.383   1.540   1.997
 6849TIP3    H120511   5.411   1.455   2.030
 6849TIP3    H220512   5.434   1.552   1.916
 6850TIP3   OH220513   1.654   5.676   0.545
 6850TIP3    H120514   1.626   5.717   0.627
 6850TIP3    H220515   1.745   5.704   0.534
 6851TIP3   OH220516   6.720   3.881   2.939
 6851TIP3    H120517   6.655   3.861   3.007
 6851TIP3    H220518   6.793   3.922   2.986
 6852TIP3   OH220519   1.286   3.507   3.628
 6852TIP3    H120520   1.270   3.524   3.721
 6852TIP3    H220521   1.216   3.555   3.583
 6853TIP3   OH220522   0.760   1.470   1.812
 6853TIP3    H120523   0.679   1.517   1.793
 6853TIP3    H220524   0.828   1.536   1.802
 6854TIP3   OH220525   6.469   1.838   4.274
 6854TIP3    H120526   6.452   1.931   4.288
 6854TIP3    H220527   6.558   1.835   4.240
 6855TIP3   OH220528   6.093   6.455   0.111
 6855TIP3    H120529   6.025   6.399   0.074
 6855TIP3    H220530   6.164   6.452   0.046
 6856TIP3   OH220531   0.407   2.863   0.282
 6856TIP3    H120532   0.327   2.915   0.279
 6856TIP3    H220533   0.472   2.917   0.238
 6857TIP3   OH220534   2.243   6.125   0.136
 6857TIP3    H120535   2.314   6.112   0.074
 6857TIP3    H220536   2.200   6.040   0.143
 6858TIP3   OH220537   4.339   3.770   5.727
 6858TIP3    H120538   4.349   3.682   5.690
 6858TIP3    H220539   4.423   3.786   5.771
 6859TIP3   OH220540   6.253   5.798   2.303
 6859TIP3    H120541   6.273   5.765   2.391
 6859TIP3    H220542   6.268   5.892   2.309
 6860TIP3   OH220543   5.943   3.669   0.469
 6860TIP3    H120544   5.926   3.585   0.513
 6860TIP3    H220545   5.979   3.644   0.384
 6861TIP3   OH220546   6.470   3.463   5.462
 6861TIP3    H120547   6.470   3.442   5.555
 6861TIP3    H220548   6.401   3.408   5.425
 6862TIP3   OH220549   2.368   4.711   2.403
 6862TIP3    H120550   2.439   4.696   2.466
 6862TIP3    H220551   2.303   4.762   2.452
 6863TIP3   OH220552   6.474   2.526   4.422
 6863TIP3    H120553   6.471   2.441   4.465
 6863TIP3    H220554   6.568   2.548   4.419
 6864TIP3   OH220555   5.210   6.292   2.498
 6864TIP3    H120556   5.175   6.228   2.558
 6864TIP3    H220557   5.189   6.258   2.411
 6865TIP3   OH220558   0.613   0.884   1.736
 6865TIP3    H120559   0.576   0.945   1.671
 6865TIP3    H220560   0.670   0.827   1.684
 6866TIP3   OH220561   5.342   2.734   4.481
 6866TIP3    H120562   5.334   2.812   4.535
 6866TIP3    H220563   5.254   2.719   4.446
 6867TIP3   OH220564   2.181   4.322  -0.004
 6867TIP3    H120565   2.204   4.406   0.036
 6867TIP3    H220566   2.243   4.259   0.035
 6868TIP3   OH220567   5.945   1.980   3.473
 6868TIP3    H120568   5.918   2.066   3.507
 6868TIP3    H220569   5.931   1.987   3.379
 6869TIP3   OH220570   6.424   3.333   5.738
 6869TIP3    H120571   6.370   3.256   5.754
 6869TIP3    H220572   6.428   3.378   5.822
 6870TIP3   OH220573   0.358   3.588   5.846
 6870TIP3    H120574   0.299   3.648   5.800
 6870TIP3    H220575   0.398   3.536   5.777
 6871TIP3   OH220576   5.132   1.913   5.381
 6871TIP3    H120577   5.227   1.923   5.373
 6871TIP3    H220578   5.096   1.973   5.315
 6872TIP3   OH220579   2.938   1.268   2.226
 6872TIP3    H120580   3.020   1.272   2.177
 6872TIP3    H220581   2.896   1.187   2.197
 6873TIP3   OH220582   5.254   2.762   2.877
 6873TIP3    H120583   5.292   2.731   2.795
 6873TIP3    H220584   5.192   2.694   2.903
 6874TIP3   OH220585   6.039   4.455   0.099
 6874TIP3    H120586   6.066   4.537   0.141
 6874TIP3    H220587   6.011   4.399   0.172
 6875TIP3   OH220588   5.583   4.660   4.590
 6875TIP3    H120589   5.535   4.586   4.553
 6875TIP3    H220590   5.672   4.651   4.556
 6876TIP3   OH220591   1.361   5.085   4.521
 6876TIP3    H120592   1.315   5.167   4.538
 6876TIP3    H220593   1.452   5.103   4.543
 6877TIP3   OH220594   4.617   5.673   1.307
 6877TIP3    H120595   4.550   5.740   1.318
 6877TIP3    H220596   4.699   5.717   1.328
 6878TIP3   OH220597   3.600   5.202   3.053
 6878TIP3    H120598   3.632   5.260   3.121
 6878TIP3    H220599   3.527   5.155   3.095
 6879TIP3   OH220600   5.532   3.817   4.072
 6879TIP3    H120601   5.606   3.832   4.131
 6879TIP3    H220602   5.459   3.794   4.129
 6880TIP3   OH220603   6.311   0.373   3.777
 6880TIP3    H120604   6.295   0.439   3.845
 6880TIP3    H220605   6.349   0.422   3.704
 6881TIP3   OH220606   6.079   0.979   4.783
 6881TIP3    H120607   6.151   0.922   4.756
 6881TIP3    H220608   6.121   1.059   4.813
 6882TIP3   OH220609   5.360   2.604   2.672
 6882TIP3    H120610   5.440   2.556   2.694
 6882TIP3    H220611   5.308   2.541   2.621
 6883TIP3   OH220612   6.260   4.274   4.426
 6883TIP3    H120613   6.198   4.284   4.354
 6883TIP3    H220614   6.255   4.357   4.474
 6884TIP3   OH220615   2.845   2.469   1.499
 6884TIP3    H120616   2.815   2.474   1.590
 6884TIP3    H220617   2.879   2.556   1.480
 6885TIP3   OH220618   4.168   1.428   3.474
 6885TIP3    H120619   4.247   1.398   3.519
 6885TIP3    H220620   4.162   1.521   3.495
 6886TIP3   OH220621   2.583   0.764   0.091
 6886TIP3    H120622   2.611   0.721   0.172
 6886TIP3    H220623   2.550   0.849   0.119
 6887TIP3   OH220624   0.098   1.292   3.160
 6887TIP3    H120625   0.141   1.336   3.234
 6887TIP3    H220626   0.009   1.327   3.160
 6888TIP3   OH220627   0.031   5.349   3.268
 6888TIP3    H120628   0.027   5.316   3.358
 6888TIP3    H220629   0.111   5.401   3.266
 6889TIP3   OH220630   6.947   5.231   3.496
 6889TIP3    H120631   6.994   5.314   3.504
 6889TIP3    H220632   6.995   5.170   3.551
 6890TIP3   OH220633   2.926   2.442   3.936
 6890TIP3    H120634   2.931   2.437   4.031
 6890TIP3    H220635   2.918   2.536   3.917
 6891TIP3   OH220636   2.758   2.221   4.553
 6891TIP3    H120637   2.760   2.292   4.618
 6891TIP3    H220638   2.680   2.240   4.500
 6892TIP3   OH220639   1.667   0.029   0.838
 6892TIP3    H120640   1.714  -0.044   0.879
 6892TIP3    H220641   1.728   0.102   0.840
 6893TIP3   OH220642   6.839   2.434   4.202
 6893TIP3    H120643   6.871   2.484   4.278
 6893TIP3    H220644   6.912   2.377   4.179
 6894TIP3   OH220645   0.494   2.015   3.572
 6894TIP3    H120646   0.474   1.962   3.650
 6894TIP3    H220647   0.436   1.980   3.505
 6895TIP3   OH220648   3.934   2.897   5.251
 6895TIP3    H120649   3.903   2.808   5.237
 6895TIP3    H220650   4.019   2.887   5.294
 6896TIP3   OH220651   4.142   2.468   5.725
 6896TIP3    H120652   4.115   2.474   5.633
 6896TIP3    H220653   4.236   2.455   5.722
 6897TIP3   OH220654   1.105   1.833   1.182
 6897TIP3    H120655   1.069   1.745   1.188
 6897TIP3    H220656   1.118   1.860   1.273
 6898TIP3   OH220657   1.534   0.403   5.309
 6898TIP3    H120658   1.535   0.346   5.386
 6898TIP3    H220659   1.597   0.472   5.329
 6899TIP3   OH220660   2.494   2.489   5.622
 6899TIP3    H120661   2.437   2.422   5.583
 6899TIP3    H220662   2.443   2.570   5.618
 6900TIP3   OH220663   2.876   2.082   4.768
 6900TIP3    H120664   2.822   2.125   4.701
 6900TIP3    H220665   2.951   2.048   4.719
 6901TIP3   OH220666   1.705   5.745   4.600
 6901TIP3    H120667   1.751   5.663   4.615
 6901TIP3    H220668   1.769   5.800   4.555
 6902TIP3   OH220669   4.364   3.815   2.215
 6902TIP3    H120670   4.305   3.874   2.168
 6902TIP3    H220671   4.360   3.843   2.306
 6903TIP3   OH220672   5.765   0.166   4.844
 6903TIP3    H120673   5.690   0.204   4.798
 6903TIP3    H220674   5.736   0.154   4.934
 6904TIP3   OH220675   3.996   3.109   3.350
 6904TIP3    H120676   4.033   3.191   3.384
 6904TIP3    H220677   3.974   3.129   3.259
 6905TIP3   OH220678   6.439   4.860   4.228
 6905TIP3    H120679   6.485   4.787   4.187
 6905TIP3    H220680   6.355   4.866   4.182
 6906TIP3   OH220681   3.724   4.386   1.758
 6906TIP3    H120682   3.737   4.291   1.760
 6906TIP3    H220683   3.812   4.422   1.766
 6907TIP3   OH220684   6.975   2.945   1.336
 6907TIP3    H120685   7.024   2.898   1.404
 6907TIP3    H220686   7.039   3.006   1.299
 6908TIP3   OH220687   2.636   2.528   5.852
 6908TIP3    H120688   2.674   2.441   5.862
 6908TIP3    H220689   2.593   2.525   5.766
 6909TIP3   OH220690   0.719   2.655   2.403
 6909TIP3    H120691   0.770   2.576   2.424
 6909TIP3    H220692   0.701   2.647   2.310
 6910TIP3   OH220693   1.543   0.682   0.555
 6910TIP3    H120694   1.542   0.729   0.471
 6910TIP3    H220695   1.582   0.597   0.534
 6911TIP3   OH220696   3.076   0.886   2.974
 6911TIP3    H120697   3.138   0.949   3.009
 6911TIP3    H220698   3.015   0.869   3.046
 6912TIP3   OH220699   1.236   3.834   0.415
 6912TIP3    H120700   1.186   3.789   0.483
 6912TIP3    H220701   1.299   3.769   0.384
 6913TIP3   OH220702   4.235   0.562   3.754
 6913TIP3    H120703   4.292   0.499   3.709
 6913TIP3    H220704   4.293   0.609   3.813
 6914TIP3   OH220705   0.920   0.628   0.051
 6914TIP3    H120706   0.916   0.640   0.146
 6914TIP3    H220707   0.928   0.716   0.016
 6915TIP3   OH220708   5.517   6.342   5.424
 6915TIP3    H120709   5.512   6.411   5.490
 6915TIP3    H220710   5.429   6.340   5.386
 6916TIP3   OH220711   0.281   2.020   1.570
 6916TIP3    H120712   0.316   2.073   1.643
 6916TIP3    H220713   0.354   1.963   1.545
 6917TIP3   OH220714   4.954   5.915   3.837
 6917TIP3    H120715   4.900   5.837   3.830
 6917TIP3    H220716   4.894   5.987   3.817
 6918TIP3   OH220717   0.854   3.446   2.641
 6918TIP3    H120718   0.770   3.428   2.683
 6918TIP3    H220719   0.899   3.504   2.703
 6919TIP3   OH220720   3.116   3.733   5.222
 6919TIP3    H120721   3.060   3.664   5.256
 6919TIP3    H220722   3.075   3.759   5.139
 6920TIP3   OH220723   2.385   0.542   4.793
 6920TIP3    H120724   2.370   0.629   4.758
 6920TIP3    H220725   2.350   0.546   4.882
 6921TIP3   OH220726   6.929   5.351   2.955
 6921TIP3    H120727   6.846   5.313   2.924
 6921TIP3    H220728   6.978   5.370   2.875
 6922TIP3   OH220729   4.571   4.549   2.127
 6922TIP3    H120730   4.587   4.589   2.213
 6922TIP3    H220731   4.639   4.586   2.070
 6923TIP3   OH220732   0.504   3.050   5.668
 6923TIP3    H120733   0.409   3.055   5.671
 6923TIP3    H220734   0.531   3.046   5.760
 6924TIP3   OH220735   6.935   4.125   1.964
 6924TIP3    H120736   7.013   4.088   1.923
 6924TIP3    H220737   6.965   4.156   2.049
 6925TIP3   OH220738   2.158   2.845   1.897
 6925TIP3    H120739   2.214   2.788   1.844
 6925TIP3    H220740   2.218   2.888   1.958
 6926TIP3   OH220741   1.444   5.584   3.149
 6926TIP3    H120742   1.395   5.632   3.082
 6926TIP3    H220743   1.533   5.620   3.145
 6927TIP3   OH220744   1.965   4.068   1.993
 6927TIP3    H120745   1.910   4.035   2.063
 6927TIP3    H220746   1.911   4.062   1.914
 6928TIP3   OH220747   0.498   1.502   5.771
 6928TIP3    H120748   0.577   1.455   5.745
 6928TIP3    H220749   0.445   1.437   5.818
 6929TIP3   OH220750   6.585   1.810   2.384
 6929TIP3    H120751   6.575   1.895   2.426
 6929TIP3    H220752   6.532   1.751   2.438
 6930TIP3   OH220753   6.673   0.713   0.095
 6930TIP3    H120754   6.675   0.733   0.002
 6930TIP3    H220755   6.632   0.790   0.135
 6931TIP3   OH220756   3.921   3.371   1.550
 6931TIP3    H120757   3.982   3.396   1.620
 6931TIP3    H220758   3.835   3.371   1.592
 6932TIP3   OH220759   3.515   2.077   4.318
 6932TIP3    H120760   3.552   2.068   4.406
 6932TIP3    H220761   3.421   2.083   4.332
 6933TIP3   OH220762   1.162   4.939   4.016
 6933TIP3    H120763   1.255   4.963   4.008
 6933TIP3    H220764   1.159   4.847   3.992
 6934TIP3   OH220765   1.910   4.179   5.723
 6934TIP3    H120766   1.982   4.126   5.688
 6934TIP3    H220767   1.892   4.243   5.655
 6935TIP3   OH220768   1.270   3.158   5.578
 6935TIP3    H120769   1.205   3.143   5.647
 6935TIP3    H220770   1.349   3.186   5.625
 6936TIP3   OH220771   1.768   0.163   2.560
 6936TIP3    H120772   1.712   0.092   2.592
 6936TIP3    H220773   1.759   0.159   2.465
 6937TIP3   OH220774   0.862   1.402   1.057
 6937TIP3    H120775   0.855   1.310   1.032
 6937TIP3    H220776   0.772   1.434   1.053
 6938TIP3   OH220777   2.252   5.137   0.543
 6938TIP3    H120778   2.227   5.119   0.452
 6938TIP3    H220779   2.216   5.223   0.561
 6939TIP3   OH220780   1.427   6.670   5.292
 6939TIP3    H120781   1.488   6.702   5.359
 6939TIP3    H220782   1.345   6.715   5.310
 6940TIP3   OH220783   1.149   5.150   1.361
 6940TIP3    H120784   1.241   5.124   1.361
 6940TIP3    H220785   1.150   5.242   1.337
 6941TIP3   OH220786   6.241   1.453   2.651
 6941TIP3    H120787   6.177   1.439   2.580
 6941TIP3    H220788   6.226   1.380   2.711
 6942TIP3   OH220789   7.000   0.449   3.132
 6942TIP3    H120790   7.018   0.537   3.100
 6942TIP3    H220791   7.074   0.427   3.187
 6943TIP3   OH220792   0.237   4.813   3.988
 6943TIP3    H120793   0.275   4.811   4.075
 6943TIP3    H220794   0.264   4.730   3.948
 6944TIP3   OH220795   2.804   1.070   4.578
 6944TIP3    H120796   2.873   1.009   4.554
 6944TIP3    H220797   2.793   1.059   4.672
 6945TIP3   OH220798   6.867   2.030   4.643
 6945TIP3    H120799   6.906   2.035   4.730
 6945TIP3    H220800   6.929   2.075   4.586
 6946TIP3   OH220801   3.807   6.238   2.172
 6946TIP3    H120802   3.890   6.191   2.168
 6946TIP3    H220803   3.741   6.171   2.155
 6947TIP3   OH220804   5.381   4.318   1.836
 6947TIP3    H120805   5.386   4.341   1.929
 6947TIP3    H220806   5.289   4.297   1.821
 6948TIP3   OH220807   2.001   0.850   3.478
 6948TIP3    H120808   2.030   0.907   3.407
 6948TIP3    H220809   1.943   0.787   3.435
 6949TIP3   OH220810   0.972   3.329   3.556
 6949TIP3    H120811   0.992   3.284   3.638
 6949TIP3    H220812   0.894   3.285   3.523
 6950TIP3   OH220813   7.102   6.690   3.040
 6950TIP3    H120814   7.159   6.626   2.997
 6950TIP3    H220815   7.069   6.645   3.117
 6951TIP3   OH220816   5.700   1.629   0.294
 6951TIP3    H120817   5.747   1.547   0.281
 6951TIP3    H220818   5.768   1.694   0.307
 6952TIP3   OH220819   1.779   3.176   1.878
 6952TIP3    H120820   1.862   3.157   1.834
 6952TIP3    H220821   1.714   3.178   1.807
 6953TIP3   OH220822   2.314   2.984   5.238
 6953TIP3    H120823   2.259   3.041   5.184
 6953TIP3    H220824   2.348   3.042   5.306
 6954TIP3   OH220825   6.402   2.644   1.723
 6954TIP3    H120826   6.476   2.664   1.780
 6954TIP3    H220827   6.382   2.552   1.740
 6955TIP3   OH220828   3.022   5.256   0.103
 6955TIP3    H120829   2.938   5.289   0.134
 6955TIP3    H220830   3.057   5.325   0.048
 6956TIP3   OH220831   1.869   5.043   4.581
 6956TIP3    H120832   1.943   4.982   4.579
 6956TIP3    H220833   1.907   5.126   4.552
 6957TIP3   OH220834   0.070   3.715   2.794
 6957TIP3    H120835   0.021   3.663   2.858
 6957TIP3    H220836   0.152   3.736   2.838
 6958TIP3   OH220837   6.544   2.236   3.380
 6958TIP3    H120838   6.506   2.196   3.302
 6958TIP3    H220839   6.483   2.306   3.403
 6959TIP3   OH220840   2.099   2.460   1.068
 6959TIP3    H120841   2.089   2.387   1.128
 6959TIP3    H220842   2.110   2.537   1.125
 6960TIP3   OH220843   0.800   0.540   3.479
 6960TIP3    H120844   0.721   0.519   3.428
 6960TIP3    H220845   0.872   0.514   3.422
 6961TIP3   OH220846   6.293   5.698   0.194
 6961TIP3    H120847   6.376   5.698   0.241
 6961TIP3    H220848   6.293   5.616   0.145
 6962TIP3   OH220849   2.847   3.427   3.301
 6962TIP3    H120850   2.774   3.449   3.358
 6962TIP3    H220851   2.843   3.492   3.230
 6963TIP3   OH220852   6.792   4.280   0.168
 6963TIP3    H120853   6.752   4.355   0.122
 6963TIP3    H220854   6.849   4.240   0.103
 6964TIP3   OH220855   6.035   2.213   5.616
 6964TIP3    H120856   6.079   2.281   5.565
 6964TIP3    H220857   6.105   2.156   5.647
 6965TIP3   OH220858   0.964   1.825   3.836
 6965TIP3    H120859   0.958   1.729   3.842
 6965TIP3    H220860   1.010   1.850   3.917
 6966TIP3   OH220861   5.457   1.440   5.443
 6966TIP3    H120862   5.398   1.509   5.410
 6966TIP3    H220863   5.531   1.442   5.382
 6967TIP3   OH220864   2.799   0.872   2.588
 6967TIP3    H120865   2.767   0.804   2.647
 6967TIP3    H220866   2.871   0.830   2.540
 6968TIP3   OH220867   3.312   5.991   4.001
 6968TIP3    H120868   3.251   5.974   3.929
 6968TIP3    H220869   3.347   5.905   4.024
 6969TIP3   OH220870   1.607   4.708   1.110
 6969TIP3    H120871   1.587   4.797   1.081
 6969TIP3    H220872   1.627   4.661   1.029
 6970TIP3   OH220873   5.677   4.797   5.628
 6970TIP3    H120874   5.759   4.779   5.674
 6970TIP3    H220875   5.619   4.833   5.696
 6971TIP3   OH220876   0.010   5.830   3.821
 6971TIP3    H120877   0.102   5.803   3.827
 6971TIP3    H220878  -0.027   5.776   3.751
 6972TIP3   OH220879   3.855   2.585   5.209
 6972TIP3    H120880   3.802   2.629   5.143
 6972TIP3    H220881   3.807   2.504   5.229
 6973TIP3   OH220882   7.202   3.689   4.454
 6973TIP3    H120883   7.219   3.767   4.508
 6973TIP3    H220884   7.108   3.673   4.464
 6974TIP3   OH220885   6.011   6.190   4.135
 6974TIP3    H120886   6.084   6.248   4.154
 6974TIP3    H220887   6.044   6.131   4.066
 6975TIP3   OH220888   6.598   5.633   2.968
 6975TIP3    H120889   6.678   5.598   2.929
 6975TIP3    H220890   6.613   5.728   2.970
 6976TIP3   OH220891   6.341   0.838   0.169
 6976TIP3    H120892   6.371   0.750   0.143
 6976TIP3    H220893   6.290   0.869   0.094
 6977TIP3   OH220894   4.547   3.774   2.014
 6977TIP3    H120895   4.520   3.756   1.924
 6977TIP3    H220896   4.466   3.781   2.063
 6978TIP3   OH220897   0.442   5.196   5.423
 6978TIP3    H120898   0.359   5.152   5.407
 6978TIP3    H220899   0.497   5.130   5.464
 6979TIP3   OH220900   6.128   0.961   2.717
 6979TIP3    H120901   6.035   0.981   2.717
 6979TIP3    H220902   6.142   0.909   2.796
 6980TIP3   OH220903   3.297   3.717   1.881
 6980TIP3    H120904   3.267   3.730   1.791
 6980TIP3    H220905   3.339   3.631   1.880
 6981TIP3   OH220906   0.816   5.909   4.234
 6981TIP3    H120907   0.733   5.935   4.273
 6981TIP3    H220908   0.795   5.835   4.177
 6982TIP3   OH220909   3.047   6.169   5.168
 6982TIP3    H120910   2.959   6.206   5.170
 6982TIP3    H220911   3.103   6.237   5.207
 6983TIP3   OH220912   6.113   2.719   4.461
 6983TIP3    H120913   6.019   2.729   4.478
 6983TIP3    H220914   6.138   2.642   4.512
 6984TIP3   OH220915   1.489   0.727   4.986
 6984TIP3    H120916   1.474   0.633   4.973
 6984TIP3    H220917   1.500   0.736   5.081
 6985TIP3   OH220918   6.669   0.805   4.342
 6985TIP3    H120919   6.692   0.880   4.289
 6985TIP3    H220920   6.595   0.764   4.296
 6986TIP3   OH220921   3.412   5.154   2.773
 6986TIP3    H120922   3.346   5.163   2.704
 6986TIP3    H220923   3.426   5.060   2.781
 6987TIP3   OH220924   1.415   3.846   1.620
 6987TIP3    H120925   1.490   3.811   1.669
 6987TIP3    H220926   1.367   3.768   1.590
 6988TIP3   OH220927   0.593   3.621   5.153
 6988TIP3    H120928   0.599   3.605   5.058
 6988TIP3    H220929   0.521   3.566   5.182
 6989TIP3   OH220930   7.229   6.362   2.628
 6989TIP3    H120931   7.246   6.456   2.637
 6989TIP3    H220932   7.134   6.354   2.630
 6990TIP3   OH220933   4.444   1.009   2.705
 6990TIP3    H120934   4.479   1.043   2.788
 6990TIP3    H220935   4.375   0.948   2.731
 6991TIP3   OH220936   3.974   1.911   2.024
 6991TIP3    H120937   3.898   1.925   1.967
 6991TIP3    H220938   3.951   1.956   2.105
 6992TIP3   OH220939   4.978   5.716   2.997
 6992TIP3    H120940   5.023   5.768   2.930
 6992TIP3    H220941   4.920   5.658   2.947
 6993TIP3   OH220942   1.332   3.576   2.237
 6993TIP3    H120943   1.388   3.542   2.167
 6993TIP3    H220944   1.249   3.529   2.226
 6994TIP3   OH220945   4.812   2.138   1.231
 6994TIP3    H120946   4.826   2.216   1.178
 6994TIP3    H220947   4.717   2.128   1.235
 6995TIP3   OH220948   6.814   0.547   4.658
 6995TIP3    H120949   6.744   0.504   4.609
 6995TIP3    H220950   6.891   0.490   4.644
 6996TIP3   OH220951   4.561   6.475   1.392
 6996TIP3    H120952   4.496   6.440   1.330
 6996TIP3    H220953   4.645   6.462   1.348
 6997TIP3   OH220954   1.351   6.561   3.958
 6997TIP3    H120955   1.305   6.583   3.877
 6997TIP3    H220956   1.414   6.632   3.971
 6998TIP3   OH220957   0.579   0.182   4.479
 6998TIP3    H120958   0.504   0.127   4.456
 6998TIP3    H220959   0.648   0.120   4.503
 6999TIP3   OH220960   6.113   1.696   2.294
 6999TIP3    H120961   6.108   1.792   2.300
 6999TIP3    H220962   6.164   1.680   2.214
 7000TIP3   OH220963   3.900   1.527   3.454
 7000TIP3    H120964   3.992   1.503   3.439
 7000TIP3    H220965   3.863   1.538   3.367
 7001TIP3   OH220966   1.632   6.782   1.313
 7001TIP3    H120967   1.669   6.703   1.351
 7001TIP3    H220968   1.703   6.820   1.261
 7002TIP3   OH220969   0.344   3.170   4.645
 7002TIP3    H120970   0.356   3.076   4.633
 7002TIP3    H220971   0.270   3.193   4.589
 7003TIP3   OH220972   2.425   5.443   4.403
 7003TIP3    H120973   2.347   5.432   4.349
 7003TIP3    H220974   2.483   5.372   4.376
 7004TIP3   OH220975   6.506   6.554   2.336
 7004TIP3    H120976   6.563   6.505   2.277
 7004TIP3    H220977   6.418   6.544   2.299
 7005TIP3   OH220978   2.217   0.464   5.325
 7005TIP3    H120979   2.145   0.511   5.366
 7005TIP3    H220980   2.199   0.372   5.342
 7006TIP3   OH220981   0.153   0.590   1.474
 7006TIP3    H120982   0.087   0.584   1.405
 7006TIP3    H220983   0.221   0.527   1.449
 7007TIP3   OH220984   5.751   0.044   2.273
 7007TIP3    H120985   5.838   0.071   2.243
 7007TIP3    H220986   5.692   0.069   2.202
 7008TIP3   OH220987   6.329   5.661   3.987
 7008TIP3    H120988   6.417   5.687   3.962
 7008TIP3    H220989   6.307   5.590   3.927
 7009TIP3   OH220990   0.626   3.700   1.862
 7009TIP3    H120991   0.583   3.630   1.811
 7009TIP3    H220992   0.624   3.668   1.952
 7010TIP3   OH220993   1.042   5.012   2.536
 7010TIP3    H120994   1.083   5.007   2.623
 7010TIP3    H220995   0.952   4.985   2.551
 7011TIP3   OH220996   0.191   6.507   1.767
 7011TIP3    H120997   0.151   6.498   1.853
 7011TIP3    H220998   0.166   6.428   1.720
 7012TIP3   OH220999   3.511   6.202   5.146
 7012TIP3    H121000   3.542   6.241   5.065
 7012TIP3    H221001   3.416   6.214   5.143
 7013TIP3   OH221002   6.728   0.389   3.177
 7013TIP3    H121003   6.815   0.402   3.137
 7013TIP3    H221004   6.691   0.477   3.182
 7014TIP3   OH221005   4.543   3.074   2.212
 7014TIP3    H121006   4.519   3.074   2.305
 7014TIP3    H221007   4.591   3.156   2.200
 7015TIP3   OH221008   1.354   3.309   3.971
 7015TIP3    H121009   1.326   3.400   3.963
 7015TIP3    H221010   1.440   3.314   4.012
 7016TIP3   OH221011   5.135   2.842   5.553
 7016TIP3    H121012   5.052   2.845   5.601
 7016TIP3    H221013   5.185   2.773   5.596
 7017TIP3   OH221014   2.373   2.809   0.310
 7017TIP3    H121015   2.398   2.741   0.373
 7017TIP3    H221016   2.439   2.877   0.322
 7018TIP3   OH221017   0.658   3.691   0.569
 7018TIP3    H121018   0.636   3.726   0.656
 7018TIP3    H221019   0.681   3.600   0.586
 7019TIP3   OH221020   7.161   2.884   1.526
 7019TIP3    H121021   7.199   2.852   1.608
 7019TIP3    H221022   7.236   2.910   1.473
 7020TIP3   OH221023   1.568   2.085   1.916
 7020TIP3    H121024   1.487   2.112   1.872
 7020TIP3    H221025   1.635   2.142   1.880
 7021TIP3   OH221026   4.813   2.799   2.865
 7021TIP3    H121027   4.800   2.873   2.924
 7021TIP3    H221028   4.901   2.768   2.884
 7022TIP3   OH221029   0.917   1.526   5.267
 7022TIP3    H121030   1.008   1.501   5.277
 7022TIP3    H221031   0.893   1.496   5.179
 7023TIP3   OH221032   6.356   0.899   1.127
 7023TIP3    H121033   6.447   0.928   1.122
 7023TIP3    H221034   6.318   0.921   1.042
 7024TIP3   OH221035   4.911   6.429   3.686
 7024TIP3    H121036   4.843   6.491   3.712
 7024TIP3    H221037   4.970   6.426   3.761
 7025TIP3   OH221038   4.989   3.204   0.501
 7025TIP3    H121039   5.082   3.211   0.523
 7025TIP3    H221040   4.988   3.188   0.407
 7026TIP3   OH221041   3.169   1.008   3.815
 7026TIP3    H121042   3.261   1.033   3.825
 7026TIP3    H221043   3.159   0.989   3.722
 7027TIP3   OH221044   3.121   1.532   3.561
 7027TIP3    H121045   3.098   1.545   3.469
 7027TIP3    H221046   3.107   1.438   3.576
 7028TIP3   OH221047   1.021   2.891   4.103
 7028TIP3    H121048   1.109   2.885   4.066
 7028TIP3    H221049   1.010   2.811   4.154
 7029TIP3   OH221050   4.291   4.423   0.872
 7029TIP3    H121051   4.234   4.346   0.876
 7029TIP3    H221052   4.343   4.411   0.793
 7030TIP3   OH221053   1.777   4.566   1.538
 7030TIP3    H121054   1.710   4.509   1.575
 7030TIP3    H221055   1.751   4.654   1.564
 7031TIP3   OH221056   5.588   4.787   0.954
 7031TIP3    H121057   5.637   4.815   0.876
 7031TIP3    H221058   5.557   4.869   0.993
 7032TIP3   OH221059   7.094   6.317   0.594
 7032TIP3    H121060   7.033   6.352   0.659
 7032TIP3    H221061   7.178   6.316   0.639
 7033TIP3   OH221062   6.062   3.776   2.468
 7033TIP3    H121063   5.967   3.771   2.482
 7033TIP3    H221064   6.077   3.867   2.441
 7034TIP3   OH221065   6.796   2.185   2.309
 7034TIP3    H121066   6.746   2.151   2.383
 7034TIP3    H221067   6.887   2.175   2.336
 7035TIP3   OH221068   3.299   4.812   0.584
 7035TIP3    H121069   3.277   4.867   0.509
 7035TIP3    H221070   3.269   4.725   0.560
 7036TIP3   OH221071   4.356   6.077   4.961
 7036TIP3    H121072   4.283   6.045   4.907
 7036TIP3    H221073   4.396   5.997   4.996
 7037TIP3   OH221074   3.024   0.025   4.588
 7037TIP3    H121075   3.066   0.077   4.657
 7037TIP3    H221076   2.930   0.035   4.605
 7038TIP3   OH221077   4.482   1.099   5.625
 7038TIP3    H121078   4.478   1.065   5.536
 7038TIP3    H221079   4.453   1.190   5.618
 7039TIP3   OH221080   6.108   5.611   0.683
 7039TIP3    H121081   6.168   5.686   0.687
 7039TIP3    H221082   6.023   5.650   0.661
 7040TIP3   OH221083   4.954   5.266   5.025
 7040TIP3    H121084   4.942   5.197   4.961
 7040TIP3    H221085   5.005   5.333   4.979
 7041TIP3   OH221086   4.426   5.791   0.913
 7041TIP3    H121087   4.357   5.837   0.961
 7041TIP3    H221088   4.477   5.860   0.872
 7042TIP3   OH221089   5.421   5.872   0.054
 7042TIP3    H121090   5.339   5.825   0.034
 7042TIP3    H221091   5.490   5.811   0.028
 7043TIP3   OH221092   3.797   2.996   3.476
 7043TIP3    H121093   3.815   2.973   3.567
 7043TIP3    H221094   3.876   3.041   3.446
 7044TIP3   OH221095   5.812   0.904   3.743
 7044TIP3    H121096   5.722   0.882   3.720
 7044TIP3    H221097   5.819   0.997   3.726
 7045TIP3   OH221098   3.655   0.147   3.335
 7045TIP3    H121099   3.570   0.144   3.291
 7045TIP3    H221100   3.711   0.090   3.281
 7046TIP3   OH221101   5.205   2.189   3.482
 7046TIP3    H121102   5.172   2.145   3.404
 7046TIP3    H221103   5.247   2.269   3.448
 7047TIP3   OH221104   0.832   2.054   0.285
 7047TIP3    H121105   0.814   2.136   0.240
 7047TIP3    H221106   0.861   2.080   0.373
 7048TIP3   OH221107   0.192   6.722   5.645
 7048TIP3    H121108   0.178   6.683   5.559
 7048TIP3    H221109   0.165   6.813   5.635
 7049TIP3   OH221110   2.564   4.389   2.971
 7049TIP3    H121111   2.598   4.434   2.893
 7049TIP3    H221112   2.506   4.452   3.013
 7050TIP3   OH221113   0.693   2.698   4.777
 7050TIP3    H121114   0.750   2.773   4.760
 7050TIP3    H221115   0.609   2.736   4.803
 7051TIP3   OH221116   6.829   2.722   0.379
 7051TIP3    H121117   6.860   2.632   0.391
 7051TIP3    H221118   6.750   2.713   0.325
 7052TIP3   OH221119   6.132   0.140   5.237
 7052TIP3    H121120   6.121   0.104   5.325
 7052TIP3    H221121   6.140   0.063   5.180
 7053TIP3   OH221122   0.107   1.544   0.349
 7053TIP3    H121123   0.103   1.640   0.351
 7053TIP3    H221124   0.122   1.519   0.440
 7054TIP3   OH221125   2.202   0.539   0.997
 7054TIP3    H121126   2.152   0.515   1.075
 7054TIP3    H221127   2.293   0.544   1.026
 7055TIP3   OH221128   5.634   2.269   5.747
 7055TIP3    H121129   5.588   2.257   5.831
 7055TIP3    H221130   5.595   2.203   5.689
 7056TIP3   OH221131   5.204   6.756   1.824
 7056TIP3    H121132   5.219   6.817   1.895
 7056TIP3    H221133   5.223   6.670   1.862
 7057TIP3   OH221134   5.373   4.089   3.225
 7057TIP3    H121135   5.341   4.013   3.176
 7057TIP3    H221136   5.455   4.113   3.182
 7058TIP3   OH221137   3.018   5.298   2.441
 7058TIP3    H121138   2.998   5.379   2.395
 7058TIP3    H221139   2.933   5.260   2.462
 7059TIP3   OH221140   6.779   1.542   3.980
 7059TIP3    H121141   6.776   1.570   4.072
 7059TIP3    H221142   6.752   1.619   3.931
 7060TIP3   OH221143   0.124   3.846   0.348
 7060TIP3    H121144   0.210   3.872   0.315
 7060TIP3    H221145   0.062   3.902   0.301
 7061TIP3   OH221146   5.189   3.441   3.365
 7061TIP3    H121147   5.158   3.357   3.332
 7061TIP3    H221148   5.140   3.506   3.315
 7062TIP3   OH221149   1.822   3.718   2.262
 7062TIP3    H121150   1.906   3.754   2.234
 7062TIP3    H221151   1.805   3.759   2.346
 7063TIP3   OH221152   4.593   0.611   4.110
 7063TIP3    H121153   4.611   0.701   4.137
 7063TIP3    H221154   4.678   0.578   4.081
 7064TIP3   OH221155   2.895   6.496   4.305
 7064TIP3    H121156   2.867   6.405   4.313
 7064TIP3    H221157   2.842   6.544   4.368
 7065TIP3   OH221158   5.765   3.349   1.120
 7065TIP3    H121159   5.732   3.298   1.046
 7065TIP3    H221160   5.796   3.283   1.182
 7066TIP3   OH221161   2.251   3.289   4.119
 7066TIP3    H121162   2.219   3.259   4.205
 7066TIP3    H221163   2.199   3.367   4.101
 7067TIP3   OH221164   3.123   2.722   1.123
 7067TIP3    H121165   3.155   2.756   1.206
 7067TIP3    H221166   3.166   2.777   1.056
 7068TIP3   OH221167   1.468   4.821   4.599
 7068TIP3    H121168   1.385   4.866   4.587
 7068TIP3    H221169   1.524   4.886   4.641
 7069TIP3   OH221170   0.151   5.647   1.148
 7069TIP3    H121171   0.193   5.572   1.189
 7069TIP3    H221172   0.186   5.649   1.059
 7070TIP3   OH221173   1.703   2.485   5.242
 7070TIP3    H121174   1.667   2.401   5.270
 7070TIP3    H221175   1.778   2.461   5.187
 7071TIP3   OH221176   5.679   2.292   2.864
 7071TIP3    H121177   5.770   2.315   2.881
 7071TIP3    H221178   5.654   2.235   2.937
 7072TIP3   OH221179   3.080   1.522   2.400
 7072TIP3    H121180   3.004   1.535   2.344
 7072TIP3    H221181   3.044   1.494   2.484
 7073TIP3   OH221182   5.815   5.036   0.887
 7073TIP3    H121183   5.789   5.114   0.838
 7073TIP3    H221184   5.733   4.999   0.919
 7074TIP3   OH221185   0.911   5.370   1.617
 7074TIP3    H121186   0.881   5.347   1.529
 7074TIP3    H221187   0.961   5.450   1.605
 7075TIP3   OH221188   1.427   3.250   5.782
 7075TIP3    H121189   1.421   3.253   5.878
 7075TIP3    H221190   1.503   3.304   5.762
 7076TIP3   OH221191   4.908   5.284   0.177
 7076TIP3    H121192   4.921   5.352   0.243
 7076TIP3    H221193   4.814   5.269   0.176
 7077TIP3   OH221194   3.488   5.430   1.795
 7077TIP3    H121195   3.570   5.441   1.843
 7077TIP3    H221196   3.460   5.340   1.814
 7078TIP3   OH221197   0.557   0.560   3.235
 7078TIP3    H121198   0.527   0.614   3.308
 7078TIP3    H221199   0.574   0.474   3.275
 7079TIP3   OH221200   5.971   4.582   5.547
 7079TIP3    H121201   5.992   4.674   5.561
 7079TIP3    H221202   6.045   4.548   5.499
 7080TIP3   OH221203   2.174   2.228   2.141
 7080TIP3    H121204   2.210   2.143   2.118
 7080TIP3    H221205   2.250   2.282   2.161
 7081TIP3   OH221206   4.081   6.782   5.456
 7081TIP3    H121207   4.132   6.707   5.488
 7081TIP3    H221208   4.032   6.813   5.532
 7082TIP3   OH221209   0.389   1.073   4.925
 7082TIP3    H121210   0.424   1.053   4.838
 7082TIP3    H221211   0.316   1.013   4.937
 7083TIP3   OH221212   1.579   1.652   5.340
 7083TIP3    H121213   1.542   1.616   5.260
 7083TIP3    H221214   1.591   1.576   5.397
 7084TIP3   OH221215   2.415   5.043   0.134
 7084TIP3    H121216   2.402   5.132   0.102
 7084TIP3    H221217   2.486   5.050   0.197
 7085TIP3   OH221218   1.974   5.765   1.758
 7085TIP3    H121219   1.938   5.848   1.788
 7085TIP3    H221220   1.898   5.711   1.738
 7086TIP3   OH221221   4.749   5.282   2.859
 7086TIP3    H121222   4.666   5.316   2.828
 7086TIP3    H221223   4.743   5.287   2.955
 7087TIP3   OH221224   1.194   3.251   1.163
 7087TIP3    H121225   1.238   3.246   1.078
 7087TIP3    H221226   1.102   3.235   1.142
 7088TIP3   OH221227   2.111   5.385   2.397
 7088TIP3    H121228   2.122   5.401   2.491
 7088TIP3    H221229   2.187   5.333   2.373
 7089TIP3   OH221230   1.148   4.328   5.097
 7089TIP3    H121231   1.199   4.247   5.104
 7089TIP3    H221232   1.070   4.303   5.048
 7090TIP3   OH221233   1.454   6.073   4.181
 7090TIP3    H121234   1.477   6.065   4.089
 7090TIP3    H221235   1.500   6.152   4.211
 7091TIP3   OH221236   3.627   4.954   5.670
 7091TIP3    H121237   3.658   4.889   5.734
 7091TIP3    H221238   3.532   4.952   5.678
 7092TIP3   OH221239   6.468   6.095   5.001
 7092TIP3    H121240   6.472   6.106   4.906
 7092TIP3    H221241   6.386   6.049   5.016
 7093TIP3   OH221242   1.556   1.578   2.282
 7093TIP3    H121243   1.632   1.631   2.258
 7093TIP3    H221244   1.521   1.547   2.198
 7094TIP3   OH221245   2.715   4.470   4.364
 7094TIP3    H121246   2.663   4.443   4.440
 7094TIP3    H221247   2.752   4.389   4.331
 7095TIP3   OH221248   3.243   6.317   5.709
 7095TIP3    H121249   3.255   6.411   5.724
 7095TIP3    H221250   3.303   6.296   5.638
 7096TIP3   OH221251   2.353   4.859   0.489
 7096TIP3    H121252   2.275   4.805   0.476
 7096TIP3    H221253   2.319   4.947   0.506
 7097TIP3   OH221254   4.047   5.121   4.644
 7097TIP3    H121255   4.112   5.113   4.574
 7097TIP3    H221256   4.070   5.053   4.706
 7098TIP3   OH221257   6.900   5.186   2.292
 7098TIP3    H121258   6.909   5.130   2.215
 7098TIP3    H221259   6.989   5.212   2.314
 7099TIP3   OH221260   1.875   5.496   3.859
 7099TIP3    H121261   1.899   5.461   3.773
 7099TIP3    H221262   1.932   5.572   3.870
 7100TIP3   OH221263   1.621   6.134   1.641
 7100TIP3    H121264   1.570   6.061   1.607
 7100TIP3    H221265   1.711   6.101   1.648
 7101TIP3   OH221266   4.159   3.894   4.238
 7101TIP3    H121267   4.073   3.877   4.200
 7101TIP3    H221268   4.176   3.986   4.222
 7102TIP3   OH221269   2.942   1.382   0.485
 7102TIP3    H121270   2.887   1.321   0.534
 7102TIP3    H221271   2.930   1.466   0.528
 7103TIP3   OH221272   2.268   0.167   1.018
 7103TIP3    H121273   2.266   0.122   1.103
 7103TIP3    H221274   2.361   0.171   0.995
 7104TIP3   OH221275   6.357   3.769   2.952
 7104TIP3    H121276   6.271   3.730   2.965
 7104TIP3    H221277   6.364   3.779   2.857
 7105TIP3   OH221278   6.241   6.076   2.727
 7105TIP3    H121279   6.230   6.147   2.789
 7105TIP3    H221280   6.307   6.019   2.767
 7106TIP3   OH221281   4.625   1.168   1.628
 7106TIP3    H121282   4.539   1.205   1.608
 7106TIP3    H221283   4.653   1.211   1.709
 7107TIP3   OH221284   4.730   1.014   2.513
 7107TIP3    H121285   4.738   1.013   2.418
 7107TIP3    H221286   4.732   0.921   2.538
 7108TIP3   OH221287   1.921   1.510   3.369
 7108TIP3    H121288   2.010   1.541   3.384
 7108TIP3    H221289   1.911   1.436   3.429
 7109TIP3   OH221290   4.791   3.646   2.580
 7109TIP3    H121291   4.863   3.658   2.517
 7109TIP3    H221292   4.792   3.725   2.633
 7110TIP3   OH221293   6.314   2.518   0.478
 7110TIP3    H121294   6.323   2.447   0.542
 7110TIP3    H221295   6.300   2.596   0.532
 7111TIP3   OH221296   4.277   3.885   4.508
 7111TIP3    H121297   4.361   3.929   4.518
 7111TIP3    H221298   4.261   3.883   4.414
 7112TIP3   OH221299   1.185   0.479   3.262
 7112TIP3    H121300   1.234   0.542   3.314
 7112TIP3    H221301   1.152   0.416   3.325
 7113TIP3   OH221302   2.901   6.099   3.928
 7113TIP3    H121303   2.920   6.189   3.900
 7113TIP3    H221304   2.973   6.077   3.988
 7114TIP3   OH221305   6.628   0.782   0.410
 7114TIP3    H121306   6.533   0.770   0.417
 7114TIP3    H221307   6.639   0.876   0.391
 7115TIP3   OH221308   6.348   6.637   3.954
 7115TIP3    H121309   6.283   6.701   3.984
 7115TIP3    H221310   6.335   6.633   3.860
 7116TIP3   OH221311   4.641   4.528   3.686
 7116TIP3    H121312   4.602   4.490   3.607
 7116TIP3    H221313   4.589   4.606   3.703
 7117TIP3   OH221314   2.152   3.099   2.498
 7117TIP3    H121315   2.068   3.080   2.457
 7117TIP3    H221316   2.130   3.140   2.581
 7118TIP3   OH221317   4.160   4.178   1.793
 7118TIP3    H121318   4.101   4.177   1.868
 7118TIP3    H221319   4.193   4.268   1.790
 7119TIP3   OH221320   5.892   3.691   3.376
 7119TIP3    H121321   5.961   3.667   3.438
 7119TIP3    H221322   5.831   3.617   3.379
 7120TIP3   OH221323   2.130   0.845   0.448
 7120TIP3    H121324   2.212   0.832   0.401
 7120TIP3    H221325   2.121   0.768   0.504
 7121TIP3   OH221326   3.827   3.429   4.240
 7121TIP3    H121327   3.803   3.481   4.317
 7121TIP3    H221328   3.895   3.481   4.196
 7122TIP3   OH221329   0.374   6.409   2.771
 7122TIP3    H121330   0.379   6.315   2.752
 7122TIP3    H221331   0.292   6.437   2.731
 7123TIP3   OH221332   1.898   4.327   2.334
 7123TIP3    H121333   1.956   4.252   2.346
 7123TIP3    H221334   1.952   4.393   2.291
 7124TIP3   OH221335   0.902   4.188   5.317
 7124TIP3    H121336   0.978   4.144   5.355
 7124TIP3    H221337   0.901   4.159   5.225
 7125TIP3   OH221338   5.922   1.771   5.464
 7125TIP3    H121339   6.007   1.786   5.422
 7125TIP3    H221340   5.898   1.857   5.499
 7126TIP3   OH221341   2.737   5.942   4.579
 7126TIP3    H121342   2.766   5.852   4.563
 7126TIP3    H221343   2.818   5.991   4.590
 7127TIP3   OH221344   4.232   0.263   2.239
 7127TIP3    H121345   4.266   0.234   2.153
 7127TIP3    H221346   4.142   0.230   2.241
 7128TIP3   OH221347   2.068   0.173   0.796
 7128TIP3    H121348   2.092   0.126   0.716
 7128TIP3    H221349   2.132   0.144   0.861
 7129TIP3   OH221350   3.304   1.049   1.334
 7129TIP3    H121351   3.250   1.104   1.391
 7129TIP3    H221352   3.340   1.110   1.270
 7130TIP3   OH221353   0.824   3.262  -0.014
 7130TIP3    H121354   0.910   3.302  -0.029
 7130TIP3    H221355   0.781   3.320   0.049
 7131TIP3   OH221356   4.307   2.117   2.634
 7131TIP3    H121357   4.366   2.192   2.628
 7131TIP3    H221358   4.226   2.146   2.593
 7132TIP3   OH221359   1.812   5.610   0.864
 7132TIP3    H121360   1.875   5.675   0.896
 7132TIP3    H221361   1.726   5.644   0.890
 7133TIP3   OH221362   3.492   1.301   4.772
 7133TIP3    H121363   3.468   1.317   4.864
 7133TIP3    H221364   3.428   1.353   4.722
 7134TIP3   OH221365   4.707   1.968   5.221
 7134TIP3    H121366   4.644   2.000   5.285
 7134TIP3    H221367   4.790   2.009   5.246
 7135TIP3   OH221368   3.117   2.295   4.675
 7135TIP3    H121369   3.211   2.277   4.678
 7135TIP3    H221370   3.084   2.262   4.759
 7136TIP3   OH221371   2.561   2.351   0.915
 7136TIP3    H121372   2.533   2.369   0.825
 7136TIP3    H221373   2.487   2.306   0.955
 7137TIP3   OH221374   5.111   0.909   2.410
 7137TIP3    H121375   5.119   1.000   2.437
 7137TIP3    H221376   5.080   0.913   2.320
 7138TIP3   OH221377   0.342   4.258   1.964
 7138TIP3    H121378   0.330   4.206   1.884
 7138TIP3    H221379   0.430   4.296   1.954
 7139TIP3   OH221380   4.775   0.011   1.620
 7139TIP3    H121381   4.720   0.043   1.691
 7139TIP3    H221382   4.859  -0.010   1.662
 7140TIP3   OH221383   1.444   6.407   0.153
 7140TIP3    H121384   1.473   6.423   0.064
 7140TIP3    H221385   1.470   6.485   0.202
 7141TIP3   OH221386   4.140   5.979   2.394
 7141TIP3    H121387   4.224   5.983   2.441
 7141TIP3    H221388   4.116   6.071   2.381
 7142TIP3   OH221389   2.516   6.266   1.698
 7142TIP3    H121390   2.531   6.182   1.740
 7142TIP3    H221391   2.527   6.248   1.605
 7143TIP3   OH221392   5.462   0.129   0.955
 7143TIP3    H121393   5.444   0.133   0.861
 7143TIP3    H221394   5.397   0.068   0.990
 7144TIP3   OH221395   6.337   5.436   1.249
 7144TIP3    H121396   6.364   5.425   1.158
 7144TIP3    H221397   6.412   5.406   1.300
 7145TIP3   OH221398   1.436   5.691   1.396
 7145TIP3    H121399   1.480   5.610   1.420
 7145TIP3    H221400   1.392   5.720   1.476
 7146TIP3   OH221401   5.498   4.782   1.384
 7146TIP3    H121402   5.528   4.843   1.452
 7146TIP3    H221403   5.451   4.837   1.321
 7147TIP3   OH221404   4.518   1.626   1.851
 7147TIP3    H121405   4.591   1.657   1.797
 7147TIP3    H221406   4.560   1.575   1.921
 7148TIP3   OH221407   4.311   1.024   1.676
 7148TIP3    H121408   4.248   0.966   1.718
 7148TIP3    H221409   4.368   0.966   1.626
 7149TIP3   OH221410   5.237   2.682   2.318
 7149TIP3    H121411   5.263   2.746   2.384
 7149TIP3    H221412   5.166   2.633   2.359
 7150TIP3   OH221413   6.314   2.921   3.745
 7150TIP3    H121414   6.297   2.851   3.682
 7150TIP3    H221415   6.407   2.912   3.766
 7151TIP3   OH221416   1.327   0.204   0.501
 7151TIP3    H121417   1.286   0.120   0.486
 7151TIP3    H221418   1.388   0.189   0.574
 7152TIP3   OH221419   1.352   1.818   2.600
 7152TIP3    H121420   1.417   1.820   2.530
 7152TIP3    H221421   1.269   1.798   2.556
 7153TIP3   OH221422   1.848   5.647   2.856
 7153TIP3    H121423   1.818   5.732   2.825
 7153TIP3    H221424   1.770   5.604   2.890
 7154TIP3   OH221425   6.375   4.146   3.291
 7154TIP3    H121426   6.467   4.123   3.309
 7154TIP3    H221427   6.329   4.125   3.372
 7155TIP3   OH221428   6.405   1.638   4.450
 7155TIP3    H121429   6.328   1.604   4.404
 7155TIP3    H221430   6.438   1.707   4.393
 7156TIP3   OH221431   3.192   0.445   4.058
 7156TIP3    H121432   3.189   0.417   4.150
 7156TIP3    H221433   3.103   0.433   4.026
 7157TIP3   OH221434   3.650   3.208   3.908
 7157TIP3    H121435   3.682   3.123   3.939
 7157TIP3    H221436   3.638   3.260   3.988
 7158TIP3   OH221437   2.255   2.585   3.581
 7158TIP3    H121438   2.169   2.617   3.607
 7158TIP3    H221439   2.273   2.512   3.641
 7159TIP3   OH221440   4.389   6.403   1.694
 7159TIP3    H121441   4.331   6.417   1.769
 7159TIP3    H221442   4.333   6.414   1.617
 7160TIP3   OH221443   0.788   6.420   3.438
 7160TIP3    H121444   0.725   6.352   3.461
 7160TIP3    H221445   0.753   6.500   3.476
 7161TIP3   OH221446   5.093   6.666   4.100
 7161TIP3    H121447   5.004   6.666   4.135
 7161TIP3    H221448   5.094   6.594   4.037
 7162TIP3   OH221449   1.172   0.061   4.525
 7162TIP3    H121450   1.182  -0.024   4.568
 7162TIP3    H221451   1.215   0.122   4.584
 7163TIP3   OH221452   4.402   1.901   1.852
 7163TIP3    H121453   4.382   1.810   1.874
 7163TIP3    H221454   4.322   1.948   1.874
 7164TIP3   OH221455   3.908   3.902   0.831
 7164TIP3    H121456   3.922   3.842   0.905
 7164TIP3    H221457   3.922   3.989   0.867
 7165TIP3   OH221458   1.595   1.450   0.959
 7165TIP3    H121459   1.643   1.411   0.886
 7165TIP3    H221460   1.624   1.401   1.036
 7166TIP3   OH221461   5.484   6.253   0.111
 7166TIP3    H121462   5.472   6.339   0.072
 7166TIP3    H221463   5.401   6.207   0.094
 7167TIP3   OH221464   0.456   0.652   4.411
 7167TIP3    H121465   0.450   0.558   4.430
 7167TIP3    H221466   0.376   0.671   4.361
 7168TIP3   OH221467   5.408   5.640   3.693
 7168TIP3    H121468   5.465   5.695   3.748
 7168TIP3    H221469   5.427   5.551   3.721
 7169TIP3   OH221470   3.087   1.800   0.889
 7169TIP3    H121471   3.084   1.894   0.906
 7169TIP3    H221472   3.125   1.793   0.801
 7170TIP3   OH221473   4.716   3.559   4.831
 7170TIP3    H121474   4.771   3.611   4.772
 7170TIP3    H221475   4.772   3.541   4.907
 7171TIP3   OH221476   5.123   1.630   1.984
 7171TIP3    H121477   5.090   1.644   1.895
 7171TIP3    H221478   5.213   1.598   1.972
 7172TIP3   OH221479   7.211   2.985   5.092
 7172TIP3    H121480   7.187   3.066   5.137
 7172TIP3    H221481   7.169   2.916   5.143
 7173TIP3   OH221482   2.728   0.606   5.278
 7173TIP3    H121483   2.655   0.650   5.235
 7173TIP3    H221484   2.701   0.514   5.281
 7174TIP3   OH221485   3.166   5.946   0.081
 7174TIP3    H121486   3.080   5.922   0.044
 7174TIP3    H221487   3.145   6.001   0.156
 7175TIP3   OH221488   6.311   0.803   4.689
 7175TIP3    H121489   6.346   0.763   4.610
 7175TIP3    H221490   6.267   0.731   4.734
 7176TIP3   OH221491   4.666   0.511   3.270
 7176TIP3    H121492   4.720   0.435   3.247
 7176TIP3    H221493   4.711   0.585   3.230
 7177TIP3   OH221494   6.329   3.155   1.383
 7177TIP3    H121495   6.388   3.230   1.375
 7177TIP3    H221496   6.319   3.141   1.477
 7178TIP3   OH221497   6.719   3.101   4.575
 7178TIP3    H121498   6.809   3.123   4.552
 7178TIP3    H221499   6.666   3.145   4.510
 7179TIP3   OH221500   7.114   0.110   4.784
 7179TIP3    H121501   7.138   0.034   4.838
 7179TIP3    H221502   7.110   0.076   4.695
 7180TIP3   OH221503   2.147   1.159   2.159
 7180TIP3    H121504   2.091   1.236   2.144
 7180TIP3    H221505   2.233   1.186   2.128
 7181TIP3   OH221506   2.618   0.119   3.007
 7181TIP3    H121507   2.646   0.029   3.028
 7181TIP3    H221508   2.695   0.159   2.967
 7182TIP3   OH221509   3.663   4.551   3.784
 7182TIP3    H121510   3.601   4.529   3.853
 7182TIP3    H221511   3.735   4.595   3.830
 7183TIP3   OH221512   2.105   2.271   5.295
 7183TIP3    H121513   2.136   2.362   5.297
 7183TIP3    H221514   2.182   2.220   5.271
 7184TIP3   OH221515   1.451   6.126   4.720
 7184TIP3    H121516   1.529   6.182   4.711
 7184TIP3    H221517   1.437   6.090   4.633
 7185TIP3   OH221518   6.197   3.041   1.936
 7185TIP3    H121519   6.196   3.044   1.840
 7185TIP3    H221520   6.277   3.087   1.960
 7186TIP3   OH221521   4.545   6.497   5.671
 7186TIP3    H121522   4.508   6.476   5.757
 7186TIP3    H221523   4.534   6.592   5.662
 7187TIP3   OH221524   4.728   4.678   2.917
 7187TIP3    H121525   4.740   4.734   2.993
 7187TIP3    H221526   4.804   4.696   2.862
 7188TIP3   OH221527   6.437   3.220   0.326
 7188TIP3    H121528   6.367   3.194   0.386
 7188TIP3    H221529   6.517   3.214   0.379
 7189TIP3   OH221530   3.537   3.509   5.629
 7189TIP3    H121531   3.620   3.528   5.585
 7189TIP3    H221532   3.475   3.494   5.557
 7190TIP3   OH221533   4.649   3.224   0.697
 7190TIP3    H121534   4.581   3.199   0.635
 7190TIP3    H221535   4.683   3.306   0.662
 7191TIP3   OH221536   4.587   6.692   4.252
 7191TIP3    H121537   4.509   6.640   4.273
 7191TIP3    H221538   4.582   6.705   4.157
 7192TIP3   OH221539   3.986   2.208   1.776
 7192TIP3    H121540   3.968   2.160   1.696
 7192TIP3    H221541   4.029   2.289   1.748
 7193TIP3   OH221542   4.484   0.848   0.777
 7193TIP3    H121543   4.479   0.902   0.698
 7193TIP3    H221544   4.487   0.911   0.849
 7194TIP3   OH221545   7.205   3.588   3.551
 7194TIP3    H121546   7.159   3.528   3.493
 7194TIP3    H221547   7.271   3.534   3.595
 7195TIP3   OH221548   6.947   3.147   3.091
 7195TIP3    H121549   6.993   3.063   3.104
 7195TIP3    H221550   6.945   3.159   2.996
 7196TIP3   OH221551   2.730   0.631   0.538
 7196TIP3    H121552   2.697   0.636   0.628
 7196TIP3    H221553   2.751   0.721   0.515
 7197TIP3   OH221554   6.913   3.452   2.962
 7197TIP3    H121555   6.903   3.452   3.057
 7197TIP3    H221556   6.830   3.417   2.929
 7198TIP3   OH221557   1.167   2.186   4.947
 7198TIP3    H121558   1.158   2.095   4.975
 7198TIP3    H221559   1.092   2.230   4.986
 7199TIP3   OH221560   0.294   2.102   5.807
 7199TIP3    H121561   0.283   2.023   5.859
 7199TIP3    H221562   0.383   2.096   5.773
 7200TIP3   OH221563   5.618   2.371   2.084
 7200TIP3    H121564   5.583   2.282   2.083
 7200TIP3    H221565   5.541   2.426   2.098
 7201TIP3   OH221566   7.086   0.471   3.495
 7201TIP3    H121567   7.174   0.507   3.507
 7201TIP3    H221568   7.100   0.391   3.444
 7202TIP3   OH221569   2.094   1.164   4.073
 7202TIP3    H121570   2.058   1.196   3.991
 7202TIP3    H221571   2.025   1.109   4.110
 7203TIP3   OH221572   5.089   0.677   3.136
 7203TIP3    H121573   5.146   0.727   3.077
 7203TIP3    H221574   5.128   0.689   3.223
 7204TIP3   OH221575   3.746   6.559   5.614
 7204TIP3    H121576   3.663   6.514   5.626
 7204TIP3    H221577   3.753   6.618   5.688
 7205TIP3   OH221578   5.808   6.039   2.753
 7205TIP3    H121579   5.877   6.000   2.700
 7205TIP3    H221580   5.764   5.965   2.794
 7206TIP3   OH221581   6.849   0.811   2.994
 7206TIP3    H121582   6.863   0.887   2.936
 7206TIP3    H221583   6.937   0.774   3.006
 7207TIP3   OH221584   5.231   2.075   1.744
 7207TIP3    H121585   5.292   2.001   1.748
 7207TIP3    H221586   5.205   2.079   1.652
 7208TIP3   OH221587   2.310   6.728   3.110
 7208TIP3    H121588   2.250   6.739   3.037
 7208TIP3    H221589   2.253   6.718   3.187
 7209TIP3   OH221590   3.794   5.561   2.967
 7209TIP3    H121591   3.736   5.618   2.915
 7209TIP3    H221592   3.861   5.532   2.905
 7210TIP3   OH221593   5.642   1.708   4.246
 7210TIP3    H121594   5.711   1.648   4.273
 7210TIP3    H221595   5.637   1.773   4.316
 7211TIP3   OH221596   3.255   2.630   4.451
 7211TIP3    H121597   3.286   2.555   4.400
 7211TIP3    H221598   3.192   2.592   4.513
 7212TIP3   OH221599   4.100   1.717   4.563
 7212TIP3    H121600   4.187   1.718   4.601
 7212TIP3    H221601   4.048   1.661   4.621
 7213TIP3   OH221602   2.367   1.978   3.987
 7213TIP3    H121603   2.302   1.908   3.995
 7213TIP3    H221604   2.352   2.035   4.062
 7214TIP3   OH221605   3.975   0.913   1.323
 7214TIP3    H121606   3.881   0.927   1.314
 7214TIP3    H221607   4.011   0.999   1.343
 7215TIP3   OH221608   6.608   3.752   2.171
 7215TIP3    H121609   6.608   3.798   2.255
 7215TIP3    H221610   6.630   3.819   2.106
 7216TIP3   OH221611   1.331   2.895   0.611
 7216TIP3    H121612   1.411   2.874   0.659
 7216TIP3    H221613   1.359   2.905   0.520
 7217TIP3   OH221614   4.074   2.516   2.123
 7217TIP3    H121615   4.018   2.556   2.056
 7217TIP3    H221616   4.071   2.422   2.102
 7218TIP3   OH221617   1.458   4.616   2.617
 7218TIP3    H121618   1.506   4.595   2.538
 7218TIP3    H221619   1.393   4.681   2.590
 7219TIP3   OH221620   5.813   4.514   1.283
 7219TIP3    H121621   5.760   4.450   1.331
 7219TIP3    H221622   5.783   4.508   1.193
 7220TIP3   OH221623   3.262   5.341   2.594
 7220TIP3    H121624   3.266   5.427   2.551
 7220TIP3    H221625   3.178   5.304   2.566
 7221TIP3   OH221626   1.588   0.727   5.253
 7221TIP3    H121627   1.504   0.748   5.292
 7221TIP3    H221628   1.633   0.674   5.319
 7222TIP3   OH221629   5.615   2.580   1.359
 7222TIP3    H121630   5.521   2.587   1.373
 7222TIP3    H221631   5.629   2.490   1.332
 7223TIP3   OH221632   4.463   3.009   4.413
 7223TIP3    H121633   4.448   2.958   4.333
 7223TIP3    H221634   4.441   3.099   4.389
 7224TIP3   OH221635   2.198   1.932   5.126
 7224TIP3    H121636   2.251   1.852   5.128
 7224TIP3    H221637   2.135   1.920   5.197
 7225TIP3   OH221638   7.099   3.251   2.832
 7225TIP3    H121639   7.092   3.334   2.879
 7225TIP3    H221640   7.189   3.222   2.847
 7226TIP3   OH221641   5.493   5.999   1.642
 7226TIP3    H121642   5.573   6.051   1.632
 7226TIP3    H221643   5.460   6.022   1.729
 7227TIP3   OH221644   3.806   2.530   1.189
 7227TIP3    H121645   3.769   2.503   1.105
 7227TIP3    H221646   3.734   2.519   1.252
 7228TIP3   OH221647   0.828   4.625   3.486
 7228TIP3    H121648   0.899   4.572   3.521
 7228TIP3    H221649   0.822   4.700   3.545
 7229TIP3   OH221650   5.666   3.818   5.027
 7229TIP3    H121651   5.690   3.871   5.103
 7229TIP3    H221652   5.600   3.757   5.059
 7230TIP3   OH221653   6.771   2.978   4.162
 7230TIP3    H121654   6.756   3.063   4.122
 7230TIP3    H221655   6.830   2.996   4.236
 7231TIP3   OH221656   4.424   3.609   3.085
 7231TIP3    H121657   4.454   3.620   2.995
 7231TIP3    H221658   4.403   3.516   3.093
 7232TIP3   OH221659   5.127   2.359   4.789
 7232TIP3    H121660   5.177   2.424   4.838
 7232TIP3    H221661   5.079   2.410   4.723
 7233TIP3   OH221662   0.896   4.357   1.145
 7233TIP3    H121663   0.822   4.297   1.136
 7233TIP3    H221664   0.893   4.411   1.067
 7234TIP3   OH221665   7.113   6.067   5.254
 7234TIP3    H121666   7.151   6.152   5.230
 7234TIP3    H221667   7.094   6.024   5.171
 7235TIP3   OH221668   3.986   4.471   1.799
 7235TIP3    H121669   4.011   4.531   1.869
 7235TIP3    H221670   4.063   4.467   1.742
 7236TIP3   OH221671   3.438   1.308   0.397
 7236TIP3    H121672   3.525   1.302   0.357
 7236TIP3    H221673   3.412   1.217   0.411
 7237TIP3   OH221674   6.788   6.214   1.430
 7237TIP3    H121675   6.740   6.156   1.490
 7237TIP3    H221676   6.776   6.176   1.344
 7238TIP3   OH221677   2.296   4.178   2.642
 7238TIP3    H121678   2.269   4.159   2.732
 7238TIP3    H221679   2.301   4.274   2.639
 7239TIP3   OH221680   3.040   1.692   5.234
 7239TIP3    H121681   3.098   1.619   5.213
 7239TIP3    H221682   3.097   1.769   5.232
 7240TIP3   OH221683   3.698   3.011   5.284
 7240TIP3    H121684   3.707   3.103   5.309
 7240TIP3    H221685   3.788   2.980   5.277
 7241TIP3   OH221686   6.056   5.267   2.518
 7241TIP3    H121687   6.118   5.261   2.445
 7241TIP3    H221688   6.107   5.241   2.595
 7242TIP3   OH221689   6.647   3.161   5.335
 7242TIP3    H121690   6.737   3.129   5.327
 7242TIP3    H221691   6.655   3.256   5.326
 7243TIP3   OH221692   4.682   2.411   0.210
 7243TIP3    H121693   4.721   2.498   0.207
 7243TIP3    H221694   4.603   2.422   0.263
 7244TIP3   OH221695   1.920   4.636   2.988
 7244TIP3    H121696   1.875   4.562   3.029
 7244TIP3    H221697   1.875   4.649   2.905
 7245TIP3   OH221698   0.630   2.266   3.937
 7245TIP3    H121699   0.725   2.257   3.927
 7245TIP3    H221700   0.596   2.179   3.913
 7246TIP3   OH221701   7.197   1.110   0.712
 7246TIP3    H121702   7.266   1.052   0.680
 7246TIP3    H221703   7.142   1.055   0.768
 7247TIP3   OH221704   1.713   0.636   2.695
 7247TIP3    H121705   1.759   0.616   2.613
 7247TIP3    H221706   1.711   0.553   2.742
 7248TIP3   OH221707   3.646   6.519   4.235
 7248TIP3    H121708   3.574   6.572   4.201
 7248TIP3    H221709   3.699   6.579   4.287
 7249TIP3   OH221710   1.086   4.554   5.237
 7249TIP3    H121711   1.075   4.534   5.330
 7249TIP3    H221712   1.104   4.469   5.196
 7250TIP3   OH221713   5.929   2.803   1.787
 7250TIP3    H121714   6.023   2.798   1.807
 7250TIP3    H221715   5.902   2.889   1.822
 7251TIP3   OH221716   6.235   2.009   1.652
 7251TIP3    H121717   6.263   1.972   1.736
 7251TIP3    H221718   6.267   1.946   1.587
 7252TIP3   OH221719   5.181   6.378   1.871
 7252TIP3    H121720   5.179   6.368   1.776
 7252TIP3    H221721   5.089   6.385   1.896
 7253TIP3   OH221722   1.733   0.446   4.578
 7253TIP3    H121723   1.785   0.487   4.509
 7253TIP3    H221724   1.670   0.391   4.531
 7254TIP3   OH221725   1.251   4.177   1.975
 7254TIP3    H121726   1.318   4.141   2.033
 7254TIP3    H221727   1.246   4.114   1.903
 7255TIP3   OH221728   0.862   3.061   0.189
 7255TIP3    H121729   0.848   3.101   0.103
 7255TIP3    H221730   0.889   2.971   0.170
 7256TIP3   OH221731   6.080   6.570   4.266
 7256TIP3    H121732   6.070   6.527   4.351
 7256TIP3    H221733   5.994   6.609   4.248
 7257TIP3   OH221734   5.619   5.107   3.741
 7257TIP3    H121735   5.669   5.033   3.706
 7257TIP3    H221736   5.683   5.176   3.753
 7258TIP3   OH221737   0.968   5.645   1.656
 7258TIP3    H121738   1.011   5.651   1.741
 7258TIP3    H221739   0.963   5.735   1.625
 7259TIP3   OH221740   6.624   5.503   0.160
 7259TIP3    H121741   6.719   5.511   0.147
 7259TIP3    H221742   6.614   5.416   0.200
 7260TIP3   OH221743   5.186   2.550   3.879
 7260TIP3    H121744   5.127   2.614   3.919
 7260TIP3    H221745   5.130   2.496   3.823
 7261TIP3   OH221746   3.742   4.071   5.554
 7261TIP3    H121747   3.683   4.043   5.624
 7261TIP3    H221748   3.703   4.035   5.474
 7262TIP3   OH221749   5.515   3.473   1.212
 7262TIP3    H121750   5.607   3.459   1.192
 7262TIP3    H221751   5.489   3.548   1.158
 7263TIP3   OH221752   6.601   5.028   5.235
 7263TIP3    H121753   6.656   4.955   5.208
 7263TIP3    H221754   6.585   5.077   5.154
 7264TIP3   OH221755   0.549   2.614   0.641
 7264TIP3    H121756   0.555   2.559   0.563
 7264TIP3    H221757   0.634   2.657   0.648
 7265TIP3   OH221758   5.208   0.303   0.925
 7265TIP3    H121759   5.123   0.286   0.886
 7265TIP3    H221760   5.267   0.239   0.883
 7266TIP3   OH221761   3.660   0.619   1.407
 7266TIP3    H121762   3.650   0.527   1.433
 7266TIP3    H221763   3.743   0.646   1.447
 7267TIP3   OH221764   1.215   5.577   0.629
 7267TIP3    H121765   1.145   5.516   0.651
 7267TIP3    H221766   1.212   5.585   0.534
 7268TIP3   OH221767   0.617   6.810   2.949
 7268TIP3    H121768   0.709   6.785   2.952
 7268TIP3    H221769   0.570   6.732   2.979
 7269TIP3   OH221770   6.279   1.106   5.237
 7269TIP3    H121771   6.352   1.054   5.270
 7269TIP3    H221772   6.232   1.047   5.178
 7270TIP3   OH221773   4.141   3.901   5.608
 7270TIP3    H121774   4.178   3.940   5.530
 7270TIP3    H221775   4.216   3.863   5.654
 7271TIP3   OH221776   1.202   6.359   2.645
 7271TIP3    H121777   1.243   6.329   2.564
 7271TIP3    H221778   1.226   6.292   2.709
 7272TIP3   OH221779   4.526   3.559   4.241
 7272TIP3    H121780   4.587   3.538   4.171
 7272TIP3    H221781   4.449   3.596   4.197
 7273TIP3   OH221782   5.578   2.711   4.327
 7273TIP3    H121783   5.497   2.683   4.371
 7273TIP3    H221784   5.585   2.804   4.348
 7274TIP3   OH221785   3.322   4.405   5.344
 7274TIP3    H121786   3.356   4.426   5.431
 7274TIP3    H221787   3.385   4.342   5.307
 7275TIP3   OH221788   3.039   0.305   1.055
 7275TIP3    H121789   3.118   0.302   1.002
 7275TIP3    H221790   2.998   0.220   1.042
 7276TIP3   OH221791   1.465   2.901   0.375
 7276TIP3    H121792   1.492   2.990   0.397
 7276TIP3    H221793   1.542   2.861   0.335
 7277TIP3   OH221794   2.113   5.410   1.504
 7277TIP3    H121795   2.156   5.495   1.496
 7277TIP3    H221796   2.183   5.350   1.531
 7278TIP3   OH221797   2.418   6.829   0.580
 7278TIP3    H121798   2.425   6.735   0.594
 7278TIP3    H221799   2.355   6.839   0.508
 7279TIP3   OH221800   1.960   4.006   1.054
 7279TIP3    H121801   1.949   4.039   0.964
 7279TIP3    H221802   2.048   3.968   1.055
 7280TIP3   OH221803   6.054   1.437   2.943
 7280TIP3    H121804   6.091   1.367   2.887
 7280TIP3    H221805   6.001   1.489   2.883
 7281TIP3   OH221806   6.685   0.400   4.477
 7281TIP3    H121807   6.666   0.308   4.454
 7281TIP3    H221808   6.613   0.449   4.438
 7282TIP3   OH221809   4.154   1.546   0.848
 7282TIP3    H121810   4.099   1.557   0.926
 7282TIP3    H221811   4.203   1.466   0.865
 7283TIP3   OH221812   3.770   4.108   1.609
 7283TIP3    H121813   3.843   4.073   1.559
 7283TIP3    H221814   3.697   4.108   1.547
 7284TIP3   OH221815   0.360   3.650   0.110
 7284TIP3    H121816   0.343   3.579   0.172
 7284TIP3    H221817   0.293   3.716   0.131
 7285TIP3   OH221818   4.791   4.232   5.521
 7285TIP3    H121819   4.773   4.295   5.452
 7285TIP3    H221820   4.880   4.201   5.502
 7286TIP3   OH221821   2.256   2.273   1.766
 7286TIP3    H121822   2.206   2.324   1.829
 7286TIP3    H221823   2.196   2.204   1.738
 7287TIP3   OH221824   6.717   0.901   5.502
 7287TIP3    H121825   6.640   0.868   5.547
 7287TIP3    H221826   6.710   0.868   5.413
 7288TIP3   OH221827   3.491   4.452   3.974
 7288TIP3    H121828   3.444   4.395   3.912
 7288TIP3    H221829   3.514   4.395   4.047
 7289TIP3   OH221830   5.703   1.534   3.884
 7289TIP3    H121831   5.723   1.463   3.823
 7289TIP3    H221832   5.779   1.538   3.943
 7290TIP3   OH221833   5.717   0.134   4.543
 7290TIP3    H121834   5.805   0.130   4.504
 7290TIP3    H221835   5.715   0.219   4.587
 7291TIP3   OH221836   2.011   4.737   1.716
 7291TIP3    H121837   1.949   4.701   1.652
 7291TIP3    H221838   1.969   4.720   1.801
 7292TIP3   OH221839   3.374   1.358   2.845
 7292TIP3    H121840   3.415   1.442   2.825
 7292TIP3    H221841   3.416   1.330   2.926
 7293TIP3   OH221842   3.741   2.918   3.179
 7293TIP3    H121843   3.741   2.957   3.267
 7293TIP3    H221844   3.796   2.976   3.127
 7294TIP3   OH221845   6.177   1.458   0.855
 7294TIP3    H121846   6.240   1.387   0.867
 7294TIP3    H221847   6.191   1.487   0.765
 7295TIP3   OH221848   4.714   3.577   2.127
 7295TIP3    H121849   4.715   3.551   2.035
 7295TIP3    H221850   4.635   3.630   2.136
 7296TIP3   OH221851   1.162   4.158   1.046
 7296TIP3    H121852   1.110   4.128   1.121
 7296TIP3    H221853   1.233   4.094   1.039
 7297TIP3   OH221854   0.559   5.270   3.793
 7297TIP3    H121855   0.635   5.272   3.735
 7297TIP3    H221856   0.587   5.218   3.868
 7298TIP3   OH221857   2.548   4.290   4.895
 7298TIP3    H121858   2.532   4.273   4.988
 7298TIP3    H221859   2.643   4.288   4.886
 7299TIP3   OH221860   6.804   5.627   2.764
 7299TIP3    H121861   6.836   5.713   2.738
 7299TIP3    H221862   6.727   5.612   2.711
 7300TIP3   OH221863   1.129   3.375   2.228
 7300TIP3    H121864   1.088   3.310   2.171
 7300TIP3    H221865   1.124   3.337   2.315
 7301TIP3   OH221866   5.382   4.486   4.502
 7301TIP3    H121867   5.422   4.400   4.492
 7301TIP3    H221868   5.366   4.516   4.412
 7302TIP3   OH221869   0.595   3.944   3.740
 7302TIP3    H121870   0.583   3.877   3.673
 7302TIP3    H221871   0.603   3.896   3.822
 7303TIP3   OH221872   6.802   5.795   0.231
 7303TIP3    H121873   6.742   5.760   0.165
 7303TIP3    H221874   6.789   5.890   0.228
 7304TIP3   OH221875   4.148   6.737   4.518
 7304TIP3    H121876   4.168   6.803   4.452
 7304TIP3    H221877   4.066   6.767   4.558
 7305TIP3   OH221878   0.775   5.328   1.873
 7305TIP3    H121879   0.707   5.393   1.888
 7305TIP3    H221880   0.807   5.348   1.785
 7306TIP3   OH221881   3.445   0.691   0.704
 7306TIP3    H121882   3.358   0.732   0.699
 7306TIP3    H221883   3.451   0.660   0.794
 7307TIP3   OH221884   4.041   0.408   0.125
 7307TIP3    H121885   4.085   0.479   0.171
 7307TIP3    H221886   4.109   0.367   0.072
 7308TIP3   OH221887   5.609   6.143   2.611
 7308TIP3    H121888   5.635   6.234   2.600
 7308TIP3    H221889   5.662   6.111   2.685
 7309TIP3   OH221890   3.351   4.277   3.797
 7309TIP3    H121891   3.274   4.333   3.792
 7309TIP3    H221892   3.360   4.240   3.709
 7310TIP3   OH221893   4.986   0.456   2.534
 7310TIP3    H121894   5.016   0.501   2.613
 7310TIP3    H221895   4.986   0.364   2.558
 7311TIP3   OH221896   4.398   4.789   5.372
 7311TIP3    H121897   4.399   4.843   5.293
 7311TIP3    H221898   4.355   4.708   5.344
 7312TIP3   OH221899   3.684   0.049   2.265
 7312TIP3    H121900   3.771   0.014   2.283
 7312TIP3    H221901   3.631  -0.029   2.247
 7313TIP3   OH221902   0.170   3.257   4.475
 7313TIP3    H121903   0.086   3.290   4.443
 7313TIP3    H221904   0.208   3.212   4.400
 7314TIP3   OH221905   2.673   2.414   0.343
 7314TIP3    H121906   2.717   2.329   0.332
 7314TIP3    H221907   2.669   2.450   0.254
 7315TIP3   OH221908   1.066   4.156   2.714
 7315TIP3    H121909   1.022   4.072   2.710
 7315TIP3    H221910   1.147   4.138   2.763
 7316TIP3   OH221911   6.792   5.702   0.844
 7316TIP3    H121912   6.851   5.656   0.784
 7316TIP3    H221913   6.736   5.633   0.880
 7317TIP3   OH221914   4.672   5.810   4.730
 7317TIP3    H121915   4.753   5.833   4.685
 7317TIP3    H221916   4.692   5.823   4.823
 7318TIP3   OH221917   1.216   6.699   5.836
 7318TIP3    H121918   1.296   6.678   5.884
 7318TIP3    H221919   1.242   6.698   5.744
 7319TIP3   OH221920   4.014   1.011   5.109
 7319TIP3    H121921   3.961   1.090   5.103
 7319TIP3    H221922   4.058   1.018   5.194
 7320TIP3   OH221923   7.074   0.974   2.315
 7320TIP3    H121924   7.060   0.957   2.408
 7320TIP3    H221925   7.045   0.894   2.272
 7321TIP3   OH221926   4.236   3.708   5.378
 7321TIP3    H121927   4.190   3.782   5.338
 7321TIP3    H221928   4.265   3.741   5.463
 7322TIP3   OH221929   0.852   5.107   4.036
 7322TIP3    H121930   0.849   5.018   4.072
 7322TIP3    H221931   0.894   5.098   3.951
 7323TIP3   OH221932   0.373   1.465   2.483
 7323TIP3    H121933   0.440   1.396   2.481
 7323TIP3    H221934   0.415   1.541   2.444
 7324TIP3   OH221935   6.579   6.400   5.022
 7324TIP3    H121936   6.489   6.370   5.031
 7324TIP3    H221937   6.597   6.447   5.104
 7325TIP3   OH221938   5.257   6.731   4.842
 7325TIP3    H121939   5.192   6.764   4.780
 7325TIP3    H221940   5.341   6.755   4.804
 7326TIP3   OH221941   3.579   3.646   4.226
 7326TIP3    H121942   3.510   3.712   4.217
 7326TIP3    H221943   3.627   3.650   4.143
 7327TIP3   OH221944   5.552   3.181   4.612
 7327TIP3    H121945   5.595   3.263   4.590
 7327TIP3    H221946   5.619   3.114   4.599
 7328TIP3   OH221947   5.481   3.062   0.779
 7328TIP3    H121948   5.400   3.069   0.830
 7328TIP3    H221949   5.498   2.968   0.773
 7329TIP3   OH221950   1.763   1.739   1.488
 7329TIP3    H121951   1.791   1.654   1.455
 7329TIP3    H221952   1.828   1.763   1.553
 7330TIP3   OH221953   4.061   6.511   2.350
 7330TIP3    H121954   4.019   6.562   2.280
 7330TIP3    H221955   4.081   6.576   2.418
 7331TIP3   OH221956   0.682   1.126   5.483
 7331TIP3    H121957   0.677   1.064   5.556
 7331TIP3    H221958   0.593   1.161   5.476
 7332TIP3   OH221959   0.984   5.389   0.102
 7332TIP3    H121960   0.908   5.446   0.089
 7332TIP3    H221961   0.960   5.307   0.059
 7333TIP3   OH221962   5.278   5.753   5.389
 7333TIP3    H121963   5.331   5.794   5.321
 7333TIP3    H221964   5.189   5.785   5.374
 7334TIP3   OH221965   4.832   2.380   1.114
 7334TIP3    H121966   4.750   2.425   1.093
 7334TIP3    H221967   4.893   2.412   1.048
 7335TIP3   OH221968   6.281   4.024   4.956
 7335TIP3    H121969   6.238   4.069   4.883
 7335TIP3    H221970   6.328   4.093   5.003
 7336TIP3   OH221971   1.779   5.550   1.287
 7336TIP3    H121972   1.834   5.483   1.247
 7336TIP3    H221973   1.690   5.520   1.270
 7337TIP3   OH221974   0.331   1.777   4.220
 7337TIP3    H121975   0.279   1.851   4.188
 7337TIP3    H221976   0.410   1.818   4.257
 7338TIP3   OH221977   6.785   4.763   3.251
 7338TIP3    H121978   6.773   4.768   3.346
 7338TIP3    H221979   6.833   4.681   3.238
 7339TIP3   OH221980   5.396   4.258   5.054
 7339TIP3    H121981   5.404   4.162   5.058
 7339TIP3    H221982   5.482   4.291   5.079
 7340TIP3   OH221983   1.530   1.670   4.402
 7340TIP3    H121984   1.486   1.591   4.434
 7340TIP3    H221985   1.569   1.644   4.319
 7341TIP3   OH221986   5.012   4.592   2.257
 7341TIP3    H121987   5.052   4.670   2.218
 7341TIP3    H221988   5.017   4.526   2.188
 7342TIP3   OH221989   6.359   4.936   2.597
 7342TIP3    H121990   6.389   4.972   2.513
 7342TIP3    H221991   6.407   4.854   2.606
 7343TIP3   OH221992   6.991   6.274   0.986
 7343TIP3    H121993   7.010   6.338   1.055
 7343TIP3    H221994   6.989   6.190   1.031
 7344TIP3   OH221995   0.716   0.190   2.443
 7344TIP3    H121996   0.802   0.191   2.485
 7344TIP3    H221997   0.675   0.110   2.475
 7345TIP3   OH221998   5.223   5.593   1.194
 7345TIP3    H121999   5.156   5.656   1.221
 7345TIP3    H222000   5.288   5.595   1.264
 7346TIP3   OH222001   4.076   4.405   5.169
 7346TIP3    H122002   4.113   4.324   5.135
 7346TIP3    H222003   4.047   4.384   5.258
 7347TIP3   OH222004   4.295   0.726   5.623
 7347TIP3    H122005   4.265   0.756   5.537
 7347TIP3    H222006   4.316   0.633   5.611
 7348TIP3   OH222007   1.162   5.983   2.707
 7348TIP3    H122008   1.123   5.896   2.694
 7348TIP3    H222009   1.098   6.030   2.761
 7349TIP3   OH222010   1.121   1.571   3.243
 7349TIP3    H122011   1.113   1.666   3.229
 7349TIP3    H222012   1.052   1.550   3.305
 7350TIP3   OH222013   3.517   3.271   1.471
 7350TIP3    H122014   3.579   3.216   1.423
 7350TIP3    H222015   3.464   3.312   1.402
 7351TIP3   OH222016   4.483   4.341   1.585
 7351TIP3    H122017   4.535   4.357   1.506
 7351TIP3    H222018   4.530   4.386   1.655
 7352TIP3   OH222019   2.381   4.590   3.132
 7352TIP3    H122020   2.368   4.505   3.173
 7352TIP3    H222021   2.301   4.639   3.153
 7353TIP3   OH222022   0.327   0.639   1.188
 7353TIP3    H122023   0.231   0.632   1.189
 7353TIP3    H222024   0.355   0.589   1.265
 7354TIP3   OH222025   6.616   1.105   3.411
 7354TIP3    H122026   6.705   1.117   3.375
 7354TIP3    H222027   6.617   1.018   3.450
 7355TIP3   OH222028   3.023   3.522   0.919
 7355TIP3    H122029   3.058   3.580   0.851
 7355TIP3    H222030   2.929   3.535   0.914
 7356TIP3   OH222031   3.622   5.825   1.569
 7356TIP3    H122032   3.714   5.805   1.552
 7356TIP3    H222033   3.582   5.741   1.591
 7357TIP3   OH222034   6.467   0.263   2.625
 7357TIP3    H122035   6.394   0.233   2.679
 7357TIP3    H222036   6.545   0.227   2.669
 7358TIP3   OH222037   5.463   4.808   5.816
 7358TIP3    H122038   5.474   4.716   5.793
 7358TIP3    H222039   5.469   4.810   5.912
 7359TIP3   OH222040   6.866   0.334   1.671
 7359TIP3    H122041   6.780   0.300   1.646
 7359TIP3    H222042   6.928   0.278   1.624
 7360TIP3   OH222043   0.270   1.242   2.174
 7360TIP3    H122044   0.207   1.211   2.240
 7360TIP3    H222045   0.346   1.185   2.187
 7361TIP3   OH222046   0.337   3.370   1.315
 7361TIP3    H122047   0.349   3.317   1.394
 7361TIP3    H222048   0.259   3.423   1.332
 7362TIP3   OH222049   3.190   1.769   0.617
 7362TIP3    H122050   3.271   1.820   0.609
 7362TIP3    H222051   3.121   1.831   0.596
 7363TIP3   OH222052   1.542   1.719   0.071
 7363TIP3    H122053   1.515   1.735  -0.020
 7363TIP3    H222054   1.583   1.801   0.098
 7364TIP3   OH222055   3.994   3.467   0.796
 7364TIP3    H122056   3.930   3.398   0.787
 7364TIP3    H222057   4.044   3.445   0.875
 7365TIP3   OH222058   2.256   5.118   4.004
 7365TIP3    H122059   2.314   5.070   4.064
 7365TIP3    H222060   2.221   5.189   4.058
 7366TIP3   OH222061   5.869   6.376   0.330
 7366TIP3    H122062   5.834   6.301   0.281
 7366TIP3    H222063   5.792   6.425   0.358
 7367TIP3   OH222064   1.007   2.723   2.314
 7367TIP3    H122065   1.014   2.632   2.342
 7367TIP3    H222066   0.987   2.771   2.394
 7368TIP3   OH222067   4.029   5.507   1.788
 7368TIP3    H122068   4.099   5.534   1.848
 7368TIP3    H222069   4.069   5.441   1.732
 7369TIP3   OH222070   2.162   1.449   1.384
 7369TIP3    H122071   2.068   1.465   1.385
 7369TIP3    H222072   2.173   1.365   1.429
 7370TIP3   OH222073   1.907   3.692   1.915
 7370TIP3    H122074   1.827   3.649   1.945
 7370TIP3    H222075   1.976   3.627   1.930
 7371TIP3   OH222076   5.898   2.397   5.780
 7371TIP3    H122077   5.812   2.355   5.777
 7371TIP3    H222078   5.953   2.342   5.724
 7372TIP3   OH222079   3.288   0.135   4.178
 7372TIP3    H122080   3.227   0.080   4.228
 7372TIP3    H222081   3.353   0.162   4.243
 7373TIP3   OH222082   5.194   5.006   5.242
 7373TIP3    H122083   5.275   4.971   5.204
 7373TIP3    H222084   5.165   4.937   5.302
 7374TIP3   OH222085   1.061   2.362   0.169
 7374TIP3    H122086   1.007   2.309   0.111
 7374TIP3    H222087   1.120   2.409   0.111
 7375TIP3   OH222088   6.021   5.446   4.770
 7375TIP3    H122089   5.971   5.374   4.808
 7375TIP3    H222090   6.028   5.510   4.841
 7376TIP3   OH222091   3.169   5.914   4.793
 7376TIP3    H122092   3.260   5.916   4.765
 7376TIP3    H222093   3.154   5.999   4.834
 7377TIP3   OH222094   0.505   0.480   0.528
 7377TIP3    H122095   0.581   0.434   0.565
 7377TIP3    H222096   0.507   0.566   0.569
 7378TIP3   OH222097   0.064   5.953   1.475
 7378TIP3    H122098   0.021   6.013   1.414
 7378TIP3    H222099   0.037   5.983   1.562
 7379TIP3   OH222100   2.989   2.318   0.466
 7379TIP3    H122101   3.016   2.396   0.515
 7379TIP3    H222102   2.932   2.270   0.526
 7380TIP3   OH222103   4.165   6.298   5.837
 7380TIP3    H122104   4.165   6.353   5.914
 7380TIP3    H222105   4.243   6.243   5.846
 7381TIP3   OH222106   5.606   0.180   2.495
 7381TIP3    H122107   5.659   0.138   2.562
 7381TIP3    H222108   5.615   0.123   2.418
 7382TIP3   OH222109   4.768   2.421   1.492
 7382TIP3    H122110   4.794   2.333   1.465
 7382TIP3    H222111   4.716   2.408   1.571
 7383TIP3   OH222112   2.209   6.487   5.510
 7383TIP3    H122113   2.241   6.570   5.475
 7383TIP3    H222114   2.256   6.477   5.593
 7384TIP3   OH222115   7.180   5.550   2.267
 7384TIP3    H122116   7.106   5.508   2.313
 7384TIP3    H222117   7.202   5.626   2.322
 7385TIP3   OH222118   6.264   4.516   4.906
 7385TIP3    H122119   6.339   4.534   4.850
 7385TIP3    H222120   6.226   4.435   4.871
 7386TIP3   OH222121   2.297   3.561   4.304
 7386TIP3    H122122   2.241   3.621   4.255
 7386TIP3    H222123   2.382   3.565   4.260
 7387TIP3   OH222124   6.260   5.970   0.259
 7387TIP3    H122125   6.261   5.880   0.227
 7387TIP3    H222126   6.317   6.018   0.199
 7388TIP3   OH222127   7.228   3.451   5.839
 7388TIP3    H122128   7.205   3.474   5.749
 7388TIP3    H222129   7.198   3.360   5.848
 7389TIP3   OH222130   3.796   4.245   0.403
 7389TIP3    H122131   3.746   4.214   0.478
 7389TIP3    H222132   3.887   4.241   0.433
 7390TIP3   OH222133   2.584   3.423   3.772
 7390TIP3    H122134   2.579   3.430   3.868
 7390TIP3    H222135   2.588   3.513   3.741
 7391TIP3   OH222136   5.598   4.411   5.454
 7391TIP3    H122137   5.651   4.420   5.533
 7391TIP3    H222138   5.662   4.404   5.383
 7392TIP3   OH222139   4.363   4.285   5.471
 7392TIP3    H122140   4.408   4.236   5.402
 7392TIP3    H222141   4.372   4.230   5.549
 7393TIP3   OH222142   3.268   0.557   5.447
 7393TIP3    H122143   3.246   0.638   5.401
 7393TIP3    H222144   3.358   0.569   5.475
 7394TIP3   OH222145   0.286   5.553   2.980
 7394TIP3    H122146   0.365   5.515   2.942
 7394TIP3    H222147   0.241   5.480   3.021
 7395TIP3   OH222148   6.204   3.605   2.252
 7395TIP3    H122149   6.234   3.669   2.188
 7395TIP3    H222150   6.156   3.657   2.317
 7396TIP3   OH222151   1.201   6.113   4.099
 7396TIP3    H122152   1.286   6.097   4.141
 7396TIP3    H222153   1.142   6.131   4.172
 7397TIP3   OH222154   2.041   4.523   4.106
 7397TIP3    H122155   2.068   4.576   4.181
 7397TIP3    H222156   1.957   4.561   4.080
 7398TIP3   OH222157   0.134   2.798   2.006
 7398TIP3    H122158   0.137   2.708   2.038
 7398TIP3    H222159   0.138   2.852   2.085
 7399TIP3   OH222160   6.694   3.279   1.075
 7399TIP3    H122161   6.613   3.329   1.085
 7399TIP3    H222162   6.668   3.188   1.091
 7400TIP3   OH222163   6.593   4.522   3.481
 7400TIP3    H122164   6.593   4.524   3.386
 7400TIP3    H222165   6.503   4.502   3.505
 7401TIP3   OH222166   3.051   5.865   3.329
 7401TIP3    H122167   3.031   5.928   3.399
 7401TIP3    H222168   3.137   5.830   3.353
 7402TIP3   OH222169   4.407   0.975   0.163
 7402TIP3    H122170   4.342   0.938   0.103
 7402TIP3    H222171   4.397   0.923   0.243
 7403TIP3   OH222172   5.742   3.222   4.836
 7403TIP3    H122173   5.784   3.201   4.753
 7403TIP3    H222174   5.648   3.217   4.817
 7404TIP3   OH222175   4.523   6.594   3.386
 7404TIP3    H122176   4.614   6.602   3.358
 7404TIP3    H222177   4.519   6.644   3.468
 7405TIP3   OH222178   1.553   5.387   2.419
 7405TIP3    H122179   1.644   5.366   2.398
 7405TIP3    H222180   1.501   5.336   2.357
 7406TIP3   OH222181   1.970   3.388   2.026
 7406TIP3    H122182   1.920   3.393   1.945
 7406TIP3    H222183   2.052   3.343   2.002
 7407TIP3   OH222184   6.240   3.773   5.661
 7407TIP3    H122185   6.150   3.803   5.671
 7407TIP3    H222186   6.245   3.742   5.571
 7408TIP3   OH222187   5.123   1.155   5.389
 7408TIP3    H122188   5.056   1.201   5.439
 7408TIP3    H222189   5.154   1.085   5.447
 7409TIP3   OH222190   2.496   4.220   5.467
 7409TIP3    H122191   2.459   4.148   5.519
 7409TIP3    H222192   2.448   4.297   5.495
 7410TIP3   OH222193   6.593   3.379   1.524
 7410TIP3    H122194   6.589   3.379   1.620
 7410TIP3    H222195   6.513   3.424   1.496
 7411TIP3   OH222196   2.254   6.715   4.383
 7411TIP3    H122197   2.341   6.729   4.420
 7411TIP3    H222198   2.265   6.640   4.324
 7412TIP3   OH222199   1.935   6.283   1.909
 7412TIP3    H122200   1.983   6.304   1.989
 7412TIP3    H222201   1.863   6.346   1.907
 7413TIP3   OH222202   4.260   6.211   5.368
 7413TIP3    H122203   4.202   6.259   5.310
 7413TIP3    H222204   4.206   6.188   5.443
 7414TIP3   OH222205   3.573   5.528   5.287
 7414TIP3    H122206   3.482   5.548   5.305
 7414TIP3    H222207   3.600   5.467   5.356
 7415TIP3   OH222208   4.628   0.951  -0.001
 7415TIP3    H122209   4.537   0.980   0.005
 7415TIP3    H222210   4.677   1.014   0.052
 7416TIP3   OH222211   1.936   5.514   3.080
 7416TIP3    H122212   1.890   5.537   2.999
 7416TIP3    H222213   1.869   5.476   3.136
 7417TIP3   OH222214   1.298   3.246   2.443
 7417TIP3    H122215   1.298   3.258   2.539
 7417TIP3    H222216   1.383   3.280   2.415
 7418TIP3   OH222217   2.534   3.958   0.434
 7418TIP3    H122218   2.569   3.869   0.433
 7418TIP3    H222219   2.609   4.013   0.456
 7419TIP3   OH222220   2.706   6.470   1.354
 7419TIP3    H122221   2.800   6.486   1.359
 7419TIP3    H222222   2.676   6.528   1.284
 7420TIP3   OH222223   1.105   5.941   3.831
 7420TIP3    H122224   1.133   5.961   3.921
 7420TIP3    H222225   1.012   5.921   3.839
 7421TIP3   OH222226   4.580   3.082   3.450
 7421TIP3    H122227   4.529   3.018   3.500
 7421TIP3    H222228   4.515   3.129   3.398
 7422TIP3   OH222229   4.685   4.255   5.258
 7422TIP3    H122230   4.757   4.280   5.200
 7422TIP3    H222231   4.646   4.339   5.285
 7423TIP3   OH222232   1.101   1.793   2.422
 7423TIP3    H122233   1.051   1.796   2.504
 7423TIP3    H222234   1.083   1.877   2.379
 7424TIP3   OH222235   0.469   1.467   3.593
 7424TIP3    H122236   0.536   1.481   3.527
 7424TIP3    H222237   0.506   1.400   3.651
 7425TIP3   OH222238   1.795   5.066   3.024
 7425TIP3    H122239   1.764   5.140   3.077
 7425TIP3    H222240   1.723   5.002   3.029
 7426TIP3   OH222241   4.504   2.665   4.271
 7426TIP3    H122242   4.562   2.617   4.212
 7426TIP3    H222243   4.481   2.744   4.223
 7427TIP3   OH222244   5.022   6.585   0.408
 7427TIP3    H122245   4.972   6.627   0.478
 7427TIP3    H222246   4.956   6.543   0.354
 7428TIP3   OH222247   4.378   6.624   1.035
 7428TIP3    H122248   4.433   6.615   0.958
 7428TIP3    H222249   4.432   6.668   1.100
 7429TIP3   OH222250   3.891   6.716   1.119
 7429TIP3    H122251   3.883   6.798   1.168
 7429TIP3    H222252   3.804   6.701   1.083
 7430TIP3   OH222253   3.720   1.328   3.578
 7430TIP3    H122254   3.785   1.347   3.510
 7430TIP3    H222255   3.770   1.287   3.648
 7431TIP3   OH222256   3.632   1.635   4.338
 7431TIP3    H122257   3.616   1.685   4.258
 7431TIP3    H222258   3.728   1.637   4.348
 7432TIP3   OH222259   2.653   2.009   2.476
 7432TIP3    H122260   2.718   2.077   2.460
 7432TIP3    H222261   2.594   2.014   2.400
 7433TIP3   OH222262   5.128   6.236   4.665
 7433TIP3    H122263   5.134   6.301   4.596
 7433TIP3    H222264   5.146   6.284   4.746
 7434TIP3   OH222265   6.654   0.011   1.495
 7434TIP3    H122266   6.724   0.070   1.467
 7434TIP3    H222267   6.636   0.036   1.586
 7435TIP3   OH222268   2.452   1.221   4.249
 7435TIP3    H122269   2.482   1.229   4.340
 7435TIP3    H222270   2.357   1.218   4.256
 7436TIP3   OH222271   0.034   2.227   3.911
 7436TIP3    H122272   0.049   2.171   3.835
 7436TIP3    H222273   0.020   2.315   3.874
 7437TIP3   OH222274   2.756   6.740   2.257
 7437TIP3    H122275   2.838   6.695   2.275
 7437TIP3    H222276   2.781   6.819   2.209
 7438TIP3   OH222277   1.913   5.133   0.594
 7438TIP3    H122278   1.951   5.176   0.670
 7438TIP3    H222279   1.852   5.069   0.631
 7439TIP3   OH222280   3.759   1.807   4.821
 7439TIP3    H122281   3.695   1.858   4.773
 7439TIP3    H222282   3.825   1.871   4.849
 7440TIP3   OH222283   1.026   6.331   5.118
 7440TIP3    H122284   1.072   6.389   5.058
 7440TIP3    H222285   0.988   6.264   5.062
 7441TIP3   OH222286   5.348   4.528   4.211
 7441TIP3    H122287   5.289   4.477   4.157
 7441TIP3    H222288   5.430   4.477   4.212
 7442TIP3   OH222289   3.285   3.420   0.733
 7442TIP3    H122290   3.321   3.439   0.819
 7442TIP3    H222291   3.275   3.505   0.690
 7443TIP3   OH222292   2.580   4.551   2.040
 7443TIP3    H122293   2.612   4.472   2.083
 7443TIP3    H222294   2.577   4.616   2.111
 7444TIP3   OH222295   2.043   5.174   3.220
 7444TIP3    H122296   2.043   5.267   3.245
 7444TIP3    H222297   1.962   5.139   3.257
 7445TIP3   OH222298   0.705   1.701   4.808
 7445TIP3    H122299   0.705   1.675   4.900
 7445TIP3    H222300   0.779   1.762   4.800
 7446TIP3   OH222301   0.208   5.084   5.416
 7446TIP3    H122302   0.143   5.106   5.349
 7446TIP3    H222303   0.198   4.990   5.429
 7447TIP3   OH222304   2.041   0.677   3.053
 7447TIP3    H122305   2.022   0.638   2.968
 7447TIP3    H222306   1.971   0.742   3.065
 7448TIP3   OH222307   0.649   3.323   0.483
 7448TIP3    H122308   0.730   3.295   0.525
 7448TIP3    H222309   0.589   3.340   0.556
 7449TIP3   OH222310   0.448   5.082   0.102
 7449TIP3    H122311   0.543   5.076   0.111
 7449TIP3    H222312   0.417   4.992   0.105
 7450TIP3   OH222313   2.811   5.251   5.313
 7450TIP3    H122314   2.781   5.175   5.361
 7450TIP3    H222315   2.740   5.314   5.320
 7451TIP3   OH222316   4.082   4.940   5.305
 7451TIP3    H122317   4.069   4.998   5.380
 7451TIP3    H222318   4.032   4.861   5.327
 7452TIP3   OH222319   5.680   3.119   2.038
 7452TIP3    H122320   5.600   3.070   2.060
 7452TIP3    H222321   5.654   3.175   1.965
 7453TIP3   OH222322   4.710   0.095   3.959
 7453TIP3    H122323   4.732   0.184   3.933
 7453TIP3    H222324   4.654   0.104   4.036
 7454TIP3   OH222325   0.918   4.443   5.720
 7454TIP3    H122326   0.921   4.416   5.628
 7454TIP3    H222327   1.003   4.416   5.755
 7455TIP3   OH222328   0.178   1.913   5.339
 7455TIP3    H122329   0.100   1.884   5.293
 7455TIP3    H222330   0.245   1.923   5.271
 7456TIP3   OH222331   4.764   5.797   0.499
 7456TIP3    H122332   4.744   5.865   0.435
 7456TIP3    H222333   4.827   5.837   0.559
 7457TIP3   OH222334   1.067   1.557   1.180
 7457TIP3    H122335   1.143   1.552   1.121
 7457TIP3    H222336   0.998   1.509   1.134
 7458TIP3   OH222337   5.694   4.067   1.847
 7458TIP3    H122338   5.747   3.990   1.826
 7458TIP3    H222339   5.605   4.034   1.854
 7459TIP3   OH222340   2.518   5.900   2.683
 7459TIP3    H122341   2.562   5.944   2.756
 7459TIP3    H222342   2.586   5.890   2.616
 7460TIP3   OH222343   6.541   4.653   0.920
 7460TIP3    H122344   6.488   4.622   0.993
 7460TIP3    H222345   6.487   4.721   0.879
 7461TIP3   OH222346   4.310   2.232   4.809
 7461TIP3    H122347   4.313   2.270   4.721
 7461TIP3    H222348   4.220   2.200   4.817
 7462TIP3   OH222349   6.754   5.971   2.419
 7462TIP3    H122350   6.786   5.900   2.364
 7462TIP3    H222351   6.665   5.988   2.388
 7463TIP3   OH222352   4.667   2.061   4.955
 7463TIP3    H122353   4.681   2.036   5.046
 7463TIP3    H222354   4.743   2.115   4.933
 7464TIP3   OH222355   7.017   0.629   2.684
 7464TIP3    H122356   6.970   0.548   2.666
 7464TIP3    H222357   7.080   0.606   2.751
 7465TIP3   OH222358   5.095   6.398   0.115
 7465TIP3    H122359   5.045   6.344   0.176
 7465TIP3    H222360   5.037   6.407   0.039
 7466TIP3   OH222361   2.741   3.957   2.525
 7466TIP3    H122362   2.691   3.914   2.456
 7466TIP3    H222363   2.683   4.027   2.557
 7467TIP3   OH222364   3.678   0.162   2.002
 7467TIP3    H122365   3.661   0.089   1.941
 7467TIP3    H222366   3.688   0.120   2.087
 7468TIP3   OH222367   4.683   2.245   0.872
 7468TIP3    H122368   4.623   2.293   0.930
 7468TIP3    H222369   4.730   2.313   0.825
 7469TIP3   OH222370   4.603   5.127   3.571
 7469TIP3    H122371   4.608   5.173   3.654
 7469TIP3    H222372   4.646   5.043   3.587
 7470TIP3   OH222373   0.734   3.810   2.739
 7470TIP3    H122374   0.671   3.748   2.776
 7470TIP3    H222375   0.736   3.882   2.802
 7471TIP3   OH222376   5.932   3.087   5.398
 7471TIP3    H122377   5.852   3.103   5.348
 7471TIP3    H222378   5.929   2.994   5.420
 7472TIP3   OH222379   5.614   0.118   2.063
 7472TIP3    H122380   5.660   0.120   1.979
 7472TIP3    H222381   5.560   0.197   2.063
 7473TIP3   OH222382   4.890   1.312   4.519
 7473TIP3    H122383   4.837   1.342   4.446
 7473TIP3    H222384   4.835   1.325   4.596
 7474TIP3   OH222385   4.465   4.065   4.852
 7474TIP3    H122386   4.434   3.977   4.874
 7474TIP3    H222387   4.482   4.062   4.757
 7475TIP3   OH222388   2.763   6.416   2.945
 7475TIP3    H122389   2.722   6.357   3.008
 7475TIP3    H222390   2.809   6.481   2.999
 7476TIP3   OH222391   6.501   0.344   5.476
 7476TIP3    H122392   6.434   0.369   5.412
 7476TIP3    H222393   6.472   0.386   5.557
 7477TIP3   OH222394   2.335   1.199   4.994
 7477TIP3    H122395   2.358   1.274   5.049
 7477TIP3    H222396   2.313   1.129   5.055
 7478TIP3   OH222397   0.804   5.287   5.214
 7478TIP3    H122398   0.848   5.282   5.129
 7478TIP3    H222399   0.715   5.315   5.193
 7479TIP3   OH222400   2.539   5.210   0.586
 7479TIP3    H122401   2.551   5.305   0.590
 7479TIP3    H222402   2.445   5.197   0.599
 7480TIP3   OH222403   1.957   1.714   1.214
 7480TIP3    H122404   2.009   1.721   1.134
 7480TIP3    H222405   1.964   1.800   1.254
 7481TIP3   OH222406   2.273   1.765   4.802
 7481TIP3    H122407   2.330   1.747   4.876
 7481TIP3    H222408   2.286   1.690   4.743
 7482TIP3   OH222409   2.181   1.180   3.575
 7482TIP3    H122410   2.201   1.128   3.652
 7482TIP3    H222411   2.161   1.115   3.507
 7483TIP3   OH222412   1.933   1.005   2.074
 7483TIP3    H122413   2.001   1.070   2.091
 7483TIP3    H222414   1.858   1.036   2.124
 7484TIP3   OH222415   5.397   0.895   5.554
 7484TIP3    H122416   5.477   0.925   5.511
 7484TIP3    H222417   5.418   0.806   5.584
 7485TIP3   OH222418   5.404   0.759   1.285
 7485TIP3    H122419   5.346   0.832   1.306
 7485TIP3    H222420   5.380   0.690   1.347
 7486TIP3   OH222421   6.135   0.759   5.378
 7486TIP3    H122422   6.146   0.749   5.473
 7486TIP3    H222423   6.215   0.804   5.349
 7487TIP3   OH222424   3.367   0.519   0.240
 7487TIP3    H122425   3.416   0.438   0.246
 7487TIP3    H222426   3.278   0.492   0.216
 7488TIP3   OH222427   1.059   0.214   1.175
 7488TIP3    H122428   1.082   0.286   1.234
 7488TIP3    H222429   1.138   0.159   1.174
 7489TIP3   OH222430   1.780   2.702   3.013
 7489TIP3    H122431   1.776   2.744   3.099
 7489TIP3    H222432   1.794   2.774   2.951
 7490TIP3   OH222433   4.288   2.794   1.618
 7490TIP3    H122434   4.239   2.822   1.540
 7490TIP3    H222435   4.315   2.704   1.598
 7491TIP3   OH222436   5.630   0.748   1.440
 7491TIP3    H122437   5.666   0.666   1.407
 7491TIP3    H222438   5.559   0.769   1.380
 7492TIP3   OH222439   6.931   4.275   4.157
 7492TIP3    H122440   7.022   4.301   4.147
 7492TIP3    H222441   6.930   4.181   4.136
 7493TIP3   OH222442   2.664   3.008   2.035
 7493TIP3    H122443   2.622   2.952   2.100
 7493TIP3    H222444   2.727   3.060   2.085
 7494TIP3   OH222445   3.743   2.747   4.751
 7494TIP3    H122446   3.698   2.690   4.689
 7494TIP3    H222447   3.831   2.759   4.713
 7495TIP3   OH222448   6.101   4.372   5.122
 7495TIP3    H122449   6.125   4.406   5.035
 7495TIP3    H222450   6.083   4.279   5.107
 7496TIP3   OH222451   5.113   6.151   4.277
 7496TIP3    H122452   5.204   6.149   4.247
 7496TIP3    H222453   5.113   6.099   4.357
 7497TIP3   OH222454   1.811   6.758   4.476
 7497TIP3    H122455   1.854   6.720   4.399
 7497TIP3    H222456   1.877   6.816   4.514
 7498TIP3   OH222457   3.998   0.956   5.586
 7498TIP3    H122458   4.001   0.861   5.597
 7498TIP3    H222459   3.915   0.983   5.626
 7499TIP3   OH222460   1.236   3.681   3.369
 7499TIP3    H122461   1.170   3.654   3.434
 7499TIP3    H222462   1.314   3.699   3.421
 7500TIP3   OH222463   5.324   4.834   2.102
 7500TIP3    H122464   5.333   4.789   2.019
 7500TIP3    H222465   5.276   4.914   2.081
 7501TIP3   OH222466   1.292   5.921   1.836
 7501TIP3    H122467   1.348   5.980   1.886
 7501TIP3    H222468   1.209   5.967   1.828
 7502TIP3   OH222469   3.670   6.422   3.488
 7502TIP3    H122470   3.631   6.501   3.451
 7502TIP3    H222471   3.764   6.433   3.474
 7503TIP3   OH222472   0.647   3.898   2.177
 7503TIP3    H122473   0.668   3.805   2.171
 7503TIP3    H222474   0.552   3.902   2.174
 7504TIP3   OH222475   2.902   1.648   4.472
 7504TIP3    H122476   2.904   1.686   4.560
 7504TIP3    H222477   2.919   1.555   4.486
 7505TIP3   OH222478   3.767   4.263   4.593
 7505TIP3    H122479   3.825   4.273   4.668
 7505TIP3    H222480   3.694   4.323   4.611
 7506TIP3   OH222481   0.749   4.235   3.847
 7506TIP3    H122482   0.710   4.148   3.852
 7506TIP3    H222483   0.788   4.248   3.933
 7507TIP3   OH222484   5.162   6.451   4.812
 7507TIP3    H122485   5.088   6.493   4.855
 7507TIP3    H222486   5.231   6.517   4.814
 7508TIP3   OH222487   0.912   0.689   1.043
 7508TIP3    H122488   0.897   0.669   1.135
 7508TIP3    H222489   0.911   0.785   1.038
 7509TIP3   OH222490   4.934   2.437   1.773
 7509TIP3    H122491   5.028   2.421   1.764
 7509TIP3    H222492   4.895   2.350   1.770
 7510TIP3   OH222493   4.262   1.607   5.566
 7510TIP3    H122494   4.344   1.645   5.535
 7510TIP3    H222495   4.227   1.561   5.490
 7511TIP3   OH222496   1.974   6.769   5.296
 7511TIP3    H122497   1.923   6.784   5.216
 7511TIP3    H222498   2.008   6.856   5.319
 7512TIP3   OH222499   3.638   2.423   0.296
 7512TIP3    H122500   3.666   2.424   0.387
 7512TIP3    H222501   3.549   2.388   0.299
 7513TIP3   OH222502   4.946   4.024   1.777
 7513TIP3    H122503   4.919   3.934   1.760
 7513TIP3    H222504   4.923   4.039   1.869
 7514TIP3   OH222505   6.549   6.548   4.690
 7514TIP3    H122506   6.600   6.469   4.671
 7514TIP3    H222507   6.615   6.615   4.706
 7515TIP3   OH222508   6.638   5.547   2.152
 7515TIP3    H122509   6.683   5.527   2.070
 7515TIP3    H222510   6.553   5.582   2.125
 7516TIP3   OH222511   3.405   6.022   1.941
 7516TIP3    H122512   3.321   6.067   1.949
 7516TIP3    H222513   3.384   5.940   1.895
 7517TIP3   OH222514   0.034   5.565   2.781
 7517TIP3    H122515  -0.058   5.546   2.763
 7517TIP3    H222516   0.034   5.651   2.823
 7518TIP3   OH222517   4.910   2.095   5.359
 7518TIP3    H122518   4.963   2.090   5.438
 7518TIP3    H222519   4.923   2.184   5.327
 7519TIP3   OH222520   5.737   3.302   2.315
 7519TIP3    H122521   5.708   3.243   2.385
 7519TIP3    H222522   5.673   3.289   2.245
 7520TIP3   OH222523   0.586   5.943   4.349
 7520TIP3    H122524   0.520   5.891   4.302
 7520TIP3    H222525   0.542   6.025   4.369
 7521TIP3   OH222526   5.824   1.452   5.818
 7521TIP3    H122527   5.744   1.434   5.868
 7521TIP3    H222528   5.868   1.367   5.813
 7522TIP3   OH222529   5.503   5.453   1.081
 7522TIP3    H122530   5.558   5.454   1.003
 7522TIP3    H222531   5.542   5.519   1.139
 7523TIP3   OH222532   1.884   6.418   3.346
 7523TIP3    H122533   1.799   6.426   3.390
 7523TIP3    H222534   1.876   6.340   3.292
 7524TIP3   OH222535   4.950   6.321   5.277
 7524TIP3    H122536   4.937   6.298   5.185
 7524TIP3    H222537   4.964   6.416   5.277
 7525TIP3   OH222538   2.638   2.031   4.367
 7525TIP3    H122539   2.568   2.093   4.386
 7525TIP3    H222540   2.609   1.987   4.287
 7526TIP3   OH222541   0.069   0.617   2.386
 7526TIP3    H122542   0.001   0.599   2.452
 7526TIP3    H222543   0.057   0.548   2.321
 7527TIP3   OH222544   6.607   2.862   5.525
 7527TIP3    H122545   6.544   2.932   5.512
 7527TIP3    H222546   6.644   2.878   5.612
 7528TIP3   OH222547   3.001   6.480   5.046
 7528TIP3    H122548   3.001   6.517   4.958
 7528TIP3    H222549   3.093   6.466   5.067
 7529TIP3   OH222550   6.813   5.379   4.578
 7529TIP3    H122551   6.855   5.329   4.648
 7529TIP3    H222552   6.804   5.316   4.506
 7530TIP3   OH222553   1.741   3.831   2.502
 7530TIP3    H122554   1.719   3.909   2.555
 7530TIP3    H222555   1.663   3.776   2.508
 7531TIP3   OH222556   2.650   1.636   4.052
 7531TIP3    H122557   2.711   1.566   4.030
 7531TIP3    H222558   2.657   1.698   3.980
 7532TIP3   OH222559   3.940   4.105   5.359
 7532TIP3    H122560   3.968   4.191   5.389
 7532TIP3    H222561   3.878   4.075   5.426
 7533TIP3   OH222562   3.107   6.526   3.079
 7533TIP3    H122563   3.075   6.436   3.070
 7533TIP3    H222564   3.028   6.578   3.089
 7534TIP3   OH222565   3.149   2.128   1.100
 7534TIP3    H122566   3.229   2.078   1.087
 7534TIP3    H222567   3.101   2.118   1.017
 7535TIP3   OH222568   2.847   4.886   4.279
 7535TIP3    H122569   2.804   4.888   4.194
 7535TIP3    H222570   2.881   4.975   4.290
 7536TIP3   OH222571   2.483   5.714   2.399
 7536TIP3    H122572   2.481   5.634   2.452
 7536TIP3    H222573   2.491   5.683   2.309
 7537TIP3   OH222574   1.124   3.708   0.834
 7537TIP3    H122575   1.150   3.624   0.872
 7537TIP3    H222576   1.120   3.691   0.740
 7538TIP3   OH222577   2.175   5.149   2.065
 7538TIP3    H122578   2.208   5.084   2.127
 7538TIP3    H222579   2.161   5.100   1.984
 7539TIP3   OH222580   4.056   3.523   5.295
 7539TIP3    H122581   4.127   3.584   5.315
 7539TIP3    H222582   4.051   3.524   5.199
 7540TIP3   OH222583   4.684   5.130   2.350
 7540TIP3    H122584   4.621   5.171   2.409
 7540TIP3    H222585   4.723   5.059   2.401
 7541TIP3   OH222586   6.752   6.075   0.169
 7541TIP3    H122587   6.746   6.152   0.113
 7541TIP3    H222588   6.786   6.108   0.252
 7542TIP3   OH222589   2.568   0.917   2.248
 7542TIP3    H122590   2.538   0.899   2.337
 7542TIP3    H222591   2.517   0.992   2.220
 7543TIP3   OH222592   5.506   4.316   4.758
 7543TIP3    H122593   5.512   4.395   4.811
 7543TIP3    H222594   5.425   4.273   4.787
 7544TIP3   OH222595   6.637   3.052   3.765
 7544TIP3    H122596   6.656   2.975   3.711
 7544TIP3    H222597   6.580   3.019   3.834
 7545TIP3   OH222598   4.071   6.377   5.264
 7545TIP3    H122599   4.028   6.448   5.216
 7545TIP3    H222600   4.030   6.297   5.231
 7546TIP3   OH222601   2.313   6.710   1.033
 7546TIP3    H122602   2.312   6.616   1.051
 7546TIP3    H222603   2.270   6.749   1.109
 7547TIP3   OH222604   0.533   5.105   3.160
 7547TIP3    H122605   0.514   5.012   3.149
 7547TIP3    H222606   0.489   5.148   3.087
 7548TIP3   OH222607   2.526   1.343   2.532
 7548TIP3    H122608   2.554   1.412   2.592
 7548TIP3    H222609   2.600   1.283   2.527
 7549TIP3   OH222610   0.584   2.333   2.495
 7549TIP3    H122611   0.530   2.402   2.455
 7549TIP3    H222612   0.665   2.334   2.444
 7550TIP3   OH222613   1.729   4.934   0.362
 7550TIP3    H122614   1.732   5.027   0.341
 7550TIP3    H222615   1.820   4.905   0.353
 7551TIP3   OH222616   3.182   5.632   3.566
 7551TIP3    H122617   3.244   5.605   3.634
 7551TIP3    H222618   3.234   5.637   3.486
 7552TIP3   OH222619   6.729   6.757   5.566
 7552TIP3    H122620   6.797   6.794   5.509
 7552TIP3    H222621   6.766   6.674   5.597
 7553TIP3   OH222622   7.119   1.977   3.071
 7553TIP3    H122623   7.138   2.065   3.039
 7553TIP3    H222624   7.163   1.919   3.008
 7554TIP3   OH222625   1.253   4.220   3.835
 7554TIP3    H122626   1.209   4.301   3.859
 7554TIP3    H222627   1.187   4.152   3.848
 7555TIP3   OH222628   4.471   2.788   3.591
 7555TIP3    H122629   4.378   2.769   3.602
 7555TIP3    H222630   4.494   2.743   3.509
 7556TIP3   OH222631   4.896   0.893   4.265
 7556TIP3    H122632   4.975   0.863   4.311
 7556TIP3    H222633   4.927   0.960   4.205
 7557TIP3   OH222634   1.842   6.234   3.694
 7557TIP3    H122635   1.904   6.171   3.658
 7557TIP3    H222636   1.846   6.220   3.789
 7558TIP3   OH222637   4.477   4.559   5.562
 7558TIP3    H122638   4.448   4.473   5.594
 7558TIP3    H222639   4.457   4.557   5.468
 7559TIP3   OH222640   6.306   3.124   0.762
 7559TIP3    H122641   6.231   3.065   0.768
 7559TIP3    H222642   6.338   3.112   0.673
 7560TIP3   OH222643   5.864   0.920   1.416
 7560TIP3    H122644   5.776   0.884   1.427
 7560TIP3    H222645   5.852   0.993   1.355
 7561TIP3   OH222646   3.901   0.304   2.509
 7561TIP3    H122647   3.923   0.326   2.599
 7561TIP3    H222648   3.965   0.237   2.484
 7562TIP3   OH222649   0.312   0.627   5.791
 7562TIP3    H122650   0.221   0.653   5.777
 7562TIP3    H222651   0.341   0.595   5.706
 7563TIP3   OH222652   3.351   5.583   5.868
 7563TIP3    H122653   3.413   5.510   5.864
 7563TIP3    H222654   3.350   5.619   5.780
 7564TIP3   OH222655   3.748   1.085   2.743
 7564TIP3    H122656   3.807   1.105   2.671
 7564TIP3    H222657   3.687   1.021   2.707
 7565TIP3   OH222658   1.075   5.775   5.822
 7565TIP3    H122659   1.077   5.736   5.735
 7565TIP3    H222660   1.163   5.813   5.833
 7566TIP3   OH222661   4.920   0.633   5.829
 7566TIP3    H122662   4.999   0.619   5.777
 7566TIP3    H222663   4.946   0.697   5.896
 7567TIP3   OH222664   0.424   5.194   1.169
 7567TIP3    H122665   0.519   5.205   1.175
 7567TIP3    H222666   0.395   5.192   1.260
 7568TIP3   OH222667   7.121   0.490   4.640
 7568TIP3    H122668   7.115   0.552   4.568
 7568TIP3    H222669   7.108   0.404   4.599
 7569TIP3   OH222670   3.608   4.963   2.265
 7569TIP3    H122671   3.550   5.035   2.289
 7569TIP3    H222672   3.650   4.992   2.184
 7570TIP3   OH222673   3.498   0.499   5.623
 7570TIP3    H122674   3.585   0.467   5.597
 7570TIP3    H222675   3.513   0.588   5.655
 7571TIP3   OH222676   5.238   1.067   0.976
 7571TIP3    H122677   5.210   1.125   1.046
 7571TIP3    H222678   5.333   1.059   0.987
 7572TIP3   OH222679   4.032   1.971   2.981
 7572TIP3    H122680   4.016   2.030   3.054
 7572TIP3    H222681   3.988   2.012   2.907
 7573TIP3   OH222682   6.564   5.366   1.369
 7573TIP3    H122683   6.637   5.368   1.307
 7573TIP3    H222684   6.575   5.283   1.415
 7574TIP3   OH222685   1.973   2.402   0.835
 7574TIP3    H122686   2.016   2.411   0.920
 7574TIP3    H222687   1.964   2.308   0.823
 7575TIP3   OH222688   6.862   1.218   4.637
 7575TIP3    H122689   6.908   1.145   4.679
 7575TIP3    H222690   6.867   1.290   4.700
 7576TIP3   OH222691   6.252   5.828   0.575
 7576TIP3    H122692   6.221   5.909   0.615
 7576TIP3    H222693   6.320   5.857   0.514
 7577TIP3   OH222694   1.751   4.170   0.370
 7577TIP3    H122695   1.844   4.194   0.362
 7577TIP3    H222696   1.720   4.162   0.280
 7578TIP3   OH222697   4.927   5.621   3.746
 7578TIP3    H122698   4.877   5.568   3.809
 7578TIP3    H222699   5.007   5.571   3.731
 7579TIP3   OH222700   0.859   3.954   2.356
 7579TIP3    H122701   0.846   4.047   2.336
 7579TIP3    H222702   0.798   3.909   2.297
 7580TIP3   OH222703   3.961   1.172   2.603
 7580TIP3    H122704   4.049   1.171   2.567
 7580TIP3    H222705   3.946   1.264   2.628
 7581TIP3   OH222706   1.722   5.861   5.064
 7581TIP3    H122707   1.786   5.792   5.047
 7581TIP3    H222708   1.653   5.847   4.999
 7582TIP3   OH222709   6.627   3.842   1.796
 7582TIP3    H122710   6.620   3.904   1.724
 7582TIP3    H222711   6.566   3.772   1.774
 7583TIP3   OH222712   6.576   2.479   5.793
 7583TIP3    H122713   6.512   2.498   5.725
 7583TIP3    H222714   6.633   2.557   5.795
 7584TIP3   OH222715   6.898   0.889   3.648
 7584TIP3    H122716   6.830   0.877   3.581
 7584TIP3    H222717   6.877   0.824   3.715
 7585TIP3   OH222718   4.550   3.794   5.295
 7585TIP3    H122719   4.579   3.855   5.363
 7585TIP3    H222720   4.624   3.734   5.283
 7586TIP3   OH222721   0.812   5.776   5.859
 7586TIP3    H122722   0.810   5.868   5.888
 7586TIP3    H222723   0.904   5.758   5.841
 7587TIP3   OH222724   2.779   1.977   1.639
 7587TIP3    H122725   2.799   1.907   1.702
 7587TIP3    H222726   2.830   2.052   1.671
 7588TIP3   OH222727   4.370   1.144   4.660
 7588TIP3    H122728   4.411   1.074   4.710
 7588TIP3    H222729   4.438   1.174   4.600
 7589TIP3   OH222730   3.772   0.651   1.765
 7589TIP3    H122731   3.748   0.570   1.811
 7589TIP3    H222732   3.868   0.648   1.760
 7590TIP3   OH222733   2.027   0.157   2.368
 7590TIP3    H122734   1.980   0.195   2.293
 7590TIP3    H222735   2.006   0.064   2.363
 7591TIP3   OH222736   1.361   6.410   4.428
 7591TIP3    H122737   1.295   6.465   4.384
 7591TIP3    H222738   1.311   6.334   4.459
 7592TIP3   OH222739   5.804   2.808   5.078
 7592TIP3    H122740   5.761   2.744   5.022
 7592TIP3    H222741   5.855   2.862   5.017
 7593TIP3   OH222742   3.577   5.743   0.417
 7593TIP3    H122743   3.547   5.777   0.501
 7593TIP3    H222744   3.553   5.811   0.353
 7594TIP3   OH222745   3.346   1.292   0.758
 7594TIP3    H122746   3.369   1.377   0.722
 7594TIP3    H222747   3.427   1.259   0.797
 7595TIP3   OH222748   2.451   2.752   3.220
 7595TIP3    H122749   2.361   2.778   3.243
 7595TIP3    H222750   2.490   2.832   3.185
 7596TIP3   OH222751   0.776   3.876   5.564
 7596TIP3    H122752   0.754   3.905   5.653
 7596TIP3    H222753   0.734   3.942   5.507
 7597TIP3   OH222754   6.101   4.628   1.063
 7597TIP3    H122755   6.147   4.711   1.053
 7597TIP3    H222756   6.010   4.653   1.082
 7598TIP3   OH222757   1.164   0.502   1.057
 7598TIP3    H122758   1.149   0.479   1.148
 7598TIP3    H222759   1.221   0.433   1.024
 7599TIP3   OH222760   1.670   4.793   1.954
 7599TIP3    H122761   1.722   4.718   1.985
 7599TIP3    H222762   1.639   4.766   1.867
 7600TIP3   OH222763   3.502   5.834   1.008
 7600TIP3    H122764   3.445   5.906   0.980
 7600TIP3    H222765   3.508   5.844   1.103
 7601TIP3   OH222766   5.930   6.310   2.305
 7601TIP3    H122767   5.928   6.294   2.210
 7601TIP3    H222768   5.898   6.228   2.343
 7602TIP3   OH222769   1.366   0.774   3.425
 7602TIP3    H122770   1.450   0.813   3.399
 7602TIP3    H222771   1.364   0.782   3.520
 7603TIP3   OH222772   3.920   0.519   4.105
 7603TIP3    H122773   3.892   0.445   4.157
 7603TIP3    H222774   3.839   0.556   4.069
 7604TIP3   OH222775   3.626   0.563   0.554
 7604TIP3    H122776   3.553   0.623   0.572
 7604TIP3    H222777   3.680   0.567   0.633
 7605TIP3   OH222778   3.661   0.202   5.558
 7605TIP3    H122779   3.582   0.155   5.585
 7605TIP3    H222780   3.733   0.154   5.599
 7606TIP3   OH222781   4.253   6.728   1.783
 7606TIP3    H122782   4.301   6.783   1.846
 7606TIP3    H222783   4.309   6.652   1.770
 7607TIP3   OH222784   4.404   6.073   0.110
 7607TIP3    H122785   4.314   6.072   0.076
 7607TIP3    H222786   4.400   6.020   0.189
 7608TIP3   OH222787   4.482   6.507   2.265
 7608TIP3    H122788   4.402   6.505   2.317
 7608TIP3    H222789   4.552   6.491   2.328
 7609TIP3   OH222790   5.726   1.275   4.165
 7609TIP3    H122791   5.738   1.256   4.072
 7609TIP3    H222792   5.640   1.315   4.171
 7610TIP3   OH222793   6.354   6.225   2.482
 7610TIP3    H122794   6.425   6.232   2.546
 7610TIP3    H222795   6.292   6.294   2.507
 7611TIP3   OH222796   4.599   5.394   1.363
 7611TIP3    H122797   4.681   5.407   1.409
 7611TIP3    H222798   4.588   5.473   1.310
 7612TIP3   OH222799   5.670   6.211   4.004
 7612TIP3    H122800   5.739   6.232   3.941
 7612TIP3    H222801   5.702   6.245   4.087
 7613TIP3   OH222802   4.490   6.766   5.572
 7613TIP3    H122803   4.564   6.816   5.606
 7613TIP3    H222804   4.510   6.753   5.480
 7614TIP3   OH222805   1.328   6.635   2.709
 7614TIP3    H122806   1.397   6.589   2.756
 7614TIP3    H222807   1.261   6.568   2.693
 7615TIP3   OH222808   4.361   0.711   1.880
 7615TIP3    H122809   4.279   0.671   1.908
 7615TIP3    H222810   4.387   0.660   1.803
 7616TIP3   OH222811   6.266   2.834   5.687
 7616TIP3    H122812   6.325   2.785   5.629
 7616TIP3    H222813   6.187   2.848   5.634
 7617TIP3   OH222814   5.974   5.495   2.231
 7617TIP3    H122815   5.913   5.431   2.269
 7617TIP3    H222816   5.965   5.573   2.287
 7618TIP3   OH222817   4.596   0.410   0.801
 7618TIP3    H122818   4.634   0.449   0.880
 7618TIP3    H222819   4.660   0.345   0.773
 7619TIP3   OH222820   5.881   6.170   0.567
 7619TIP3    H122821   5.843   6.249   0.529
 7619TIP3    H222822   5.874   6.183   0.662
 7620TIP3   OH222823   3.388   0.065   5.904
 7620TIP3    H122824   3.325   0.042   5.836
 7620TIP3    H222825   3.471   0.025   5.875
 7621TIP3   OH222826   4.963   3.370   3.064
 7621TIP3    H122827   4.890   3.321   3.102
 7621TIP3    H222828   4.925   3.420   2.992
 7622TIP3   OH222829   2.940   4.487   0.694
 7622TIP3    H122830   2.866   4.537   0.728
 7622TIP3    H222831   2.925   4.398   0.726
 7623TIP3   OH222832   4.154   4.262   4.698
 7623TIP3    H122833   4.125   4.353   4.694
 7623TIP3    H222834   4.247   4.268   4.719
 7624TIP3   OH222835   2.486   2.077   0.399
 7624TIP3    H122836   2.433   2.004   0.366
 7624TIP3    H222837   2.433   2.155   0.381
 7625TIP3   OH222838   2.821   3.728   4.647
 7625TIP3    H122839   2.898   3.781   4.626
 7625TIP3    H222840   2.760   3.745   4.575
 7626TIP3   OH222841   6.072   1.076   3.040
 7626TIP3    H122842   6.043   1.158   3.080
 7626TIP3    H222843   6.123   1.032   3.108
 7627TIP3   OH222844   4.803   5.376   1.716
 7627TIP3    H122845   4.784   5.284   1.700
 7627TIP3    H222846   4.831   5.379   1.808
 7628TIP3   OH222847   3.017   0.994   0.108
 7628TIP3    H122848   3.018   1.056   0.034
 7628TIP3    H222849   2.945   1.024   0.163
 7629TIP3   OH222850   6.802   5.079   0.024
 7629TIP3    H122851   6.823   5.050   0.113
 7629TIP3    H222852   6.879   5.127  -0.005
 7630TIP3   OH222853   2.230   4.772   5.824
 7630TIP3    H122854   2.273   4.833   5.885
 7630TIP3    H222855   2.177   4.829   5.768
 7631TIP3   OH222856   5.968   2.750   0.017
 7631TIP3    H122857   5.963   2.751   0.113
 7631TIP3    H222858   5.997   2.838  -0.006
 7632TIP3   OH222859   2.354   3.017   2.016
 7632TIP3    H122860   2.401   2.955   2.072
 7632TIP3    H222861   2.334   3.091   2.072
 7633TIP3   OH222862   4.988   6.139   3.993
 7633TIP3    H122863   5.074   6.095   3.990
 7633TIP3    H222864   4.925   6.067   3.997
 7634TIP3   OH222865   0.895   2.242   3.966
 7634TIP3    H122866   0.932   2.273   3.883
 7634TIP3    H222867   0.940   2.159   3.983
 7635TIP3   OH222868   4.576   1.489   0.803
 7635TIP3    H122869   4.640   1.560   0.809
 7635TIP3    H222870   4.523   1.511   0.726
 7636TIP3   OH222871   6.978   2.562   0.791
 7636TIP3    H122872   7.017   2.475   0.781
 7636TIP3    H222873   7.018   2.614   0.721
 7637TIP3   OH222874   2.237   6.406   0.729
 7637TIP3    H122875   2.300   6.403   0.800
 7637TIP3    H222876   2.288   6.383   0.651
 7638TIP3   OH222877   5.702   4.870   3.606
 7638TIP3    H122878   5.745   4.847   3.524
 7638TIP3    H222879   5.643   4.796   3.623
 7639TIP3   OH222880   6.287   6.286   4.407
 7639TIP3    H122881   6.321   6.198   4.397
 7639TIP3    H222882   6.314   6.332   4.328
 7640TIP3   OH222883   2.799   5.995   4.888
 7640TIP3    H122884   2.823   6.011   4.797
 7640TIP3    H222885   2.711   6.032   4.896
 7641TIP3   OH222886   7.046   3.594   0.201
 7641TIP3    H122887   7.007   3.510   0.176
 7641TIP3    H222888   7.041   3.647   0.121
 7642TIP3   OH222889   4.209   2.795   5.636
 7642TIP3    H122890   4.149   2.726   5.664
 7642TIP3    H222891   4.177   2.821   5.550
 7643TIP3   OH222892   4.454   1.979   0.615
 7643TIP3    H122893   4.415   2.060   0.646
 7643TIP3    H222894   4.422   1.912   0.675
 7644TIP3   OH222895   6.275   1.468   1.517
 7644TIP3    H122896   6.322   1.526   1.456
 7644TIP3    H222897   6.266   1.520   1.597
 7645TIP3   OH222898   6.014   5.998   4.837
 7645TIP3    H122899   6.059   6.008   4.920
 7645TIP3    H222900   5.943   6.062   4.840
 7646TIP3   OH222901   3.163   1.110   4.646
 7646TIP3    H122902   3.122   1.087   4.563
 7646TIP3    H222903   3.127   1.048   4.709
 7647TIP3   OH222904   4.422   4.693   1.691
 7647TIP3    H122905   4.377   4.723   1.612
 7647TIP3    H222906   4.363   4.713   1.763
 7648TIP3   OH222907   1.929   0.847   2.737
 7648TIP3    H122908   1.869   0.778   2.709
 7648TIP3    H222909   1.876   0.901   2.796
 7649TIP3   OH222910   7.173   2.229   2.337
 7649TIP3    H122911   7.179   2.303   2.397
 7649TIP3    H222912   7.212   2.156   2.386
 7650TIP3   OH222913   1.010   1.399   5.856
 7650TIP3    H122914   0.980   1.436   5.939
 7650TIP3    H222915   1.096   1.363   5.876
 7651TIP3   OH222916   6.561   4.545   3.191
 7651TIP3    H122917   6.656   4.556   3.180
 7651TIP3    H222918   6.541   4.465   3.143
 7652TIP3   OH222919   2.718   1.154   2.598
 7652TIP3    H122920   2.733   1.060   2.611
 7652TIP3    H222921   2.801   1.186   2.562
 7653TIP3   OH222922   5.043   2.230   5.593
 7653TIP3    H122923   5.005   2.315   5.573
 7653TIP3    H222924   5.135   2.248   5.612
 7654TIP3   OH222925   0.279   0.190   0.240
 7654TIP3    H122926   0.336   0.210   0.165
 7654TIP3    H222927   0.301   0.257   0.305
 7655TIP3   OH222928   2.377   0.560   2.948
 7655TIP3    H122929   2.289   0.523   2.943
 7655TIP3    H222930   2.423   0.501   3.009
 7656TIP3   OH222931   0.782   4.495   1.586
 7656TIP3    H122932   0.806   4.495   1.493
 7656TIP3    H222933   0.844   4.434   1.626
 7657TIP3   OH222934   3.247   2.069   4.375
 7657TIP3    H122935   3.207   1.982   4.370
 7657TIP3    H222936   3.173   2.129   4.375
 7658TIP3   OH222937   1.796   4.901   2.787
 7658TIP3    H122938   1.776   4.808   2.796
 7658TIP3    H222939   1.766   4.940   2.868
 7659TIP3   OH222940   4.343   2.993   3.830
 7659TIP3    H122941   4.423   2.941   3.829
 7659TIP3    H222942   4.280   2.941   3.880
 7660TIP3   OH222943   5.129   6.726   2.439
 7660TIP3    H122944   5.208   6.754   2.485
 7660TIP3    H222945   5.161   6.682   2.361
 7661TIP3   OH222946   6.567   4.623   4.365
 7661TIP3    H122947   6.511   4.681   4.416
 7661TIP3    H222948   6.656   4.650   4.386
 7662TIP3   OH222949   5.767   4.453   4.917
 7662TIP3    H122950   5.802   4.387   4.857
 7662TIP3    H222951   5.837   4.518   4.925
 7663TIP3   OH222952   3.080   2.561   2.252
 7663TIP3    H122953   3.110   2.544   2.163
 7663TIP3    H222954   3.077   2.474   2.293
 7664TIP3   OH222955   4.431   4.044   5.638
 7664TIP3    H122956   4.512   4.010   5.599
 7664TIP3    H222957   4.376   3.966   5.649
 7665TIP3   OH222958   1.012   5.040   5.859
 7665TIP3    H122959   1.024   5.008   5.770
 7665TIP3    H222960   1.091   5.092   5.876
 7666TIP3   OH222961   4.199   2.746   4.509
 7666TIP3    H122962   4.177   2.830   4.470
 7666TIP3    H222963   4.154   2.681   4.454
 7667TIP3   OH222964   2.166   6.726   5.091
 7667TIP3    H122965   2.202   6.791   5.029
 7667TIP3    H222966   2.127   6.779   5.160
 7668TIP3   OH222967   3.596   5.373   2.717
 7668TIP3    H122968   3.631   5.362   2.806
 7668TIP3    H222969   3.537   5.298   2.706
 7669TIP3   OH222970   2.458   3.182   3.713
 7669TIP3    H122971   2.489   3.270   3.735
 7669TIP3    H222972   2.535   3.126   3.727
 7670TIP3   OH222973   6.953   4.002   3.034
 7670TIP3    H122974   7.024   4.012   2.971
 7670TIP3    H222975   6.964   4.077   3.093
 7671TIP3   OH222976   2.795   3.826   2.747
 7671TIP3    H122977   2.776   3.884   2.673
 7671TIP3    H222978   2.776   3.738   2.715
 7672TIP3   OH222979   1.850   4.533   2.548
 7672TIP3    H122980   1.906   4.494   2.616
 7672TIP3    H222981   1.897   4.517   2.466
 7673TIP3   OH222982   6.572   1.556   0.996
 7673TIP3    H122983   6.571   1.568   0.901
 7673TIP3    H222984   6.569   1.461   1.008
 7674TIP3   OH222985   2.060   4.841   5.258
 7674TIP3    H122986   2.142   4.891   5.263
 7674TIP3    H222987   2.088   4.751   5.240
 7675TIP3   OH222988   3.336   1.861   1.489
 7675TIP3    H122989   3.374   1.815   1.564
 7675TIP3    H222990   3.263   1.910   1.526
 7676TIP3   OH222991   4.447   5.080   1.551
 7676TIP3    H122992   4.397   5.080   1.470
 7676TIP3    H222993   4.535   5.052   1.525
 7677TIP3   OH222994   5.655   2.740   5.820
 7677TIP3    H122995   5.617   2.715   5.736
 7677TIP3    H222996   5.747   2.714   5.814
 7678TIP3   OH222997   4.038   2.290   3.444
 7678TIP3    H122998   4.018   2.271   3.535
 7678TIP3    H222999   4.007   2.379   3.430
 7679TIP3   OH223000   3.054   6.679   5.652
 7679TIP3    H123001   3.082   6.712   5.738
 7679TIP3    H223002   2.972   6.724   5.635
 7680TIP3   OH223003   6.932   3.842   3.769
 7680TIP3    H123004   6.857   3.851   3.828
 7680TIP3    H223005   6.920   3.910   3.704
 7681TIP3   OH223006   6.043   2.757   3.751
 7681TIP3    H123007   6.063   2.708   3.831
 7681TIP3    H223008   5.955   2.791   3.766
 7682TIP3   OH223009   2.773   1.374   3.475
 7682TIP3    H123010   2.713   1.299   3.470
 7682TIP3    H223011   2.860   1.335   3.464
 7683TIP3   OH223012   5.993   6.630   2.164
 7683TIP3    H123013   6.006   6.547   2.119
 7683TIP3    H223014   5.898   6.645   2.160
 7684TIP3   OH223015   5.357   3.589   4.163
 7684TIP3    H123016   5.291   3.656   4.144
 7684TIP3    H223017   5.416   3.631   4.226
 7685TIP3   OH223018   2.695   4.222   0.109
 7685TIP3    H123019   2.786   4.251   0.117
 7685TIP3    H223020   2.699   4.149   0.049
 7686TIP3   OH223021   3.845   4.735   2.823
 7686TIP3    H123022   3.790   4.780   2.888
 7686TIP3    H223023   3.836   4.789   2.744
 7687TIP3   OH223024   3.058   4.371   1.118
 7687TIP3    H123025   3.105   4.404   1.195
 7687TIP3    H223026   3.073   4.277   1.120
 7688TIP3   OH223027   0.746   5.045   0.108
 7688TIP3    H123028   0.754   4.951   0.090
 7688TIP3    H223029   0.830   5.070   0.147
 7689TIP3   OH223030   1.524   3.138   1.435
 7689TIP3    H123031   1.499   3.191   1.359
 7689TIP3    H223032   1.553   3.055   1.398
 7690TIP3   OH223033   5.686   1.775   5.266
 7690TIP3    H123034   5.662   1.682   5.273
 7690TIP3    H223035   5.759   1.785   5.327
 7691TIP3   OH223036   3.540   2.007   2.269
 7691TIP3    H123037   3.515   1.962   2.188
 7691TIP3    H223038   3.636   2.010   2.266
 7692TIP3   OH223039   3.906   3.547   3.447
 7692TIP3    H123040   3.881   3.604   3.520
 7692TIP3    H223041   3.959   3.479   3.487
 7693TIP3   OH223042   4.348   5.217   4.425
 7693TIP3    H123043   4.310   5.266   4.498
 7693TIP3    H223044   4.433   5.187   4.458
 7694TIP3   OH223045   2.246   5.669   3.729
 7694TIP3    H123046   2.164   5.703   3.763
 7694TIP3    H223047   2.298   5.747   3.708
 7695TIP3   OH223048   3.570   0.611   2.110
 7695TIP3    H123049   3.567   0.654   2.025
 7695TIP3    H223050   3.663   0.598   2.128
 7696TIP3   OH223051   6.365   0.749   0.448
 7696TIP3    H123052   6.335   0.752   0.357
 7696TIP3    H223053   6.284   0.755   0.499
 7697TIP3   OH223054   6.917   3.666   4.479
 7697TIP3    H123055   6.831   3.651   4.518
 7697TIP3    H223056   6.898   3.702   4.393
 7698TIP3   OH223057   4.980   1.424   2.492
 7698TIP3    H123058   5.055   1.364   2.501
 7698TIP3    H223059   4.904   1.366   2.484
 7699TIP3   OH223060   2.454   3.980   2.033
 7699TIP3    H123061   2.372   3.936   2.010
 7699TIP3    H223062   2.461   3.969   2.128
 7700TIP3   OH223063   2.605   6.189   5.392
 7700TIP3    H123064   2.522   6.213   5.433
 7700TIP3    H223065   2.645   6.126   5.452
 7701TIP3   OH223066   3.288   4.583   3.332
 7701TIP3    H123067   3.288   4.561   3.425
 7701TIP3    H223068   3.306   4.500   3.287
 7702TIP3   OH223069   2.251   5.203   5.809
 7702TIP3    H123070   2.162   5.168   5.813
 7702TIP3    H223071   2.245   5.288   5.853
 7703TIP3   OH223072   3.879   3.948   3.221
 7703TIP3    H123073   3.883   3.985   3.132
 7703TIP3    H223074   3.921   3.863   3.213
 7704TIP3   OH223075   3.462   5.753   4.064
 7704TIP3    H123076   3.522   5.680   4.051
 7704TIP3    H223077   3.407   5.727   4.138
 7705TIP3   OH223078   1.392   0.868   4.779
 7705TIP3    H123079   1.432   0.829   4.857
 7705TIP3    H223080   1.299   0.876   4.801
 7706TIP3   OH223081   6.665   5.874   2.908
 7706TIP3    H123082   6.752   5.886   2.946
 7706TIP3    H223083   6.682   5.863   2.814
 7707TIP3   OH223084   6.725   4.744   5.739
 7707TIP3    H123085   6.740   4.821   5.684
 7707TIP3    H223086   6.666   4.688   5.688
 7708TIP3   OH223087   3.814   2.293   1.469
 7708TIP3    H123088   3.828   2.199   1.479
 7708TIP3    H223089   3.830   2.310   1.376
 7709TIP3   OH223090   4.232   0.158   5.643
 7709TIP3    H123091   4.228   0.147   5.548
 7709TIP3    H223092   4.153   0.117   5.676
 7710TIP3   OH223093   5.232   6.007   0.671
 7710TIP3    H123094   5.159   6.067   0.660
 7710TIP3    H223095   5.194   5.933   0.720
 7711TIP3   OH223096   6.865   3.893   1.127
 7711TIP3    H123097   6.830   3.948   1.197
 7711TIP3    H223098   6.857   3.804   1.161
 7712TIP3   OH223099   3.730   3.367   3.310
 7712TIP3    H123100   3.662   3.331   3.366
 7712TIP3    H223101   3.764   3.442   3.359
 7713TIP3   OH223102   2.551   4.783   5.320
 7713TIP3    H123103   2.558   4.845   5.247
 7713TIP3    H223104   2.567   4.697   5.281
 7714TIP3   OH223105   5.797   0.487   3.218
 7714TIP3    H123106   5.778   0.479   3.125
 7714TIP3    H223107   5.813   0.580   3.232
 7715TIP3   OH223108   4.845   6.117   0.078
 7715TIP3    H123109   4.832   6.206   0.045
 7715TIP3    H223110   4.894   6.072   0.008
 7716TIP3   OH223111   1.183   3.019   3.541
 7716TIP3    H123112   1.172   3.057   3.454
 7716TIP3    H223113   1.209   3.093   3.597
 7717TIP3   OH223114   6.939   2.482   0.398
 7717TIP3    H123115   6.895   2.472   0.314
 7717TIP3    H223116   7.010   2.418   0.396
 7718TIP3   OH223117   4.940   2.110   0.501
 7718TIP3    H123118   4.854   2.136   0.532
 7718TIP3    H223119   4.924   2.033   0.447
 7719TIP3   OH223120   6.779   3.496   1.816
 7719TIP3    H123121   6.768   3.571   1.874
 7719TIP3    H223122   6.689   3.465   1.799
 7720TIP3   OH223123   1.250   5.588   0.354
 7720TIP3    H123124   1.294   5.647   0.293
 7720TIP3    H223125   1.268   5.500   0.320
 7721TIP3   OH223126   3.850   0.265   0.273
 7721TIP3    H123127   3.869   0.247   0.366
 7721TIP3    H223128   3.925   0.314   0.242
 7722TIP3   OH223129   5.402   4.016   5.202
 7722TIP3    H123130   5.384   3.991   5.292
 7722TIP3    H223131   5.351   3.954   5.149
 7723TIP3   OH223132   5.291   3.739   2.315
 7723TIP3    H123133   5.359   3.802   2.339
 7723TIP3    H223134   5.340   3.662   2.284
 7724TIP3   OH223135   5.119   5.146   2.680
 7724TIP3    H123136   5.190   5.210   2.688
 7724TIP3    H223137   5.077   5.147   2.766
 7725TIP3   OH223138   3.580   6.133   5.599
 7725TIP3    H123139   3.654   6.140   5.538
 7725TIP3    H223140   3.620   6.108   5.682
 7726TIP3   OH223141   0.484   4.857   2.439
 7726TIP3    H123142   0.508   4.810   2.519
 7726TIP3    H223143   0.459   4.789   2.377
 7727TIP3   OH223144   4.427   0.543   3.416
 7727TIP3    H123145   4.405   0.472   3.476
 7727TIP3    H223146   4.519   0.528   3.393
 7728TIP3   OH223147   0.433   6.536   1.654
 7728TIP3    H123148   0.346   6.549   1.693
 7728TIP3    H223149   0.420   6.468   1.588
 7729TIP3   OH223150   3.326   5.245   3.043
 7729TIP3    H123151   3.250   5.210   2.996
 7729TIP3    H223152   3.392   5.259   2.975
 7730TIP3   OH223153   4.923   4.417   1.458
 7730TIP3    H123154   4.843   4.470   1.449
 7730TIP3    H223155   4.890   4.331   1.484
 7731TIP3   OH223156   3.055   4.765   4.595
 7731TIP3    H123157   3.056   4.683   4.545
 7731TIP3    H223158   3.021   4.830   4.534
 7732TIP3   OH223159   6.178   4.792   3.763
 7732TIP3    H123160   6.194   4.760   3.674
 7732TIP3    H223161   6.239   4.742   3.818
 7733TIP3   OH223162   5.751   2.102   0.895
 7733TIP3    H123163   5.754   2.186   0.849
 7733TIP3    H223164   5.840   2.068   0.888
 7734TIP3   OH223165   7.098   5.175   0.884
 7734TIP3    H123166   7.130   5.265   0.886
 7734TIP3    H223167   7.137   5.134   0.961
 7735TIP3   OH223168   0.689   5.588   1.727
 7735TIP3    H123169   0.768   5.616   1.680
 7735TIP3    H223170   0.628   5.661   1.717
 7736TIP3   OH223171   4.941   6.592   5.674
 7736TIP3    H123172   4.895   6.540   5.607
 7736TIP3    H223173   4.989   6.528   5.725
 7737TIP3   OH223174   6.647   5.277   0.850
 7737TIP3    H123175   6.710   5.226   0.799
 7737TIP3    H223176   6.692   5.361   0.865
 7738TIP3   OH223177   4.614   1.868   5.847
 7738TIP3    H123178   4.651   1.816   5.918
 7738TIP3    H223179   4.667   1.845   5.771
 7739TIP3   OH223180   5.028   4.909   2.514
 7739TIP3    H123181   5.060   4.984   2.564
 7739TIP3    H223182   5.075   4.834   2.550
 7740TIP3   OH223183   4.684   4.732   1.605
 7740TIP3    H123184   4.594   4.733   1.638
 7740TIP3    H223185   4.738   4.731   1.684
 7741TIP3   OH223186   6.217   4.862   0.981
 7741TIP3    H123187   6.306   4.863   0.944
 7741TIP3    H223188   6.160   4.854   0.905
 7742TIP3   OH223189   3.593   1.519   3.796
 7742TIP3    H123190   3.594   1.443   3.854
 7742TIP3    H223191   3.503   1.550   3.800
 7743TIP3   OH223192   5.167   4.339   2.372
 7743TIP3    H123193   5.119   4.257   2.372
 7743TIP3    H223194   5.156   4.373   2.283
 7744TIP3   OH223195   5.313   3.530   2.773
 7744TIP3    H123196   5.327   3.555   2.864
 7744TIP3    H223197   5.394   3.484   2.748
 7745TIP3   OH223198   3.381   3.905   2.429
 7745TIP3    H123199   3.400   3.831   2.486
 7745TIP3    H223200   3.299   3.941   2.463
 7746TIP3   OH223201   0.592   5.175   0.865
 7746TIP3    H123202   0.623   5.260   0.835
 7746TIP3    H223203   0.604   5.177   0.960
 7747TIP3   OH223204   6.444   0.718   2.490
 7747TIP3    H123205   6.355   0.734   2.521
 7747TIP3    H223206   6.495   0.792   2.523
 7748TIP3   OH223207   4.634   2.686   2.683
 7748TIP3    H123208   4.653   2.712   2.592
 7748TIP3    H223209   4.699   2.734   2.735
 7749TIP3   OH223210   4.525   6.482   0.809
 7749TIP3    H123211   4.541   6.392   0.837
 7749TIP3    H223212   4.442   6.479   0.762
 7750TIP3   OH223213   4.503   1.371   1.037
 7750TIP3    H123214   4.531   1.415   0.957
 7750TIP3    H223215   4.462   1.439   1.090
 7751TIP3   OH223216   1.108   3.071   1.370
 7751TIP3    H123217   1.021   3.109   1.359
 7751TIP3    H223218   1.166   3.129   1.320
 7752TIP3   OH223219   5.488   5.921   3.347
 7752TIP3    H123220   5.510   5.921   3.253
 7752TIP3    H223221   5.398   5.889   3.350
 7753TIP3   OH223222   0.588   5.516   1.227
 7753TIP3    H123223   0.554   5.504   1.139
 7753TIP3    H223224   0.607   5.610   1.233
 7754TIP3   OH223225   2.290   6.016   3.181
 7754TIP3    H123226   2.242   5.934   3.177
 7754TIP3    H223227   2.271   6.060   3.098
 7755TIP3   OH223228   6.852   2.118   5.657
 7755TIP3    H123229   6.915   2.182   5.626
 7755TIP3    H223230   6.904   2.054   5.706
 7756TIP3   OH223231   1.780   6.509   1.905
 7756TIP3    H123232   1.855   6.568   1.904
 7756TIP3    H223233   1.769   6.483   1.814
 7757TIP3   OH223234   0.247   4.781   1.947
 7757TIP3    H123235   0.222   4.848   2.010
 7757TIP3    H223236   0.334   4.807   1.916
 7758TIP3   OH223237   5.604   5.576   2.713
 7758TIP3    H123238   5.588   5.662   2.752
 7758TIP3    H223239   5.636   5.523   2.785
 7759TIP3   OH223240   1.572   1.517   4.150
 7759TIP3    H123241   1.588   1.559   4.065
 7759TIP3    H223242   1.542   1.429   4.127
 7760TIP3   OH223243   3.183   5.360   1.029
 7760TIP3    H123244   3.105   5.332   0.981
 7760TIP3    H223245   3.160   5.349   1.121
 7761TIP3   OH223246   0.037   5.116   0.547
 7761TIP3    H123247  -0.054   5.099   0.572
 7761TIP3    H223248   0.068   5.179   0.613
 7762TIP3   OH223249   4.213   0.293   1.751
 7762TIP3    H123250   4.240   0.342   1.829
 7762TIP3    H223251   4.293   0.254   1.718
 7763TIP3   OH223252   1.569   1.524   0.284
 7763TIP3    H123253   1.560   1.580   0.207
 7763TIP3    H223254   1.583   1.585   0.356
 7764TIP3   OH223255   6.936   1.685   1.483
 7764TIP3    H123256   6.952   1.770   1.524
 7764TIP3    H223257   7.020   1.660   1.444
 7765TIP3   OH223258   3.102   5.524   0.053
 7765TIP3    H123259   3.185   5.561   0.025
 7765TIP3    H223260   3.050   5.599   0.082
 7766TIP3   OH223261   4.587   1.925   2.680
 7766TIP3    H123262   4.507   1.904   2.632
 7766TIP3    H223263   4.611   1.845   2.725
 7767TIP3   OH223264   4.593   6.077   2.739
 7767TIP3    H123265   4.613   6.146   2.802
 7767TIP3    H223266   4.666   6.015   2.747
 7768TIP3   OH223267   0.259   1.539   2.188
 7768TIP3    H123268   0.201   1.565   2.259
 7768TIP3    H223269   0.245   1.445   2.177
 7769TIP3   OH223270   5.012   2.745   0.192
 7769TIP3    H123271   5.074   2.796   0.141
 7769TIP3    H223272   4.985   2.674   0.133
 7770TIP3   OH223273   2.923   3.951   1.264
 7770TIP3    H123274   2.850   3.896   1.296
 7770TIP3    H223275   2.981   3.959   1.339
 7771TIP3   OH223276   6.294   6.096   1.969
 7771TIP3    H123277   6.250   6.071   2.051
 7771TIP3    H223278   6.248   6.174   1.940
 7772TIP3   OH223279   5.227   0.048   0.188
 7772TIP3    H123280   5.197   0.095   0.110
 7772TIP3    H223281   5.322   0.043   0.179
 7773TIP3   OH223282   2.186   6.123   2.950
 7773TIP3    H123283   2.258   6.115   2.887
 7773TIP3    H223284   2.120   6.060   2.921
 7774TIP3   OH223285   0.390   4.392   4.587
 7774TIP3    H123286   0.408   4.486   4.580
 7774TIP3    H223287   0.393   4.360   4.498
 7775TIP3   OH223288   1.502   5.310   5.105
 7775TIP3    H123289   1.437   5.286   5.039
 7775TIP3    H223290   1.568   5.241   5.100
 7776TIP3   OH223291   3.934   5.530   5.228
 7776TIP3    H123292   3.944   5.440   5.195
 7776TIP3    H223293   3.938   5.521   5.323
 7777TIP3   OH223294   5.877   4.939   3.784
 7777TIP3    H123295   5.944   4.872   3.772
 7777TIP3    H223296   5.804   4.909   3.729
 7778TIP3   OH223297   2.282   4.272   4.941
 7778TIP3    H123298   2.258   4.192   4.895
 7778TIP3    H223299   2.368   4.295   4.906
 7779TIP3   OH223300   0.897   3.156   4.353
 7779TIP3    H123301   0.898   3.071   4.398
 7779TIP3    H223302   0.917   3.136   4.262
 7780TIP3   OH223303   3.340   1.111   0.051
 7780TIP3    H123304   3.358   1.156   0.134
 7780TIP3    H223305   3.307   1.025   0.077
 7781TIP3   OH223306   5.163   3.163   5.024
 7781TIP3    H123307   5.114   3.228   4.975
 7781TIP3    H223308   5.228   3.130   4.961
 7782TIP3   OH223309   2.498   2.848   2.203
 7782TIP3    H123310   2.510   2.756   2.225
 7782TIP3    H223311   2.480   2.890   2.287
 7783TIP3   OH223312   1.698   2.659   2.090
 7783TIP3    H123313   1.629   2.620   2.037
 7783TIP3    H223314   1.720   2.740   2.046
 7784TIP3   OH223315   1.199   3.331   4.749
 7784TIP3    H123316   1.140   3.319   4.675
 7784TIP3    H223317   1.270   3.385   4.715
 7785TIP3   OH223318   0.767   6.180   4.412
 7785TIP3    H123319   0.687   6.232   4.419
 7785TIP3    H223320   0.771   6.133   4.495
 7786TIP3   OH223321   2.493   2.273   4.414
 7786TIP3    H123322   2.411   2.289   4.461
 7786TIP3    H223323   2.480   2.315   4.329
 7787TIP3   OH223324   2.385   3.008   1.727
 7787TIP3    H123325   2.376   3.011   1.822
 7787TIP3    H223326   2.308   3.053   1.693
 7788TIP3   OH223327   6.739   3.219   2.837
 7788TIP3    H123328   6.775   3.231   2.750
 7788TIP3    H223329   6.657   3.172   2.823
 7789TIP3   OH223330   1.223   4.775   2.551
 7789TIP3    H123331   1.162   4.847   2.567
 7789TIP3    H223332   1.250   4.787   2.460
 7790TIP3   OH223333   6.746   2.643   2.394
 7790TIP3    H123334   6.752   2.662   2.300
 7790TIP3    H223335   6.783   2.555   2.403
 7791TIP3   OH223336   4.746   1.697   0.931
 7791TIP3    H123337   4.741   1.788   0.901
 7791TIP3    H223338   4.839   1.676   0.930
 7792TIP3   OH223339   7.170   3.802   0.567
 7792TIP3    H123340   7.244   3.854   0.536
 7792TIP3    H223341   7.209   3.739   0.628
 7793TIP3   OH223342   2.242   5.621   0.614
 7793TIP3    H123343   2.327   5.601   0.652
 7793TIP3    H223344   2.204   5.687   0.672
 7794TIP3   OH223345   5.856   3.136   4.574
 7794TIP3    H123346   5.944   3.156   4.605
 7794TIP3    H223347   5.863   3.136   4.479
 7795TIP3   OH223348   0.357   0.856   0.456
 7795TIP3    H123349   0.273   0.847   0.501
 7795TIP3    H223350   0.415   0.895   0.521
 7796TIP3   OH223351   6.331   2.011   3.190
 7796TIP3    H123352   6.367   2.077   3.130
 7796TIP3    H223353   6.259   1.971   3.141
 7797TIP3   OH223354   1.320   0.194   1.711
 7797TIP3    H123355   1.289   0.277   1.747
 7797TIP3    H223356   1.366   0.219   1.631
 7798TIP3   OH223357   4.547   6.830   0.553
 7798TIP3    H123358   4.559   6.739   0.582
 7798TIP3    H223359   4.456   6.833   0.522
 7799TIP3   OH223360   1.003   3.808   1.987
 7799TIP3    H123361   0.956   3.812   1.904
 7799TIP3    H223362   0.997   3.716   2.013
 7800TIP3   OH223363   2.363   1.943   1.477
 7800TIP3    H123364   2.342   1.849   1.476
 7800TIP3    H223365   2.362   1.966   1.570
 7801TIP3   OH223366   2.975   6.292   3.067
 7801TIP3    H123367   2.894   6.291   3.118
 7801TIP3    H223368   3.033   6.229   3.111
 7802TIP3   OH223369   6.942   0.641   1.684
 7802TIP3    H123370   6.970   0.573   1.745
 7802TIP3    H223371   6.945   0.599   1.598
 7803TIP3   OH223372   3.414   5.168   1.847
 7803TIP3    H123373   3.467   5.098   1.809
 7803TIP3    H223374   3.324   5.148   1.819
 7804TIP3   OH223375   3.733   1.140   4.821
 7804TIP3    H123376   3.791   1.095   4.760
 7804TIP3    H223377   3.651   1.152   4.771
 7805TIP3   OH223378   2.022   2.580   3.702
 7805TIP3    H123379   1.936   2.579   3.660
 7805TIP3    H223380   2.013   2.520   3.776
 7806TIP3   OH223381   7.057   6.613   3.560
 7806TIP3    H123382   7.070   6.562   3.640
 7806TIP3    H223383   7.144   6.618   3.521
 7807TIP3   OH223384   5.369   0.211   4.367
 7807TIP3    H123385   5.423   0.271   4.418
 7807TIP3    H223386   5.402   0.124   4.390
 7808TIP3   OH223387   2.764   1.758   2.383
 7808TIP3    H123388   2.709   1.746   2.306
 7808TIP3    H223389   2.739   1.843   2.418
 7809TIP3   OH223390   5.969   3.732   4.253
 7809TIP3    H123391   6.064   3.738   4.252
 7809TIP3    H223392   5.944   3.712   4.163
 7810TIP3   OH223393   4.358   4.170   0.178
 7810TIP3    H123394   4.282   4.215   0.216
 7810TIP3    H223395   4.395   4.234   0.116
 7811TIP3   OH223396   0.027   0.603   4.368
 7811TIP3    H123397  -0.012   0.523   4.333
 7811TIP3    H223398   0.100   0.622   4.309
 7812TIP3   OH223399   1.069   5.371   5.322
 7812TIP3    H123400   1.030   5.314   5.256
 7812TIP3    H223401   1.061   5.322   5.404
 7813TIP3   OH223402   3.379   4.559   1.541
 7813TIP3    H123403   3.372   4.605   1.457
 7813TIP3    H223404   3.402   4.627   1.604
 7814TIP3   OH223405   5.366   6.143   1.090
 7814TIP3    H123406   5.433   6.210   1.082
 7814TIP3    H223407   5.383   6.101   1.174
 7815TIP3   OH223408   4.518   2.474   1.353
 7815TIP3    H123409   4.606   2.492   1.388
 7815TIP3    H223410   4.508   2.538   1.282
 7816TIP3   OH223411   0.509   2.916   1.514
 7816TIP3    H123412   0.494   2.866   1.594
 7816TIP3    H223413   0.548   2.853   1.453
 7817TIP3   OH223414   4.125   0.815   2.457
 7817TIP3    H123415   4.094   0.890   2.406
 7817TIP3    H223416   4.046   0.778   2.495
 7818TIP3   OH223417   1.155   3.195   3.106
 7818TIP3    H123418   1.148   3.262   3.039
 7818TIP3    H223419   1.122   3.115   3.065
 7819TIP3   OH223420   4.503   0.039   2.387
 7819TIP3    H123421   4.585   0.088   2.385
 7819TIP3    H223422   4.461   0.059   2.303
 7820TIP3   OH223423   5.653   4.844   0.073
 7820TIP3    H123424   5.561   4.819   0.068
 7820TIP3    H223425   5.652   4.940   0.069
 7821TIP3   OH223426   2.413   3.323   5.096
 7821TIP3    H123427   2.447   3.263   5.162
 7821TIP3    H223428   2.332   3.283   5.066
 7822TIP3   OH223429   6.571   6.737   5.254
 7822TIP3    H123430   6.608   6.650   5.244
 7822TIP3    H223431   6.496   6.738   5.194
 7823TIP3   OH223432   5.876   0.577   5.537
 7823TIP3    H123433   5.792   0.597   5.578
 7823TIP3    H223434   5.895   0.653   5.482
 7824TIP3   OH223435   4.239   3.962   1.997
 7824TIP3    H123436   4.236   4.042   2.050
 7824TIP3    H223437   4.287   3.988   1.918
 7825TIP3   OH223438   3.485   2.356   2.161
 7825TIP3    H123439   3.546   2.424   2.133
 7825TIP3    H223440   3.499   2.350   2.256
 7826TIP3   OH223441   2.786   1.991   0.338
 7826TIP3    H123442   2.739   2.065   0.301
 7826TIP3    H223443   2.781   1.923   0.272
 7827TIP3   OH223444   3.539   2.464   1.297
 7827TIP3    H123445   3.533   2.381   1.345
 7827TIP3    H223446   3.483   2.452   1.221
 7828TIP3   OH223447   3.955   1.858   3.341
 7828TIP3    H123448   3.927   1.905   3.419
 7828TIP3    H223449   3.883   1.868   3.279
 7829TIP3   OH223450   5.827   1.437   0.151
 7829TIP3    H123451   5.830   1.511   0.090
 7829TIP3    H223452   5.759   1.380   0.117
 7830TIP3   OH223453   7.040   4.755   2.630
 7830TIP3    H123454   6.999   4.703   2.562
 7830TIP3    H223455   7.007   4.843   2.617
 7831TIP3   OH223456   3.851   4.727   4.179
 7831TIP3    H123457   3.867   4.633   4.186
 7831TIP3    H223458   3.915   4.768   4.237
 7832TIP3   OH223459   2.187   0.922   0.105
 7832TIP3    H123460   2.132   0.945   0.030
 7832TIP3    H223461   2.266   0.885   0.067
 7833TIP3   OH223462   6.308   5.030   4.658
 7833TIP3    H123463   6.280   5.118   4.683
 7833TIP3    H223464   6.399   5.024   4.686
 7834TIP3   OH223465   5.332   1.981   2.484
 7834TIP3    H123466   5.322   1.918   2.413
 7834TIP3    H223467   5.245   1.986   2.524
 7835TIP3   OH223468   0.122   0.891   1.310
 7835TIP3    H123469   0.153   0.907   1.399
 7835TIP3    H223470   0.155   0.804   1.288
 7836TIP3   OH223471   6.312   5.471   5.034
 7836TIP3    H123472   6.337   5.458   4.943
 7836TIP3    H223473   6.338   5.561   5.054
 7837TIP3   OH223474   2.074   2.799   4.266
 7837TIP3    H123475   2.065   2.885   4.225
 7837TIP3    H223476   2.165   2.775   4.250
 7838TIP3   OH223477   2.411   6.177   1.087
 7838TIP3    H123478   2.415   6.139   0.999
 7838TIP3    H223479   2.479   6.131   1.136
 7839TIP3   OH223480   4.253   6.824   0.803
 7839TIP3    H123481   4.251   6.764   0.878
 7839TIP3    H223482   4.199   6.782   0.736
 7840TIP3   OH223483   1.264   5.102   0.554
 7840TIP3    H123484   1.180   5.131   0.590
 7840TIP3    H223485   1.241   5.049   0.478
 7841TIP3   OH223486   4.732   2.131   3.944
 7841TIP3    H123487   4.671   2.151   4.016
 7841TIP3    H223488   4.685   2.069   3.889
 7842TIP3   OH223489   3.856   5.168   4.347
 7842TIP3    H123490   3.884   5.258   4.365
 7842TIP3    H223491   3.928   5.114   4.378
 7843TIP3   OH223492   4.204   5.874   0.640
 7843TIP3    H123493   4.157   5.925   0.707
 7843TIP3    H223494   4.296   5.898   0.652
 7844TIP3   OH223495   0.395   2.291   0.764
 7844TIP3    H123496   0.456   2.258   0.830
 7844TIP3    H223497   0.368   2.377   0.797
 7845TIP3   OH223498   2.836   3.282   2.447
 7845TIP3    H123499   2.875   3.228   2.378
 7845TIP3    H223500   2.848   3.230   2.527
 7846TIP3   OH223501   5.991   0.581   0.934
 7846TIP3    H123502   5.995   0.615   1.024
 7846TIP3    H223503   6.042   0.644   0.883
 7847TIP3   OH223504   4.619   6.382   4.744
 7847TIP3    H123505   4.710   6.409   4.736
 7847TIP3    H223506   4.588   6.426   4.824
 7848TIP3   OH223507   4.490   6.675   1.545
 7848TIP3    H123508   4.533   6.594   1.517
 7848TIP3    H223509   4.404   6.672   1.503
 7849TIP3   OH223510   5.991   4.169   4.958
 7849TIP3    H123511   5.942   4.087   4.947
 7849TIP3    H223512   5.967   4.222   4.883
 7850TIP3   OH223513   2.478   0.214   3.683
 7850TIP3    H123514   2.407   0.204   3.746
 7850TIP3    H223515   2.446   0.171   3.603
 7851TIP3   OH223516   5.332   4.119   4.062
 7851TIP3    H123517   5.426   4.134   4.053
 7851TIP3    H223518   5.291   4.195   4.021
 7852TIP3   OH223519   0.397   6.248   5.052
 7852TIP3    H123520   0.484   6.249   5.013
 7852TIP3    H223521   0.357   6.167   5.020
 7853TIP3   OH223522   3.749   5.064   5.244
 7853TIP3    H123523   3.740   4.973   5.271
 7853TIP3    H223524   3.738   5.114   5.324
 7854TIP3   OH223525   1.993   5.861   0.914
 7854TIP3    H123526   2.000   5.844   1.008
 7854TIP3    H223527   2.083   5.860   0.882
 7855TIP3   OH223528   0.509   1.798   3.083
 7855TIP3    H123529   0.531   1.826   2.994
 7855TIP3    H223530   0.417   1.774   3.079
 7856TIP3   OH223531   4.313   0.476   5.402
 7856TIP3    H123532   4.322   0.557   5.352
 7856TIP3    H223533   4.285   0.411   5.337
 7857TIP3   OH223534   1.661   3.643   0.749
 7857TIP3    H123535   1.702   3.702   0.812
 7857TIP3    H223536   1.706   3.662   0.666
 7858TIP3   OH223537   2.406   0.930   0.628
 7858TIP3    H123538   2.320   0.924   0.669
 7858TIP3    H223539   2.395   0.885   0.544
 7859TIP3   OH223540   2.305   1.392   2.366
 7859TIP3    H123541   2.268   1.446   2.436
 7859TIP3    H223542   2.384   1.355   2.404
 7860TIP3   OH223543   0.877   1.048   0.590
 7860TIP3    H123544   0.791   1.033   0.629
 7860TIP3    H223545   0.935   1.064   0.664
 7861TIP3   OH223546   5.389   5.413   3.854
 7861TIP3    H123547   5.482   5.428   3.872
 7861TIP3    H223548   5.379   5.318   3.853
 7862TIP3   OH223549   1.804   6.193   0.015
 7862TIP3    H123550   1.866   6.187  -0.058
 7862TIP3    H223551   1.840   6.134   0.081
 7863TIP3   OH223552   0.438   2.830   4.012
 7863TIP3    H123553   0.402   2.759   3.960
 7863TIP3    H223554   0.366   2.894   4.017
 7864TIP3   OH223555   0.196   2.304   2.239
 7864TIP3    H123556   0.108   2.283   2.271
 7864TIP3    H223557   0.205   2.252   2.159
 7865TIP3   OH223558   4.596   6.475   4.476
 7865TIP3    H123559   4.568   6.426   4.553
 7865TIP3    H223560   4.686   6.501   4.496
 7866TIP3   OH223561   6.922   4.136   1.496
 7866TIP3    H123562   6.900   4.128   1.403
 7866TIP3    H223563   6.871   4.211   1.527
 7867TIP3   OH223564   3.356   1.954   1.029
 7867TIP3    H123565   3.429   1.959   1.091
 7867TIP3    H223566   3.331   1.861   1.029
 7868TIP3   OH223567   3.027   4.636   3.166
 7868TIP3    H123568   2.954   4.618   3.225
 7868TIP3    H223569   3.093   4.678   3.222
 7869TIP3   OH223570   1.381   4.481   0.433
 7869TIP3    H123571   1.389   4.438   0.518
 7869TIP3    H223572   1.299   4.449   0.397
 7870TIP3   OH223573   6.443   3.098   5.512
 7870TIP3    H123574   6.357   3.125   5.479
 7870TIP3    H223575   6.502   3.111   5.438
 7871TIP3   OH223576   5.400   0.554   2.495
 7871TIP3    H123577   5.386   0.468   2.534
 7871TIP3    H223578   5.494   0.571   2.508
 7872TIP3   OH223579   0.310   3.969   2.740
 7872TIP3    H123580   0.384   4.019   2.775
 7872TIP3    H223581   0.299   3.897   2.802
 7873TIP3   OH223582   2.263   1.985   2.523
 7873TIP3    H123583   2.251   1.896   2.556
 7873TIP3    H223584   2.174   2.015   2.502
 7874TIP3   OH223585   4.373   5.275   5.139
 7874TIP3    H123586   4.331   5.346   5.090
 7874TIP3    H223587   4.461   5.268   5.101
 7875TIP3   OH223588   5.845   5.449   3.480
 7875TIP3    H123589   5.920   5.493   3.441
 7875TIP3    H223590   5.769   5.485   3.433
 7876TIP3   OH223591   2.744   3.885   1.035
 7876TIP3    H123592   2.776   3.880   0.945
 7876TIP3    H223593   2.821   3.910   1.086
 7877TIP3   OH223594   5.239   0.881   0.751
 7877TIP3    H123595   5.258   0.815   0.817
 7877TIP3    H223596   5.278   0.847   0.670
 7878TIP3   OH223597   2.220   3.860   1.057
 7878TIP3    H123598   2.300   3.903   1.086
 7878TIP3    H223599   2.243   3.767   1.052
 7879TIP3   OH223600   4.898   2.356   2.209
 7879TIP3    H123601   4.942   2.420   2.153
 7879TIP3    H223602   4.969   2.308   2.252
 7880TIP3   OH223603   1.037   4.765   4.827
 7880TIP3    H123604   1.100   4.758   4.755
 7880TIP3    H223605   1.088   4.798   4.900
 7881TIP3   OH223606   6.372   4.521   5.861
 7881TIP3    H123607   6.351   4.610   5.888
 7881TIP3    H223608   6.300   4.468   5.896
 7882TIP3   OH223609   6.046   4.501   3.846
 7882TIP3    H123610   5.973   4.562   3.836
 7882TIP3    H223611   6.053   4.458   3.761
 7883TIP3   OH223612   6.616   0.155   1.223
 7883TIP3    H123613   6.525   0.167   1.253
 7883TIP3    H223614   6.623   0.209   1.145
 7884TIP3   OH223615   0.703   1.113   2.728
 7884TIP3    H123616   0.749   1.176   2.674
 7884TIP3    H223617   0.689   1.158   2.811
 7885TIP3   OH223618   0.228   4.395   3.197
 7885TIP3    H123619   0.161   4.368   3.261
 7885TIP3    H223620   0.285   4.318   3.189
 7886TIP3   OH223621   6.966   5.447   2.426
 7886TIP3    H123622   6.910   5.524   2.424
 7886TIP3    H223623   6.914   5.377   2.388
 7887TIP3   OH223624   1.742   0.521   5.407
 7887TIP3    H123625   1.786   0.557   5.484
 7887TIP3    H223626   1.760   0.427   5.410
 7888TIP3   OH223627   1.264   1.372   1.313
 7888TIP3    H123628   1.189   1.428   1.291
 7888TIP3    H223629   1.338   1.432   1.317
 7889TIP3   OH223630   1.925   4.528   0.770
 7889TIP3    H123631   1.984   4.604   0.777
 7889TIP3    H223632   1.837   4.565   0.778
 7890TIP3   OH223633   2.126   4.324   0.933
 7890TIP3    H123634   2.190   4.394   0.922
 7890TIP3    H223635   2.088   4.340   1.020
 7891TIP3   OH223636   4.251   4.621   5.832
 7891TIP3    H123637   4.170   4.597   5.876
 7891TIP3    H223638   4.223   4.668   5.754
 7892TIP3   OH223639   7.078   0.983   3.992
 7892TIP3    H123640   7.013   1.018   3.932
 7892TIP3    H223641   7.143   1.053   4.002
 7893TIP3   OH223642   7.143   3.377   2.397
 7893TIP3    H123643   7.142   3.450   2.458
 7893TIP3    H223644   7.235   3.368   2.371
 7894TIP3   OH223645   1.157   1.054   0.167
 7894TIP3    H123646   1.140   1.007   0.248
 7894TIP3    H223647   1.156   1.146   0.191
 7895TIP3   OH223648   3.531   4.754   2.544
 7895TIP3    H123649   3.533   4.660   2.524
 7895TIP3    H223650   3.467   4.790   2.483
 7896TIP3   OH223651   4.701   2.181   0.035
 7896TIP3    H123652   4.691   2.221  -0.052
 7896TIP3    H223653   4.693   2.254   0.096
 7897TIP3   OH223654   1.885   5.461   5.759
 7897TIP3    H123655   1.888   5.428   5.669
 7897TIP3    H223656   1.932   5.545   5.755
 7898TIP3   OH223657   2.784   4.878   4.784
 7898TIP3    H123658   2.742   4.800   4.819
 7898TIP3    H223659   2.874   4.875   4.818
 7899TIP3   OH223660   6.105   4.959   0.198
 7899TIP3    H123661   6.084   5.049   0.226
 7899TIP3    H223662   6.111   4.965   0.103
 7900TIP3   OH223663   3.544   6.142   4.135
 7900TIP3    H123664   3.483   6.095   4.193
 7900TIP3    H223665   3.623   6.089   4.135
 7901TIP3   OH223666   0.515   3.745   3.555
 7901TIP3    H123667   0.511   3.652   3.578
 7901TIP3    H223668   0.446   3.756   3.490
 7902TIP3   OH223669   5.284   5.337   2.541
 7902TIP3    H123670   5.376   5.314   2.527
 7902TIP3    H223671   5.280   5.432   2.526
 7903TIP3   OH223672   4.566   1.065   1.325
 7903TIP3    H123673   4.602   1.146   1.292
 7903TIP3    H223674   4.618   1.044   1.402
 7904TIP3   OH223675   3.335   6.534   4.473
 7904TIP3    H123676   3.368   6.469   4.410
 7904TIP3    H223677   3.414   6.573   4.511
 7905TIP3   OH223678   1.354   2.550   5.776
 7905TIP3    H123679   1.437   2.596   5.764
 7905TIP3    H223680   1.302   2.574   5.699
 7906TIP3   OH223681   1.686   4.194   0.103
 7906TIP3    H123682   1.600   4.207   0.062
 7906TIP3    H223683   1.742   4.261   0.064
 7907TIP3   OH223684   4.547   1.600   2.377
 7907TIP3    H123685   4.600   1.645   2.312
 7907TIP3    H223686   4.573   1.508   2.369
 7908TIP3   OH223687   2.621   5.297   5.525
 7908TIP3    H123688   2.573   5.290   5.607
 7908TIP3    H223689   2.713   5.293   5.550
 7909TIP3   OH223690   3.430   2.245   1.434
 7909TIP3    H123691   3.425   2.153   1.407
 7909TIP3    H223692   3.346   2.283   1.408
 7910TIP3   OH223693   6.009   1.229   3.465
 7910TIP3    H123694   6.063   1.174   3.408
 7910TIP3    H223695   5.987   1.305   3.411
 7911TIP3   OH223696   6.076   1.013   1.129
 7911TIP3    H123697   6.127   1.026   1.050
 7911TIP3    H223698   6.062   0.919   1.134
 7912TIP3   OH223699   4.747   1.644   4.648
 7912TIP3    H123700   4.825   1.699   4.642
 7912TIP3    H223701   4.707   1.669   4.732
 7913TIP3   OH223702   4.849   4.338   1.883
 7913TIP3    H123703   4.883   4.401   1.819
 7913TIP3    H223704   4.769   4.378   1.916
 7914TIP3   OH223705   7.073   2.692   1.885
 7914TIP3    H123706   7.053   2.632   1.956
 7914TIP3    H223707   7.081   2.778   1.927
 7915TIP3   OH223708   2.787   1.396   4.021
 7915TIP3    H123709   2.808   1.304   4.011
 7915TIP3    H223710   2.872   1.439   4.036
 7916TIP3   OH223711   4.028   5.343   0.516
 7916TIP3    H123712   4.025   5.273   0.581
 7916TIP3    H223713   4.028   5.298   0.432
 7917TIP3   OH223714   4.736   4.302   4.507
 7917TIP3    H123715   4.674   4.339   4.569
 7917TIP3    H223716   4.713   4.209   4.502
 7918TIP3   OH223717   4.431   5.480   3.666
 7918TIP3    H123718   4.420   5.545   3.597
 7918TIP3    H223719   4.434   5.531   3.747
 7919TIP3   OH223720   0.641   0.154   3.574
 7919TIP3    H123721   0.733   0.161   3.600
 7919TIP3    H223722   0.610   0.075   3.617
 7920TIP3   OH223723   6.842   3.951   2.598
 7920TIP3    H123724   6.847   3.872   2.651
 7920TIP3    H223725   6.898   3.933   2.522
 7921TIP3   OH223726   1.682   3.051   5.015
 7921TIP3    H123727   1.705   2.965   5.049
 7921TIP3    H223728   1.749   3.070   4.949
 7922TIP3   OH223729   2.018   0.375   3.318
 7922TIP3    H123730   2.003   0.413   3.405
 7922TIP3    H223731   1.938   0.396   3.269
 7923TIP3   OH223732   1.233   4.263   0.686
 7923TIP3    H123733   1.173   4.235   0.755
 7923TIP3    H223734   1.188   4.241   0.604
 7924TIP3   OH223735   4.655   0.903   1.066
 7924TIP3    H123736   4.567   0.940   1.071
 7924TIP3    H223737   4.710   0.975   1.034
 7925TIP3   OH223738   0.753   0.476   5.229
 7925TIP3    H123739   0.804   0.435   5.159
 7925TIP3    H223740   0.674   0.507   5.186
 7926TIP3   OH223741   1.569   1.263   5.742
 7926TIP3    H123742   1.646   1.211   5.719
 7926TIP3    H223743   1.601   1.326   5.807
 7927TIP3   OH223744   3.433   0.779   0.199
 7927TIP3    H123745   3.414   0.693   0.237
 7927TIP3    H223746   3.428   0.764   0.104
 7928TIP3   OH223747   3.595   3.003   0.319
 7928TIP3    H123748   3.626   2.912   0.312
 7928TIP3    H223749   3.517   3.006   0.265
 7929TIP3   OH223750   3.643   5.049   0.525
 7929TIP3    H123751   3.665   4.963   0.560
 7929TIP3    H223752   3.697   5.110   0.575
 7930TIP3   OH223753   3.958   2.663   2.758
 7930TIP3    H123754   3.871   2.702   2.764
 7930TIP3    H223755   3.944   2.576   2.721
 7931TIP3   OH223756   5.253   5.618   3.940
 7931TIP3    H123757   5.307   5.645   4.015
 7931TIP3    H223758   5.297   5.541   3.905
 7932TIP3   OH223759   0.912   1.827   0.515
 7932TIP3    H123760   0.949   1.777   0.588
 7932TIP3    H223761   0.899   1.915   0.551
 7933TIP3   OH223762   1.718   0.487   2.072
 7933TIP3    H123763   1.676   0.573   2.071
 7933TIP3    H223764   1.790   0.494   2.009
 7934TIP3   OH223765   1.880   0.548   1.020
 7934TIP3    H123766   1.866   0.643   1.014
 7934TIP3    H223767   1.836   0.513   0.942
 7935TIP3   OH223768   6.377   5.408   5.682
 7935TIP3    H123769   6.435   5.457   5.740
 7935TIP3    H223770   6.390   5.316   5.706
 7936TIP3   OH223771   2.135   0.316   4.271
 7936TIP3    H123772   2.133   0.406   4.304
 7936TIP3    H223773   2.217   0.309   4.223
 7937TIP3   OH223774   6.126   2.618   5.490
 7937TIP3    H123775   6.175   2.676   5.432
 7937TIP3    H223776   6.122   2.534   5.445
 7938TIP3   OH223777   6.678   5.547   5.698
 7938TIP3    H123778   6.639   5.573   5.782
 7938TIP3    H223779   6.771   5.563   5.708
 7939TIP3   OH223780   5.468   3.048   4.237
 7939TIP3    H123781   5.408   3.122   4.227
 7939TIP3    H223782   5.411   2.974   4.256
 7940TIP3   OH223783   2.231   3.115   3.122
 7940TIP3    H123784   2.219   3.170   3.200
 7940TIP3    H223785   2.158   3.054   3.125
 7941TIP3   OH223786   6.683   3.411   3.437
 7941TIP3    H123787   6.598   3.388   3.475
 7941TIP3    H223788   6.741   3.340   3.463
 7942TIP3   OH223789   0.205   6.101   4.494
 7942TIP3    H123790   0.197   6.196   4.503
 7942TIP3    H223791   0.290   6.080   4.533
 7943TIP3   OH223792   6.618   0.532   0.347
 7943TIP3    H123793   6.674   0.499   0.417
 7943TIP3    H223794   6.627   0.628   0.352
 7944TIP3   OH223795   6.680   4.980   4.402
 7944TIP3    H123796   6.615   4.943   4.462
 7944TIP3    H223797   6.654   4.948   4.316
 7945TIP3   OH223798   6.066   3.750   4.808
 7945TIP3    H123799   6.123   3.707   4.744
 7945TIP3    H223800   6.076   3.697   4.888
 7946TIP3   OH223801   0.432   5.364   5.675
 7946TIP3    H123802   0.406   5.456   5.679
 7946TIP3    H223803   0.404   5.335   5.587
 7947TIP3   OH223804   0.096   3.598   5.118
 7947TIP3    H123805   0.006   3.579   5.092
 7947TIP3    H223806   0.106   3.692   5.105
 7948TIP3   OH223807   1.089   0.281   0.420
 7948TIP3    H123808   1.049   0.301   0.504
 7948TIP3    H223809   1.177   0.250   0.441
 7949TIP3   OH223810   0.599   6.435   1.955
 7949TIP3    H123811   0.668   6.378   1.922
 7949TIP3    H223812   0.521   6.381   1.956
 7950TIP3   OH223813   4.631   2.980   1.396
 7950TIP3    H123814   4.715   2.994   1.441
 7950TIP3    H223815   4.573   2.944   1.463
 7951TIP3   OH223816   1.510   6.451   1.446
 7951TIP3    H123817   1.430   6.405   1.472
 7951TIP3    H223818   1.509   6.448   1.350
 7952TIP3   OH223819   1.535   3.396   0.639
 7952TIP3    H123820   1.486   3.340   0.699
 7952TIP3    H223821   1.627   3.377   0.659
 7953TIP3   OH223822   2.304   0.591   1.315
 7953TIP3    H123823   2.257   0.509   1.326
 7953TIP3    H223824   2.388   0.565   1.277
 7954TIP3   OH223825   0.104   0.766   5.702
 7954TIP3    H123826   0.029   0.727   5.657
 7954TIP3    H223827   0.082   0.858   5.710
 7955TIP3   OH223828   4.647   2.713   1.526
 7955TIP3    H123829   4.666   2.718   1.432
 7955TIP3    H223830   4.729   2.684   1.565
 7956TIP3   OH223831   6.251   6.399   2.710
 7956TIP3    H123832   6.170   6.438   2.677
 7956TIP3    H223833   6.233   6.384   2.804
 7957TIP3   OH223834   3.373   2.270   0.308
 7957TIP3    H123835   3.351   2.227   0.390
 7957TIP3    H223836   3.290   2.299   0.272
 7958TIP3   OH223837   2.348   0.189   5.904
 7958TIP3    H123838   2.338   0.095   5.891
 7958TIP3    H223839   2.322   0.227   5.821
 7959TIP3   OH223840   3.363   3.562  -0.006
 7959TIP3    H123841   3.397   3.483   0.036
 7959TIP3    H223842   3.424   3.631   0.018
 7960TIP3   OH223843   6.931   0.948   0.031
 7960TIP3    H123844   6.913   0.858   0.059
 7960TIP3    H223845   6.977   0.988   0.104
 7961TIP3   OH223846   6.544   4.503   5.650
 7961TIP3    H123847   6.486   4.527   5.722
 7961TIP3    H223848   6.531   4.572   5.585
 7962TIP3   OH223849   2.013   2.542   5.630
 7962TIP3    H123850   1.960   2.476   5.583
 7962TIP3    H223851   2.073   2.490   5.683
 7963TIP3   OH223852   5.304   4.637   1.908
 7963TIP3    H123853   5.348   4.608   1.829
 7963TIP3    H223854   5.298   4.559   1.963
 7964TIP3   OH223855   4.948   4.425   2.570
 7964TIP3    H123856   4.924   4.334   2.590
 7964TIP3    H223857   5.032   4.417   2.524
 7965TIP3   OH223858   6.900   6.114   0.717
 7965TIP3    H123859   6.822   6.169   0.724
 7965TIP3    H223860   6.921   6.090   0.807
 7966TIP3   OH223861   4.220   6.646   3.613
 7966TIP3    H123862   4.227   6.551   3.624
 7966TIP3    H223863   4.284   6.682   3.674
 7967TIP3   OH223864   2.741   0.438   4.879
 7967TIP3    H123865   2.700   0.435   4.793
 7967TIP3    H223866   2.702   0.364   4.926
 7968TIP3   OH223867   6.476   6.443   0.270
 7968TIP3    H123868   6.483   6.441   0.366
 7968TIP3    H223869   6.514   6.527   0.245
 7969TIP3   OH223870   7.158   2.760   4.811
 7969TIP3    H123871   7.074   2.723   4.839
 7969TIP3    H223872   7.169   2.838   4.865
 7970TIP3   OH223873   4.402   6.005   1.887
 7970TIP3    H123874   4.328   6.042   1.935
 7970TIP3    H223875   4.469   5.990   1.954
 7971TIP3   OH223876   6.181   2.466   4.555
 7971TIP3    H123877   6.152   2.380   4.585
 7971TIP3    H223878   6.276   2.464   4.567
 7972TIP3   OH223879   1.793   1.749   3.641
 7972TIP3    H123880   1.750   1.820   3.594
 7972TIP3    H223881   1.748   1.670   3.612
 7973TIP3   OH223882   6.818   3.179   3.349
 7973TIP3    H123883   6.859   3.121   3.414
 7973TIP3    H223884   6.879   3.179   3.275
 7974TIP3   OH223885   5.514   0.623   0.759
 7974TIP3    H123886   5.487   0.690   0.697
 7974TIP3    H223887   5.432   0.590   0.797
 7975TIP3   OH223888   6.116   3.830   3.294
 7975TIP3    H123889   6.170   3.758   3.261
 7975TIP3    H223890   6.041   3.787   3.335
 7976TIP3   OH223891   4.680   0.884   4.127
 7976TIP3    H123892   4.760   0.903   4.174
 7976TIP3    H223893   4.705   0.888   4.034
 7977TIP3   OH223894   0.984   0.787   2.212
 7977TIP3    H123895   0.933   0.826   2.141
 7977TIP3    H223896   0.922   0.780   2.285
 7978TIP3   OH223897   2.169   6.231   1.431
 7978TIP3    H123898   2.260   6.255   1.416
 7978TIP3    H223899   2.173   6.152   1.484
 7979TIP3   OH223900   5.659   6.522   3.188
 7979TIP3    H123901   5.596   6.471   3.137
 7979TIP3    H223902   5.617   6.607   3.201
 7980TIP3   OH223903   1.487   5.735   2.861
 7980TIP3    H123904   1.403   5.732   2.907
 7980TIP3    H223905   1.479   5.671   2.791
 7981TIP3   OH223906   4.153   4.610   5.537
 7981TIP3    H123907   4.221   4.677   5.531
 7981TIP3    H223908   4.071   4.659   5.543
 7982TIP3   OH223909   6.996   1.532   3.388
 7982TIP3    H123910   6.965   1.563   3.303
 7982TIP3    H223911   7.004   1.611   3.441
 7983TIP3   OH223912   3.505   5.900   3.439
 7983TIP3    H123913   3.516   5.805   3.438
 7983TIP3    H223914   3.586   5.933   3.478
 7984TIP3   OH223915   3.946   5.420   4.340
 7984TIP3    H123916   3.965   5.480   4.268
 7984TIP3    H223917   3.920   5.477   4.412
 7985TIP3   OH223918   3.654   4.264   2.827
 7985TIP3    H123919   3.612   4.201   2.769
 7985TIP3    H223920   3.606   4.346   2.813
 7986TIP3   OH223921   0.630   0.364   4.229
 7986TIP3    H123922   0.632   0.275   4.263
 7986TIP3    H223923   0.710   0.404   4.262
 7987TIP3   OH223924   2.279   6.654   2.050
 7987TIP3    H123925   2.212   6.646   1.982
 7987TIP3    H223926   2.230   6.641   2.132
 7988TIP3   OH223927   3.016   3.945   5.346
 7988TIP3    H123928   3.048   3.865   5.303
 7988TIP3    H223929   3.095   3.998   5.358
 7989TIP3   OH223930   3.871   1.280   1.383
 7989TIP3    H123931   3.962   1.254   1.396
 7989TIP3    H223932   3.854   1.346   1.449
 7990TIP3   OH223933   3.066   2.085   0.822
 7990TIP3    H123934   3.075   2.152   0.755
 7990TIP3    H223935   2.998   2.027   0.790
 7991TIP3   OH223936   2.792   2.688   4.954
 7991TIP3    H123937   2.832   2.707   4.869
 7991TIP3    H223938   2.864   2.655   5.008
 7992TIP3   OH223939   4.419   4.840   0.810
 7992TIP3    H123940   4.344   4.890   0.780
 7992TIP3    H223941   4.461   4.808   0.730
 7993TIP3   OH223942   4.985   6.021   5.107
 7993TIP3    H123943   5.027   6.104   5.085
 7993TIP3    H223944   4.964   5.981   5.023
 7994TIP3   OH223945   6.850   0.616   3.484
 7994TIP3    H123946   6.803   0.581   3.560
 7994TIP3    H223947   6.936   0.573   3.487
 7995TIP3   OH223948   1.052   2.143   3.394
 7995TIP3    H123949   1.102   2.222   3.417
 7995TIP3    H223950   1.015   2.114   3.477
 7996TIP3   OH223951   5.593   2.540   1.784
 7996TIP3    H123952   5.569   2.490   1.863
 7996TIP3    H223953   5.563   2.629   1.802
 7997TIP3   OH223954   0.236   3.050   1.393
 7997TIP3    H123955   0.303   3.001   1.442
 7997TIP3    H223956   0.271   3.057   1.305
 7998TIP3   OH223957   0.565   5.500   1.951
 7998TIP3    H123958   0.609   5.550   1.882
 7998TIP3    H223959   0.476   5.533   1.953
 7999TIP3   OH223960   5.797   5.793   5.568
 7999TIP3    H123961   5.769   5.702   5.571
 7999TIP3    H223962   5.765   5.831   5.650
 8000TIP3   OH223963   2.882   0.522   1.372
 8000TIP3    H123964   2.972   0.500   1.349
 8000TIP3    H223965   2.831   0.506   1.293
 8001TIP3   OH223966   5.631   1.481   0.603
 8001TIP3    H123967   5.612   1.575   0.611
 8001TIP3    H223968   5.727   1.477   0.596
 8002TIP3   OH223969   5.586   0.840   3.106
 8002TIP3    H123970   5.672   0.872   3.077
 8002TIP3    H223971   5.565   0.769   3.046
 8003TIP3   OH223972   2.216   5.185   1.676
 8003TIP3    H123973   2.282   5.205   1.743
 8003TIP3    H223974   2.154   5.128   1.720
 8004TIP3   OH223975   4.859   5.061   4.541
 8004TIP3    H123976   4.779   5.088   4.586
 8004TIP3    H223977   4.830   5.041   4.452
 8005TIP3   OH223978   1.764   2.450   3.692
 8005TIP3    H123979   1.775   2.471   3.600
 8005TIP3    H223980   1.719   2.526   3.729
 8006TIP3   OH223981   2.730   6.056   4.309
 8006TIP3    H123982   2.749   5.962   4.300
 8006TIP3    H223983   2.722   6.070   4.403
 8007TIP3   OH223984   5.912   2.670   5.818
 8007TIP3    H123985   5.896   2.575   5.821
 8007TIP3    H223986   6.002   2.680   5.850
 8008TIP3   OH223987   1.909   3.539   4.715
 8008TIP3    H123988   1.852   3.612   4.690
 8008TIP3    H223989   1.979   3.540   4.649
 8009TIP3   OH223990   0.851   5.934   0.139
 8009TIP3    H123991   0.810   6.000   0.083
 8009TIP3    H223992   0.941   5.965   0.149
 8010TIP3   OH223993   4.694   3.220   4.988
 8010TIP3    H123994   4.699   3.183   4.900
 8010TIP3    H223995   4.629   3.290   4.981
 8011TIP3   OH223996   0.452   2.415   2.898
 8011TIP3    H123997   0.464   2.348   2.965
 8011TIP3    H223998   0.534   2.416   2.849
 8012TIP3   OH223999   2.493   5.834   0.632
 8012TIP3    H124000   2.549   5.757   0.624
 8012TIP3    H224001   2.488   5.850   0.726
 8013TIP3   OH224002   4.634   3.606   5.626
 8013TIP3    H124003   4.699   3.557   5.576
 8013TIP3    H224004   4.674   3.692   5.640
 8014TIP3   OH224005   6.072   1.807   1.436
 8014TIP3    H124006   6.087   1.740   1.370
 8014TIP3    H224007   5.989   1.783   1.477
 8015TIP3   OH224008   4.272   4.296   2.825
 8015TIP3    H124009   4.187   4.297   2.781
 8015TIP3    H224010   4.332   4.335   2.762
 8016TIP3   OH224011   6.159   3.754   4.483
 8016TIP3    H124012   6.151   3.663   4.456
 8016TIP3    H224013   6.189   3.800   4.405
 8017TIP3   OH224014   3.555   1.456   1.548
 8017TIP3    H124015   3.556   1.428   1.457
 8017TIP3    H224016   3.552   1.374   1.598
 8018TIP3   OH224017   2.717   6.799   1.941
 8018TIP3    H124018   2.781   6.803   2.013
 8018TIP3    H224019   2.656   6.730   1.967
 8019TIP3   OH224020   0.320   5.455   1.294
 8019TIP3    H124021   0.325   5.398   1.371
 8019TIP3    H224022   0.411   5.479   1.276
 8020TIP3   OH224023   7.118   1.681   4.669
 8020TIP3    H124024   7.191   1.631   4.706
 8020TIP3    H224025   7.108   1.755   4.729
 8021TIP3   OH224026   5.679   5.101   2.528
 8021TIP3    H124027   5.663   5.028   2.587
 8021TIP3    H224028   5.633   5.175   2.568
 8022TIP3   OH224029   2.407   4.952   3.834
 8022TIP3    H124030   2.394   4.908   3.918
 8022TIP3    H224031   2.371   5.039   3.846
 8023TIP3   OH224032   4.790   0.764   0.817
 8023TIP3    H124033   4.746   0.798   0.895
 8023TIP3    H224034   4.833   0.684   0.847
 8024TIP3   OH224035   3.985   4.709   4.886
 8024TIP3    H124036   3.893   4.716   4.862
 8024TIP3    H224037   4.018   4.799   4.884
 8025TIP3   OH224038   2.192   3.865   4.399
 8025TIP3    H124039   2.226   3.786   4.441
 8025TIP3    H224040   2.227   3.937   4.451
 8026TIP3   OH224041   3.919   1.656   4.340
 8026TIP3    H124042   3.970   1.613   4.271
 8026TIP3    H224043   3.964   1.631   4.421
 8027TIP3   OH224044   2.872   1.575   5.806
 8027TIP3    H124045   2.846   1.667   5.810
 8027TIP3    H224046   2.872   1.555   5.712
 8028TIP3   OH224047   3.865   3.698   2.434
 8028TIP3    H124048   3.926   3.728   2.366
 8028TIP3    H224049   3.780   3.694   2.391
 8029TIP3   OH224050   3.973   1.540   1.515
 8029TIP3    H124051   3.993   1.461   1.565
 8029TIP3    H224052   3.894   1.576   1.557
 8030TIP3   OH224053   0.250   0.294   5.698
 8030TIP3    H124054   0.258   0.334   5.785
 8030TIP3    H224055   0.341   0.276   5.672
 8031TIP3   OH224056   1.147   6.343   0.674
 8031TIP3    H124057   1.156   6.382   0.587
 8031TIP3    H224058   1.060   6.370   0.703
 8032TIP3   OH224059   1.836   5.871   0.674
 8032TIP3    H124060   1.909   5.867   0.735
 8032TIP3    H224061   1.759   5.890   0.728
 8033TIP3   OH224062   5.725   4.042   0.172
 8033TIP3    H124063   5.746   4.112   0.111
 8033TIP3    H224064   5.774   3.966   0.139
 8034TIP3   OH224065   3.449   1.345   3.579
 8034TIP3    H124066   3.533   1.335   3.624
 8034TIP3    H224067   3.442   1.439   3.562
 8035TIP3   OH224068   4.652   1.378   3.714
 8035TIP3    H124069   4.676   1.403   3.803
 8035TIP3    H224070   4.722   1.319   3.685
 8036TIP3   OH224071   6.865   3.621   1.193
 8036TIP3    H124072   6.877   3.526   1.185
 8036TIP3    H224073   6.920   3.645   1.268
 8037TIP3   OH224074   0.099   4.795   4.610
 8037TIP3    H124075   0.052   4.829   4.534
 8037TIP3    H224076   0.176   4.752   4.573
 8038TIP3   OH224077   0.715   2.683   1.926
 8038TIP3    H124078   0.792   2.712   1.975
 8038TIP3    H224079   0.660   2.641   1.992
 8039TIP3   OH224080   2.334   2.115   3.759
 8039TIP3    H124081   2.345   2.084   3.849
 8039TIP3    H224082   2.415   2.090   3.715
 8040TIP3   OH224083   5.138   0.648   1.111
 8040TIP3    H124084   5.083   0.726   1.105
 8040TIP3    H224085   5.186   0.646   1.028
 8041TIP3   OH224086   4.373   1.567   1.626
 8041TIP3    H124087   4.360   1.657   1.598
 8041TIP3    H224088   4.418   1.573   1.710
 8042TIP3   OH224089   4.797   5.591   2.801
 8042TIP3    H124090   4.777   5.607   2.709
 8042TIP3    H224091   4.755   5.507   2.821
 8043TIP3   OH224092   3.907   3.576   1.374
 8043TIP3    H124093   3.921   3.486   1.403
 8043TIP3    H224094   3.992   3.618   1.388
 8044TIP3   OH224095   4.627   0.376   1.639
 8044TIP3    H124096   4.625   0.285   1.667
 8044TIP3    H224097   4.634   0.427   1.720
 8045TIP3   OH224098   1.285   2.809   4.010
 8045TIP3    H124099   1.372   2.848   4.007
 8045TIP3    H224100   1.272   2.774   3.922
 8046TIP3   OH224101   1.125   6.639   3.424
 8046TIP3    H124102   1.133   6.649   3.329
 8046TIP3    H224103   1.056   6.701   3.449
 8047TIP3   OH224104   3.651   2.550   3.983
 8047TIP3    H124105   3.569   2.502   3.979
 8047TIP3    H224106   3.685   2.532   4.071
 8048TIP3   OH224107   1.349   3.387   5.157
 8048TIP3    H124108   1.428   3.334   5.143
 8048TIP3    H224109   1.278   3.324   5.160
 8049TIP3   OH224110   7.065   1.268   1.144
 8049TIP3    H124111   7.038   1.292   1.232
 8049TIP3    H224112   7.152   1.229   1.156
 8050TIP3   OH224113   4.919   0.577   4.387
 8050TIP3    H124114   5.007   0.547   4.365
 8050TIP3    H224115   4.933   0.663   4.428
 8051TIP3   OH224116   1.681   1.812   1.947
 8051TIP3    H124117   1.630   1.870   2.003
 8051TIP3    H224118   1.767   1.806   1.990
 8052TIP3   OH224119   2.423   0.279   1.470
 8052TIP3    H124120   2.505   0.265   1.422
 8052TIP3    H224121   2.450   0.287   1.561
 8053TIP3   OH224122   5.528   0.518   1.109
 8053TIP3    H124123   5.544   0.608   1.138
 8053TIP3    H224124   5.444   0.495   1.150
 8054TIP3   OH224125   1.809   6.508   4.589
 8054TIP3    H124126   1.807   6.601   4.570
 8054TIP3    H224127   1.876   6.499   4.658
 8055TIP3   OH224128   2.432   2.031   4.861
 8055TIP3    H124129   2.437   1.956   4.920
 8055TIP3    H224130   2.340   2.034   4.834
 8056TIP3   OH224131   3.760   3.131   0.124
 8056TIP3    H124132   3.730   3.114   0.214
 8056TIP3    H224133   3.855   3.121   0.128
 8057TIP3   OH224134   0.171   5.145   4.775
 8057TIP3    H124135   0.262   5.151   4.747
 8057TIP3    H224136   0.150   5.231   4.810
 8058TIP3   OH224137   6.778   0.140   3.803
 8058TIP3    H124138   6.699   0.160   3.753
 8058TIP3    H224139   6.846   0.196   3.764
 8059TIP3   OH224140   7.155   2.109   0.579
 8059TIP3    H124141   7.250   2.095   0.585
 8059TIP3    H224142   7.118   2.027   0.612
 8060TIP3   OH224143   4.459   3.234   1.531
 8060TIP3    H124144   4.396   3.250   1.600
 8060TIP3    H224145   4.499   3.150   1.553
 8061TIP3   OH224146   6.888   0.764   4.796
 8061TIP3    H124147   6.877   0.681   4.749
 8061TIP3    H224148   6.798   0.794   4.814
 8062TIP3   OH224149   3.365   1.742   2.872
 8062TIP3    H124150   3.298   1.690   2.915
 8062TIP3    H224151   3.384   1.695   2.791
 8063TIP3   OH224152   6.120   0.064   5.777
 8063TIP3    H124153   6.185   0.097   5.713
 8063TIP3    H224154   6.139   0.113   5.857
 8064TIP3   OH224155   0.381   4.948   4.203
 8064TIP3    H124156   0.380   5.039   4.176
 8064TIP3    H224157   0.343   4.949   4.291
 8065TIP3   OH224158   0.609   4.598   4.480
 8065TIP3    H124159   0.623   4.633   4.392
 8065TIP3    H224160   0.696   4.589   4.517
 8066TIP3   OH224161   6.400   4.869   0.777
 8066TIP3    H124162   6.436   4.831   0.697
 8066TIP3    H224163   6.405   4.964   0.762
 8067TIP3   OH224164   2.644   4.298   0.473
 8067TIP3    H124165   2.699   4.222   0.453
 8067TIP3    H224166   2.646   4.304   0.569
 8068TIP3   OH224167   3.795   5.604   2.297
 8068TIP3    H124168   3.775   5.562   2.381
 8068TIP3    H224169   3.797   5.531   2.234
 8069TIP3   OH224170   1.161   1.908   4.874
 8069TIP3    H124171   1.157   1.960   4.794
 8069TIP3    H224172   1.231   1.845   4.859
 8070TIP3   OH224173   4.726   0.971   2.233
 8070TIP3    H124174   4.685   0.885   2.239
 8070TIP3    H224175   4.693   1.009   2.152
 8071TIP3   OH224176   6.031   6.699   0.923
 8071TIP3    H124177   6.070   6.616   0.896
 8071TIP3    H224178   5.954   6.708   0.868
 8072TIP3   OH224179   4.012   2.564   3.426
 8072TIP3    H124180   4.063   2.631   3.382
 8072TIP3    H224181   3.992   2.601   3.512
 8073TIP3   OH224182   2.276   1.566   4.618
 8073TIP3    H124183   2.237   1.482   4.596
 8073TIP3    H224184   2.360   1.544   4.659
 8074TIP3   OH224185   5.337   1.482   1.284
 8074TIP3    H124186   5.312   1.563   1.239
 8074TIP3    H224187   5.422   1.501   1.324
 8075TIP3   OH224188   2.768   5.179   4.747
 8075TIP3    H124189   2.762   5.161   4.653
 8075TIP3    H224190   2.777   5.093   4.787
 8076TIP3   OH224191   5.122   1.197   2.982
 8076TIP3    H124192   5.070   1.125   3.019
 8076TIP3    H224193   5.211   1.162   2.978
 8077TIP3   OH224194   4.679   6.565   3.718
 8077TIP3    H124195   4.655   6.654   3.695
 8077TIP3    H224196   4.598   6.514   3.706
 8078TIP3   OH224197   0.980   2.250   3.695
 8078TIP3    H124198   0.914   2.316   3.674
 8078TIP3    H224199   1.059   2.280   3.652
 8079TIP3   OH224200   3.139   5.757   3.932
 8079TIP3    H124201   3.054   5.773   3.890
 8079TIP3    H224202   3.202   5.759   3.860
 8080TIP3   OH224203   4.451   1.563   0.564
 8080TIP3    H124204   4.378   1.505   0.542
 8080TIP3    H224205   4.437   1.642   0.513
 8081TIP3   OH224206   1.894   3.443   1.769
 8081TIP3    H124207   1.855   3.383   1.705
 8081TIP3    H224208   1.933   3.512   1.716
 8082TIP3   OH224209   1.555   4.267   1.893
 8082TIP3    H124210   1.522   4.228   1.974
 8082TIP3    H224211   1.482   4.259   1.831
 8083TIP3   OH224212   6.098   5.192   5.025
 8083TIP3    H124213   6.069   5.261   5.085
 8083TIP3    H224214   6.017   5.150   4.995
 8084TIP3   OH224215   1.264   1.748   3.962
 8084TIP3    H124216   1.289   1.749   3.869
 8084TIP3    H224217   1.337   1.790   4.007
 8085TIP3   OH224218   6.828   6.164   0.443
 8085TIP3    H124219   6.862   6.089   0.492
 8085TIP3    H224220   6.881   6.238   0.475
 8086TIP3   OH224221   5.522   6.318   3.403
 8086TIP3    H124222   5.534   6.412   3.391
 8086TIP3    H224223   5.609   6.286   3.428
 8087TIP3   OH224224   4.846   0.323   0.107
 8087TIP3    H124225   4.847   0.286   0.019
 8087TIP3    H224226   4.792   0.263   0.158
 8088TIP3   OH224227   6.358   3.134   3.523
 8088TIP3    H124228   6.409   3.054   3.513
 8088TIP3    H224229   6.351   3.147   3.618
 8089TIP3   OH224230   5.265   6.331   5.275
 8089TIP3    H124231   5.171   6.337   5.260
 8089TIP3    H224232   5.295   6.263   5.214
 8090TIP3   OH224233   0.826   6.639   3.810
 8090TIP3    H124234   0.898   6.684   3.854
 8090TIP3    H224235   0.748   6.661   3.862
 8091TIP3   OH224236   1.319   2.632   0.381
 8091TIP3    H124237   1.297   2.604   0.470
 8091TIP3    H224238   1.342   2.725   0.391
 8092TIP3   OH224239   2.973   4.734   5.817
 8092TIP3    H124240   2.913   4.809   5.816
 8092TIP3    H224241   2.916   4.658   5.811
 8093TIP3   OH224242   6.423   0.305   0.366
 8093TIP3    H124243   6.334   0.341   0.357
 8093TIP3    H224244   6.479   0.382   0.367
 8094TIP3   OH224245   5.649   0.637   0.293
 8094TIP3    H124246   5.646   0.547   0.261
 8094TIP3    H224247   5.559   0.656   0.321
 8095TIP3   OH224248   5.065   1.742   5.008
 8095TIP3    H124249   5.039   1.684   4.936
 8095TIP3    H224250   4.982   1.775   5.043
 8096TIP3   OH224251   7.021   6.116   5.520
 8096TIP3    H124252   7.053   6.094   5.433
 8096TIP3    H224253   6.999   6.032   5.560
 8097TIP3   OH224254   6.691   1.048   4.840
 8097TIP3    H124255   6.705   1.000   4.759
 8097TIP3    H224256   6.613   1.009   4.879
 8098TIP3   OH224257   1.298   0.636   0.057
 8098TIP3    H124258   1.382   0.640   0.012
 8098TIP3    H224259   1.244   0.701   0.012
 8099TIP3   OH224260   5.421   2.734   5.109
 8099TIP3    H124261   5.516   2.737   5.120
 8099TIP3    H224262   5.388   2.807   5.162
 8100TIP3   OH224263   4.338   5.387   5.824
 8100TIP3    H124264   4.361   5.300   5.856
 8100TIP3    H224265   4.243   5.384   5.813
 8101TIP3   OH224266   4.359   5.816   5.315
 8101TIP3    H124267   4.338   5.885   5.378
 8101TIP3    H224268   4.316   5.738   5.350
 8102TIP3   OH224269   4.835   1.996   2.068
 8102TIP3    H124270   4.900   1.943   2.023
 8102TIP3    H224271   4.886   2.051   2.128
 8103TIP3   OH224272   2.969   6.569   2.346
 8103TIP3    H124273   2.969   6.572   2.442
 8103TIP3    H224274   2.946   6.479   2.325
 8104TIP3   OH224275   3.778   4.880   2.555
 8104TIP3    H124276   3.689   4.847   2.564
 8104TIP3    H224277   3.797   4.874   2.462
 8105TIP3   OH224278   2.209   2.456   4.039
 8105TIP3    H124279   2.140   2.479   4.101
 8105TIP3    H224280   2.278   2.418   4.093
 8106TIP3   OH224281   4.145   0.181   5.374
 8106TIP3    H124282   4.160   0.232   5.295
 8106TIP3    H224283   4.051   0.161   5.372
 8107TIP3   OH224284   1.661   5.257   1.563
 8107TIP3    H124285   1.653   5.202   1.641
 8107TIP3    H224286   1.738   5.223   1.518
 8108TIP3   OH224287   1.051   0.885   0.419
 8108TIP3    H124288   1.067   0.810   0.476
 8108TIP3    H224289   0.977   0.930   0.459
 8109TIP3   OH224290   5.781   4.549   0.458
 8109TIP3    H124291   5.809   4.626   0.409
 8109TIP3    H224292   5.799   4.475   0.399
 8110TIP3   OH224293   3.618   5.174   5.451
 8110TIP3    H124294   3.592   5.119   5.524
 8110TIP3    H224295   3.563   5.145   5.378
 8111TIP3   OH224296   3.639   1.312   1.970
 8111TIP3    H124297   3.728   1.289   1.946
 8111TIP3    H224298   3.638   1.307   2.066
 8112TIP3   OH224299   3.587   0.569   3.436
 8112TIP3    H124300   3.660   0.534   3.384
 8112TIP3    H224301   3.519   0.502   3.429
 8113TIP3   OH224302   0.310   4.094   2.459
 8113TIP3    H124303   0.279   4.052   2.539
 8113TIP3    H224304   0.240   4.155   2.436
 8114TIP3   OH224305   7.088   0.246   5.519
 8114TIP3    H124306   7.124   0.323   5.563
 8114TIP3    H224307   7.086   0.269   5.427
 8115TIP3   OH224308   1.715   3.822   0.118
 8115TIP3    H124309   1.637   3.877   0.110
 8115TIP3    H224310   1.780   3.878   0.160
 8116TIP3   OH224311   3.171   2.891   0.904
 8116TIP3    H124312   3.207   2.968   0.861
 8116TIP3    H224313   3.079   2.911   0.918
 8117TIP3   OH224314   2.023   1.099   4.900
 8117TIP3    H124315   1.974   1.181   4.907
 8117TIP3    H224316   1.970   1.045   4.841
 8118TIP3   OH224317   0.203   4.367   0.750
 8118TIP3    H124318   0.119   4.387   0.708
 8118TIP3    H224319   0.201   4.272   0.764
 8119TIP3   OH224320   3.101   2.819   5.252
 8119TIP3    H124321   3.195   2.810   5.270
 8119TIP3    H224322   3.059   2.815   5.338
 8120TIP3   OH224323   4.058   0.333   3.416
 8120TIP3    H124324   4.016   0.258   3.457
 8120TIP3    H224325   4.096   0.298   3.335
 8121TIP3   OH224326   2.684   3.924   5.592
 8121TIP3    H124327   2.702   3.850   5.650
 8121TIP3    H224328   2.766   3.974   5.590
 8122TIP3   OH224329   5.491   2.483   0.513
 8122TIP3    H124330   5.470   2.389   0.515
 8122TIP3    H224331   5.425   2.520   0.454
 8123TIP3   OH224332   6.735   6.194   2.889
 8123TIP3    H124333   6.829   6.180   2.903
 8123TIP3    H224334   6.720   6.284   2.915
 8124TIP3   OH224335   5.031   5.033   0.449
 8124TIP3    H124336   5.086   5.078   0.513
 8124TIP3    H224337   5.086   5.027   0.371
 8125TIP3   OH224338   6.469   0.353   3.529
 8125TIP3    H124339   6.447   0.326   3.440
 8125TIP3    H224340   6.529   0.286   3.561
 8126TIP3   OH224341   6.546   3.261   4.343
 8126TIP3    H124342   6.502   3.304   4.270
 8126TIP3    H224343   6.628   3.310   4.354
 8127TIP3   OH224344   3.405   3.479   2.009
 8127TIP3    H124345   3.332   3.519   2.056
 8127TIP3    H224346   3.388   3.385   2.014
 8128TIP3   OH224347   5.062   3.675   3.205
 8128TIP3    H124348   5.066   3.676   3.109
 8128TIP3    H224349   5.011   3.752   3.228
 8129TIP3   OH224350   1.330   2.682   4.390
 8129TIP3    H124351   1.358   2.769   4.417
 8129TIP3    H224352   1.390   2.657   4.320
 8130TIP3   OH224353   1.008   3.118   2.193
 8130TIP3    H124354   0.924   3.158   2.218
 8130TIP3    H224355   1.046   3.089   2.276
 8131TIP3   OH224356   6.276   4.054   3.544
 8131TIP3    H124357   6.183   4.054   3.566
 8131TIP3    H224358   6.319   4.088   3.623
 8132TIP3   OH224359   0.332   3.773   2.922
 8132TIP3    H124360   0.286   3.779   3.006
 8132TIP3    H224361   0.422   3.797   2.942
 8133TIP3   OH224362   4.705   2.541   4.132
 8133TIP3    H124363   4.701   2.549   4.037
 8133TIP3    H224364   4.736   2.452   4.148
 8134TIP3   OH224365   4.471   5.281   2.448
 8134TIP3    H124366   4.468   5.284   2.544
 8134TIP3    H224367   4.495   5.370   2.422
 8135TIP3   OH224368   0.218   3.883   1.846
 8135TIP3    H124369   0.265   3.831   1.912
 8135TIP3    H224370   0.287   3.923   1.793
 8136TIP3   OH224371   2.454   0.452   1.105
 8136TIP3    H124372   2.436   0.382   1.043
 8136TIP3    H224373   2.549   0.451   1.115
 8137TIP3   OH224374   6.101   1.541   0.317
 8137TIP3    H124375   6.100   1.461   0.265
 8137TIP3    H224376   6.170   1.594   0.278
 8138TIP3   OH224377   6.244   4.820   2.882
 8138TIP3    H124378   6.188   4.826   2.804
 8138TIP3    H224379   6.187   4.785   2.950
 8139TIP3   OH224380   1.446   6.129   1.955
 8139TIP3    H124381   1.501   6.099   2.028
 8139TIP3    H224382   1.482   6.214   1.931
 8140TIP3   OH224383   1.469   5.077   2.828
 8140TIP3    H124384   1.536   5.143   2.844
 8140TIP3    H224385   1.425   5.106   2.748
 8141TIP3   OH224386   2.467   0.823   2.997
 8141TIP3    H124387   2.450   0.744   2.945
 8141TIP3    H224388   2.535   0.870   2.950
 8142TIP3   OH224389   3.022   0.029   1.597
 8142TIP3    H124390   3.094   0.008   1.656
 8142TIP3    H224391   3.064   0.038   1.511
 8143TIP3   OH224392   0.056   5.227   3.499
 8143TIP3    H124393   0.146   5.197   3.484
 8143TIP3    H224394   0.011   5.152   3.539
 8144TIP3   OH224395   2.518   1.786   0.792
 8144TIP3    H124396   2.482   1.819   0.709
 8144TIP3    H224397   2.557   1.863   0.833
 8145TIP3   OH224398   6.210   0.085   4.811
 8145TIP3    H124399   6.247   0.014   4.863
 8145TIP3    H224400   6.245   0.165   4.851
 8146TIP3   OH224401   2.675   0.916   2.850
 8146TIP3    H124402   2.720   0.831   2.844
 8146TIP3    H224403   2.746   0.980   2.850
 8147TIP3   OH224404   3.533   1.618   4.814
 8147TIP3    H124405   3.481   1.591   4.890
 8147TIP3    H224406   3.594   1.683   4.849
 8148TIP3   OH224407   2.730   0.008   3.429
 8148TIP3    H124408   2.770   0.050   3.506
 8148TIP3    H224409   2.701   0.080   3.374
 8149TIP3   OH224410   5.145   4.867   4.847
 8149TIP3    H124411   5.120   4.930   4.915
 8149TIP3    H224412   5.192   4.798   4.894
 8150TIP3   OH224413   2.720   4.482   2.759
 8150TIP3    H124414   2.779   4.542   2.804
 8150TIP3    H224415   2.768   4.399   2.755
 8151TIP3   OH224416   3.161   6.168   1.986
 8151TIP3    H124417   3.206   6.253   1.987
 8151TIP3    H224418   3.076   6.186   1.947
 8152TIP3   OH224419   5.919   5.732   3.867
 8152TIP3    H124420   6.004   5.738   3.823
 8152TIP3    H224421   5.862   5.789   3.815
 8153TIP3   OH224422   3.505   2.510   4.918
 8153TIP3    H124423   3.434   2.566   4.886
 8153TIP3    H224424   3.583   2.565   4.913
 8154TIP3   OH224425   4.969   1.547   5.787
 8154TIP3    H124426   5.009   1.558   5.701
 8154TIP3    H224427   4.964   1.636   5.823
 8155TIP3   OH224428   3.652   3.509   1.891
 8155TIP3    H124429   3.559   3.495   1.906
 8155TIP3    H224430   3.689   3.518   1.979
 8156TIP3   OH224431   4.265   4.993   5.129
 8156TIP3    H124432   4.213   4.961   5.203
 8156TIP3    H224433   4.268   5.088   5.141
 8157TIP3   OH224434   3.363   1.718   0.323
 8157TIP3    H124435   3.320   1.636   0.348
 8157TIP3    H224436   3.369   1.714   0.228
 8158TIP3   OH224437   2.527   0.796   3.311
 8158TIP3    H124438   2.566   0.721   3.265
 8158TIP3    H224439   2.496   0.759   3.394
 8159TIP3   OH224440   5.648   6.539   5.860
 8159TIP3    H124441   5.584   6.484   5.815
 8159TIP3    H224442   5.652   6.619   5.807
 8160TIP3   OH224443   2.129   3.230   2.733
 8160TIP3    H124444   2.172   3.303   2.778
 8160TIP3    H224445   2.043   3.225   2.773
 8161TIP3   OH224446   5.765   4.009   2.862
 8161TIP3    H124447   5.796   3.919   2.846
 8161TIP3    H224448   5.838   4.051   2.908
 8162TIP3   OH224449   4.800   2.673   0.893
 8162TIP3    H124450   4.830   2.764   0.895
 8162TIP3    H224451   4.706   2.679   0.879
 8163TIP3   OH224452   1.392   4.837   2.336
 8163TIP3    H124453   1.487   4.846   2.342
 8163TIP3    H224454   1.358   4.926   2.348
 8164TIP3   OH224455   5.306   1.739   2.361
 8164TIP3    H124456   5.379   1.730   2.301
 8164TIP3    H224457   5.229   1.744   2.305
 8165TIP3   OH224458   4.410   3.015   5.427
 8165TIP3    H124459   4.409   3.077   5.354
 8165TIP3    H224460   4.473   3.053   5.489
 8166TIP3   OH224461   4.678   1.715   2.173
 8166TIP3    H124462   4.680   1.640   2.114
 8166TIP3    H224463   4.715   1.787   2.122
 8167TIP3   OH224464   5.960   0.062   1.335
 8167TIP3    H124465   5.994  -0.021   1.365
 8167TIP3    H224466   6.014   0.128   1.378
 8168TIP3   OH224467   2.861   6.609   0.296
 8168TIP3    H124468   2.852   6.667   0.220
 8168TIP3    H224469   2.934   6.551   0.273
 8169TIP3   OH224470   3.114   1.302   1.834
 8169TIP3    H124471   3.089   1.211   1.820
 8169TIP3    H224472   3.093   1.345   1.751
 8170TIP3   OH224473   1.218   3.542   3.919
 8170TIP3    H124474   1.129   3.513   3.899
 8170TIP3    H224475   1.210   3.636   3.934
 8171TIP3   OH224476   1.465   4.412   4.395
 8171TIP3    H124477   1.502   4.324   4.404
 8171TIP3    H224478   1.495   4.459   4.472
 8172TIP3   OH224479   6.034   5.994   4.486
 8172TIP3    H124480   6.020   5.903   4.460
 8172TIP3    H224481   6.108   6.023   4.431
 8173TIP3   OH224482   2.303   5.453   3.873
 8173TIP3    H124483   2.233   5.448   3.938
 8173TIP3    H224484   2.277   5.526   3.816
 8174TIP3   OH224485   2.450   0.315   0.632
 8174TIP3    H124486   2.528   0.342   0.584
 8174TIP3    H224487   2.430   0.389   0.689
 8175TIP3   OH224488   5.218   3.235   1.464
 8175TIP3    H124489   5.128   3.257   1.485
 8175TIP3    H224490   5.229   3.261   1.373
 8176TIP3   OH224491   5.449   5.194   4.260
 8176TIP3    H124492   5.534   5.206   4.304
 8176TIP3    H224493   5.462   5.231   4.173
 8177TIP3   OH224494   0.594   4.496   5.324
 8177TIP3    H124495   0.595   4.555   5.249
 8177TIP3    H224496   0.609   4.553   5.400
 8178TIP3   OH224497   1.628   4.985   4.765
 8178TIP3    H124498   1.644   4.916   4.828
 8178TIP3    H224499   1.715   5.014   4.739
 8179TIP3   OH224500   4.267   0.192   4.148
 8179TIP3    H124501   4.354   0.225   4.167
 8179TIP3    H224502   4.228   0.258   4.091
 8180TIP3   OH224503   3.931   5.950   2.886
 8180TIP3    H124504   3.867   5.940   2.957
 8180TIP3    H224505   4.005   5.994   2.928
 8181TIP3   OH224506   5.224   5.886   3.825
 8181TIP3    H124507   5.252   5.802   3.861
 8181TIP3    H224508   5.128   5.885   3.832
 8182TIP3   OH224509   7.008   3.947   3.436
 8182TIP3    H124510   6.972   4.033   3.413
 8182TIP3    H224511   6.933   3.888   3.435
 8183TIP3   OH224512   6.573   6.725   0.214
 8183TIP3    H124513   6.583   6.708   0.121
 8183TIP3    H224514   6.642   6.788   0.235
 8184TIP3   OH224515   0.126   0.076   3.662
 8184TIP3    H124516   0.031   0.069   3.661
 8184TIP3    H224517   0.144   0.165   3.632
 8185TIP3   OH224518   2.401   4.574   1.608
 8185TIP3    H124519   2.375   4.484   1.630
 8185TIP3    H224520   2.367   4.588   1.520
 8186TIP3   OH224521   5.412   2.933   5.312
 8186TIP3    H124522   5.429   3.023   5.283
 8186TIP3    H224523   5.321   2.933   5.341
 8187TIP3   OH224524   2.021   6.821   3.630
 8187TIP3    H124525   2.019   6.729   3.604
 8187TIP3    H224526   1.933   6.838   3.663
 8188TIP3   OH224527   0.836   3.899   0.479
 8188TIP3    H124528   0.777   3.824   0.485
 8188TIP3    H224529   0.786   3.972   0.516
 8189TIP3   OH224530   2.399   2.162   1.015
 8189TIP3    H124531   2.390   2.139   1.107
 8189TIP3    H224532   2.329   2.114   0.971
 8190TIP3   OH224533   2.673   4.740   1.222
 8190TIP3    H124534   2.702   4.666   1.170
 8190TIP3    H224535   2.737   4.747   1.293
 8191TIP3   OH224536   5.278   3.268   4.229
 8191TIP3    H124537   5.246   3.237   4.144
 8191TIP3    H224538   5.357   3.317   4.208
 8192TIP3   OH224539   6.914   3.455   5.560
 8192TIP3    H124540   6.829   3.420   5.587
 8192TIP3    H224541   6.895   3.508   5.483
 8193TIP3   OH224542   2.256   0.966   1.928
 8193TIP3    H124543   2.330   0.999   1.980
 8193TIP3    H224544   2.279   0.988   1.838
 8194TIP3   OH224545   4.639   3.392   3.018
 8194TIP3    H124546   4.713   3.451   2.999
 8194TIP3    H224547   4.650   3.369   3.110
 8195TIP3   OH224548   0.573   5.521   0.547
 8195TIP3    H124549   0.574   5.509   0.452
 8195TIP3    H224550   0.483   5.501   0.573
 8196TIP3   OH224551   4.237   2.498   5.278
 8196TIP3    H124552   4.287   2.572   5.242
 8196TIP3    H224553   4.302   2.448   5.329
 8197TIP3   OH224554   2.573   5.325   4.969
 8197TIP3    H124555   2.515   5.336   4.894
 8197TIP3    H224556   2.519   5.282   5.035
 8198TIP3   OH224557   2.598   1.084   4.062
 8198TIP3    H124558   2.532   1.109   4.127
 8198TIP3    H224559   2.574   1.133   3.983
 8199TIP3   OH224560   6.895   1.104   3.390
 8199TIP3    H124561   6.982   1.107   3.429
 8199TIP3    H224562   6.889   1.016   3.352
 8200TIP3   OH224563   6.137   0.530   0.068
 8200TIP3    H124564   6.225   0.540   0.032
 8200TIP3    H224565   6.090   0.477   0.003
 8201TIP3   OH224566   2.822   1.038   1.355
 8201TIP3    H124567   2.795   1.068   1.268
 8201TIP3    H224568   2.741   1.012   1.398
 8202TIP3   OH224569   0.065   5.667   3.160
 8202TIP3    H124570   0.119   5.661   3.081
 8202TIP3    H224571   0.126   5.692   3.229
 8203TIP3   OH224572   0.244   1.358   0.849
 8203TIP3    H124573   0.263   1.378   0.941
 8203TIP3    H224574   0.291   1.276   0.832
 8204TIP3   OH224575   1.235   5.472   3.249
 8204TIP3    H124576   1.306   5.535   3.235
 8204TIP3    H224577   1.228   5.466   3.345
 8205TIP3   OH224578   1.498   0.723   0.290
 8205TIP3    H124579   1.446   0.659   0.241
 8205TIP3    H224580   1.472   0.807   0.253
 8206TIP3   OH224581   5.043   2.589   2.928
 8206TIP3    H124582   5.073   2.540   3.005
 8206TIP3    H224583   4.984   2.529   2.883
 8207TIP3   OH224584   3.735   3.648   5.461
 8207TIP3    H124585   3.759   3.699   5.538
 8207TIP3    H224586   3.667   3.700   5.418
 8208TIP3   OH224587   4.225   5.542   4.145
 8208TIP3    H124588   4.307   5.579   4.178
 8208TIP3    H224589   4.158   5.604   4.173
 8209TIP3   OH224590   5.049   4.140   5.481
 8209TIP3    H124591   5.027   4.057   5.439
 8209TIP3    H224592   5.097   4.189   5.414
 8210TIP3   OH224593   6.821   6.215   1.914
 8210TIP3    H124594   6.761   6.274   1.959
 8210TIP3    H224595   6.772   6.134   1.904
 8211TIP3   OH224596   5.856   6.777   4.273
 8211TIP3    H124597   5.931   6.804   4.326
 8211TIP3    H224598   5.780   6.819   4.315
 8212TIP3   OH224599   0.753   3.366   4.082
 8212TIP3    H124600   0.758   3.271   4.085
 8212TIP3    H224601   0.762   3.394   4.173
 8213TIP3   OH224602   1.169   5.718   5.576
 8213TIP3    H124603   1.262   5.701   5.565
 8213TIP3    H224604   1.148   5.783   5.510
 8214TIP3   OH224605   0.392   4.291   4.333
 8214TIP3    H124606   0.386   4.330   4.247
 8214TIP3    H224607   0.314   4.236   4.341
 8215TIP3   OH224608   4.921   3.030   1.773
 8215TIP3    H124609   4.999   3.086   1.771
 8215TIP3    H224610   4.910   3.008   1.866
 8216TIP3   OH224611   5.620   6.611   0.661
 8216TIP3    H124612   5.529   6.585   0.678
 8216TIP3    H224613   5.615   6.706   0.646
 8217TIP3   OH224614   1.146   0.637   2.867
 8217TIP3    H124615   1.233   0.652   2.829
 8217TIP3    H224616   1.085   0.670   2.801
 8218TIP3   OH224617   5.504   0.992   0.272
 8218TIP3    H124618   5.581   1.019   0.321
 8218TIP3    H224619   5.537   0.966   0.186
 8219TIP3   OH224620   2.424   6.469   4.865
 8219TIP3    H124621   2.412   6.401   4.799
 8219TIP3    H224622   2.518   6.465   4.886
 8220TIP3   OH224623   0.941   4.441   1.937
 8220TIP3    H124624   0.934   4.449   2.032
 8220TIP3    H224625   0.932   4.348   1.920
 8221TIP3   OH224626   1.564   2.632   3.842
 8221TIP3    H124627   1.561   2.689   3.918
 8221TIP3    H224628   1.609   2.683   3.775
 8222TIP3   OH224629   2.429   5.618   0.403
 8222TIP3    H124630   2.344   5.612   0.447
 8222TIP3    H224631   2.490   5.573   0.461
 8223TIP3   OH224632   1.579   6.441   5.785
 8223TIP3    H124633   1.644   6.381   5.748
 8223TIP3    H224634   1.556   6.402   5.869
 8224TIP3   OH224635   6.878   1.164   1.835
 8224TIP3    H124636   6.785   1.187   1.825
 8224TIP3    H224637   6.890   1.088   1.779
 8225TIP3   OH224638   2.113   1.493   3.891
 8225TIP3    H124639   2.197   1.463   3.928
 8225TIP3    H224640   2.068   1.413   3.865
 8226TIP3   OH224641   2.111   5.847   4.201
 8226TIP3    H124642   2.139   5.865   4.111
 8226TIP3    H224643   2.191   5.859   4.253
 8227TIP3   OH224644   3.233   0.635   1.563
 8227TIP3    H124645   3.304   0.680   1.517
 8227TIP3    H224646   3.176   0.602   1.493
 8228TIP3   OH224647   5.208   0.274   3.728
 8228TIP3    H124648   5.266   0.343   3.760
 8228TIP3    H224649   5.264   0.217   3.676
 8229TIP3   OH224650   1.806   1.456   1.959
 8229TIP3    H124651   1.764   1.533   1.921
 8229TIP3    H224652   1.784   1.385   1.898
 8230TIP3   OH224653   5.620   1.847   0.080
 8230TIP3    H124654   5.651   1.771   0.130
 8230TIP3    H224655   5.588   1.810  -0.002
 8231TIP3   OH224656   2.208   0.830   1.237
 8231TIP3    H124657   2.264   0.855   1.164
 8231TIP3    H224658   2.230   0.738   1.253
 8232TIP3   OH224659   5.975   1.276   0.760
 8232TIP3    H124660   5.913   1.278   0.834
 8232TIP3    H224661   6.047   1.332   0.788
 8233TIP3   OH224662   3.182   4.991   2.721
 8233TIP3    H124663   3.163   5.079   2.753
 8233TIP3    H224664   3.207   4.941   2.799
 8234TIP3   OH224665   6.769   3.946   4.118
 8234TIP3    H124666   6.713   4.023   4.125
 8234TIP3    H224667   6.848   3.978   4.074
 8235TIP3   OH224668   5.082   0.491   5.090
 8235TIP3    H124669   5.107   0.489   5.182
 8235TIP3    H224670   5.158   0.529   5.045
 8236TIP3   OH224671   1.351   3.062   5.071
 8236TIP3    H124672   1.440   3.082   5.044
 8236TIP3    H224673   1.347   3.091   5.162
 8237TIP3   OH224674   5.809   2.332   2.357
 8237TIP3    H124675   5.716   2.345   2.338
 8237TIP3    H224676   5.843   2.286   2.281
 8238TIP3   OH224677   5.609   3.328   0.211
 8238TIP3    H124678   5.654   3.245   0.200
 8238TIP3    H224679   5.661   3.391   0.161
 8239TIP3   OH224680   4.973   4.087   3.509
 8239TIP3    H124681   4.941   4.100   3.598
 8239TIP3    H224682   5.068   4.097   3.516
 8240TIP3   OH224683   5.771   3.994   4.529
 8240TIP3    H124684   5.778   3.921   4.590
 8240TIP3    H224685   5.678   4.016   4.527
 8241TIP3   OH224686   4.193   4.691   4.541
 8241TIP3    H124687   4.126   4.731   4.485
 8241TIP3    H224688   4.273   4.740   4.522
 8242TIP3   OH224689   4.193   6.256   2.345
 8242TIP3    H124690   4.134   6.331   2.333
 8242TIP3    H224691   4.217   6.259   2.437
 8243TIP3   OH224692   3.145   0.028   1.042
 8243TIP3    H124693   3.054   0.015   1.013
 8243TIP3    H224694   3.197  -0.022   0.980
 8244TIP3   OH224695   2.972   1.579   1.399
 8244TIP3    H124696   3.019   1.557   1.318
 8244TIP3    H224697   2.951   1.672   1.390
 8245TIP3   OH224698   3.571   1.717   3.218
 8245TIP3    H124699   3.571   1.648   3.152
 8245TIP3    H224700   3.645   1.773   3.194
 8246TIP3   OH224701   2.040   4.784   0.781
 8246TIP3    H124702   1.954   4.823   0.801
 8246TIP3    H224703   2.103   4.842   0.822
 8247TIP3   OH224704   5.630   4.337   1.375
 8247TIP3    H124705   5.653   4.295   1.459
 8247TIP3    H224706   5.610   4.263   1.317
 8248TIP3   OH224707   3.368   4.011   1.661
 8248TIP3    H124708   3.312   3.933   1.658
 8248TIP3    H224709   3.390   4.021   1.754
 8249TIP3   OH224710   6.606   1.875   5.093
 8249TIP3    H124711   6.695   1.858   5.124
 8249TIP3    H224712   6.592   1.809   5.024
 8250TIP3   OH224713   2.819   2.188   2.365
 8250TIP3    H124714   2.889   2.250   2.383
 8250TIP3    H224715   2.833   2.160   2.275
 8251TIP3   OH224716   4.449   6.594   2.017
 8251TIP3    H124717   4.371   6.547   1.986
 8251TIP3    H224718   4.465   6.557   2.104
 8252TIP3   OH224719   0.060   2.393   1.484
 8252TIP3    H124720   0.119   2.464   1.508
 8252TIP3    H224721  -0.023   2.437   1.463
 8253TIP3   OH224722   7.184   5.140   2.106
 8253TIP3    H124723   7.224   5.155   2.191
 8253TIP3    H224724   7.111   5.081   2.124
 8254TIP3   OH224725   1.438   2.977   3.845
 8254TIP3    H124726   1.527   3.005   3.862
 8254TIP3    H224727   1.387   3.058   3.842
 8255TIP3   OH224728   4.516   3.717   3.774
 8255TIP3    H124729   4.610   3.721   3.795
 8255TIP3    H224730   4.493   3.808   3.754
 8256TIP3   OH224731   5.751   6.362   2.549
 8256TIP3    H124732   5.727   6.432   2.488
 8256TIP3    H224733   5.823   6.399   2.601
 8257TIP3   OH224734   2.070   2.892   3.151
 8257TIP3    H124735   2.127   2.863   3.223
 8257TIP3    H224736   1.998   2.829   3.151
 8258TIP3   OH224737   3.960   1.630   2.827
 8258TIP3    H124738   3.955   1.560   2.892
 8258TIP3    H224739   3.880   1.681   2.841
 8259TIP3   OH224740   4.214   5.192   3.889
 8259TIP3    H124741   4.229   5.245   3.811
 8259TIP3    H224742   4.274   5.229   3.954
 8260TIP3   OH224743   1.931   0.839   1.198
 8260TIP3    H124744   1.920   0.829   1.104
 8260TIP3    H224745   2.020   0.872   1.208
 8261TIP3   OH224746   4.856   4.256   0.035
 8261TIP3    H124747   4.896   4.188  -0.019
 8261TIP3    H224748   4.859   4.221   0.124
 8262TIP3   OH224749   5.416   1.163   2.258
 8262TIP3    H124750   5.465   1.138   2.180
 8262TIP3    H224751   5.442   1.100   2.325
 8263TIP3   OH224752   5.323   2.611   0.079
 8263TIP3    H124753   5.331   2.679   0.011
 8263TIP3    H224754   5.323   2.529   0.030
 8264TIP3   OH224755   0.862   4.118   4.699
 8264TIP3    H124756   0.771   4.140   4.720
 8264TIP3    H224757   0.911   4.199   4.718
 8265TIP3   OH224758   1.917   2.475   4.015
 8265TIP3    H124759   1.965   2.398   3.983
 8265TIP3    H224760   1.836   2.439   4.050
 8266TIP3   OH224761   7.036   6.774   2.037
 8266TIP3    H124762   7.042   6.865   2.063
 8266TIP3    H224763   7.012   6.727   2.117
 8267TIP3   OH224764   1.780   4.581   4.725
 8267TIP3    H124765   1.843   4.559   4.657
 8267TIP3    H224766   1.695   4.561   4.686
 8268TIP3   OH224767   2.864   1.695   1.774
 8268TIP3    H124768   2.958   1.711   1.774
 8268TIP3    H224769   2.846   1.658   1.861
 8269TIP3   OH224770   2.477   3.947   1.133
 8269TIP3    H124771   2.554   3.930   1.078
 8269TIP3    H224772   2.512   3.953   1.222
 8270TIP3   OH224773   5.422   0.787   4.057
 8270TIP3    H124774   5.407   0.737   4.137
 8270TIP3    H224775   5.516   0.783   4.043
 8271TIP3   OH224776   0.977   1.698   2.136
 8271TIP3    H124777   0.911   1.729   2.197
 8271TIP3    H224778   1.004   1.776   2.088
 8272TIP3   OH224779   2.738   2.321   4.255
 8272TIP3    H124780   2.788   2.263   4.197
 8272TIP3    H224781   2.678   2.263   4.301
 8273TIP3   OH224782   5.172   3.978   0.930
 8273TIP3    H124783   5.097   3.951   0.984
 8273TIP3    H224784   5.140   4.054   0.882
 8274TIP3   OH224785   0.878   0.057  -0.009
 8274TIP3    H124786   0.885   0.111   0.070
 8274TIP3    H224787   0.931  -0.020   0.010
 8275TIP3   OH224788   7.150   4.209   0.367
 8275TIP3    H124789   7.057   4.226   0.383
 8275TIP3    H224790   7.151   4.130   0.313
 8276TIP3   OH224791   2.521   3.660   0.852
 8276TIP3    H124792   2.529   3.755   0.852
 8276TIP3    H224793   2.453   3.641   0.787
 8277TIP3   OH224794   2.120   1.811   0.478
 8277TIP3    H124795   2.171   1.732   0.460
 8277TIP3    H224796   2.033   1.779   0.500
 8278TIP3   OH224797   7.080   6.145   2.076
 8278TIP3    H124798   7.003   6.200   2.056
 8278TIP3    H224799   7.060   6.106   2.160
 8279TIP3   OH224800   1.474   3.309   2.688
 8279TIP3    H124801   1.521   3.344   2.613
 8279TIP3    H224802   1.416   3.380   2.716
 8280TIP3   OH224803   7.101   1.543   0.164
 8280TIP3    H124804   7.186   1.530   0.205
 8280TIP3    H224805   7.075   1.632   0.190
 8281TIP3   OH224806   1.154   0.265   4.979
 8281TIP3    H124807   1.145   0.177   4.943
 8281TIP3    H224808   1.200   0.253   5.062
 8282TIP3   OH224809   0.766   2.128   5.215
 8282TIP3    H124810   0.771   2.188   5.141
 8282TIP3    H224811   0.856   2.121   5.246
 8283TIP3   OH224812   5.754   3.887   4.269
 8283TIP3    H124813   5.765   3.944   4.346
 8283TIP3    H224814   5.841   3.854   4.251
 8284TIP3   OH224815   0.577   0.646   0.098
 8284TIP3    H124816   0.587   0.734   0.061
 8284TIP3    H224817   0.595   0.587   0.025
 8285TIP3   OH224818   1.507   6.106   2.412
 8285TIP3    H124819   1.490   6.053   2.490
 8285TIP3    H224820   1.597   6.137   2.424
 8286TIP3   OH224821   0.651   0.119   4.799
 8286TIP3    H124822   0.641   0.137   4.892
 8286TIP3    H224823   0.742   0.090   4.790
 8287TIP3   OH224824   3.483   4.702   4.717
 8287TIP3    H124825   3.575   4.678   4.733
 8287TIP3    H224826   3.466   4.672   4.628
 8288TIP3   OH224827   3.146   1.061   2.108
 8288TIP3    H124828   3.123   0.985   2.055
 8288TIP3    H224829   3.222   1.099   2.064
 8289TIP3   OH224830   0.201   0.453   0.048
 8289TIP3    H124831   0.261   0.519   0.084
 8289TIP3    H224832   0.259   0.391   0.004
 8290TIP3   OH224833   1.937   2.818   5.559
 8290TIP3    H124834   1.971   2.729   5.567
 8290TIP3    H224835   2.013   2.870   5.533
 8291TIP3   OH224836   2.222   2.750   2.578
 8291TIP3    H124837   2.268   2.731   2.660
 8291TIP3    H224838   2.291   2.772   2.516
 8292TIP3   OH224839   4.488   2.913   0.374
 8292TIP3    H124840   4.555   2.946   0.314
 8292TIP3    H224841   4.476   2.983   0.438
 8293TIP3   OH224842   2.410   0.435   3.296
 8293TIP3    H124843   2.381   0.381   3.223
 8293TIP3    H224844   2.497   0.466   3.269
 8294TIP3   OH224845   6.662   6.487   5.269
 8294TIP3    H124846   6.718   6.498   5.346
 8294TIP3    H224847   6.657   6.392   5.257
 8295TIP3   OH224848   4.266   5.937   5.547
 8295TIP3    H124849   4.188   5.882   5.534
 8295TIP3    H224850   4.233   6.016   5.590
 8296TIP3   OH224851   4.213   0.125   0.458
 8296TIP3    H124852   4.146   0.161   0.400
 8296TIP3    H224853   4.193   0.032   0.463
 8297TIP3   OH224854   1.199   0.596   5.714
 8297TIP3    H124855   1.204   0.522   5.653
 8297TIP3    H224856   1.283   0.595   5.759
 8298TIP3   OH224857   0.433   1.790   2.211
 8298TIP3    H124858   0.371   1.726   2.176
 8298TIP3    H224859   0.483   1.741   2.277
 8299TIP3   OH224860   5.722   3.657   0.178
 8299TIP3    H124861   5.738   3.577   0.127
 8299TIP3    H224862   5.758   3.727   0.124
 8300TIP3   OH224863   2.652   5.306   3.984
 8300TIP3    H124864   2.728   5.248   3.975
 8300TIP3    H224865   2.600   5.289   3.906
 8301TIP3   OH224866   4.061   0.058   4.248
 8301TIP3    H124867   4.071   0.010   4.329
 8301TIP3    H224868   4.150   0.087   4.226
 8302TIP3   OH224869   2.215   5.068   1.308
 8302TIP3    H124870   2.178   5.042   1.393
 8302TIP3    H224871   2.227   4.986   1.261
 8303TIP3   OH224872   6.963   4.068   3.936
 8303TIP3    H124873   6.919   4.109   3.862
 8303TIP3    H224874   7.056   4.082   3.919
 8304TIP3   OH224875   0.861   4.446   5.441
 8304TIP3    H124876   0.906   4.372   5.400
 8304TIP3    H224877   0.781   4.456   5.391
 8305TIP3   OH224878   0.014   0.118   0.309
 8305TIP3    H124879   0.103   0.116   0.275
 8305TIP3    H224880   0.011   0.197   0.363
 8306TIP3   OH224881   2.747   3.684   5.744
 8306TIP3    H124882   2.831   3.727   5.761
 8306TIP3    H224883   2.766   3.590   5.752
 8307TIP3   OH224884   0.887   1.038   4.082
 8307TIP3    H124885   0.803   1.084   4.085
 8307TIP3    H224886   0.899   1.004   4.171
 8308TIP3   OH224887   0.409   6.084   0.657
 8308TIP3    H124888   0.468   6.014   0.685
 8308TIP3    H224889   0.466   6.153   0.623
 8309TIP3   OH224890   1.530   0.011   3.385
 8309TIP3    H124891   1.519   0.027   3.479
 8309TIP3    H224892   1.475   0.077   3.344
 8310TIP3   OH224893   7.110   6.584   5.615
 8310TIP3    H124894   7.179   6.557   5.554
 8310TIP3    H224895   7.037   6.525   5.596
 8311TIP3   OH224896   3.439   2.108   2.828
 8311TIP3    H124897   3.428   2.034   2.767
 8311TIP3    H224898   3.422   2.070   2.914
 8312TIP3   OH224899   2.694   3.683   1.772
 8312TIP3    H124900   2.612   3.722   1.740
 8312TIP3    H224901   2.712   3.612   1.710
 8313TIP3   OH224902   5.162   2.092   0.660
 8313TIP3    H124903   5.081   2.060   0.620
 8313TIP3    H224904   5.134   2.163   0.716
 8314TIP3   OH224905   6.292   5.722   4.885
 8314TIP3    H124906   6.226   5.766   4.938
 8314TIP3    H224907   6.246   5.696   4.805
 8315TIP3   OH224908   4.348   1.543   4.368
 8315TIP3    H124909   4.275   1.511   4.421
 8315TIP3    H224910   4.424   1.535   4.426
 8316TIP3   OH224911   5.029   0.967   1.872
 8316TIP3    H124912   5.064   0.900   1.813
 8316TIP3    H224913   5.030   1.047   1.820
 8317TIP3   OH224914   7.148   4.682   3.161
 8317TIP3    H124915   7.180   4.597   3.131
 8317TIP3    H224916   7.085   4.709   3.095
 8318TIP3   OH224917   4.162   6.634   1.320
 8318TIP3    H124918   4.174   6.665   1.230
 8318TIP3    H224919   4.185   6.708   1.375
 8319TIP3   OH224920   1.649   0.103   2.283
 8319TIP3    H124921   1.601   0.024   2.308
 8319TIP3    H224922   1.618   0.123   2.194
 8320TIP3   OH224923   0.181   0.003   3.381
 8320TIP3    H124924   0.276   0.001   3.373
 8320TIP3    H224925   0.165   0.007   3.475
 8321TIP3   OH224926   5.832   0.906   3.051
 8321TIP3    H124927   5.837   0.898   2.956
 8321TIP3    H224928   5.912   0.952   3.076
 8322TIP3   OH224929   0.727   4.256   3.135
 8322TIP3    H124930   0.717   4.213   3.220
 8322TIP3    H224931   0.816   4.292   3.136
 8323TIP3   OH224932   3.453   5.649   2.275
 8323TIP3    H124933   3.508   5.679   2.347
 8323TIP3    H224934   3.510   5.653   2.198
 8324TIP3   OH224935   3.474   2.948   4.873
 8324TIP3    H124936   3.476   2.858   4.839
 8324TIP3    H224937   3.476   2.938   4.968
 8325TIP3   OH224938   3.960   1.827   3.865
 8325TIP3    H124939   4.014   1.772   3.809
 8325TIP3    H224940   4.011   1.838   3.946
 8326TIP3   OH224941   4.049   0.769   5.271
 8326TIP3    H124942   4.007   0.829   5.210
 8326TIP3    H224943   4.016   0.682   5.245
 8327TIP3   OH224944   2.879   3.482   2.785
 8327TIP3    H124945   2.790   3.476   2.819
 8327TIP3    H224946   2.868   3.487   2.690
 8328TIP3   OH224947   0.012   0.153   2.572
 8328TIP3    H124948   0.017   0.086   2.640
 8328TIP3    H224949   0.064   0.226   2.605
 8329TIP3   OH224950   6.736   0.891   0.862
 8329TIP3    H124951   6.694   0.896   0.776
 8329TIP3    H224952   6.674   0.930   0.922
 8330TIP3   OH224953   1.433   4.280   4.846
 8330TIP3    H124954   1.449   4.231   4.765
 8330TIP3    H224955   1.498   4.246   4.907
 8331TIP3   OH224956   0.823   5.987   0.771
 8331TIP3    H124957   0.771   5.909   0.748
 8331TIP3    H224958   0.796   6.053   0.708
 8332TIP3   OH224959   1.294   5.508   4.322
 8332TIP3    H124960   1.384   5.542   4.320
 8332TIP3    H224961   1.287   5.456   4.241
 8333TIP3   OH224962   0.186   0.455   5.438
 8333TIP3    H124963   0.103   0.500   5.420
 8333TIP3    H224964   0.162   0.383   5.496
 8334TIP3   OH224965   2.325   3.494   1.614
 8334TIP3    H124966   2.293   3.550   1.685
 8334TIP3    H224967   2.265   3.420   1.612
 8335TIP3   OH224968   4.828   1.021   0.440
 8335TIP3    H124969   4.883   1.080   0.389
 8335TIP3    H224970   4.786   1.076   0.506
 8336TIP3   OH224971   4.750   6.060   3.663
 8336TIP3    H124972   4.787   6.101   3.585
 8336TIP3    H224973   4.688   6.125   3.696
 8337TIP3   OH224974   6.047   2.335   3.506
 8337TIP3    H124975   5.962   2.316   3.545
 8337TIP3    H224976   6.105   2.349   3.580
 8338TIP3   OH224977   5.792   0.298   1.866
 8338TIP3    H124978   5.880   0.269   1.889
 8338TIP3    H224979   5.782   0.271   1.775
 8339TIP3   OH224980   4.618   3.451   4.463
 8339TIP3    H124981   4.656   3.523   4.513
 8339TIP3    H224982   4.577   3.493   4.387
 8340TIP3   OH224983   2.634   3.394   0.445
 8340TIP3    H124984   2.646   3.316   0.499
 8340TIP3    H224985   2.540   3.394   0.423
 8341TIP3   OH224986   3.827   2.525   4.196
 8341TIP3    H124987   3.823   2.430   4.187
 8341TIP3    H224988   3.862   2.539   4.284
 8342TIP3   OH224989   3.725   0.162   0.756
 8342TIP3    H124990   3.648   0.112   0.785
 8342TIP3    H224991   3.734   0.231   0.821
 8343TIP3   OH224992   5.333   4.922   1.180
 8343TIP3    H124993   5.357   4.999   1.129
 8343TIP3    H224994   5.269   4.875   1.126
 8344TIP3   OH224995   5.883   5.795   1.912
 8344TIP3    H124996   5.952   5.799   1.978
 8344TIP3    H224997   5.926   5.764   1.833
 8345TIP3   OH224998   6.166   1.171   1.312
 8345TIP3    H124999   6.240   1.115   1.335
 8345TIP3    H225000   6.110   1.115   1.258
 8346TIP3   OH225001   4.927   6.717   4.742
 8346TIP3    H125002   4.914   6.637   4.692
 8346TIP3    H225003   4.877   6.703   4.823
 8347TIP3   OH225004   6.895   1.442   5.411
 8347TIP3    H125005   6.831   1.377   5.383
 8347TIP3    H225006   6.935   1.474   5.330
 8348TIP3   OH225007   4.462   5.765   2.538
 8348TIP3    H125008   4.413   5.760   2.456
 8348TIP3    H225009   4.466   5.858   2.559
 8349TIP3   OH225010   0.705   2.860   3.990
 8349TIP3    H125011   0.764   2.790   3.961
 8349TIP3    H225012   0.620   2.817   3.999
 8350TIP3   OH225013   6.143   2.342   2.213
 8350TIP3    H125014   6.160   2.426   2.169
 8350TIP3    H225015   6.092   2.366   2.291
 8351TIP3   OH225016   5.320   0.546   1.433
 8351TIP3    H125017   5.228   0.557   1.410
 8351TIP3    H225018   5.325   0.458   1.470
 8352TIP3   OH225019   0.719   4.319   0.185
 8352TIP3    H125020   0.701   4.234   0.145
 8352TIP3    H225021   0.664   4.320   0.264
 8353TIP3   OH225022   2.485   3.190   3.435
 8353TIP3    H125023   2.456   3.179   3.526
 8353TIP3    H225024   2.536   3.112   3.416
 8354TIP3   OH225025   5.269   1.949   2.048
 8354TIP3    H125026   5.319   1.895   1.987
 8354TIP3    H225027   5.183   1.958   2.007
 8355TIP3   OH225028   0.985   2.721   2.823
 8355TIP3    H125029   1.053   2.734   2.890
 8355TIP3    H225030   0.937   2.644   2.853
 8356TIP3   OH225031   2.321   1.809   3.577
 8356TIP3    H125032   2.254   1.839   3.639
 8356TIP3    H225033   2.404   1.841   3.613
 8357TIP3   OH225034   0.954   0.217   2.615
 8357TIP3    H125035   0.980   0.218   2.707
 8357TIP3    H225036   0.991   0.136   2.580
 8358TIP3   OH225037   0.479   3.178   1.980
 8358TIP3    H125038   0.453   3.148   2.067
 8358TIP3    H225039   0.569   3.146   1.970
 8359TIP3   OH225040   1.311   5.932   0.883
 8359TIP3    H125041   1.254   6.001   0.848
 8359TIP3    H225042   1.252   5.878   0.936
 8360TIP3   OH225043   3.644   0.497   4.757
 8360TIP3    H125044   3.701   0.536   4.690
 8360TIP3    H225045   3.671   0.405   4.760
 8361TIP3   OH225046   5.910   0.551   0.514
 8361TIP3    H125047   5.824   0.509   0.522
 8361TIP3    H225048   5.903   0.604   0.434
 8362TIP3   OH225049   6.501   2.741   0.013
 8362TIP3    H125050   6.563   2.765  -0.056
 8362TIP3    H225051   6.493   2.819   0.067
 8363TIP3   OH225052   3.970   5.611   0.309
 8363TIP3    H125053   3.891   5.657   0.278
 8363TIP3    H225054   3.939   5.556   0.381
 8364TIP3   OH225055   3.373   5.282   5.699
 8364TIP3    H125056   3.426   5.322   5.768
 8364TIP3    H225057   3.399   5.190   5.698
 8365TIP3   OH225058   4.394   0.812   2.345
 8365TIP3    H125059   4.447   0.769   2.412
 8365TIP3    H225060   4.304   0.801   2.374
 8366TIP3   OH225061   1.994   3.690   0.799
 8366TIP3    H125062   2.045   3.762   0.760
 8366TIP3    H225063   1.938   3.733   0.864
 8367TIP3   OH225064   6.992   4.829   4.840
 8367TIP3    H125065   6.972   4.872   4.757
 8367TIP3    H225066   7.086   4.844   4.852
 8368TIP3   OH225067   2.344   0.466   3.705
 8368TIP3    H125068   2.434   0.438   3.689
 8368TIP3    H225069   2.333   0.543   3.649
 8369TIP3   OH225070   6.031   0.230   2.495
 8369TIP3    H125071   6.015   0.148   2.542
 8369TIP3    H225072   5.961   0.288   2.523
 8370TIP3   OH225073   2.359   6.089   4.394
 8370TIP3    H125074   2.375   6.017   4.333
 8370TIP3    H225075   2.422   6.075   4.465
 8371TIP3   OH225076   2.773   6.253   0.284
 8371TIP3    H125077   2.862   6.219   0.279
 8371TIP3    H225078   2.721   6.178   0.314
 8372TIP3   OH225079   1.298   4.874   3.556
 8372TIP3    H125080   1.212   4.902   3.522
 8372TIP3    H225081   1.359   4.891   3.485
 8373TIP3   OH225082   0.665   4.360   1.998
 8373TIP3    H125083   0.732   4.352   1.930
 8373TIP3    H225084   0.614   4.437   1.973
 8374TIP3   OH225085   3.901   3.591   3.013
 8374TIP3    H125086   3.975   3.596   2.953
 8374TIP3    H225087   3.938   3.611   3.099
 8375TIP3   OH225088   2.465   4.174   0.938
 8375TIP3    H125089   2.370   4.171   0.933
 8375TIP3    H225090   2.485   4.153   1.029
 8376TIP3   OH225091   5.586   5.074   5.715
 8376TIP3    H125092   5.529   5.134   5.667
 8376TIP3    H225093   5.537   4.992   5.720
 8377TIP3   OH225094   0.850   2.615   1.265
 8377TIP3    H125095   0.939   2.633   1.294
 8377TIP3    H225096   0.854   2.621   1.169
 8378TIP3   OH225097   6.586   6.218   5.260
 8378TIP3    H125098   6.549   6.217   5.348
 8378TIP3    H225099   6.515   6.187   5.204
 8379TIP3   OH225100   1.880   5.886   3.333
 8379TIP3    H125101   1.907   5.978   3.337
 8379TIP3    H225102   1.869   5.861   3.424
 8380TIP3   OH225103   3.144   5.108   1.759
 8380TIP3    H125104   3.095   5.160   1.822
 8380TIP3    H225105   3.128   5.017   1.784
 8381TIP3   OH225106   5.021   4.995   1.817
 8381TIP3    H125107   5.031   5.090   1.815
 8381TIP3    H225108   5.108   4.961   1.837
 8382TIP3   OH225109   6.352   6.224   5.857
 8382TIP3    H125110   6.307   6.259   5.781
 8382TIP3    H225111   6.333   6.130   5.855
 8383TIP3   OH225112   4.874   5.055   4.857
 8383TIP3    H125113   4.906   5.006   4.781
 8383TIP3    H225114   4.853   4.987   4.922
 8384TIP3   OH225115   3.064   5.901   1.458
 8384TIP3    H125116   3.041   5.967   1.393
 8384TIP3    H225117   2.984   5.848   1.468
 8385TIP3   OH225118   1.290   2.138   1.604
 8385TIP3    H125119   1.288   2.225   1.643
 8385TIP3    H225120   1.382   2.124   1.582
 8386TIP3   OH225121   3.813   4.334   3.137
 8386TIP3    H125122   3.752   4.367   3.203
 8386TIP3    H225123   3.761   4.273   3.085
 8387TIP3   OH225124   1.427   4.114   1.529
 8387TIP3    H125125   1.336   4.135   1.510
 8387TIP3    H225126   1.423   4.033   1.580
 8388TIP3   OH225127   4.675   3.970   0.537
 8388TIP3    H125128   4.636   4.033   0.476
 8388TIP3    H225129   4.676   4.016   0.621
 8389TIP3   OH225130   5.699   0.739   0.946
 8389TIP3    H125131   5.771   0.677   0.958
 8389TIP3    H225132   5.633   0.690   0.896
 8390TIP3   OH225133   3.520   2.346   2.791
 8390TIP3    H125134   3.564   2.366   2.874
 8390TIP3    H225135   3.486   2.257   2.803
 8391TIP3   OH225136   6.975   5.325   5.882
 8391TIP3    H125137   7.035   5.393   5.914
 8391TIP3    H225138   6.983   5.330   5.786
 8392TIP3   OH225139   0.608   2.182   5.428
 8392TIP3    H125140   0.689   2.221   5.459
 8392TIP3    H225141   0.630   2.146   5.342
 8393TIP3   OH225142   5.319   5.185   2.034
 8393TIP3    H125143   5.382   5.174   2.104
 8393TIP3    H225144   5.365   5.238   1.968
 8394TIP3   OH225145   2.791   5.721   3.919
 8394TIP3    H125146   2.785   5.815   3.932
 8394TIP3    H225147   2.796   5.710   3.824
 8395TIP3   OH225148   3.009   0.457   4.540
 8395TIP3    H125149   2.929   0.509   4.549
 8395TIP3    H225150   3.022   0.418   4.627
 8396TIP3   OH225151   7.146   3.616   2.130
 8396TIP3    H125152   7.074   3.555   2.143
 8396TIP3    H225153   7.119   3.670   2.055
 8397TIP3   OH225154   6.895   4.661   0.159
 8397TIP3    H125155   6.905   4.588   0.098
 8397TIP3    H225156   6.813   4.703   0.133
 8398TIP3   OH225157   1.746   2.733   3.628
 8398TIP3    H125158   1.781   2.778   3.705
 8398TIP3    H225159   1.736   2.802   3.563
 8399TIP3   OH225160   1.325   1.530   1.038
 8399TIP3    H125161   1.416   1.511   1.016
 8399TIP3    H225162   1.275   1.503   0.961
 8400TIP3   OH225163   5.830   2.858   2.689
 8400TIP3    H125164   5.740   2.841   2.715
 8400TIP3    H225165   5.874   2.774   2.696
 8401TIP3   OH225166   2.853   4.657   1.538
 8401TIP3    H125167   2.910   4.581   1.550
 8401TIP3    H225168   2.886   4.700   1.459
 8402TIP3   OH225169   3.173   4.472   1.855
 8402TIP3    H125170   3.150   4.515   1.937
 8402TIP3    H225171   3.268   4.474   1.852
 8403TIP3   OH225172   3.493   2.564   1.768
 8403TIP3    H125173   3.527   2.475   1.772
 8403TIP3    H225174   3.493   2.585   1.674
 8404TIP3   OH225175   7.251   1.548   1.872
 8404TIP3    H125176   7.209   1.470   1.908
 8404TIP3    H225177   7.181   1.613   1.866
 8405TIP3   OH225178   5.999   1.101   5.363
 8405TIP3    H125179   6.058   1.091   5.438
 8405TIP3    H225180   5.992   1.013   5.326
 8406TIP3   OH225181   3.949   3.397   0.413
 8406TIP3    H125182   3.918   3.428   0.328
 8406TIP3    H225183   3.878   3.342   0.446
 8407TIP3   OH225184   0.202   2.544   5.511
 8407TIP3    H125185   0.173   2.564   5.422
 8407TIP3    H225186   0.125   2.506   5.553
 8408TIP3   OH225187   6.667   2.392   5.302
 8408TIP3    H125188   6.608   2.353   5.367
 8408TIP3    H225189   6.675   2.483   5.329
 8409TIP3   OH225190   6.360   3.505   1.453
 8409TIP3    H125191   6.270   3.480   1.429
 8409TIP3    H225192   6.388   3.563   1.383
 8410TIP3   OH225193   0.019   3.024   1.226
 8410TIP3    H125194   0.081   3.047   1.295
 8410TIP3    H225195   0.054   2.944   1.188
 8411TIP3   OH225196   3.109   3.554   2.652
 8411TIP3    H125197   3.078   3.612   2.582
 8411TIP3    H225198   3.038   3.551   2.715
 8412TIP3   OH225199   1.656   2.147   3.817
 8412TIP3    H125200   1.632   2.149   3.724
 8412TIP3    H225201   1.746   2.180   3.818
 8413TIP3   OH225202   6.410   2.259   5.415
 8413TIP3    H125203   6.454   2.281   5.497
 8413TIP3    H225204   6.437   2.169   5.396
 8414TIP3   OH225205   3.684   1.197   0.330
 8414TIP3    H125206   3.709   1.109   0.358
 8414TIP3    H225207   3.766   1.246   0.331
 8415TIP3   OH225208   6.923   0.767   5.289
 8415TIP3    H125209   6.915   0.861   5.306
 8415TIP3    H225210   6.917   0.760   5.194
 8416TIP3   OH225211   2.281   0.546   4.413
 8416TIP3    H125212   2.210   0.592   4.369
 8416TIP3    H225213   2.345   0.529   4.344
 8417TIP3   OH225214   1.680   5.750   3.155
 8417TIP3    H125215   1.726   5.810   3.214
 8417TIP3    H225216   1.686   5.791   3.069
 8418TIP3   OH225217   2.641   2.804   0.475
 8418TIP3    H125218   2.607   2.717   0.454
 8418TIP3    H225219   2.702   2.824   0.405
 8419TIP3   OH225220   4.660   1.238   3.317
 8419TIP3    H125221   4.594   1.307   3.315
 8419TIP3    H225222   4.715   1.256   3.241
 8420TIP3   OH225223   5.757   3.725   2.892
 8420TIP3    H125224   5.813   3.654   2.924
 8420TIP3    H225225   5.732   3.697   2.804
 8421TIP3   OH225226   0.202   0.827   5.394
 8421TIP3    H125227   0.201   0.769   5.470
 8421TIP3    H225228   0.110   0.844   5.375
 8422TIP3   OH225229   1.020   6.506   1.582
 8422TIP3    H125230   1.045   6.576   1.521
 8422TIP3    H225231   0.952   6.546   1.637
 8423TIP3   OH225232   5.160   1.251   2.170
 8423TIP3    H125233   5.236   1.192   2.170
 8423TIP3    H225234   5.174   1.309   2.096
 8424TIP3   OH225235   5.455   3.226   3.162
 8424TIP3    H125236   5.365   3.231   3.131
 8424TIP3    H225237   5.506   3.199   3.086
 8425TIP3   OH225238   6.437   2.247   2.482
 8425TIP3    H125239   6.485   2.322   2.448
 8425TIP3    H225240   6.365   2.285   2.532
 8426TIP3   OH225241   5.653   5.513   0.853
 8426TIP3    H125242   5.727   5.454   0.843
 8426TIP3    H225243   5.692   5.598   0.873
 8427TIP3   OH225244   6.206   1.695   1.679
 8427TIP3    H125245   6.140   1.729   1.740
 8427TIP3    H225246   6.176   1.724   1.593
 8428TIP3   OH225247   7.104   2.281   0.336
 8428TIP3    H125248   7.137   2.208   0.389
 8428TIP3    H225249   7.183   2.326   0.306
 8429TIP3   OH225250   7.006   3.197   5.057
 8429TIP3    H125251   7.035   3.287   5.073
 8429TIP3    H225252   7.071   3.162   4.995
 8430TIP3   OH225253   4.688   6.633   2.588
 8430TIP3    H125254   4.769   6.666   2.625
 8430TIP3    H225255   4.714   6.595   2.504
 8431TIP3   OH225256   5.726   3.095   5.219
 8431TIP3    H125257   5.739   3.006   5.186
 8431TIP3    H225258   5.636   3.117   5.197
 8432TIP3   OH225259   0.162   4.117   4.342
 8432TIP3    H125260   0.084   4.078   4.301
 8432TIP3    H225261   0.171   4.070   4.425
 8433TIP3   OH225262   6.617   3.353   4.942
 8433TIP3    H125263   6.635   3.374   5.034
 8433TIP3    H225264   6.539   3.404   4.921
 8434TIP3   OH225265   6.093   0.641   4.396
 8434TIP3    H125266   6.174   0.599   4.425
 8434TIP3    H225267   6.072   0.598   4.313
 8435TIP3   OH225268   0.882   3.353   0.248
 8435TIP3    H125269   0.881   3.262   0.221
 8435TIP3    H225270   0.871   3.350   0.343
 8436TIP3   OH225271   3.501   4.888   2.776
 8436TIP3    H125272   3.489   4.811   2.831
 8436TIP3    H225273   3.493   4.856   2.687
 8437TIP3   OH225274   2.930   5.443   1.293
 8437TIP3    H125275   2.939   5.459   1.199
 8437TIP3    H225276   3.008   5.393   1.317
 8438TIP3   OH225277   6.140   5.866   5.750
 8438TIP3    H125278   6.140   5.816   5.832
 8438TIP3    H225279   6.066   5.927   5.758
 8439TIP3   OH225280   6.555   2.446   0.016
 8439TIP3    H125281   6.522   2.400   0.093
 8439TIP3    H225282   6.543   2.538   0.036
 8440TIP3   OH225283   6.505   5.094   0.432
 8440TIP3    H125284   6.543   5.177   0.406
 8440TIP3    H225285   6.471   5.110   0.520
 8441TIP3   OH225286   0.324   3.517   2.835
 8441TIP3    H125287   0.334   3.611   2.848
 8441TIP3    H225288   0.309   3.482   2.923
 8442TIP3   OH225289   2.654   3.239   2.840
 8442TIP3    H125290   2.736   3.247   2.887
 8442TIP3    H225291   2.591   3.289   2.892
 8443TIP3   OH225292   4.899   2.949   4.126
 8443TIP3    H125293   4.954   3.028   4.136
 8443TIP3    H225294   4.813   2.976   4.159
 8444TIP3   OH225295   0.927   0.368   2.311
 8444TIP3    H125296   0.989   0.412   2.370
 8444TIP3    H225297   0.860   0.332   2.369
 8445TIP3   OH225298   7.130   2.794   5.615
 8445TIP3    H125299   7.045   2.814   5.576
 8445TIP3    H225300   7.183   2.763   5.541
 8446TIP3   OH225301   2.427   3.473   0.073
 8446TIP3    H125302   2.442   3.566   0.087
 8446TIP3    H225303   2.407   3.465  -0.020
 8447TIP3   OH225304   6.372   3.508   5.072
 8447TIP3    H125305   6.334   3.480   5.155
 8447TIP3    H225306   6.362   3.604   5.072
 8448TIP3   OH225307   1.538   5.474   0.214
 8448TIP3    H125308   1.555   5.473   0.308
 8448TIP3    H225309   1.443   5.460   0.208
 8449TIP3   OH225310   6.007   3.252   2.536
 8449TIP3    H125311   6.003   3.185   2.605
 8449TIP3    H225312   5.977   3.206   2.457
 8450TIP3   OH225313   3.729   1.441   4.720
 8450TIP3    H125314   3.697   1.359   4.757
 8450TIP3    H225315   3.658   1.504   4.734
 8451TIP3   OH225316   5.888   2.354   2.010
 8451TIP3    H125317   5.938   2.431   2.037
 8451TIP3    H225318   5.796   2.379   2.023
 8452TIP3   OH225319   1.577   4.143   4.379
 8452TIP3    H125320   1.595   4.056   4.344
 8452TIP3    H225321   1.660   4.190   4.373
 8453TIP3   OH225322   2.823   0.989   3.497
 8453TIP3    H125323   2.846   0.932   3.571
 8453TIP3    H225324   2.729   0.976   3.485
 8454TIP3   OH225325   3.075   3.414   5.257
 8454TIP3    H125326   3.045   3.349   5.320
 8454TIP3    H225327   2.995   3.456   5.225
 8455TIP3   OH225328   2.075   0.667   0.140
 8455TIP3    H125329   2.101   0.668   0.233
 8455TIP3    H225330   2.072   0.759   0.115
 8456TIP3   OH225331   2.216   6.774   5.461
 8456TIP3    H125332   2.198   6.863   5.491
 8456TIP3    H225333   2.134   6.744   5.422
 8457TIP3   OH225334   4.230   3.984   5.356
 8457TIP3    H125335   4.169   3.996   5.283
 8457TIP3    H225336   4.315   3.974   5.315
 8458TIP3   OH225337   4.401   3.154   2.489
 8458TIP3    H125338   4.305   3.158   2.492
 8458TIP3    H225339   4.420   3.060   2.487
 8459TIP3   OH225340   4.613   5.157   0.614
 8459TIP3    H125341   4.559   5.229   0.581
 8459TIP3    H225342   4.549   5.095   0.650
 8460TIP3   OH225343   5.340   0.629   4.286
 8460TIP3    H125344   5.273   0.598   4.225
 8460TIP3    H225345   5.300   0.622   4.373
 8461TIP3   OH225346   5.931   4.654   4.887
 8461TIP3    H125347   6.006   4.651   4.828
 8461TIP3    H225348   5.881   4.731   4.859
 8462TIP3   OH225349   0.561   1.176   0.449
 8462TIP3    H125350   0.550   1.124   0.529
 8462TIP3    H225351   0.577   1.110   0.380
 8463TIP3   OH225352   4.720   3.841   1.360
 8463TIP3    H125353   4.750   3.765   1.410
 8463TIP3    H225354   4.668   3.802   1.288
 8464TIP3   OH225355   3.277   6.674   5.461
 8464TIP3    H125356   3.193   6.703   5.496
 8464TIP3    H225357   3.317   6.624   5.533
 8465TIP3   OH225358   5.091   2.151   2.251
 8465TIP3    H125359   5.181   2.173   2.227
 8465TIP3    H225360   5.086   2.055   2.243
 8466TIP3   OH225361   6.756   4.310   0.699
 8466TIP3    H125362   6.731   4.220   0.721
 8466TIP3    H225363   6.843   4.321   0.737
 8467TIP3   OH225364   0.286   3.887   5.010
 8467TIP3    H125365   0.263   3.980   5.012
 8467TIP3    H225366   0.376   3.885   4.979
 8468TIP3   OH225367   3.249   0.880   1.128
 8468TIP3    H125368   3.165   0.833   1.130
 8468TIP3    H225369   3.242   0.945   1.199
 8469TIP3   OH225370   2.760   2.042   5.029
 8469TIP3    H125371   2.798   1.964   5.069
 8469TIP3    H225372   2.812   2.057   4.950
 8470TIP3   OH225373   3.765   5.078   1.508
 8470TIP3    H125374   3.848   5.093   1.462
 8470TIP3    H225375   3.777   4.992   1.550
 8471TIP3   OH225376   0.122   6.250   5.123
 8471TIP3    H125377   0.218   6.257   5.126
 8471TIP3    H225378   0.094   6.266   5.213
 8472TIP3   OH225379   2.934   0.790   2.231
 8472TIP3    H125380   2.890   0.707   2.252
 8472TIP3    H225381   2.998   0.801   2.302
 8473TIP3   OH225382   1.307   5.316   5.568
 8473TIP3    H125383   1.245   5.386   5.585
 8473TIP3    H225384   1.382   5.335   5.624
 8474TIP3   OH225385   7.086   0.241   1.165
 8474TIP3    H125386   7.036   0.304   1.111
 8474TIP3    H225387   7.114   0.292   1.241
 8475TIP3   OH225388   3.988   2.962   4.026
 8475TIP3    H125389   3.914   2.910   4.057
 8475TIP3    H225390   3.960   3.053   4.036
 8476TIP3   OH225391   3.781   5.556   4.998
 8476TIP3    H125392   3.852   5.580   5.058
 8476TIP3    H225393   3.711   5.526   5.055
 8477TIP3   OH225394   2.681   1.860   1.174
 8477TIP3    H125395   2.712   1.950   1.163
 8477TIP3    H225396   2.665   1.852   1.268
 8478TIP3   OH225397   1.844   5.384   0.715
 8478TIP3    H125398   1.760   5.345   0.741
 8478TIP3    H225399   1.851   5.464   0.767
 8479TIP3   OH225400   3.945   3.381   4.513
 8479TIP3    H125401   3.877   3.316   4.494
 8479TIP3    H225402   4.009   3.334   4.567
 8480TIP3   OH225403   4.022   2.870   4.737
 8480TIP3    H125404   4.116   2.873   4.721
 8480TIP3    H225405   3.998   2.960   4.758
 8481TIP3   OH225406   3.503   3.342   3.465
 8481TIP3    H125407   3.548   3.335   3.549
 8481TIP3    H225408   3.442   3.415   3.477
 8482TIP3   OH225409   1.394   2.280   1.273
 8482TIP3    H125410   1.400   2.299   1.179
 8482TIP3    H225411   1.485   2.269   1.300
 8483TIP3   OH225412   6.898   6.378   4.253
 8483TIP3    H125413   6.962   6.444   4.228
 8483TIP3    H225414   6.917   6.358   4.344
 8484TIP3   OH225415   5.964   6.708   2.913
 8484TIP3    H125416   5.899   6.641   2.893
 8484TIP3    H225417   6.027   6.704   2.841
 8485TIP3   OH225418   6.728   4.641   1.105
 8485TIP3    H125419   6.645   4.617   1.064
 8485TIP3    H225420   6.784   4.564   1.089
 8486TIP3   OH225421   5.574   2.143   2.346
 8486TIP3    H125422   5.602   2.151   2.437
 8486TIP3    H225423   5.650   2.107   2.300
 8487TIP3   OH225424   2.870   0.268   2.080
 8487TIP3    H125425   2.929   0.312   2.020
 8487TIP3    H225426   2.783   0.305   2.060
 8488TIP3   OH225427   1.625   5.561   3.744
 8488TIP3    H125428   1.634   5.533   3.835
 8488TIP3    H225429   1.714   5.562   3.710
 8489TIP3   OH225430   2.746   0.023   2.010
 8489TIP3    H125431   2.796   0.099   2.040
 8489TIP3    H225432   2.810  -0.033   1.967
 8490TIP3   OH225433   5.952   3.234   4.050
 8490TIP3    H125434   5.943   3.232   3.955
 8490TIP3    H225435   5.875   3.280   4.081
 8491TIP3   OH225436   3.576   0.995   3.407
 8491TIP3    H125437   3.503   1.057   3.418
 8491TIP3    H225438   3.586   0.987   3.312
 8492TIP3   OH225439   6.230   0.995   3.674
 8492TIP3    H125440   6.302   0.993   3.737
 8492TIP3    H225441   6.152   0.978   3.726
 8493TIP3   OH225442   0.415   3.308   1.587
 8493TIP3    H125443   0.451   3.375   1.646
 8493TIP3    H225444   0.364   3.251   1.645
 8494TIP3   OH225445   4.476   4.581   3.225
 8494TIP3    H125446   4.537   4.528   3.278
 8494TIP3    H225447   4.404   4.521   3.205
 8495TIP3   OH225448   0.216   0.855   4.845
 8495TIP3    H125449   0.199   0.843   4.752
 8495TIP3    H225450   0.133   0.831   4.887
 8496TIP3   OH225451   1.124   4.081   3.100
 8496TIP3    H125452   1.204   4.049   3.141
 8496TIP3    H225453   1.124   4.175   3.118
 8497TIP3   OH225454   6.725   0.717   1.852
 8497TIP3    H125455   6.712   0.797   1.801
 8497TIP3    H225456   6.805   0.678   1.817
 8498TIP3   OH225457   4.456   4.130   1.802
 8498TIP3    H125458   4.518   4.170   1.742
 8498TIP3    H225459   4.373   4.131   1.755
 8499TIP3   OH225460   4.802   5.323   1.156
 8499TIP3    H125461   4.878   5.361   1.112
 8499TIP3    H225462   4.818   5.338   1.249
 8500TIP3   OH225463   5.813   3.569   2.395
 8500TIP3    H125464   5.785   3.487   2.356
 8500TIP3    H225465   5.833   3.626   2.321
 8501TIP3   OH225466   2.221   5.982   5.570
 8501TIP3    H125467   2.270   5.945   5.496
 8501TIP3    H225468   2.165   5.910   5.601
 8502TIP3   OH225469   0.224   2.446   5.838
 8502TIP3    H125470   0.294   2.408   5.786
 8502TIP3    H225471   0.145   2.434   5.785
 8503TIP3   OH225472   1.886   5.609   2.037
 8503TIP3    H125473   1.824   5.591   1.966
 8503TIP3    H225474   1.959   5.549   2.020
 8504TIP3   OH225475   0.894   0.758   4.000
 8504TIP3    H125476   0.851   0.842   4.013
 8504TIP3    H225477   0.981   0.779   3.966
 8505TIP3   OH225478   6.896   3.665   5.354
 8505TIP3    H125479   6.888   3.652   5.260
 8505TIP3    H225480   6.832   3.733   5.375
 8506TIP3   OH225481   6.711   4.542   5.128
 8506TIP3    H125482   6.641   4.509   5.185
 8506TIP3    H225483   6.683   4.518   5.040
 8507TIP3   OH225484   0.234   0.401   5.156
 8507TIP3    H125485   0.218   0.475   5.098
 8507TIP3    H225486   0.214   0.434   5.243
 8508TIP3   OH225487   3.197   0.070   1.901
 8508TIP3    H125488   3.206  -0.018   1.939
 8508TIP3    H225489   3.103   0.081   1.889
 8509TIP3   OH225490   1.181   0.887   5.688
 8509TIP3    H125491   1.088   0.911   5.686
 8509TIP3    H225492   1.181   0.792   5.696
 8510TIP3   OH225493   0.911   3.531   1.650
 8510TIP3    H125494   0.884   3.612   1.693
 8510TIP3    H225495   0.835   3.505   1.598
 8511TIP3   OH225496   1.262   1.081   2.877
 8511TIP3    H125497   1.169   1.094   2.897
 8511TIP3    H225498   1.263   1.037   2.793
 8512TIP3   OH225499   5.431   1.572   0.212
 8512TIP3    H125500   5.378   1.609   0.283
 8512TIP3    H225501   5.521   1.578   0.244
 8513TIP3   OH225502   3.229   5.918   5.883
 8513TIP3    H125503   3.292   5.912   5.812
 8513TIP3    H225504   3.146   5.887   5.845
 8514TIP3   OH225505   5.555   4.255   0.891
 8514TIP3    H125506   5.570   4.166   0.924
 8514TIP3    H225507   5.529   4.243   0.800
 8515TIP3   OH225508   5.068   1.795   2.213
 8515TIP3    H125509   5.105   1.786   2.125
 8515TIP3    H225510   5.020   1.713   2.227
 8516TIP3   OH225511   4.809   3.227   4.454
 8516TIP3    H125512   4.813   3.204   4.547
 8516TIP3    H225513   4.746   3.298   4.449
 8517TIP3   OH225514   1.245   0.031   1.157
 8517TIP3    H125515   1.242   0.000   1.066
 8517TIP3    H225516   1.175  -0.016   1.201
 8518TIP3   OH225517   2.571   1.495   1.313
 8518TIP3    H125518   2.570   1.590   1.319
 8518TIP3    H225519   2.645   1.476   1.254
 8519TIP3   OH225520   4.530   5.993   4.586
 8519TIP3    H125521   4.581   6.070   4.613
 8519TIP3    H225522   4.577   5.919   4.625
 8520TIP3   OH225523   2.117   1.577   5.522
 8520TIP3    H125524   2.037   1.608   5.563
 8520TIP3    H225525   2.138   1.643   5.456
 8521TIP3   OH225526   6.963   5.844   2.212
 8521TIP3    H125527   7.056   5.825   2.223
 8521TIP3    H225528   6.919   5.775   2.262
 8522TIP3   OH225529   2.184   3.138   3.678
 8522TIP3    H125530   2.277   3.124   3.693
 8522TIP3    H225531   2.165   3.089   3.597
 8523TIP3   OH225532   0.399   2.367   3.800
 8523TIP3    H125533   0.431   2.301   3.861
 8523TIP3    H225534   0.459   2.363   3.726
 8524TIP3   OH225535   3.049   3.355   4.440
 8524TIP3    H125536   3.015   3.334   4.354
 8524TIP3    H225537   3.064   3.269   4.481
 8525TIP3   OH225538   1.944   2.663   4.456
 8525TIP3    H125539   1.919   2.722   4.528
 8525TIP3    H225540   1.993   2.719   4.396
 8526TIP3   OH225541   0.221   3.224   5.161
 8526TIP3    H125542   0.268   3.205   5.242
 8526TIP3    H225543   0.275   3.185   5.092
 8527TIP3   OH225544   2.019   6.447   4.775
 8527TIP3    H125545   1.954   6.444   4.845
 8527TIP3    H225546   2.038   6.355   4.757
 8528TIP3   OH225547   1.917   6.056   1.555
 8528TIP3    H125548   1.865   5.977   1.537
 8528TIP3    H225549   1.983   6.057   1.485
 8529TIP3   OH225550   6.896   5.838   3.881
 8529TIP3    H125551   6.858   5.826   3.794
 8529TIP3    H225552   6.978   5.886   3.864
 8530TIP3   OH225553   5.226   5.868   1.532
 8530TIP3    H125554   5.296   5.895   1.592
 8530TIP3    H225555   5.150   5.918   1.561
 8531TIP3   OH225556   1.188   0.939   3.314
 8531TIP3    H125557   1.171   0.898   3.230
 8531TIP3    H225558   1.269   0.899   3.345
 8532TIP3   OH225559   3.950   6.129   5.179
 8532TIP3    H125560   4.011   6.057   5.194
 8532TIP3    H225561   3.897   6.100   5.105
 8533TIP3   OH225562   3.894   2.242   5.360
 8533TIP3    H125563   3.798   2.236   5.358
 8533TIP3    H225564   3.923   2.155   5.387
 8534TIP3   OH225565   6.291   2.905   4.994
 8534TIP3    H125566   6.270   2.878   5.084
 8534TIP3    H225567   6.381   2.936   4.999
 8535TIP3   OH225568   1.811   3.813   2.983
 8535TIP3    H125569   1.736   3.754   2.995
 8535TIP3    H225570   1.866   3.768   2.918
 8536TIP3   OH225571   0.878   3.593   1.158
 8536TIP3    H125572   0.866   3.559   1.069
 8536TIP3    H225573   0.805   3.557   1.208
 8537TIP3   OH225574   6.626   4.054   3.347
 8537TIP3    H125575   6.714   4.090   3.337
 8537TIP3    H225576   6.620   3.986   3.280
 8538TIP3   OH225577   6.812   6.510   5.647
 8538TIP3    H125578   6.844   6.498   5.737
 8538TIP3    H225579   6.741   6.446   5.638
 8539TIP3   OH225580   3.672   4.661   5.678
 8539TIP3    H125581   3.708   4.573   5.683
 8539TIP3    H225582   3.713   4.708   5.751
 8540TIP3   OH225583   1.496   0.430   3.982
 8540TIP3    H125584   1.587   0.459   3.988
 8540TIP3    H225585   1.485   0.372   4.058
 8541TIP3   OH225586   4.975   2.017   3.960
 8541TIP3    H125587   4.988   1.970   3.878
 8541TIP3    H225588   4.896   2.069   3.947
 8542TIP3   OH225589   5.755   2.817   0.735
 8542TIP3    H125590   5.706   2.866   0.669
 8542TIP3    H225591   5.699   2.819   0.813
 8543TIP3   OH225592   4.261   0.315   3.621
 8543TIP3    H125593   4.230   0.262   3.695
 8543TIP3    H225594   4.184   0.322   3.564
 8544TIP3   OH225595   5.522   3.832   3.792
 8544TIP3    H125596   5.438   3.852   3.751
 8544TIP3    H225597   5.506   3.836   3.886
 8545TIP3   OH225598   1.291   1.587   1.538
 8545TIP3    H125599   1.375   1.603   1.494
 8545TIP3    H225600   1.310   1.515   1.598
 8546TIP3   OH225601   0.319   4.036   1.444
 8546TIP3    H125602   0.352   4.118   1.409
 8546TIP3    H225603   0.225   4.038   1.425
 8547TIP3   OH225604   5.886   6.808   3.981
 8547TIP3    H125605   5.838   6.743   4.031
 8547TIP3    H225606   5.819   6.853   3.930
 8548TIP3   OH225607   4.064   0.595   0.358
 8548TIP3    H125608   4.031   0.673   0.314
 8548TIP3    H225609   4.104   0.627   0.439
 8549TIP3   OH225610   1.519   1.882   1.547
 8549TIP3    H125611   1.483   1.867   1.460
 8549TIP3    H225612   1.608   1.847   1.543
 8550TIP3   OH225613   5.376   5.978   2.552
 8550TIP3    H125614   5.425   5.897   2.538
 8550TIP3    H225615   5.442   6.047   2.551
 8551TIP3   OH225616   1.968   4.297   1.649
 8551TIP3    H125617   1.909   4.222   1.645
 8551TIP3    H225618   2.055   4.259   1.643
 8552TIP3   OH225619   0.093   6.665   2.447
 8552TIP3    H125620   0.132   6.626   2.526
 8552TIP3    H225621   0.027   6.726   2.481
 8553TIP3   OH225622   2.081   0.496   1.928
 8553TIP3    H125623   2.016   0.504   1.858
 8553TIP3    H225624   2.158   0.541   1.894
 8554TIP3   OH225625   1.708   5.127   2.577
 8554TIP3    H125626   1.710   5.067   2.502
 8554TIP3    H225627   1.616   5.153   2.584
 8555TIP3   OH225628   3.033   5.215   4.499
 8555TIP3    H125629   3.054   5.194   4.590
 8555TIP3    H225630   3.047   5.310   4.492
 8556TIP3   OH225631   2.063   1.301   5.587
 8556TIP3    H125632   2.137   1.263   5.539
 8556TIP3    H225633   2.078   1.395   5.584
 8557TIP3   OH225634   0.193   5.102   0.314
 8557TIP3    H125635   0.137   5.101   0.391
 8557TIP3    H225636   0.205   5.010   0.292
 8558TIP3   OH225637   5.119   4.706   0.135
 8558TIP3    H125638   5.032   4.683   0.102
 8558TIP3    H225639   5.170   4.626   0.128
 8559TIP3   OH225640   1.404   0.512   3.051
 8559TIP3    H125641   1.356   0.429   3.045
 8559TIP3    H225642   1.406   0.546   2.962
 8560TIP3   OH225643   3.783   5.495   4.564
 8560TIP3    H125644   3.693   5.512   4.537
 8560TIP3    H225645   3.775   5.441   4.643
 8561TIP3   OH225646   7.021   0.202   3.994
 8561TIP3    H125647   7.015   0.297   4.001
 8561TIP3    H225648   7.104   0.185   3.950
 8562TIP3   OH225649   2.712   4.547   0.388
 8562TIP3    H125650   2.647   4.479   0.403
 8562TIP3    H225651   2.796   4.504   0.403
 8563TIP3   OH225652   4.323   4.618   0.039
 8563TIP3    H125653   4.279   4.605  -0.045
 8563TIP3    H225654   4.386   4.546   0.043
 8564TIP3   OH225655   1.553   4.612   1.727
 8564TIP3    H125656   1.564   4.519   1.704
 8564TIP3    H225657   1.464   4.633   1.700
 8565TIP3   OH225658   3.283   4.959   5.134
 8565TIP3    H125659   3.232   4.930   5.210
 8565TIP3    H225660   3.304   4.878   5.087
 8566TIP3   OH225661   5.150   4.352   5.010
 8566TIP3    H125662   5.242   4.338   5.033
 8566TIP3    H225663   5.153   4.402   4.928
 8567TIP3   OH225664   5.760   0.923   0.739
 8567TIP3    H125665   5.704   0.997   0.714
 8567TIP3    H225666   5.726   0.895   0.824
 8568TIP3   OH225667   6.673   5.642   5.256
 8568TIP3    H125668   6.676   5.725   5.209
 8568TIP3    H225669   6.764   5.622   5.276
 8569TIP3   OH225670   6.197   3.259   4.210
 8569TIP3    H125671   6.137   3.258   4.135
 8569TIP3    H225672   6.247   3.178   4.200
 8570TIP3   OH225673   2.494   5.382   4.676
 8570TIP3    H125674   2.476   5.393   4.583
 8570TIP3    H225675   2.580   5.423   4.689
 8571TIP3   OH225676   6.975   2.770   5.195
 8571TIP3    H125677   6.893   2.782   5.244
 8571TIP3    H225678   6.946   2.750   5.106
 8572TIP3   OH225679   7.071   2.290   3.618
 8572TIP3    H125680   7.035   2.307   3.531
 8572TIP3    H225681   7.141   2.354   3.628
 8573TIP3   OH225682   1.962   3.014   1.487
 8573TIP3    H125683   1.930   2.929   1.456
 8573TIP3    H225684   1.894   3.075   1.462
 8574TIP3   OH225685   5.027   4.119   4.560
 8574TIP3    H125686   4.989   4.185   4.501
 8574TIP3    H225687   5.056   4.049   4.502
 8575TIP3   OH225688   2.671   0.729   3.557
 8575TIP3    H125689   2.765   0.730   3.538
 8575TIP3    H225690   2.646   0.637   3.546
 8576TIP3   OH225691   1.810   2.495   3.380
 8576TIP3    H125692   1.723   2.481   3.343
 8576TIP3    H225693   1.871   2.459   3.316
 8577TIP3   OH225694   6.472   1.232   2.169
 8577TIP3    H125695   6.465   1.136   2.168
 8577TIP3    H225696   6.413   1.262   2.100
 8578TIP3   OH225697   5.533   2.768   1.897
 8578TIP3    H125698   5.460   2.769   1.958
 8578TIP3    H225699   5.532   2.854   1.856
 8579TIP3   OH225700   3.021   3.041   1.465
 8579TIP3    H125701   3.021   2.948   1.442
 8579TIP3    H225702   3.110   3.058   1.494
 8580TIP3   OH225703   2.956   6.701   2.674
 8580TIP3    H125704   3.045   6.692   2.640
 8580TIP3    H225705   2.967   6.741   2.760
 8581TIP3   OH225706   2.131   6.189   3.382
 8581TIP3    H125707   2.057   6.192   3.321
 8581TIP3    H225708   2.204   6.157   3.329
 8582TIP3   OH225709   3.464   4.512   5.044
 8582TIP3    H125710   3.474   4.603   5.074
 8582TIP3    H225711   3.510   4.460   5.110
 8583TIP3   OH225712   5.665   1.490   5.264
 8583TIP3    H125713   5.653   1.492   5.169
 8583TIP3    H225714   5.701   1.403   5.282
 8584TIP3   OH225715   1.812   0.838   3.127
 8584TIP3    H125716   1.755   0.766   3.099
 8584TIP3    H225717   1.770   0.873   3.205
 8585TIP3   OH225718   5.117   4.681   4.443
 8585TIP3    H125719   5.195   4.724   4.479
 8585TIP3    H225720   5.046   4.707   4.502
 8586TIP3   OH225721   6.199   2.626   3.165
 8586TIP3    H125722   6.129   2.620   3.230
 8586TIP3    H225723   6.247   2.543   3.173
 8587TIP3   OH225724   4.895   3.262   2.287
 8587TIP3    H125725   4.805   3.265   2.254
 8587TIP3    H225726   4.887   3.229   2.376
 8588TIP3   OH225727   0.315   4.747   1.430
 8588TIP3    H125728   0.299   4.663   1.474
 8588TIP3    H225729   0.230   4.791   1.431
 8589TIP3   OH225730   4.517   3.713   1.159
 8589TIP3    H125731   4.533   3.624   1.128
 8589TIP3    H225732   4.518   3.767   1.080
 8590TIP3   OH225733   3.956   1.091   3.180
 8590TIP3    H125734   3.911   1.010   3.156
 8590TIP3    H225735   3.999   1.071   3.263
 8591TIP3   OH225736   5.014   4.757   4.019
 8591TIP3    H125737   4.978   4.726   4.102
 8591TIP3    H225738   4.937   4.783   3.969
 8592TIP3   OH225739   4.296   4.410   3.122
 8592TIP3    H125740   4.225   4.346   3.114
 8592TIP3    H225741   4.313   4.437   3.032
 8593TIP3   OH225742   6.414   5.743   4.411
 8593TIP3    H125743   6.472   5.676   4.447
 8593TIP3    H225744   6.347   5.694   4.365
 8594TIP3   OH225745   3.211   1.716   2.048
 8594TIP3    H125746   3.231   1.629   2.081
 8594TIP3    H225747   3.243   1.776   2.116
 8595TIP3   OH225748   2.138   5.450   2.661
 8595TIP3    H125749   2.203   5.490   2.719
 8595TIP3    H225750   2.095   5.384   2.716
 8596TIP3   OH225751   4.598   4.021   1.564
 8596TIP3    H125752   4.609   3.938   1.519
 8596TIP3    H225753   4.514   4.013   1.608
 8597TIP3   OH225754   1.554   5.794   0.784
 8597TIP3    H125755   1.486   5.860   0.797
 8597TIP3    H225756   1.544   5.734   0.858
 8598TIP3   OH225757   5.576   4.630   2.404
 8598TIP3    H125758   5.524   4.709   2.420
 8598TIP3    H225759   5.520   4.558   2.432
 8599TIP3   OH225760   4.187   4.609   4.203
 8599TIP3    H125761   4.233   4.575   4.279
 8599TIP3    H225762   4.095   4.586   4.217
 8600TIP3   OH225763   4.385   1.088   5.212
 8600TIP3    H125764   4.295   1.083   5.243
 8600TIP3    H225765   4.433   1.024   5.265
 8601TIP3   OH225766   1.640   0.418   3.709
 8601TIP3    H125767   1.708   0.435   3.774
 8601TIP3    H225768   1.681   0.357   3.647
 8602TIP3   OH225769   0.172   6.610   0.621
 8602TIP3    H125770   0.169   6.698   0.658
 8602TIP3    H225771   0.099   6.565   0.662
 8603TIP3   OH225772   2.679   6.419   2.228
 8603TIP3    H125773   2.772   6.406   2.212
 8603TIP3    H225774   2.657   6.358   2.299
 8604TIP3   OH225775   2.258   0.955   4.451
 8604TIP3    H125776   2.250   1.004   4.533
 8604TIP3    H225777   2.350   0.964   4.427
 8605TIP3   OH225778   6.646   0.340   2.224
 8605TIP3    H125779   6.566   0.291   2.243
 8605TIP3    H225780   6.621   0.432   2.234
 8606TIP3   OH225781   4.431   6.479   3.720
 8606TIP3    H125782   4.380   6.529   3.784
 8606TIP3    H225783   4.424   6.388   3.749
 8607TIP3   OH225784   6.188   6.118   0.470
 8607TIP3    H125785   6.195   6.212   0.452
 8607TIP3    H225786   6.211   6.076   0.387
 8608TIP3   OH225787   2.736   4.744   3.808
 8608TIP3    H125788   2.703   4.683   3.873
 8608TIP3    H225789   2.737   4.694   3.726
 8609TIP3   OH225790   0.202   5.670   4.877
 8609TIP3    H125791   0.291   5.694   4.850
 8609TIP3    H225792   0.158   5.753   4.892
 8610TIP3   OH225793   6.380   0.871   5.349
 8610TIP3    H125794   6.445   0.808   5.315
 8610TIP3    H225795   6.398   0.875   5.443
 8611TIP3   OH225796   5.545   0.667   2.909
 8611TIP3    H125797   5.456   0.633   2.896
 8611TIP3    H225798   5.597   0.588   2.927
 8612TIP3   OH225799   4.119   2.140   2.211
 8612TIP3    H125800   4.056   2.199   2.170
 8612TIP3    H225801   4.202   2.189   2.209
 8613TIP3   OH225802   3.710   6.054   0.228
 8613TIP3    H125803   3.623   6.044   0.189
 8613TIP3    H225804   3.760   5.979   0.195
 8614TIP3   OH225805   5.855   1.440   2.705
 8614TIP3    H125806   5.889   1.482   2.626
 8614TIP3    H225807   5.819   1.512   2.757
 8615TIP3   OH225808   0.371   3.489   4.997
 8615TIP3    H125809   0.330   3.570   4.967
 8615TIP3    H225810   0.358   3.489   5.092
 8616TIP3   OH225811   3.820   3.844   5.229
 8616TIP3    H125812   3.912   3.872   5.221
 8616TIP3    H225813   3.825   3.759   5.273
 8617TIP3   OH225814   0.737   2.573   4.516
 8617TIP3    H125815   0.722   2.549   4.608
 8617TIP3    H225816   0.820   2.622   4.517
 8618TIP3   OH225817   4.555   0.458   1.391
 8618TIP3    H125818   4.598   0.396   1.331
 8618TIP3    H225819   4.585   0.432   1.478
 8619TIP3   OH225820   5.240   1.344   1.528
 8619TIP3    H125821   5.311   1.310   1.473
 8619TIP3    H225822   5.244   1.291   1.608
 8620TIP3   OH225823   7.086   4.856   0.155
 8620TIP3    H125824   7.142   4.797   0.105
 8620TIP3    H225825   7.009   4.802   0.176
 8621TIP3   OH225826   2.781   3.991   3.156
 8621TIP3    H125827   2.722   3.950   3.093
 8621TIP3    H225828   2.724   4.028   3.222
 8622TIP3   OH225829   6.904   2.885   5.472
 8622TIP3    H125830   6.907   2.951   5.403
 8622TIP3    H225831   6.841   2.920   5.535
 8623TIP3   OH225832   1.354   4.737   4.105
 8623TIP3    H125833   1.267   4.744   4.143
 8623TIP3    H225834   1.414   4.755   4.177
 8624TIP3   OH225835   7.084   6.492   3.217
 8624TIP3    H125836   7.121   6.442   3.290
 8624TIP3    H225837   7.046   6.425   3.159
 8625TIP3   OH225838   1.413   2.109   5.793
 8625TIP3    H125839   1.492   2.073   5.833
 8625TIP3    H225840   1.404   2.061   5.710
 8626TIP3   OH225841   0.323   3.093   1.138
 8626TIP3    H125842   0.270   3.034   1.083
 8626TIP3    H225843   0.292   3.181   1.115
 8627TIP3   OH225844   0.873   5.319   5.568
 8627TIP3    H125845   0.908   5.252   5.510
 8627TIP3    H225846   0.803   5.275   5.616
 8628TIP3   OH225847   6.780   0.928   1.697
 8628TIP3    H125848   6.727   1.004   1.671
 8628TIP3    H225849   6.810   0.891   1.614
 8629TIP3   OH225850   1.683   3.091   3.750
 8629TIP3    H125851   1.741   3.016   3.760
 8629TIP3    H225852   1.741   3.167   3.749
 8630TIP3   OH225853   4.540   3.956   4.048
 8630TIP3    H125854   4.557   4.027   4.110
 8630TIP3    H225855   4.622   3.908   4.042
 8631TIP3   OH225856   7.154   5.805   1.081
 8631TIP3    H125857   7.198   5.890   1.083
 8631TIP3    H225858   7.225   5.740   1.080
 8632TIP3   OH225859   3.684   5.174   2.083
 8632TIP3    H125860   3.657   5.255   2.126
 8632TIP3    H225861   3.717   5.202   1.998
 8633TIP3   OH225862   2.155   2.715   3.907
 8633TIP3    H125863   2.118   2.684   3.824
 8633TIP3    H225864   2.177   2.635   3.955
 8634TIP3   OH225865   3.387   4.797   3.205
 8634TIP3    H125866   3.336   4.734   3.257
 8634TIP3    H225867   3.447   4.744   3.154
 8635TIP3   OH225868   1.308   6.182   1.677
 8635TIP3    H125869   1.242   6.145   1.735
 8635TIP3    H225870   1.390   6.141   1.703
 8636TIP3   OH225871   0.015   2.922   4.374
 8636TIP3    H125872   0.047   2.841   4.336
 8636TIP3    H225873  -0.006   2.900   4.465
 8637TIP3   OH225874   1.098   1.437   0.877
 8637TIP3    H125875   1.135   1.359   0.919
 8637TIP3    H225876   1.010   1.443   0.914
 8638TIP3   OH225877   5.476   0.849   2.202
 8638TIP3    H125878   5.436   0.762   2.200
 8638TIP3    H225879   5.447   0.891   2.121
 8639TIP3   OH225880   1.338   0.329   4.573
 8639TIP3    H125881   1.345   0.372   4.658
 8639TIP3    H225882   1.272   0.380   4.525
 8640TIP3   OH225883   0.061   4.259   5.317
 8640TIP3    H125884   0.078   4.333   5.259
 8640TIP3    H225885   0.074   4.294   5.405
 8641TIP3   OH225886   0.487   2.673   5.310
 8641TIP3    H125887   0.439   2.640   5.386
 8641TIP3    H225888   0.552   2.605   5.291
 8642TIP3   OH225889   5.796   3.287   5.904
 8642TIP3    H125890   5.874   3.334   5.876
 8642TIP3    H225891   5.772   3.234   5.828
 8643TIP3   OH225892   6.030   0.271   4.209
 8643TIP3    H125893   5.973   0.203   4.245
 8643TIP3    H225894   6.102   0.276   4.271
 8644TIP3   OH225895   2.268   3.705   3.881
 8644TIP3    H125896   2.284   3.611   3.868
 8644TIP3    H225897   2.332   3.748   3.824
 8645TIP3   OH225898   3.849   1.084   3.577
 8645TIP3    H125899   3.758   1.090   3.549
 8645TIP3    H225900   3.896   1.054   3.498
 8646TIP3   OH225901   6.347   4.580   0.385
 8646TIP3    H125902   6.431   4.621   0.404
 8646TIP3    H225903   6.361   4.535   0.302
 8647TIP3   OH225904   4.994   3.892   1.105
 8647TIP3    H125905   5.062   3.847   1.155
 8647TIP3    H225906   4.953   3.951   1.168
 8648TIP3   OH225907   3.679   4.565   0.881
 8648TIP3    H125908   3.639   4.562   0.794
 8648TIP3    H225909   3.725   4.648   0.884
 8649TIP3   OH225910   1.258   4.366   1.401
 8649TIP3    H125911   1.223   4.277   1.408
 8649TIP3    H225912   1.258   4.385   1.308
 8650TIP3   OH225913   0.896   3.413   5.761
 8650TIP3    H125914   0.898   3.378   5.672
 8650TIP3    H225915   0.826   3.478   5.759
 8651TIP3   OH225916   4.123   4.172   4.268
 8651TIP3    H125917   4.156   4.165   4.178
 8651TIP3    H225918   4.166   4.249   4.304
 8652TIP3   OH225919   4.939   2.375   3.093
 8652TIP3    H125920   4.845   2.366   3.107
 8652TIP3    H225921   4.972   2.409   3.176
 8653TIP3   OH225922   1.432   5.133   1.030
 8653TIP3    H125923   1.523   5.116   1.005
 8653TIP3    H225924   1.392   5.046   1.037
 8654TIP3   OH225925   1.868   2.969   2.946
 8654TIP3    H125926   1.917   3.051   2.956
 8654TIP3    H225927   1.917   2.920   2.881
 8655TIP3   OH225928   2.091   4.952   5.672
 8655TIP3    H125929   2.072   4.978   5.582
 8655TIP3    H225930   2.028   5.001   5.725
 8656TIP3   OH225931   2.291   2.366   4.564
 8656TIP3    H125932   2.242   2.404   4.491
 8656TIP3    H225933   2.233   2.300   4.601
 8657TIP3   OH225934   6.857   5.058   5.020
 8657TIP3    H125935   6.799   4.982   5.024
 8657TIP3    H225936   6.940   5.027   5.057
 8658TIP3   OH225937   0.543   0.263   5.649
 8658TIP3    H125938   0.599   0.319   5.595
 8658TIP3    H225939   0.542   0.179   5.603
 8659TIP3   OH225940   6.283   0.611   1.699
 8659TIP3    H125941   6.328   0.527   1.695
 8659TIP3    H225942   6.221   0.609   1.627
 8660TIP3   OH225943   1.896   5.321   4.354
 8660TIP3    H125944   1.898   5.264   4.278
 8660TIP3    H225945   1.967   5.290   4.410
 8661TIP3   OH225946   4.585   1.860   3.221
 8661TIP3    H125947   4.634   1.817   3.151
 8661TIP3    H225948   4.651   1.881   3.287
 8662TIP3   OH225949   2.463   5.302   1.376
 8662TIP3    H125950   2.548   5.337   1.404
 8662TIP3    H225951   2.472   5.207   1.389
 8663TIP3   OH225952   4.958   1.295   1.602
 8663TIP3    H125953   5.046   1.318   1.571
 8663TIP3    H225954   4.909   1.275   1.522
 8664TIP3   OH225955   3.414   5.874   0.585
 8664TIP3    H125956   3.348   5.817   0.545
 8664TIP3    H225957   3.417   5.845   0.676
 8665TIP3   OH225958   4.766   0.990   1.490
 8665TIP3    H125959   4.736   1.063   1.545
 8665TIP3    H225960   4.857   1.010   1.471
 8666TIP3   OH225961   4.630   0.658   1.942
 8666TIP3    H125962   4.696   0.727   1.930
 8666TIP3    H225963   4.550   0.696   1.904
 8667TIP3   OH225964   4.681   1.223   3.988
 8667TIP3    H125965   4.622   1.166   3.939
 8667TIP3    H225966   4.624   1.268   4.051
 8668TIP3   OH225967   4.484   1.916   0.964
 8668TIP3    H125968   4.446   1.996   0.999
 8668TIP3    H225969   4.442   1.904   0.879
 8669TIP3   OH225970   5.609   6.580   3.817
 8669TIP3    H125971   5.547   6.511   3.794
 8669TIP3    H225972   5.687   6.562   3.764
 8670TIP3   OH225973   1.665   5.166   4.435
 8670TIP3    H125974   1.708   5.097   4.485
 8670TIP3    H225975   1.734   5.229   4.414
 8671TIP3   OH225976   0.541   4.955   3.937
 8671TIP3    H125977   0.483   4.917   4.002
 8671TIP3    H225978   0.490   4.956   3.856
 8672TIP3   OH225979   3.227   4.919   0.355
 8672TIP3    H125980   3.144   4.963   0.338
 8672TIP3    H225981   3.272   4.918   0.270
 8673TIP3   OH225982   5.831   4.688   3.448
 8673TIP3    H125983   5.802   4.702   3.358
 8673TIP3    H225984   5.882   4.607   3.444
 8674TIP3   OH225985   4.911   3.169   0.753
 8674TIP3    H125986   4.815   3.167   0.753
 8674TIP3    H225987   4.934   3.209   0.668
 8675TIP3   OH225988   0.954   0.325   5.418
 8675TIP3    H125989   0.909   0.347   5.336
 8675TIP3    H225990   0.894   0.356   5.487
 8676TIP3   OH225991   4.053   5.385   5.773
 8676TIP3    H125992   4.058   5.367   5.867
 8676TIP3    H225993   4.007   5.469   5.767
 8677TIP3   OH225994   1.045   0.949   1.049
 8677TIP3    H125995   1.036   0.924   1.141
 8677TIP3    H225996   1.099   0.880   1.011
 8678TIP3   OH225997   4.223   0.311   2.993
 8678TIP3    H125998   4.300   0.338   2.942
 8678TIP3    H225999   4.158   0.379   2.976
 8679TIP3   OH226000   1.446   3.980   0.046
 8679TIP3    H126001   1.466   4.046   0.112
 8679TIP3    H226002   1.383   4.023  -0.012
 8680TIP3   OH226003   5.070   1.178   0.719
 8680TIP3    H126004   4.979   1.174   0.747
 8680TIP3    H226005   5.080   1.264   0.679
 8681TIP3   OH226006   4.773   3.924   2.022
 8681TIP3    H126007   4.697   3.868   2.013
 8681TIP3    H226008   4.741   4.003   2.066
 8682TIP3   OH226009   6.808   4.416   2.207
 8682TIP3    H126010   6.729   4.383   2.249
 8682TIP3    H226011   6.777   4.477   2.140
 8683TIP3   OH226012   1.975   5.821   0.366
 8683TIP3    H126013   2.067   5.834   0.345
 8683TIP3    H226014   1.970   5.829   0.461
 8684TIP3   OH226015   1.767   3.143   2.435
 8684TIP3    H126016   1.747   3.052   2.455
 8684TIP3    H226017   1.791   3.143   2.343
 8685TIP3   OH226018   7.165   5.542   4.100
 8685TIP3    H126019   7.136   5.596   4.174
 8685TIP3    H226020   7.085   5.526   4.049
 8686TIP3   OH226021   4.924   0.106   5.169
 8686TIP3    H126022   4.836   0.089   5.204
 8686TIP3    H226023   4.909   0.156   5.089
 8687TIP3   OH226024   4.299   2.670   0.612
 8687TIP3    H126025   4.262   2.660   0.525
 8687TIP3    H226026   4.393   2.654   0.601
 8688TIP3   OH226027   3.398   0.205   3.834
 8688TIP3    H126028   3.395   0.283   3.890
 8688TIP3    H226029   3.383   0.133   3.895
 8689TIP3   OH226030   4.950   0.843   1.108
 8689TIP3    H126031   4.916   0.926   1.075
 8689TIP3    H226032   4.893   0.820   1.181
 8690TIP3   OH226033   6.309   6.087   3.709
 8690TIP3    H126034   6.315   6.014   3.648
 8690TIP3    H226035   6.311   6.165   3.653
 8691TIP3   OH226036   2.287   2.754   1.446
 8691TIP3    H126037   2.335   2.691   1.500
 8691TIP3    H226038   2.327   2.839   1.466
 8692TIP3   OH226039   4.508   4.739   2.782
 8692TIP3    H126040   4.570   4.694   2.840
 8692TIP3    H226041   4.560   4.764   2.706
 8693TIP3   OH226042   2.262   4.945   0.864
 8693TIP3    H126043   2.260   5.026   0.812
 8693TIP3    H226044   2.354   4.935   0.887
 8694TIP3   OH226045   4.683   2.154   0.572
 8694TIP3    H126046   4.661   2.181   0.661
 8694TIP3    H226047   4.620   2.201   0.517
 8695TIP3   OH226048   6.307   3.052   1.063
 8695TIP3    H126049   6.300   3.036   0.969
 8695TIP3    H226050   6.231   3.106   1.085
 8696TIP3   OH226051   5.545   1.627   1.410
 8696TIP3    H126052   5.576   1.589   1.492
 8696TIP3    H226053   5.625   1.661   1.368
 8697TIP3   OH226054   0.042   1.377   4.060
 8697TIP3    H126055   0.033   1.339   3.973
 8697TIP3    H226056   0.122   1.428   4.056
 8698TIP3   OH226057   6.951   3.677   0.871
 8698TIP3    H126058   6.898   3.599   0.854
 8698TIP3    H226059   6.941   3.693   0.965
 8699TIP3   OH226060   5.567   3.668   4.336
 8699TIP3    H126061   5.630   3.740   4.327
 8699TIP3    H226062   5.556   3.658   4.430
 8700TIP3   OH226063   4.132   6.793   2.831
 8700TIP3    H126064   4.174   6.875   2.858
 8700TIP3    H226065   4.195   6.725   2.855
 8701TIP3   OH226066   1.534   5.395   1.323
 8701TIP3    H126067   1.438   5.399   1.326
 8701TIP3    H226068   1.561   5.385   1.414
 8702TIP3   OH226069   4.654   2.776   5.367
 8702TIP3    H126070   4.589   2.768   5.436
 8702TIP3    H226071   4.612   2.830   5.300
 8703TIP3   OH226072   4.774   4.898   1.864
 8703TIP3    H126073   4.863   4.916   1.834
 8703TIP3    H226074   4.779   4.901   1.959
 8704TIP3   OH226075   4.644   6.312   3.551
 8704TIP3    H126076   4.684   6.398   3.535
 8704TIP3    H226077   4.653   6.298   3.645
 8705TIP3   OH226078   0.757   2.955   2.778
 8705TIP3    H126079   0.752   3.033   2.723
 8705TIP3    H226080   0.665   2.934   2.798
 8706TIP3   OH226081   6.617   3.156   2.534
 8706TIP3    H126082   6.597   3.221   2.467
 8706TIP3    H226083   6.531   3.125   2.564
 8707TIP3   OH226084   4.825   5.724   0.861
 8707TIP3    H126085   4.754   5.774   0.821
 8707TIP3    H226086   4.784   5.679   0.935
 8708TIP3   OH226087   0.248   5.856   1.697
 8708TIP3    H126088   0.192   5.874   1.773
 8708TIP3    H226089   0.216   5.914   1.629
 8709TIP3   OH226090   3.046   5.708   4.186
 8709TIP3    H126091   3.080   5.724   4.098
 8709TIP3    H226092   3.033   5.614   4.190
 8710TIP3   OH226093   2.386   4.819   1.341
 8710TIP3    H126094   2.432   4.824   1.257
 8710TIP3    H226095   2.318   4.753   1.328
 8711TIP3   OH226096   0.963   5.506   2.538
 8711TIP3    H126097   0.907   5.489   2.614
 8711TIP3    H226098   0.948   5.431   2.481
 8712TIP3   OH226099   1.887   3.926   0.290
 8712TIP3    H126100   1.880   4.004   0.346
 8712TIP3    H226101   1.941   3.865   0.341
 8713TIP3   OH226102   6.086   5.045   5.844
 8713TIP3    H126103   6.000   5.075   5.817
 8713TIP3    H226104   6.122   5.002   5.767
 8714TIP3   OH226105   1.598   3.402   1.009
 8714TIP3    H126106   1.633   3.321   1.046
 8714TIP3    H226107   1.533   3.372   0.945
 8715TIP3   OH226108   0.241   3.686   4.816
 8715TIP3    H126109   0.299   3.639   4.757
 8715TIP3    H226110   0.292   3.762   4.844
 8716TIP3   OH226111   2.790   3.111   4.351
 8716TIP3    H126112   2.820   3.172   4.283
 8716TIP3    H226113   2.868   3.060   4.373
 8717TIP3   OH226114   3.478   0.313   3.561
 8717TIP3    H126115   3.474   0.223   3.593
 8717TIP3    H226116   3.569   0.324   3.532
 8718TIP3   OH226117   0.300   1.777   0.731
 8718TIP3    H126118   0.276   1.843   0.665
 8718TIP3    H226119   0.286   1.820   0.815
 8719TIP3   OH226120   5.249   1.682   2.625
 8719TIP3    H126121   5.183   1.746   2.652
 8719TIP3    H226122   5.274   1.709   2.537
 8720TIP3   OH226123   4.893   6.042   2.442
 8720TIP3    H126124   4.965   6.087   2.484
 8720TIP3    H226125   4.831   6.111   2.417
 8721TIP3   OH226126   2.203   0.023   1.265
 8721TIP3    H126127   2.186   0.014   1.359
 8721TIP3    H226128   2.293  -0.007   1.254
 8722TIP3   OH226129   0.508   6.601   3.963
 8722TIP3    H126130   0.459   6.663   3.909
 8722TIP3    H226131   0.544   6.655   4.034
 8723TIP3   OH226132   3.264   5.820   3.031
 8723TIP3    H126133   3.352   5.804   3.064
 8723TIP3    H226134   3.267   5.792   2.940
 8724TIP3   OH226135   1.222   4.250   4.247
 8724TIP3    H126136   1.185   4.255   4.159
 8724TIP3    H226137   1.280   4.326   4.252
 8725TIP3   OH226138   0.495   1.924   5.196
 8725TIP3    H126139   0.504   1.904   5.289
 8725TIP3    H226140   0.520   1.843   5.151
 8726TIP3   OH226141   2.664   6.230   4.959
 8726TIP3    H126142   2.688   6.319   4.934
 8726TIP3    H226143   2.721   6.209   5.033
 8727TIP3   OH226144   3.319   6.053   0.954
 8727TIP3    H126145   3.281   6.071   0.868
 8727TIP3    H226146   3.335   6.139   0.992
 8728TIP3   OH226147   5.047   5.531   4.109
 8728TIP3    H126148   5.098   5.467   4.158
 8728TIP3    H226149   5.113   5.582   4.061
 8729TIP3   OH226150   1.716   4.516   4.985
 8729TIP3    H126151   1.739   4.423   4.992
 8729TIP3    H226152   1.737   4.538   4.894
 8730TIP3   OH226153   4.723   1.713   3.046
 8730TIP3    H126154   4.703   1.710   2.952
 8730TIP3    H226155   4.818   1.705   3.051
 8731TIP3   OH226156   2.192   2.046   3.378
 8731TIP3    H126157   2.287   2.051   3.378
 8731TIP3    H226158   2.171   1.980   3.445
 8732TIP3   OH226159   2.224   4.734   2.166
 8732TIP3    H126160   2.246   4.822   2.197
 8732TIP3    H226161   2.265   4.676   2.231
 8733TIP3   OH226162   6.861   6.745   5.188
 8733TIP3    H126163   6.779   6.789   5.212
 8733TIP3    H226164   6.834   6.677   5.126
 8734TIP3   OH226165   5.298   2.099   2.900
 8734TIP3    H126166   5.346   2.061   2.826
 8734TIP3    H226167   5.254   2.024   2.940
 8735TIP3   OH226168   2.237   1.123   4.712
 8735TIP3    H126169   2.212   1.208   4.675
 8735TIP3    H226170   2.208   1.128   4.803
 8736TIP3   OH226171   4.871   0.623   4.081
 8736TIP3    H126172   4.957   0.629   4.040
 8736TIP3    H226173   4.871   0.694   4.146
 8737TIP3   OH226174   0.753   5.303   2.845
 8737TIP3    H126175   0.754   5.271   2.935
 8737TIP3    H226176   0.837   5.275   2.808
 8738TIP3   OH226177   5.652   1.583   3.210
 8738TIP3    H126178   5.583   1.587   3.143
 8738TIP3    H226179   5.604   1.578   3.293
 8739TIP3   OH226180   3.850   2.326   2.450
 8739TIP3    H126181   3.871   2.366   2.366
 8739TIP3    H226182   3.764   2.362   2.473
 8740TIP3   OH226183   5.116   1.243   3.279
 8740TIP3    H126184   5.180   1.172   3.275
 8740TIP3    H226185   5.100   1.256   3.373
 8741TIP3   OH226186   1.817   5.945   3.959
 8741TIP3    H126187   1.749   6.010   3.940
 8741TIP3    H226188   1.891   5.997   3.990
 8742TIP3   OH226189   6.028   2.589   3.350
 8742TIP3    H126190   5.932   2.590   3.347
 8742TIP3    H226191   6.049   2.531   3.423
 8743TIP3   OH226192   5.426   2.000   5.408
 8743TIP3    H126193   5.424   1.977   5.501
 8743TIP3    H226194   5.491   2.069   5.402
 8744TIP3   OH226195   2.329   3.441   4.778
 8744TIP3    H126196   2.273   3.500   4.829
 8744TIP3    H226197   2.408   3.491   4.759
 8745TIP3   OH226198   4.485   4.288   2.189
 8745TIP3    H126199   4.501   4.380   2.170
 8745TIP3    H226200   4.527   4.241   2.117
 8746TIP3   OH226201   6.609   5.443   3.604
 8746TIP3    H126202   6.594   5.392   3.683
 8746TIP3    H226203   6.700   5.470   3.609
 8747TIP3   OH226204   6.839   1.859   2.558
 8747TIP3    H126205   6.812   1.772   2.587
 8747TIP3    H226206   6.761   1.913   2.565
 8748TIP3   OH226207   3.954   1.462   0.567
 8748TIP3    H126208   3.917   1.392   0.621
 8748TIP3    H226209   3.917   1.543   0.602
 8749TIP3   OH226210   6.808   1.243   2.075
 8749TIP3    H126211   6.854   1.221   1.995
 8749TIP3    H226212   6.735   1.298   2.046
 8750TIP3   OH226213   4.269   1.867   2.768
 8750TIP3    H126214   4.292   1.958   2.746
 8750TIP3    H226215   4.321   1.814   2.708
 8751TIP3   OH226216   1.634   0.641   3.072
 8751TIP3    H126217   1.684   0.568   3.108
 8751TIP3    H226218   1.544   0.608   3.068
 8752TIP3   OH226219   5.762   2.466   3.262
 8752TIP3    H126220   5.742   2.509   3.179
 8752TIP3    H226221   5.705   2.509   3.325
 8753TIP3   OH226222   4.446   0.577   2.166
 8753TIP3    H126223   4.490   0.623   2.094
 8753TIP3    H226224   4.509   0.581   2.238
 8754TIP3   OH226225   6.454   2.978   0.173
 8754TIP3    H126226   6.530   3.029   0.149
 8754TIP3    H226227   6.441   2.996   0.266
 8755TIP3   OH226228   2.245   4.015   1.389
 8755TIP3    H126229   2.187   3.951   1.348
 8755TIP3    H226230   2.282   4.064   1.315
 8756TIP3   OH226231   1.484   3.742   3.191
 8756TIP3    H126232   1.444   3.689   3.259
 8756TIP3    H226233   1.540   3.681   3.143
 8757TIP3   OH226234   5.058   5.810   0.527
 8757TIP3    H126235   5.063   5.800   0.622
 8757TIP3    H226236   5.087   5.726   0.492
 8758TIP3   OH226237   3.528   4.765   5.145
 8758TIP3    H126238   3.606   4.760   5.201
 8758TIP3    H226239   3.456   4.780   5.206
 8759TIP3   OH226240   3.374   2.708   0.946
 8759TIP3    H126241   3.420   2.774   0.997
 8759TIP3    H226242   3.294   2.751   0.917
 8760TIP3   OH226243   7.039   0.029   3.595
 8760TIP3    H126244   7.017   0.110   3.641
 8760TIP3    H226245   7.058   0.057   3.505
 8761TIP3   OH226246   3.076   0.152   4.955
 8761TIP3    H126247   3.167   0.180   4.960
 8761TIP3    H226248   3.077   0.060   4.980
 8762TIP3   OH226249   5.981   5.564   2.652
 8762TIP3    H126250   5.909   5.501   2.650
 8762TIP3    H226251   6.049   5.521   2.705
 8763TIP3   OH226252   0.576   3.054   0.219
 8763TIP3    H126253   0.653   3.023   0.267
 8763TIP3    H226254   0.584   3.150   0.220
 8764TIP3   OH226255   3.271   2.848   3.921
 8764TIP3    H126256   3.269   2.766   3.871
 8764TIP3    H226257   3.253   2.821   4.011
 8765TIP3   OH226258   1.872   2.137   4.747
 8765TIP3    H126259   1.926   2.133   4.826
 8765TIP3    H226260   1.809   2.067   4.758
 8766TIP3   OH226261   0.008   4.637   0.013
 8766TIP3    H126262  -0.054   4.564   0.002
 8766TIP3    H226263   0.094   4.597  -0.001
 8767TIP3   OH226264   4.357   0.412   0.970
 8767TIP3    H126265   4.451   0.402   0.984
 8767TIP3    H226266   4.333   0.335   0.918
 8768TIP3   OH226267   0.687   4.119   5.473
 8768TIP3    H126268   0.766   4.138   5.422
 8768TIP3    H226269   0.617   4.169   5.430
 8769TIP3   OH226270   4.439   3.606   4.913
 8769TIP3    H126271   4.397   3.558   4.842
 8769TIP3    H226272   4.532   3.604   4.891
 8770TIP3   OH226273   3.647   5.681   3.613
 8770TIP3    H126274   3.735   5.719   3.620
 8770TIP3    H226275   3.594   5.734   3.672
 8771TIP3   OH226276   0.009   0.451   4.885
 8771TIP3    H126277  -0.047   0.443   4.808
 8771TIP3    H226278   0.087   0.496   4.853
 8772TIP3   OH226279   1.208   6.566   2.224
 8772TIP3    H126280   1.170   6.569   2.311
 8772TIP3    H226281   1.250   6.480   2.219
 8773TIP3   OH226282   1.901   0.075   4.541
 8773TIP3    H126283   1.921   0.168   4.547
 8773TIP3    H226284   1.866   0.063   4.453
 8774TIP3   OH226285   2.179   4.348   3.938
 8774TIP3    H126286   2.122   4.272   3.926
 8774TIP3    H226287   2.139   4.398   4.009
 8775TIP3   OH226288   6.174   4.761   0.534
 8775TIP3    H126289   6.245   4.768   0.470
 8775TIP3    H226290   6.199   4.687   0.589
 8776TIP3   OH226291   2.475   1.598   1.675
 8776TIP3    H126292   2.566   1.600   1.647
 8776TIP3    H226293   2.473   1.536   1.747
 8777TIP3   OH226294   0.820   3.724   3.345
 8777TIP3    H126295   0.726   3.738   3.356
 8777TIP3    H226296   0.848   3.795   3.287
 8778TIP3   OH226297   3.271   4.940   2.988
 8778TIP3    H126298   3.181   4.921   3.018
 8778TIP3    H226299   3.326   4.921   3.065
 8779TIP3   OH226300   3.180   1.590   2.998
 8779TIP3    H126301   3.120   1.658   2.968
 8779TIP3    H226302   3.193   1.609   3.091
 8780TIP3   OH226303   4.936   1.588   0.281
 8780TIP3    H126304   4.871   1.565   0.215
 8780TIP3    H226305   5.014   1.539   0.256
 8781TIP3   OH226306   3.212   4.432   1.335
 8781TIP3    H126307   3.209   4.524   1.363
 8781TIP3    H226308   3.274   4.391   1.395
 8782TIP3   OH226309   1.756   6.538   4.049
 8782TIP3    H126310   1.675   6.585   4.029
 8782TIP3    H226311   1.793   6.586   4.123
 8783TIP3   OH226312   5.963   4.370   4.646
 8783TIP3    H126313   5.917   4.433   4.591
 8783TIP3    H226314   5.894   4.315   4.683
 8784TIP3   OH226315   6.502   3.003   4.747
 8784TIP3    H126316   6.469   3.082   4.790
 8784TIP3    H226317   6.577   3.033   4.696
 8785TIP3   OH226318   5.603   6.666   4.085
 8785TIP3    H126319   5.619   6.632   3.997
 8785TIP3    H226320   5.541   6.605   4.124
 8786TIP3   OH226321   0.770   6.622   4.643
 8786TIP3    H126322   0.715   6.699   4.634
 8786TIP3    H226323   0.716   6.549   4.614
 8787TIP3   OH226324   2.668   5.892   0.907
 8787TIP3    H126325   2.749   5.861   0.866
 8787TIP3    H226326   2.684   5.985   0.923
 8788TIP3   OH226327   7.197   1.875   5.137
 8788TIP3    H126328   7.157   1.835   5.060
 8788TIP3    H226329   7.123   1.895   5.195
 8789TIP3   OH226330   3.659   6.577   1.397
 8789TIP3    H126331   3.716   6.536   1.332
 8789TIP3    H226332   3.658   6.516   1.471
 8790TIP3   OH226333   0.724   1.102   4.899
 8790TIP3    H126334   0.638   1.098   4.856
 8790TIP3    H226335   0.705   1.087   4.992
 8791TIP3   OH226336   1.382   2.395   2.091
 8791TIP3    H126337   1.300   2.361   2.129
 8791TIP3    H226338   1.442   2.399   2.165
 8792TIP3   OH226339   6.965   2.673   3.958
 8792TIP3    H126340   6.911   2.607   3.915
 8792TIP3    H226341   7.053   2.636   3.956
 8793TIP3   OH226342   6.881   2.422   3.866
 8793TIP3    H126343   6.874   2.335   3.825
 8793TIP3    H226344   6.792   2.441   3.896
 8794TIP3   OH226345  -0.012   3.366   5.234
 8794TIP3    H126346   0.061   3.315   5.199
 8794TIP3    H226347   0.016   3.457   5.223
 8795TIP3   OH226348   1.390   1.924   4.137
 8795TIP3    H126349   1.470   1.890   4.178
 8795TIP3    H226350   1.417   2.007   4.098
 8796TIP3   OH226351   5.147   4.798   3.330
 8796TIP3    H126352   5.101   4.880   3.313
 8796TIP3    H226353   5.151   4.793   3.426
 8797TIP3   OH226354   2.595   3.711   3.953
 8797TIP3    H126355   2.615   3.730   3.862
 8797TIP3    H226356   2.679   3.684   3.991
 8798TIP3   OH226357   5.091   2.975   0.718
 8798TIP3    H126358   5.060   2.947   0.632
 8798TIP3    H226359   5.022   3.032   0.752
 8799TIP3   OH226360   1.943   2.101   0.770
 8799TIP3    H126361   1.898   2.018   0.787
 8799TIP3    H226362   1.930   2.117   0.677
 8800TIP3   OH226363   1.062   6.240   2.275
 8800TIP3    H126364   1.123   6.166   2.272
 8800TIP3    H226365   1.098   6.298   2.343
 8801TIP3   OH226366   5.685   4.289   3.580
 8801TIP3    H126367   5.591   4.277   3.563
 8801TIP3    H226368   5.729   4.251   3.504
 8802TIP3   OH226369   1.702   6.291   2.682
 8802TIP3    H126370   1.641   6.360   2.655
 8802TIP3    H226371   1.698   6.227   2.611
 8803TIP3   OH226372   3.679   3.611   0.091
 8803TIP3    H126373   3.759   3.559   0.084
 8803TIP3    H226374   3.641   3.586   0.175
 8804TIP3   OH226375   1.837   4.197   1.186
 8804TIP3    H126376   1.761   4.195   1.128
 8804TIP3    H226377   1.880   4.113   1.173
 8805TIP3   OH226378   4.745   0.427   3.744
 8805TIP3    H126379   4.816   0.364   3.755
 8805TIP3    H226380   4.781   0.493   3.685
 8806TIP3   OH226381   2.613   5.967   2.415
 8806TIP3    H126382   2.686   5.930   2.464
 8806TIP3    H226383   2.563   5.891   2.386
 8807TIP3   OH226384   1.192   3.789   1.244
 8807TIP3    H126385   1.173   3.696   1.254
 8807TIP3    H226386   1.274   3.791   1.194
 8808TIP3   OH226387   3.686   1.566   3.033
 8808TIP3    H126388   3.628   1.491   3.023
 8808TIP3    H226389   3.668   1.621   2.957
 8809TIP3   OH226390   2.319   3.165   5.640
 8809TIP3    H126391   2.271   3.100   5.691
 8809TIP3    H226392   2.294   3.249   5.678
 8810TIP3   OH226393   0.785   6.461   4.913
 8810TIP3    H126394   0.811   6.553   4.919
 8810TIP3    H226395   0.828   6.429   4.834
 8811TIP3   OH226396   4.173   1.730   1.950
 8811TIP3    H126397   4.109   1.800   1.960
 8811TIP3    H226398   4.125   1.659   1.908
 8812TIP3   OH226399   3.196   3.578   3.065
 8812TIP3    H126400   3.262   3.532   3.014
 8812TIP3    H226401   3.120   3.520   3.065
 8813TIP3   OH226402   1.460   0.872   1.028
 8813TIP3    H126403   1.371   0.839   1.015
 8813TIP3    H226404   1.516   0.794   1.021
 8814TIP3   OH226405   5.756   2.216   5.037
 8814TIP3    H126406   5.828   2.166   4.997
 8814TIP3    H226407   5.687   2.212   4.971
 8815TIP3   OH226408   3.727   6.169   5.342
 8815TIP3    H126409   3.659   6.180   5.277
 8815TIP3    H226410   3.808   6.164   5.291
 8816TIP3   OH226411   3.110   0.487   3.154
 8816TIP3    H126412   3.068   0.401   3.143
 8816TIP3    H226413   3.181   0.487   3.089
 8817TIP3   OH226414   0.553   3.527   5.520
 8817TIP3    H126415   0.531   3.533   5.427
 8817TIP3    H226416   0.509   3.448   5.550
 8818TIP3   OH226417   6.836   4.696   2.403
 8818TIP3    H126418   6.892   4.619   2.392
 8818TIP3    H226419   6.800   4.687   2.492
 8819TIP3   OH226420   4.363   4.639   1.305
 8819TIP3    H126421   4.306   4.623   1.230
 8819TIP3    H226422   4.446   4.599   1.281
 8820TIP3   OH226423   0.471   6.182   4.344
 8820TIP3    H126424   0.411   6.238   4.294
 8820TIP3    H226425   0.479   6.226   4.429
 8821TIP3   OH226426   1.616   0.847   3.387
 8821TIP3    H126427   1.652   0.914   3.445
 8821TIP3    H226428   1.633   0.765   3.433
 8822TIP3   OH226429   3.425   6.631   1.616
 8822TIP3    H126430   3.401   6.596   1.530
 8822TIP3    H226431   3.346   6.624   1.668
 8823TIP3   OH226432   2.611   2.824   2.940
 8823TIP3    H126433   2.580   2.859   3.024
 8823TIP3    H226434   2.706   2.838   2.942
 8824TIP3   OH226435   3.037   5.117   4.236
 8824TIP3    H126436   3.106   5.053   4.219
 8824TIP3    H226437   3.044   5.135   4.330
 8825TIP3   OH226438   0.989   4.919   4.568
 8825TIP3    H126439   1.020   5.001   4.606
 8825TIP3    H226440   0.906   4.902   4.611
 8826TIP3   OH226441   5.298   6.395   1.540
 8826TIP3    H126442   5.365   6.355   1.596
 8826TIP3    H226443   5.346   6.456   1.484
 8827TIP3   OH226444   2.133   1.794   1.697
 8827TIP3    H126445   2.114   1.774   1.605
 8827TIP3    H226446   2.168   1.712   1.733
 8828TIP3   OH226447   3.440   5.908   0.247
 8828TIP3    H126448   3.365   5.896   0.189
 8828TIP3    H226449   3.415   5.981   0.304
 8829TIP3   OH226450   6.084   5.489   5.876
 8829TIP3    H126451   6.104   5.494   5.782
 8829TIP3    H226452   6.145   5.551   5.916
 8830TIP3   OH226453   0.507   5.453   2.830
 8830TIP3    H126454   0.594   5.426   2.857
 8830TIP3    H226455   0.518   5.486   2.741
 8831TIP3   OH226456   3.080   6.570   3.487
 8831TIP3    H126457   3.085   6.594   3.580
 8831TIP3    H226458   3.001   6.612   3.455
 8832TIP3   OH226459   4.294   2.104   1.009
 8832TIP3    H126460   4.230   2.038   1.036
 8832TIP3    H226461   4.260   2.186   1.044
 8833TIP3   OH226462   6.392   3.798   3.532
 8833TIP3    H126463   6.365   3.889   3.519
 8833TIP3    H226464   6.345   3.769   3.610
 8834TIP3   OH226465   3.310   5.646   4.268
 8834TIP3    H126466   3.217   5.667   4.257
 8834TIP3    H226467   3.313   5.550   4.270
 8835TIP3   OH226468   1.274   3.473   5.681
 8835TIP3    H126469   1.324   3.544   5.643
 8835TIP3    H226470   1.339   3.414   5.718
 8836TIP3   OH226471   4.677   5.861   5.020
 8836TIP3    H126472   4.657   5.948   5.054
 8836TIP3    H226473   4.659   5.802   5.093
 8837TIP3   OH226474   3.195   3.606   4.833
 8837TIP3    H126475   3.126   3.672   4.837
 8837TIP3    H226476   3.177   3.558   4.752
 8838TIP3   OH226477   1.750   4.474   4.051
 8838TIP3    H126478   1.765   4.419   4.128
 8838TIP3    H226479   1.661   4.508   4.063
 8839TIP3   OH226480   3.811   0.949   3.829
 8839TIP3    H126481   3.863   0.994   3.762
 8839TIP3    H226482   3.759   0.885   3.780
 8840TIP3   OH226483   2.791   0.849   5.532
 8840TIP3    H126484   2.711   0.869   5.483
 8840TIP3    H226485   2.859   0.901   5.488
 8841TIP3   OH226486   3.010   6.521   1.643
 8841TIP3    H126487   2.921   6.500   1.669
 8841TIP3    H226488   3.060   6.442   1.662
 8842TIP3   OH226489   4.902   4.614   4.255
 8842TIP3    H126490   4.816   4.586   4.284
 8842TIP3    H226491   4.947   4.641   4.335
 8843TIP3   OH226492   4.597   6.427   5.035
 8843TIP3    H126493   4.512   6.405   5.073
 8843TIP3    H226494   4.657   6.362   5.070
 8844TIP3   OH226495   5.274   2.360   2.525
 8844TIP3    H126496   5.237   2.365   2.613
 8844TIP3    H226497   5.273   2.266   2.504
 8845TIP3   OH226498   4.260   6.425   4.160
 8845TIP3    H126499   4.270   6.374   4.241
 8845TIP3    H226500   4.176   6.468   4.170
 8846TIP3   OH226501   5.909   3.288   2.115
 8846TIP3    H126502   5.944   3.220   2.172
 8846TIP3    H226503   5.836   3.326   2.164
 8847TIP3   OH226504   2.097   4.882   3.643
 8847TIP3    H126505   2.019   4.885   3.587
 8847TIP3    H226506   2.119   4.974   3.658
 8848TIP3   OH226507   3.389   2.765   3.174
 8848TIP3    H126508   3.353   2.812   3.099
 8848TIP3    H226509   3.346   2.680   3.173
 8849TIP3   OH226510   3.310   0.542   4.642
 8849TIP3    H126511   3.215   0.549   4.633
 8849TIP3    H226512   3.344   0.555   4.553
 8850TIP3   OH226513   4.909   4.536   0.042
 8850TIP3    H126514   4.890   4.447   0.072
 8850TIP3    H226515   4.964   4.524  -0.036
 8851TIP3   OH226516   0.551   3.825   4.910
 8851TIP3    H126517   0.569   3.743   4.863
 8851TIP3    H226518   0.635   3.849   4.950
 8852TIP3   OH226519   0.735   2.157   4.377
 8852TIP3    H126520   0.830   2.160   4.360
 8852TIP3    H226521   0.728   2.141   4.471
 8853TIP3   OH226522   2.351   0.947   1.689
 8853TIP3    H126523   2.438   0.926   1.654
 8853TIP3    H226524   2.291   0.929   1.616
 8854TIP3   OH226525   0.519   4.416   1.570
 8854TIP3    H126526   0.550   4.357   1.638
 8854TIP3    H226527   0.593   4.472   1.551
 8855TIP3   OH226528   5.549   1.165   5.343
 8855TIP3    H126529   5.616   1.199   5.402
 8855TIP3    H226530   5.551   1.070   5.357
 8856TIP3   OH226531   4.799   0.610   0.001
 8856TIP3    H126532   4.784   0.654   0.085
 8856TIP3    H226533   4.809   0.518   0.024
 8857TIP3   OH226534   6.178   3.556   0.650
 8857TIP3    H126535   6.123   3.479   0.636
 8857TIP3    H226536   6.117   3.626   0.673
 8858TIP3   OH226537   1.824   5.036   1.728
 8858TIP3    H126538   1.747   5.070   1.774
 8858TIP3    H226539   1.788   4.974   1.664
 8859TIP3   OH226540   2.040   1.821   4.195
 8859TIP3    H126541   2.132   1.827   4.170
 8859TIP3    H226542   1.993   1.870   4.128
 8860TIP3   OH226543   2.679   0.568   3.212
 8860TIP3    H126544   2.773   0.582   3.228
 8860TIP3    H226545   2.676   0.516   3.131
 8861TIP3   OH226546   2.022   1.587   4.477
 8861TIP3    H126547   2.098   1.538   4.508
 8861TIP3    H226548   2.025   1.580   4.382
 8862TIP3   OH226549   5.139   2.315   2.755
 8862TIP3    H126550   5.055   2.341   2.793
 8862TIP3    H226551   5.167   2.240   2.809
 8863TIP3   OH226552   6.668   2.529   3.557
 8863TIP3    H126553   6.704   2.555   3.472
 8863TIP3    H226554   6.706   2.443   3.574
 8864TIP3   OH226555   7.036   4.965   5.203
 8864TIP3    H126556   7.067   4.884   5.244
 8864TIP3    H226557   7.105   5.029   5.223
 8865TIP3   OH226558   1.951   5.281   1.726
 8865TIP3    H126559   1.992   5.306   1.643
 8865TIP3    H226560   1.927   5.189   1.713
 8866TIP3   OH226561   6.001   0.772   0.049
 8866TIP3    H126562   5.913   0.769   0.088
 8866TIP3    H226563   6.039   0.686   0.069
 8867TIP3   OH226564   4.416   1.557   4.094
 8867TIP3    H126565   4.379   1.577   4.180
 8867TIP3    H226566   4.373   1.618   4.034
 8868TIP3   OH226567   1.474   4.475   4.127
 8868TIP3    H126568   1.427   4.553   4.099
 8868TIP3    H226569   1.459   4.471   4.221
 8869TIP3   OH226570   5.414   1.853   3.541
 8869TIP3    H126571   5.459   1.935   3.522
 8869TIP3    H226572   5.470   1.809   3.605
 8870TIP3   OH226573   4.914   3.284   2.566
 8870TIP3    H126574   4.821   3.295   2.587
 8870TIP3    H226575   4.957   3.359   2.607
 8871TIP3   OH226576   3.516   3.045   3.028
 8871TIP3    H126577   3.422   3.064   3.031
 8871TIP3    H226578   3.539   3.025   3.119
 8872TIP3   OH226579   5.244   4.913   4.016
 8872TIP3    H126580   5.314   4.863   3.975
 8872TIP3    H226581   5.171   4.851   4.022
 8873TIP3   OH226582   2.164   4.165   5.386
 8873TIP3    H126583   2.084   4.190   5.341
 8873TIP3    H226584   2.196   4.246   5.427
 8874TIP3   OH226585   2.547   2.266   3.276
 8874TIP3    H126586   2.480   2.236   3.337
 8874TIP3    H226587   2.619   2.296   3.331
 8875TIP3   OH226588   1.598   2.779   4.692
 8875TIP3    H126589   1.530   2.805   4.754
 8875TIP3    H226590   1.647   2.859   4.674
 8876TIP3   OH226591   2.578   4.316   4.562
 8876TIP3    H126592   2.598   4.223   4.556
 8876TIP3    H226593   2.617   4.344   4.645
 8877TIP3   OH226594   5.092   0.973   0.116
 8877TIP3    H126595   5.163   1.024   0.078
 8877TIP3    H226596   5.063   1.025   0.191
 8878TIP3   OH226597   3.784   5.503   0.526
 8878TIP3    H126598   3.850   5.435   0.534
 8878TIP3    H226599   3.768   5.531   0.616
 8879TIP3   OH226600   5.333   5.577   0.932
 8879TIP3    H126601   5.284   5.638   0.986
 8879TIP3    H226602   5.369   5.514   0.994
 8880TIP3   OH226603   0.376   5.364   0.028
 8880TIP3    H126604   0.432   5.419  -0.027
 8880TIP3    H226605   0.435   5.298   0.063
 8881TIP3   OH226606   3.995   5.409   3.368
 8881TIP3    H126607   3.978   5.405   3.274
 8881TIP3    H226608   3.933   5.346   3.406
 8882TIP3   OH226609   5.297   0.602   4.568
 8882TIP3    H126610   5.358   0.663   4.610
 8882TIP3    H226611   5.341   0.517   4.573
 8883TIP3   OH226612   5.359   3.902   1.095
 8883TIP3    H126613   5.320   3.898   1.182
 8883TIP3    H226614   5.287   3.931   1.038
 8884TIP3   OH226615   3.558   4.249   5.860
 8884TIP3    H126616   3.576   4.318   5.923
 8884TIP3    H226617   3.466   4.261   5.836
 8885TIP3   OH226618   6.130   6.594   1.503
 8885TIP3    H126619   6.181   6.577   1.582
 8885TIP3    H226620   6.194   6.588   1.432
 8886TIP3   OH226621   2.067   5.672   5.755
 8886TIP3    H126622   2.136   5.670   5.688
 8886TIP3    H226623   2.112   5.652   5.837
 8887TIP3   OH226624   0.282   5.693   0.619
 8887TIP3    H126625   0.257   5.602   0.631
 8887TIP3    H226626   0.212   5.731   0.566
 8888TIP3   OH226627   5.350   3.091   3.436
 8888TIP3    H126628   5.414   3.043   3.384
 8888TIP3    H226629   5.402   3.141   3.499
 8889TIP3   OH226630   1.397   5.676   4.624
 8889TIP3    H126631   1.454   5.620   4.572
 8889TIP3    H226632   1.423   5.765   4.599
 8890TIP3   OH226633   2.836   5.670   3.350
 8890TIP3    H126634   2.911   5.730   3.346
 8890TIP3    H226635   2.772   5.715   3.404
 8891TIP3   OH226636   4.354   5.249   1.325
 8891TIP3    H126637   4.325   5.256   1.234
 8891TIP3    H226638   4.448   5.266   1.322
 8892TIP3   OH226639   7.176   6.554   0.832
 8892TIP3    H126640   7.084   6.531   0.815
 8892TIP3    H226641   7.194   6.515   0.918
 8893TIP3   OH226642   2.565   1.565   0.477
 8893TIP3    H126643   2.561   1.560   0.573
 8893TIP3    H226644   2.576   1.658   0.458
 8894TIP3   OH226645   2.612   4.360   3.395
 8894TIP3    H126646   2.636   4.270   3.416
 8894TIP3    H226647   2.597   4.401   3.480
 8895TIP3   OH226648  -0.020   1.300   5.691
 8895TIP3    H126649   0.064   1.319   5.649
 8895TIP3    H226650  -0.007   1.325   5.782
 8896TIP3   OH226651   6.828   6.160   3.722
 8896TIP3    H126652   6.922   6.150   3.708
 8896TIP3    H226653   6.814   6.134   3.813
 8897TIP3   OH226654   0.238   0.568   3.427
 8897TIP3    H126655   0.184   0.647   3.431
 8897TIP3    H226656   0.306   0.588   3.364
 8898TIP3   OH226657   3.589   4.812   4.154
 8898TIP3    H126658   3.660   4.750   4.172
 8898TIP3    H226659   3.633   4.896   4.144
 8899TIP3   OH226660   6.781   4.325   1.191
 8899TIP3    H126661   6.830   4.291   1.117
 8899TIP3    H226662   6.843   4.382   1.237
 8900TIP3   OH226663   2.293   5.928   3.626
 8900TIP3    H126664   2.336   5.930   3.712
 8900TIP3    H226665   2.366   5.924   3.563
 8901TIP3   OH226666   6.602   0.281   0.823
 8901TIP3    H126667   6.507   0.275   0.829
 8901TIP3    H226668   6.631   0.192   0.806
 8902TIP3   OH226669   5.590   6.077   2.156
 8902TIP3    H126670   5.665   6.104   2.209
 8902TIP3    H226671   5.612   5.989   2.126
 8903TIP3   OH226672   0.927   2.240   1.588
 8903TIP3    H126673   0.846   2.283   1.560
 8903TIP3    H226674   0.981   2.238   1.509
 8904TIP3   OH226675   4.552   1.224   4.462
 8904TIP3    H126676   4.508   1.237   4.378
 8904TIP3    H226677   4.582   1.133   4.459
 8905TIP3   OH226678   4.647   6.729   0.229
 8905TIP3    H126679   4.692   6.800   0.276
 8905TIP3    H226680   4.702   6.652   0.244
 8906TIP3   OH226681   6.108   2.071   1.376
 8906TIP3    H126682   6.078   2.070   1.467
 8906TIP3    H226683   6.083   1.985   1.341
 8907TIP3   OH226684   2.660   1.822   4.820
 8907TIP3    H126685   2.676   1.914   4.840
 8907TIP3    H226686   2.604   1.824   4.743
 8908TIP3   OH226687   6.331   4.721   1.798
 8908TIP3    H126688   6.244   4.697   1.831
 8908TIP3    H226689   6.316   4.746   1.707
 8909TIP3   OH226690   4.685   0.998   3.162
 8909TIP3    H126691   4.654   1.043   3.241
 8909TIP3    H226692   4.684   0.905   3.185
 8910TIP3   OH226693   0.651   6.032   3.606
 8910TIP3    H126694   0.653   6.128   3.602
 8910TIP3    H226695   0.690   6.010   3.691
 8911TIP3   OH226696   6.058   5.378   4.051
 8911TIP3    H126697   6.137   5.423   4.020
 8911TIP3    H226698   6.046   5.306   3.989
 8912TIP3   OH226699   2.342   4.994   2.230
 8912TIP3    H126700   2.410   5.045   2.185
 8912TIP3    H226701   2.324   5.043   2.311
 8913TIP3   OH226702   1.343   6.534   4.686
 8913TIP3    H126703   1.396   6.481   4.626
 8913TIP3    H226704   1.343   6.621   4.647
 8914TIP3   OH226705   6.603   2.179   2.763
 8914TIP3    H126706   6.639   2.165   2.850
 8914TIP3    H226707   6.531   2.240   2.776
 8915TIP3   OH226708   6.478   5.222   4.447
 8915TIP3    H126709   6.515   5.175   4.373
 8915TIP3    H226710   6.529   5.193   4.522
 8916TIP3   OH226711   0.482   4.438   3.652
 8916TIP3    H126712   0.516   4.448   3.563
 8916TIP3    H226713   0.476   4.343   3.665
 8917TIP3   OH226714   6.450   3.109   2.206
 8917TIP3    H126715   6.508   3.175   2.245
 8917TIP3    H226716   6.387   3.089   2.275
 8918TIP3   OH226717   5.106   6.058   2.651
 8918TIP3    H126718   5.078   6.062   2.742
 8918TIP3    H226719   5.169   5.987   2.648
 8919TIP3   OH226720   5.202   5.904   2.034
 8919TIP3    H126721   5.114   5.936   2.055
 8919TIP3    H226722   5.189   5.811   2.016
 8920TIP3   OH226723   7.086   5.133   1.644
 8920TIP3    H126724   7.133   5.184   1.578
 8920TIP3    H226725   7.136   5.145   1.724
 8921TIP3   OH226726   6.741   5.649   1.447
 8921TIP3    H126727   6.650   5.670   1.426
 8921TIP3    H226728   6.792   5.710   1.395
 8922TIP3   OH226729   5.217   0.253   5.275
 8922TIP3    H126730   5.161   0.226   5.202
 8922TIP3    H226731   5.306   0.243   5.242
 8923TIP3   OH226732   1.988   3.863   1.384
 8923TIP3    H126733   1.932   3.885   1.310
 8923TIP3    H226734   1.929   3.859   1.459
 8924TIP3   OH226735   6.231   0.313   4.405
 8924TIP3    H126736   6.278   0.230   4.418
 8924TIP3    H226737   6.297   0.380   4.421
 8925TIP3   OH226738   3.980   5.434   5.488
 8925TIP3    H126739   4.011   5.392   5.568
 8925TIP3    H226740   4.052   5.490   5.461
 8926TIP3   OH226741   4.683   3.390   1.502
 8926TIP3    H126742   4.633   3.310   1.521
 8926TIP3    H226743   4.628   3.461   1.533
 8927TIP3   OH226744   4.139   1.721   3.494
 8927TIP3    H126745   4.071   1.745   3.431
 8927TIP3    H226746   4.220   1.751   3.454
 8928TIP3   OH226747   3.574   6.590   4.597
 8928TIP3    H126748   3.653   6.591   4.542
 8928TIP3    H226749   3.551   6.682   4.607
 8929TIP3   OH226750   1.231   5.110   4.258
 8929TIP3    H126751   1.298   5.111   4.326
 8929TIP3    H226752   1.193   5.022   4.263
 8930TIP3   OH226753   0.339   1.062   5.731
 8930TIP3    H126754   0.390   0.981   5.734
 8930TIP3    H226755   0.251   1.034   5.704
 8931TIP3   OH226756   5.665   3.757   0.437
 8931TIP3    H126757   5.677   3.718   0.351
 8931TIP3    H226758   5.741   3.728   0.487
 8932TIP3   OH226759   1.622   0.232   2.024
 8932TIP3    H126760   1.706   0.220   1.980
 8932TIP3    H226761   1.625   0.321   2.058
 8933TIP3   OH226762   5.637   5.104   4.762
 8933TIP3    H126763   5.690   5.111   4.682
 8933TIP3    H226764   5.550   5.133   4.735
 8934TIP3   OH226765   6.899   3.875   1.563
 8934TIP3    H126766   6.903   3.970   1.553
 8934TIP3    H226767   6.976   3.843   1.516
 8935TIP3   OH226768   4.737   3.006   5.495
 8935TIP3    H126769   4.756   3.077   5.434
 8935TIP3    H226770   4.719   2.930   5.439
 8936TIP3   OH226771   1.870   3.312   4.090
 8936TIP3    H126772   1.876   3.273   4.003
 8936TIP3    H226773   1.950   3.362   4.100
 8937TIP3   OH226774   1.402   0.069   0.773
 8937TIP3    H126775   1.486   0.045   0.813
 8937TIP3    H226776   1.341   0.002   0.805
 8938TIP3   OH226777   2.811   4.348   3.711
 8938TIP3    H126778   2.725   4.383   3.689
 8938TIP3    H226779   2.793   4.286   3.783
 8939TIP3   OH226780   4.886   1.940   1.041
 8939TIP3    H126781   4.982   1.941   1.038
 8939TIP3    H226782   4.864   2.010   1.103
 8940TIP3   OH226783   3.549   1.351   1.303
 8940TIP3    H126784   3.470   1.337   1.250
 8940TIP3    H226785   3.600   1.272   1.290
 8941TIP3   OH226786   3.653   2.676   2.777
 8941TIP3    H126787   3.620   2.612   2.714
 8941TIP3    H226788   3.603   2.755   2.759
 8942TIP3   OH226789   5.173   1.407   5.908
 8942TIP3    H126790   5.116   1.458   5.851
 8942TIP3    H226791   5.257   1.403   5.862
 8943TIP3   OH226792   2.269   2.436   4.906
 8943TIP3    H126793   2.253   2.343   4.893
 8943TIP3    H226794   2.192   2.480   4.869
 8944TIP3   OH226795   6.557   2.496   2.078
 8944TIP3    H126796   6.650   2.515   2.072
 8944TIP3    H226797   6.530   2.533   2.162
 8945TIP3   OH226798   5.308   4.556   2.279
 8945TIP3    H126799   5.226   4.527   2.319
 8945TIP3    H226800   5.307   4.651   2.288
 8946TIP3   OH226801   2.629   2.954   3.491
 8946TIP3    H126802   2.569   2.895   3.536
 8946TIP3    H226803   2.678   2.997   3.561
 8947TIP3   OH226804   0.132   1.089   0.060
 8947TIP3    H126805   0.060   1.149   0.081
 8947TIP3    H226806   0.203   1.114   0.119
 8948TIP3   OH226807   3.163   5.321   1.303
 8948TIP3    H126808   3.123   5.236   1.321
 8948TIP3    H226809   3.213   5.341   1.382
 8949TIP3   OH226810   4.963   0.968   3.077
 8949TIP3    H126811   4.971   0.893   3.018
 8949TIP3    H226812   4.868   0.980   3.088
 8950TIP3   OH226813   2.790   3.495   0.642
 8950TIP3    H126814   2.759   3.488   0.732
 8950TIP3    H226815   2.713   3.477   0.588
 8951TIP3   OH226816   1.469   1.790   0.811
 8951TIP3    H126817   1.535   1.781   0.881
 8951TIP3    H226818   1.394   1.830   0.854
 8952TIP3   OH226819   0.569   0.248   5.042
 8952TIP3    H126820   0.511   0.279   4.972
 8952TIP3    H226821   0.509   0.220   5.111
 8953TIP3   OH226822   0.841   5.584   5.513
 8953TIP3    H126823   0.848   5.493   5.541
 8953TIP3    H226824   0.842   5.580   5.417
 8954TIP3   OH226825   3.521   4.787   3.472
 8954TIP3    H126826   3.606   4.771   3.431
 8954TIP3    H226827   3.467   4.714   3.442
 8955TIP3   OH226828   4.140   1.944   1.454
 8955TIP3    H126829   4.213   1.908   1.503
 8955TIP3    H226830   4.152   2.038   1.456
 8956TIP3   OH226831   0.210   0.207   4.782
 8956TIP3    H126832   0.133   0.264   4.779
 8956TIP3    H226833   0.175   0.119   4.796
 8957TIP3   OH226834   4.645   2.151   3.565
 8957TIP3    H126835   4.648   2.224   3.627
 8957TIP3    H226836   4.714   2.170   3.502
 8958TIP3   OH226837   1.824   1.883   0.858
 8958TIP3    H126838   1.763   1.828   0.906
 8958TIP3    H226839   1.875   1.822   0.804
 8959TIP3   OH226840   5.100   0.209   2.988
 8959TIP3    H126841   5.059   0.123   2.996
 8959TIP3    H226842   5.061   0.260   3.059
 8960TIP3   OH226843   6.579   3.036   3.034
 8960TIP3    H126844   6.601   3.127   3.052
 8960TIP3    H226845   6.546   3.035   2.945
 8961TIP3   OH226846   1.033   5.584   4.680
 8961TIP3    H126847   1.089   5.621   4.612
 8961TIP3    H226848   1.083   5.595   4.761
 8962TIP3   OH226849   5.090   4.470   3.437
 8962TIP3    H126850   5.139   4.483   3.518
 8962TIP3    H226851   4.998   4.478   3.463
 8963TIP3   OH226852   4.142   0.829   0.985
 8963TIP3    H126853   4.059   0.829   0.938
 8963TIP3    H226854   4.198   0.769   0.936
 8964TIP3   OH226855   3.401   0.047   3.227
 8964TIP3    H126856   3.419  -0.043   3.200
 8964TIP3    H226857   3.433   0.101   3.155
 8965TIP3   OH226858   2.845   0.710   4.962
 8965TIP3    H126859   2.919   0.720   5.022
 8965TIP3    H226860   2.826   0.616   4.963
 8966TIP3   OH226861   4.660   2.281   5.535
 8966TIP3    H126862   4.641   2.235   5.453
 8966TIP3    H226863   4.588   2.257   5.593
 8967TIP3   OH226864   3.772   6.418   2.380
 8967TIP3    H126865   3.762   6.491   2.319
 8967TIP3    H226866   3.801   6.345   2.325
 8968TIP3   OH226867   6.461   3.604   3.987
 8968TIP3    H126868   6.479   3.605   4.081
 8968TIP3    H226869   6.378   3.558   3.979
 8969TIP3   OH226870   3.546   4.943   1.348
 8969TIP3    H126871   3.569   5.007   1.416
 8969TIP3    H226872   3.584   4.861   1.379
 8970TIP3   OH226873   3.535   3.056   3.334
 8970TIP3    H126874   3.492   3.141   3.346
 8970TIP3    H226875   3.602   3.053   3.403
 8971TIP3   OH226876   4.112   6.203   1.167
 8971TIP3    H126877   4.056   6.254   1.109
 8971TIP3    H226878   4.080   6.113   1.159
 8972TIP3   OH226879   4.618   0.382   5.529
 8972TIP3    H126880   4.617   0.451   5.596
 8972TIP3    H226881   4.693   0.403   5.474
 8973TIP3   OH226882   2.909   0.041   0.093
 8973TIP3    H126883   2.876   0.037   0.183
 8973TIP3    H226884   2.889  -0.045   0.057
 8974TIP3   OH226885   2.626   3.233   3.195
 8974TIP3    H126886   2.605   3.253   3.286
 8974TIP3    H226887   2.715   3.269   3.183
 8975TIP3   OH226888   0.941   5.795   4.916
 8975TIP3    H126889   0.849   5.770   4.925
 8975TIP3    H226890   0.990   5.724   4.956
 8976TIP3   OH226891   1.094   3.634   0.574
 8976TIP3    H126892   1.058   3.629   0.485
 8976TIP3    H226893   1.184   3.602   0.565
 8977TIP3   OH226894   3.348   2.192   3.278
 8977TIP3    H126895   3.395   2.119   3.318
 8977TIP3    H226896   3.357   2.177   3.184
 8978TIP3   OH226897   5.050   5.254   4.667
 8978TIP3    H126898   4.986   5.192   4.630
 8978TIP3    H226899   5.127   5.200   4.685
 8979TIP3   OH226900   0.891   0.729   5.215
 8979TIP3    H126901   0.831   0.655   5.219
 8979TIP3    H226902   0.921   0.731   5.124
 8980TIP3   OH226903   1.703   3.724   3.714
 8980TIP3    H126904   1.686   3.630   3.725
 8980TIP3    H226905   1.620   3.766   3.735
 8981TIP3   OH226906   0.204   2.966   3.988
 8981TIP3    H126907   0.135   2.902   4.003
 8981TIP3    H226908   0.157   3.046   3.961
 8982TIP3   OH226909   6.618   0.619   5.282
 8982TIP3    H126910   6.698   0.606   5.334
 8982TIP3    H226911   6.647   0.670   5.206
 8983TIP3   OH226912   1.177   6.230   4.551
 8983TIP3    H126913   1.185   6.136   4.532
 8983TIP3    H226914   1.128   6.234   4.634
 8984TIP3   OH226915   0.528   1.583   0.793
 8984TIP3    H126916   0.475   1.650   0.750
 8984TIP3    H226917   0.522   1.507   0.735
 8985TIP3   OH226918   1.587   3.499   1.794
 8985TIP3    H126919   1.653   3.555   1.754
 8985TIP3    H226920   1.552   3.447   1.722
 8986TIP3   OH226921   0.164   3.190   2.888
 8986TIP3    H126922   0.195   3.262   2.944
 8986TIP3    H226923   0.186   3.111   2.937
 8987TIP3   OH226924   5.690   6.048   4.909
 8987TIP3    H126925   5.631   6.032   4.983
 8987TIP3    H226926   5.683   5.969   4.856
 8988TIP3   OH226927   5.494   4.853   3.804
 8988TIP3    H126928   5.568   4.913   3.791
 8988TIP3    H226929   5.522   4.795   3.875
 8989TIP3   OH226930   5.541   2.597   4.668
 8989TIP3    H126931   5.565   2.512   4.630
 8989TIP3    H226932   5.486   2.638   4.602
 8990TIP3   OH226933   4.686   4.855   3.633
 8990TIP3    H126934   4.729   4.820   3.712
 8990TIP3    H226935   4.594   4.832   3.643
 8991TIP3   OH226936   6.550   5.893   5.763
 8991TIP3    H126937   6.590   5.962   5.710
 8991TIP3    H226938   6.500   5.841   5.701
 8992TIP3   OH226939   4.157   5.656   2.847
 8992TIP3    H126940   4.111   5.578   2.880
 8992TIP3    H226941   4.111   5.679   2.766
 8993TIP3   OH226942   2.780   1.279   1.770
 8993TIP3    H126943   2.799   1.289   1.677
 8993TIP3    H226944   2.843   1.214   1.801
 8994TIP3   OH226945   3.853   0.879   3.025
 8994TIP3    H126946   3.926   0.874   2.963
 8994TIP3    H226947   3.870   0.808   3.087
 8995TIP3   OH226948   2.033   2.569   1.641
 8995TIP3    H126949   2.124   2.561   1.669
 8995TIP3    H226950   1.995   2.634   1.699
 8996TIP3   OH226951   4.524   5.594   3.890
 8996TIP3    H126952   4.477   5.654   3.948
 8996TIP3    H226953   4.604   5.640   3.866
 8997TIP3   OH226954   2.321   2.685   1.761
 8997TIP3    H126955   2.400   2.667   1.711
 8997TIP3    H226956   2.317   2.615   1.827
 8998TIP3   OH226957   1.414   0.530   2.767
 8998TIP3    H126958   1.408   0.435   2.757
 8998TIP3    H226959   1.493   0.554   2.718
 8999TIP3   OH226960   1.695   0.288   0.166
 8999TIP3    H126961   1.742   0.230   0.225
 8999TIP3    H226962   1.614   0.309   0.212
 9000TIP3   OH226963   2.347   0.080   4.924
 9000TIP3    H126964   2.272   0.099   4.867
 9000TIP3    H226965   2.319   0.111   5.010
 9001TIP3   OH226966   5.085   6.447   4.463
 9001TIP3    H126967   5.067   6.508   4.393
 9001TIP3    H226968   5.176   6.465   4.488
 9002TIP3   OH226969   4.874   0.123   5.825
 9002TIP3    H126970   4.790   0.159   5.795
 9002TIP3    H226971   4.927   0.117   5.746
 9003TIP3   OH226972   6.204   2.249   5.064
 9003TIP3    H126973   6.244   2.333   5.040
 9003TIP3    H226974   6.278   2.192   5.083
 9004TIP3   OH226975   2.191   3.662   4.911
 9004TIP3    H126976   2.197   3.747   4.868
 9004TIP3    H226977   2.120   3.672   4.975
 9005TIP3   OH226978   1.056   6.438   1.033
 9005TIP3    H126979   0.984   6.449   1.095
 9005TIP3    H226980   1.014   6.428   0.948
 9006TIP3   OH226981   1.675   1.382   0.519
 9006TIP3    H126982   1.632   1.350   0.439
 9006TIP3    H226983   1.663   1.311   0.582
 9007TIP3   OH226984   0.039   1.937   4.726
 9007TIP3    H126985   0.104   1.998   4.760
 9007TIP3    H226986  -0.001   1.983   4.652
 9008TIP3   OH226987   2.169   0.680   2.123
 9008TIP3    H126988   2.073   0.678   2.133
 9008TIP3    H226989   2.186   0.630   2.044
 9009TIP3   OH226990   3.290   6.721   4.738
 9009TIP3    H126991   3.311   6.794   4.679
 9009TIP3    H226992   3.265   6.763   4.820
 9010TIP3   OH226993  -0.019   3.623   4.725
 9010TIP3    H126994  -0.003   3.610   4.632
 9010TIP3    H226995   0.063   3.660   4.759
 9011TIP3   OH226996   7.075   3.537   4.975
 9011TIP3    H126997   7.097   3.594   4.901
 9011TIP3    H226998   6.999   3.580   5.016
 9012TIP3   OH226999   3.566   6.804   2.618
 9012TIP3    H127000   3.485   6.803   2.668
 9012TIP3    H227001   3.565   6.721   2.570
 9013TIP3   OH227002   7.201   3.162   5.703
 9013TIP3    H127003   7.156   3.224   5.645
 9013TIP3    H227004   7.158   3.078   5.685
 9014TIP3   OH227005   0.253   0.715   4.220
 9014TIP3    H127006   0.314   0.651   4.183
 9014TIP3    H227007   0.255   0.789   4.159
 9015TIP3   OH227008   1.561   0.383   1.734
 9015TIP3    H127009   1.550   0.291   1.761
 9015TIP3    H227010   1.607   0.378   1.650
 9016TIP3   OH227011   2.596   3.463   1.622
 9016TIP3    H127012   2.597   3.367   1.624
 9016TIP3    H227013   2.503   3.485   1.626
 9017TIP3   OH227014   0.297   0.311   3.558
 9017TIP3    H127015   0.290   0.403   3.530
 9017TIP3    H227016   0.349   0.314   3.638
 9018TIP3   OH227017   2.863   2.652   4.697
 9018TIP3    H127018   2.810   2.703   4.636
 9018TIP3    H227019   2.828   2.563   4.692
 9019TIP3   OH227020   4.793   3.444   5.471
 9019TIP3    H127021   4.852   3.426   5.544
 9019TIP3    H227022   4.835   3.403   5.395
 9020TIP3   OH227023   1.600   2.704   5.854
 9020TIP3    H127024   1.656   2.630   5.878
 9020TIP3    H227025   1.632   2.731   5.768
 9021TIP3   OH227026   1.028   4.566   0.957
 9021TIP3    H127027   0.991   4.515   0.885
 9021TIP3    H227028   1.012   4.657   0.932
 9022TIP3   OH227029   1.503   4.183   3.124
 9022TIP3    H127030   1.450   4.123   3.175
 9022TIP3    H227031   1.538   4.245   3.188
 9023TIP3   OH227032   3.496   1.046   2.862
 9023TIP3    H127033   3.518   0.953   2.872
 9023TIP3    H227034   3.580   1.090   2.853
 9024TIP3   OH227035   4.335   1.847   3.353
 9024TIP3    H127036   4.403   1.824   3.289
 9024TIP3    H227037   4.354   1.938   3.376
 9025TIP3   OH227038   0.025   6.542   5.159
 9025TIP3    H127039  -0.035   6.512   5.090
 9025TIP3    H227040   0.102   6.575   5.112
 9026TIP3   OH227041   5.076   4.870   5.469
 9026TIP3    H127042   5.101   4.780   5.489
 9026TIP3    H227043   4.980   4.869   5.468
 9027TIP3   OH227044   6.069   5.267   1.387
 9027TIP3    H127045   6.111   5.309   1.462
 9027TIP3    H227046   6.098   5.318   1.312
 9028TIP3   OH227047   6.353   6.799   5.771
 9028TIP3    H127048   6.379   6.796   5.679
 9028TIP3    H227049   6.418   6.745   5.816
 9029TIP3   OH227050   2.789   2.426   0.032
 9029TIP3    H127051   2.863   2.483   0.054
 9029TIP3    H227052   2.761   2.457  -0.054
 9030TIP3   OH227053   5.792   5.272   1.309
 9030TIP3    H127054   5.809   5.365   1.294
 9030TIP3    H227055   5.703   5.259   1.277
 9031TIP3   OH227056   6.087   3.836   0.811
 9031TIP3    H127057   6.122   3.833   0.900
 9031TIP3    H227058   6.156   3.879   0.760
 9032TIP3   OH227059   1.250   6.139   3.714
 9032TIP3    H127060   1.200   6.063   3.745
 9032TIP3    H227061   1.233   6.206   3.779
 9033TIP3   OH227062   3.025   4.340   3.367
 9033TIP3    H127063   3.064   4.332   3.455
 9033TIP3    H227064   2.958   4.408   3.377
 9034TIP3   OH227065   0.199   3.045   0.310
 9034TIP3    H127066   0.116   3.083   0.340
 9034TIP3    H227067   0.265   3.085   0.367
 9035TIP3   OH227068   4.062   5.462   0.077
 9035TIP3    H127069   4.147   5.426   0.102
 9035TIP3    H227070   4.051   5.539   0.134
 9036TIP3   OH227071   2.276   5.057   3.318
 9036TIP3    H127072   2.190   5.099   3.311
 9036TIP3    H227073   2.329   5.099   3.250
 9037TIP3   OH227074   3.878   1.398   0.314
 9037TIP3    H127075   3.914   1.461   0.251
 9037TIP3    H227076   3.900   1.434   0.399
 9038TIP3   OH227077   3.312   3.776   1.192
 9038TIP3    H127078   3.403   3.781   1.222
 9038TIP3    H227079   3.276   3.863   1.209
 9039TIP3   OH227080   4.729   0.793   0.197
 9039TIP3    H127081   4.679   0.780   0.278
 9039TIP3    H227082   4.682   0.862   0.151
 9040TIP3   OH227083   3.885   2.448   4.750
 9040TIP3    H127084   3.970   2.415   4.780
 9040TIP3    H227085   3.822   2.401   4.804
 9041TIP3   OH227086   6.202   1.630   4.135
 9041TIP3    H127087   6.207   1.622   4.040
 9041TIP3    H227088   6.229   1.544   4.168
 9042TIP3   OH227089   0.551   3.292   1.152
 9042TIP3    H127090   0.608   3.254   1.218
 9042TIP3    H227091   0.471   3.316   1.199
 9043TIP3   OH227092   2.575   5.004   0.418
 9043TIP3    H127093   2.513   4.947   0.465
 9043TIP3    H227094   2.567   5.089   0.462
 9044TIP3   OH227095   2.007   3.110   0.005
 9044TIP3    H127096   1.924   3.154   0.022
 9044TIP3    H227097   2.061   3.128   0.082
 9045TIP3   OH227098   4.652   4.941   1.424
 9045TIP3    H127099   4.573   4.919   1.375
 9045TIP3    H227100   4.673   4.861   1.472
 9046TIP3   OH227101   3.511   1.817   4.123
 9046TIP3    H127102   3.485   1.905   4.151
 9046TIP3    H227103   3.572   1.832   4.051
 9047TIP3   OH227104   6.777   2.495   0.993
 9047TIP3    H127105   6.770   2.416   0.940
 9047TIP3    H227106   6.850   2.543   0.954
 9048TIP3   OH227107   3.361   3.684   2.624
 9048TIP3    H127108   3.288   3.636   2.663
 9048TIP3    H227109   3.426   3.616   2.603
 9049TIP3   OH227110   2.196   4.173   1.873
 9049TIP3    H127111   2.113   4.175   1.922
 9049TIP3    H227112   2.228   4.263   1.876
 9050TIP3   OH227113   5.946   4.427   3.383
 9050TIP3    H127114   5.901   4.343   3.366
 9050TIP3    H227115   5.983   4.452   3.299
 9051TIP3   OH227116   0.241   2.954   0.892
 9051TIP3    H127117   0.203   2.879   0.939
 9051TIP3    H227118   0.283   2.915   0.815
 9052TIP3   OH227119   0.785   4.764   0.072
 9052TIP3    H127120   0.758   4.743   0.161
 9052TIP3    H227121   0.805   4.679   0.032
 9053TIP3   OH227122   7.114   4.257   2.913
 9053TIP3    H127123   7.023   4.273   2.887
 9053TIP3    H227124   7.150   4.204   2.842
 9054TIP3   OH227125   4.334   1.977   2.297
 9054TIP3    H127126   4.272   2.009   2.233
 9054TIP3    H227127   4.359   1.890   2.266
 9055TIP3   OH227128   1.537   1.227   4.087
 9055TIP3    H127129   1.479   1.167   4.039
 9055TIP3    H227130   1.565   1.177   4.163
 9056TIP3   OH227131   1.752   0.389   4.853
 9056TIP3    H127132   1.817   0.319   4.862
 9056TIP3    H227133   1.740   0.398   4.758
 9057TIP3   OH227134   2.697   0.274   2.506
 9057TIP3    H127135   2.622   0.320   2.468
 9057TIP3    H227136   2.703   0.192   2.456
 9058TIP3   OH227137   5.020   5.219   5.281
 9058TIP3    H127138   5.049   5.129   5.275
 9058TIP3    H227139   5.000   5.244   5.191
 9059TIP3   OH227140   4.981   1.529   2.233
 9059TIP3    H127141   5.070   1.521   2.198
 9059TIP3    H227142   4.988   1.499   2.324
 9060TIP3   OH227143   0.586   0.782   4.184
 9060TIP3    H127144   0.539   0.732   4.251
 9060TIP3    H227145   0.673   0.796   4.221
 9061TIP3   OH227146   5.093   5.790   0.800
 9061TIP3    H127147   5.008   5.776   0.843
 9061TIP3    H227148   5.155   5.800   0.873
 9062TIP3   OH227149   2.648   2.952   0.729
 9062TIP3    H127150   2.625   2.882   0.668
 9062TIP3    H227151   2.572   2.957   0.788
 9063TIP3   OH227152   0.282   3.547   4.438
 9063TIP3    H127153   0.351   3.518   4.379
 9063TIP3    H227154   0.304   3.507   4.522
 9064TIP3   OH227155   6.690   4.790   0.034
 9064TIP3    H127156   6.701   4.879   0.068
 9064TIP3    H227157   6.696   4.800  -0.061
 9065TIP3   OH227158   1.578   3.670   4.024
 9065TIP3    H127159   1.530   3.730   3.968
 9065TIP3    H227160   1.662   3.713   4.039
 9066TIP3   OH227161   0.923   1.227   0.371
 9066TIP3    H127162   0.918   1.178   0.452
 9066TIP3    H227163   0.893   1.315   0.394
 9067TIP3   OH227164   4.045   4.090   0.174
 9067TIP3    H127165   3.956   4.058   0.190
 9067TIP3    H227166   4.051   4.170   0.224
 9068TIP3   OH227167   5.508   5.187   2.256
 9068TIP3    H127168   5.481   5.160   2.344
 9068TIP3    H227169   5.602   5.171   2.254
 9069TIP3   OH227170   2.052   3.553   2.533
 9069TIP3    H127171   2.130   3.505   2.560
 9069TIP3    H227172   2.044   3.533   2.439
 9070TIP3   OH227173   1.514   2.124   2.844
 9070TIP3    H127174   1.487   2.210   2.812
 9070TIP3    H227175   1.604   2.115   2.814
 9071TIP3   OH227176   6.654   3.780   0.800
 9071TIP3    H127177   6.588   3.731   0.750
 9071TIP3    H227178   6.658   3.735   0.884
 9072TIP3   OH227179   1.000   5.409   0.627
 9072TIP3    H127180   0.953   5.463   0.689
 9072TIP3    H227181   0.932   5.361   0.579
 9073TIP3   OH227182   5.972   0.377   5.143
 9073TIP3    H127183   6.018   0.378   5.059
 9073TIP3    H227184   5.993   0.291   5.180
 9074TIP3   OH227185   2.788   5.519   1.084
 9074TIP3    H127186   2.757   5.442   1.131
 9074TIP3    H227187   2.809   5.486   0.996
 9075TIP3   OH227188   3.967   2.549   0.069
 9075TIP3    H127189   4.030   2.523   0.002
 9075TIP3    H227190   3.894   2.488   0.059
 9076TIP3   OH227191   6.061   4.089   3.289
 9076TIP3    H127192   6.152   4.118   3.297
 9076TIP3    H227193   6.067   3.993   3.289
 9077TIP3   OH227194   6.717   5.157   2.903
 9077TIP3    H127195   6.739   5.101   2.978
 9077TIP3    H227196   6.715   5.097   2.828
 9078TIP3   OH227197   3.904   4.818   1.220
 9078TIP3    H127198   3.892   4.789   1.129
 9078TIP3    H227199   3.822   4.793   1.263
 9079TIP3   OH227200   1.892   1.665   5.653
 9079TIP3    H127201   1.875   1.646   5.745
 9079TIP3    H227202   1.891   1.761   5.647
 9080TIP3   OH227203   5.243   5.046   5.582
 9080TIP3    H127204   5.184   4.993   5.529
 9080TIP3    H227205   5.221   5.023   5.672
 9081TIP3   OH227206   4.912   2.445   5.529
 9081TIP3    H127207   4.821   2.418   5.541
 9081TIP3    H227208   4.912   2.493   5.446
 9082TIP3   OH227209   3.847   2.797   1.212
 9082TIP3    H127210   3.838   2.830   1.123
 9082TIP3    H227211   3.834   2.703   1.205
 9083TIP3   OH227212   5.800   2.234   4.644
 9083TIP3    H127213   5.848   2.308   4.682
 9083TIP3    H227214   5.792   2.171   4.716
 9084TIP3   OH227215   6.809   5.849   4.880
 9084TIP3    H127216   6.825   5.762   4.842
 9084TIP3    H227217   6.828   5.910   4.809
 9085TIP3   OH227218   1.627   1.555   2.627
 9085TIP3    H127219   1.611   1.503   2.706
 9085TIP3    H227220   1.715   1.529   2.599
 9086TIP3   OH227221   6.262   0.706   3.500
 9086TIP3    H127222   6.231   0.784   3.545
 9086TIP3    H227223   6.189   0.680   3.444
 9087TIP3   OH227224   2.560   5.269   4.270
 9087TIP3    H127225   2.523   5.188   4.234
 9087TIP3    H227226   2.590   5.318   4.193
 9088TIP3   OH227227   4.909   1.621   2.684
 9088TIP3    H127228   4.952   1.567   2.617
 9088TIP3    H227229   4.899   1.707   2.644
 9089TIP3   OH227230   5.285   3.884   3.050
 9089TIP3    H127231   5.377   3.912   3.049
 9089TIP3    H227232   5.267   3.856   2.961
 9090TIP3   OH227233   2.361   4.595   0.737
 9090TIP3    H127234   2.322   4.604   0.825
 9090TIP3    H227235   2.328   4.671   0.689
 9091TIP3   OH227236   4.811   1.728   5.112
 9091TIP3    H127237   4.772   1.814   5.132
 9091TIP3    H227238   4.854   1.702   5.194
 9092TIP3   OH227239   1.268   5.844   2.425
 9092TIP3    H127240   1.269   5.937   2.448
 9092TIP3    H227241   1.295   5.842   2.333
 9093TIP3   OH227242   0.282   2.647   1.277
 9093TIP3    H127243   0.317   2.577   1.331
 9093TIP3    H227244   0.354   2.672   1.219
 9094TIP3   OH227245   0.554   3.861   5.732
 9094TIP3    H127246   0.468   3.857   5.691
 9094TIP3    H227247   0.535   3.870   5.826
 9095TIP3   OH227248   6.674   6.295   4.684
 9095TIP3    H127249   6.643   6.215   4.727
 9095TIP3    H227250   6.763   6.275   4.657
 9096TIP3   OH227251   0.151   6.664  -0.003
 9096TIP3    H127252   0.081   6.652   0.061
 9096TIP3    H227253   0.232   6.664   0.049
 9097TIP3   OH227254   0.321   2.281   1.083
 9097TIP3    H127255   0.240   2.268   1.035
 9097TIP3    H227256   0.305   2.242   1.169
 9098TIP3   OH227257   0.222   6.722   0.946
 9098TIP3    H127258   0.186   6.634   0.940
 9098TIP3    H227259   0.186   6.768   0.870
 9099TIP3   OH227260   5.803   5.747   0.920
 9099TIP3    H127261   5.754   5.812   0.970
 9099TIP3    H227262   5.895   5.768   0.935
 9100TIP3   OH227263   5.002   0.874   3.791
 9100TIP3    H127264   4.907   0.864   3.799
 9100TIP3    H227265   5.039   0.812   3.854
 9101TIP3   OH227266   3.075   4.633   2.084
 9101TIP3    H127267   3.094   4.727   2.079
 9101TIP3    H227268   2.979   4.629   2.078
 9102TIP3   OH227269   4.304   2.400   2.834
 9102TIP3    H127270   4.329   2.489   2.808
 9102TIP3    H227271   4.386   2.350   2.829
 9103TIP3   OH227272   3.045   3.113   5.375
 9103TIP3    H127273   3.131   3.114   5.332
 9103TIP3    H227274   2.990   3.061   5.317
 9104TIP3   OH227275   0.753   4.058   5.086
 9104TIP3    H127276   0.770   3.975   5.042
 9104TIP3    H227277   0.721   4.033   5.173
 9105TIP3   OH227278   3.064   3.304   2.236
 9105TIP3    H127279   3.119   3.365   2.285
 9105TIP3    H227280   3.111   3.291   2.153
 9106TIP3   OH227281   6.131   0.290   1.456
 9106TIP3    H127282   6.125   0.386   1.454
 9106TIP3    H227283   6.154   0.269   1.546
 9107TIP3   OH227284  -0.011   2.273   4.922
 9107TIP3    H127285   0.006   2.336   4.992
 9107TIP3    H227286   0.020   2.316   4.842
 9108TIP3   OH227287   5.282   6.588   0.063
 9108TIP3    H127288   5.243   6.501   0.055
 9108TIP3    H227289   5.250   6.622   0.146
 9109TIP3   OH227290   1.463   1.548   0.638
 9109TIP3    H127291   1.464   1.627   0.692
 9109TIP3    H227292   1.518   1.486   0.686
 9110TIP3   OH227293   2.101   5.375   0.610
 9110TIP3    H127294   2.120   5.468   0.616
 9110TIP3    H227295   2.006   5.369   0.618
 9111TIP3   OH227296   2.322   0.292   4.554
 9111TIP3    H127297   2.323   0.362   4.489
 9111TIP3    H227298   2.348   0.335   4.636
 9112TIP3   OH227299   4.321   3.978   3.850
 9112TIP3    H127300   4.321   4.009   3.760
 9112TIP3    H227301   4.409   3.998   3.882
 9113TIP3   OH227302   4.195   4.964   1.179
 9113TIP3    H127303   4.187   4.943   1.086
 9113TIP3    H227304   4.121   5.022   1.197
 9114TIP3   OH227305   6.040   1.350   1.948
 9114TIP3    H127306   6.134   1.365   1.940
 9114TIP3    H227307   6.031   1.292   2.023
 9115TIP3   OH227308   6.126   0.631   5.135
 9115TIP3    H127309   6.073   0.553   5.146
 9115TIP3    H227310   6.140   0.664   5.224
 9116TIP3   OH227311   0.638   0.483   5.867
 9116TIP3    H127312   0.597   0.415   5.813
 9116TIP3    H227313   0.669   0.548   5.804
 9117TIP3   OH227314   3.130   0.551   5.029
 9117TIP3    H127315   3.105   0.507   5.110
 9117TIP3    H227316   3.200   0.611   5.055
 9118TIP3   OH227317   6.185   5.284   2.269
 9118TIP3    H127318   6.214   5.288   2.178
 9118TIP3    H227319   6.161   5.374   2.291
 9119TIP3   OH227320   6.839   1.705   5.090
 9119TIP3    H127321   6.915   1.674   5.138
 9119TIP3    H227322   6.773   1.637   5.101
 9120TIP3   OH227323   2.951   0.720   3.540
 9120TIP3    H127324   2.945   0.649   3.604
 9120TIP3    H227325   2.976   0.676   3.459
 9121TIP3   OH227326   3.777   0.394   3.318
 9121TIP3    H127327   3.740   0.306   3.318
 9121TIP3    H227328   3.849   0.390   3.381
 9122TIP3   OH227329   0.797   4.026   5.807
 9122TIP3    H127330   0.716   4.076   5.794
 9122TIP3    H227331   0.779   3.969   5.881
 9123TIP3   OH227332   1.314   2.298   5.300
 9123TIP3    H127333   1.409   2.299   5.285
 9123TIP3    H227334   1.286   2.212   5.269
 9124TIP3   OH227335   0.968   5.849   2.865
 9124TIP3    H127336   0.957   5.944   2.872
 9124TIP3    H227337   0.884   5.814   2.895
 9125TIP3   OH227338   6.120   0.239   3.536
 9125TIP3    H127339   6.172   0.270   3.611
 9125TIP3    H227340   6.164   0.157   3.510
 9126TIP3   OH227341   5.557   5.952   4.491
 9126TIP3    H127342   5.587   5.892   4.423
 9126TIP3    H227343   5.469   5.978   4.464
 9127TIP3   OH227344   4.458   2.910   2.908
 9127TIP3    H127345   4.462   2.934   2.816
 9127TIP3    H227346   4.511   2.976   2.953
 9128TIP3   OH227347   1.384   1.468   3.192
 9128TIP3    H127348   1.289   1.474   3.198
 9128TIP3    H227349   1.401   1.376   3.174
 9129TIP3   OH227350   3.914   1.267   1.975
 9129TIP3    H127351   3.995   1.224   1.948
 9129TIP3    H227352   3.934   1.302   2.062
 9130TIP3   OH227353   3.391   5.832   4.574
 9130TIP3    H127354   3.377   5.773   4.649
 9130TIP3    H227355   3.308   5.828   4.526
 9131TIP3   OH227356   6.653   0.976   5.798
 9131TIP3    H127357   6.708   0.905   5.764
 9131TIP3    H227358   6.702   1.011   5.873
 9132TIP3   OH227359   3.540   6.634   3.351
 9132TIP3    H127360   3.455   6.620   3.310
 9132TIP3    H227361   3.532   6.717   3.397
 9133TIP3   OH227362   0.793   5.342   1.359
 9133TIP3    H127363   0.856   5.331   1.289
 9133TIP3    H227364   0.723   5.396   1.321
 9134TIP3   OH227365   5.390   1.855   1.740
 9134TIP3    H127366   5.457   1.906   1.695
 9134TIP3    H227367   5.407   1.764   1.714
 9135TIP3   OH227368   0.689   0.442   5.499
 9135TIP3    H127369   0.710   0.463   5.409
 9135TIP3    H227370   0.602   0.479   5.513
 9136TIP3   OH227371   2.409   0.520   5.543
 9136TIP3    H127372   2.359   0.522   5.461
 9136TIP3    H227373   2.364   0.454   5.597
 9137TIP3   OH227374   3.108   5.266   3.877
 9137TIP3    H127375   3.159   5.338   3.914
 9137TIP3    H227376   3.082   5.297   3.791
 9138TIP3   OH227377   0.631   6.207   4.935
 9138TIP3    H127378   0.663   6.277   4.878
 9138TIP3    H227379   0.707   6.151   4.950
 9139TIP3   OH227380   3.692   4.691   1.325
 9139TIP3    H127381   3.725   4.642   1.401
 9139TIP3    H227382   3.645   4.626   1.273
 9140TIP3   OH227383   2.141   3.766   0.019
 9140TIP3    H127384   2.150   3.727   0.106
 9140TIP3    H227385   2.199   3.842   0.021
 9141TIP3   OH227386   3.386   1.609   0.066
 9141TIP3    H127387   3.398   1.520   0.033
 9141TIP3    H227388   3.360   1.660  -0.010
 9142TIP3   OH227389   4.183   3.734   0.981
 9142TIP3    H127390   4.232   3.765   0.905
 9142TIP3    H227391   4.146   3.650   0.954
 9143TIP3   OH227392   2.513   4.003   3.255
 9143TIP3    H127393   2.438   3.962   3.212
 9143TIP3    H227394   2.474   4.065   3.317
 9144TIP3   OH227395   0.395  -0.020   1.081
 9144TIP3    H127396   0.384   0.033   1.160
 9144TIP3    H227397   0.326   0.010   1.022
 9145TIP3   OH227398   1.265   5.204   3.617
 9145TIP3    H127399   1.308   5.181   3.534
 9145TIP3    H227400   1.314   5.156   3.684
 9146TIP3   OH227401   0.468   2.010   0.040
 9146TIP3    H127402   0.554   2.011  -0.001
 9146TIP3    H227403   0.407   2.031  -0.030
 9147TIP3   OH227404   2.607   0.439   2.718
 9147TIP3    H127405   2.618   0.358   2.668
 9147TIP3    H227406   2.563   0.499   2.657
 9148TIP3   OH227407   4.437   3.851   5.047
 9148TIP3    H127408   4.398   3.774   5.006
 9148TIP3    H227409   4.499   3.816   5.111
 9149TIP3   OH227410   5.677   4.817   0.703
 9149TIP3    H127411   5.761   4.861   0.713
 9149TIP3    H227412   5.700   4.727   0.678
 9150TIP3   OH227413   1.972   6.832   2.118
 9150TIP3    H127414   1.963   6.791   2.032
 9150TIP3    H227415   1.908   6.787   2.173
 9151TIP3   OH227416   3.971   0.207   2.154
 9151TIP3    H127417   3.944   0.156   2.077
 9151TIP3    H227418   3.918   0.171   2.225
 9152TIP3   OH227419   6.679   6.459   2.579
 9152TIP3    H127420   6.629   6.453   2.661
 9152TIP3    H227421   6.614   6.478   2.512
 9153TIP3   OH227422   0.647   2.796   1.299
 9153TIP3    H127423   0.716   2.730   1.300
 9153TIP3    H227424   0.574   2.754   1.255
 9154TIP3   OH227425   1.436   2.045   5.045
 9154TIP3    H127426   1.531   2.037   5.055
 9154TIP3    H227427   1.411   1.967   4.996
 9155TIP3   OH227428   4.111   1.997   5.188
 9155TIP3    H127429   4.200   1.976   5.218
 9155TIP3    H227430   4.098   2.088   5.214
 9156TIP3   OH227431   1.350   4.883   4.984
 9156TIP3    H127432   1.358   4.975   4.958
 9156TIP3    H227433   1.305   4.886   5.068
 9157TIP3   OH227434   2.537   0.945   4.462
 9157TIP3    H127435   2.609   0.939   4.400
 9157TIP3    H227436   2.576   0.981   4.541
 9158TIP3   OH227437   2.338   3.596   1.079
 9158TIP3    H127438   2.409   3.600   1.015
 9158TIP3    H227439   2.365   3.529   1.141
 9159TIP3   OH227440   4.151   2.314   0.478
 9159TIP3    H127441   4.096   2.382   0.518
 9159TIP3    H227442   4.199   2.276   0.550
 9160TIP3   OH227443   6.603   1.801   1.084
 9160TIP3    H127444   6.598   1.709   1.058
 9160TIP3    H227445   6.588   1.799   1.179
 9161TIP3   OH227446   5.036   2.613   4.675
 9161TIP3    H127447   5.073   2.668   4.744
 9161TIP3    H227448   5.068   2.652   4.593
 9162TIP3   OH227449   0.735   3.107   3.625
 9162TIP3    H127450   0.677   3.117   3.701
 9162TIP3    H227451   0.804   3.048   3.655
 9163TIP3   OH227452   0.454   5.618   5.212
 9163TIP3    H127453   0.387   5.619   5.280
 9163TIP3    H227454   0.439   5.698   5.161
 9164TIP3   OH227455   7.032   1.344   1.440
 9164TIP3    H127456   7.124   1.362   1.458
 9164TIP3    H227457   7.023   1.249   1.451
 9165TIP3   OH227458   2.428   0.134   3.381
 9165TIP3    H127459   2.358   0.188   3.346
 9165TIP3    H227460   2.508   0.181   3.359
 9166TIP3   OH227461   3.686   1.850   0.136
 9166TIP3    H127462   3.680   1.938   0.097
 9166TIP3    H227463   3.677   1.790   0.062
 9167TIP3   OH227464   4.274   6.315   2.618
 9167TIP3    H127465   4.339   6.384   2.633
 9167TIP3    H227466   4.209   6.329   2.686
 9168TIP3   OH227467   3.623   6.254   4.819
 9168TIP3    H127468   3.621   6.160   4.798
 9168TIP3    H227469   3.716   6.276   4.820
 9169TIP3   OH227470   4.304   2.336   3.396
 9169TIP3    H127471   4.219   2.297   3.417
 9169TIP3    H227472   4.299   2.424   3.435
 9170TIP3   OH227473   2.993   1.374   4.500
 9170TIP3    H127474   3.078   1.330   4.510
 9170TIP3    H227475   2.949   1.326   4.430
 9171TIP3   OH227476   0.786   2.990   5.319
 9171TIP3    H127477   0.780   2.980   5.414
 9171TIP3    H227478   0.865   3.041   5.305
 9172TIP3   OH227479   6.602   2.428   1.519
 9172TIP3    H127480   6.663   2.371   1.472
 9172TIP3    H227481   6.611   2.402   1.611
 9173TIP3   OH227482   0.127   1.725   5.536
 9173TIP3    H127483   0.066   1.695   5.469
 9173TIP3    H227484   0.197   1.769   5.487
 9174TIP3   OH227485   6.572   0.724   1.431
 9174TIP3    H127486   6.517   0.803   1.439
 9174TIP3    H227487   6.531   0.673   1.362
 9175TIP3   OH227488   3.999   1.138   4.420
 9175TIP3    H127489   3.963   1.105   4.337
 9175TIP3    H227490   4.075   1.083   4.436
 9176TIP3   OH227491   4.076   5.708   0.999
 9176TIP3    H127492   4.037   5.793   0.980
 9176TIP3    H227493   4.157   5.729   1.046
 9177TIP3   OH227494   7.010   5.450   2.701
 9177TIP3    H127495   6.932   5.501   2.723
 9177TIP3    H227496   6.996   5.424   2.610
 9178TIP3   OH227497   3.768   4.755   3.373
 9178TIP3    H127498   3.816   4.776   3.293
 9178TIP3    H227499   3.788   4.827   3.432
 9179TIP3   OH227500   1.335   0.274   1.001
 9179TIP3    H127501   1.430   0.263   1.002
 9179TIP3    H227502   1.305   0.223   1.076
 9180TIP3   OH227503   4.247   2.020   3.672
 9180TIP3    H127504   4.287   2.056   3.594
 9180TIP3    H227505   4.271   1.927   3.671
 9181TIP3   OH227506   1.224   3.111   2.760
 9181TIP3    H127507   1.290   3.047   2.734
 9181TIP3    H227508   1.184   3.074   2.839
 9182TIP3   OH227509   3.549   1.739   0.744
 9182TIP3    H127510   3.607   1.755   0.669
 9182TIP3    H227511   3.608   1.718   0.816
 9183TIP3   OH227512   4.153   3.502   5.851
 9183TIP3    H127513   4.234   3.519   5.804
 9183TIP3    H227514   4.145   3.575   5.913
 9184TIP3   OH227515   1.025   4.439   0.568
 9184TIP3    H127516   1.027   4.534   0.580
 9184TIP3    H227517   1.071   4.424   0.486
 9185TIP3   OH227518   3.888   3.934   1.407
 9185TIP3    H127519   3.811   3.912   1.460
 9185TIP3    H227520   3.952   3.867   1.429
 9186TIP3   OH227521   3.621   4.040   2.655
 9186TIP3    H127522   3.635   4.055   2.561
 9186TIP3    H227523   3.709   4.043   2.692
 9187TIP3   OH227524   2.162   0.409   2.845
 9187TIP3    H127525   2.131   0.412   2.754
 9187TIP3    H227526   2.149   0.318   2.871
 9188TIP3   OH227527   6.554   6.150   3.494
 9188TIP3    H127528   6.615   6.097   3.442
 9188TIP3    H227529   6.602   6.169   3.574
 9189TIP3   OH227530   1.930   3.920   4.335
 9189TIP3    H127531   2.024   3.912   4.349
 9189TIP3    H227532   1.921   3.994   4.275
 9190TIP3   OH227533   6.142   1.598   4.660
 9190TIP3    H127534   6.158   1.544   4.737
 9190TIP3    H227535   6.149   1.537   4.586
 9191TIP3   OH227536   7.212   3.609   0.756
 9191TIP3    H127537   7.230   3.515   0.766
 9191TIP3    H227538   7.117   3.616   0.769
 9192TIP3   OH227539   6.984   0.143   3.036
 9192TIP3    H127540   6.906   0.197   3.022
 9192TIP3    H227541   6.949   0.055   3.051
 9193TIP3   OH227542   3.975   5.680   4.151
 9193TIP3    H127543   3.927   5.759   4.173
 9193TIP3    H227544   3.939   5.653   4.066
 9194TIP3   OH227545   1.591   6.743   2.645
 9194TIP3    H127546   1.502   6.766   2.672
 9194TIP3    H227547   1.640   6.736   2.727
 9195TIP3   OH227548   4.690   6.151   1.587
 9195TIP3    H127549   4.678   6.081   1.651
 9195TIP3    H227550   4.610   6.150   1.534
 9196TIP3   OH227551   4.125   2.127   0.036
 9196TIP3    H127552   4.097   2.165   0.120
 9196TIP3    H227553   4.137   2.034   0.054
 9197TIP3   OH227554   4.936   0.551   0.949
 9197TIP3    H127555   5.029   0.572   0.951
 9197TIP3    H227556   4.932   0.457   0.935
 9198TIP3   OH227557   0.438   4.861   3.412
 9198TIP3    H127558   0.503   4.795   3.387
 9198TIP3    H227559   0.357   4.831   3.371
 9199TIP3   OH227560   4.984   3.386   5.657
 9199TIP3    H127561   4.964   3.307   5.708
 9199TIP3    H227562   5.032   3.442   5.718
 9200TIP3   OH227563   6.683   5.285   0.313
 9200TIP3    H127564   6.742   5.220   0.276
 9200TIP3    H227565   6.740   5.343   0.364
 9201TIP3   OH227566   3.199   2.920   3.495
 9201TIP3    H127567   3.195   2.956   3.406
 9201TIP3    H227568   3.137   2.847   3.494
 9202TIP3   OH227569   7.068   6.154   1.451
 9202TIP3    H127570   7.006   6.083   1.470
 9202TIP3    H227571   7.018   6.234   1.470
 9203TIP3   OH227572   3.587   3.610   3.652
 9203TIP3    H127573   3.542   3.542   3.702
 9203TIP3    H227574   3.544   3.609   3.567
 9204TIP3   OH227575   6.411   1.620   1.311
 9204TIP3    H127576   6.347   1.662   1.253
 9204TIP3    H227577   6.480   1.685   1.321
 9205TIP3   OH227578   1.237   0.241   2.410
 9205TIP3    H127579   1.262   0.330   2.384
 9205TIP3    H227580   1.257   0.188   2.333
 9206TIP3   OH227581   2.399   1.566   4.259
 9206TIP3    H127582   2.416   1.522   4.342
 9206TIP3    H227583   2.486   1.592   4.227
 9207TIP3   OH227584   1.429   4.489   5.063
 9207TIP3    H127585   1.524   4.490   5.049
 9207TIP3    H227586   1.398   4.416   5.010
 9208TIP3   OH227587   6.233   5.535   3.678
 9208TIP3    H127588   6.214   5.516   3.586
 9208TIP3    H227589   6.185   5.615   3.696
 9209TIP3   OH227590   1.968   4.877   4.885
 9209TIP3    H127591   1.925   4.799   4.918
 9209TIP3    H227592   1.914   4.950   4.916
 9210TIP3   OH227593   1.680   0.106   1.706
 9210TIP3    H127594   1.765   0.134   1.741
 9210TIP3    H227595   1.683   0.132   1.614
 9211TIP3   OH227596   2.637   3.934   4.784
 9211TIP3    H127597   2.546   3.912   4.801
 9211TIP3    H227598   2.685   3.853   4.806
 9212TIP3   OH227599   5.881   5.898   4.176
 9212TIP3    H127600   5.967   5.862   4.152
 9212TIP3    H227601   5.892   5.993   4.173
 9213TIP3   OH227602   1.126   2.417   1.644
 9213TIP3    H127603   1.100   2.469   1.720
 9213TIP3    H227604   1.053   2.356   1.631
 9214TIP3   OH227605   1.490   4.241   3.987
 9214TIP3    H127606   1.500   4.324   4.032
 9214TIP3    H227607   1.397   4.238   3.963
 9215TIP3   OH227608   1.463   2.263   3.327
 9215TIP3    H127609   1.482   2.187   3.271
 9215TIP3    H227610   1.496   2.338   3.278
 9216TIP3   OH227611   0.048   3.762   1.536
 9216TIP3    H127612   0.106   3.748   1.461
 9216TIP3    H227613   0.099   3.734   1.612
 9217TIP3   OH227614   6.653   0.265   2.906
 9217TIP3    H127615   6.695   0.315   2.836
 9217TIP3    H227616   6.686   0.304   2.987
 9218TIP3   OH227617   5.869   2.127   1.191
 9218TIP3    H127618   5.912   2.050   1.154
 9218TIP3    H227619   5.905   2.200   1.140
 9219TIP3   OH227620   0.912   5.250   2.090
 9219TIP3    H127621   0.870   5.276   2.008
 9219TIP3    H227622   0.900   5.155   2.093
 9220TIP3   OH227623   6.180   5.372   0.462
 9220TIP3    H127624   6.114   5.338   0.523
 9220TIP3    H227625   6.259   5.380   0.515
 9221TIP3   OH227626   2.142   4.142   2.865
 9221TIP3    H127627   2.111   4.052   2.859
 9221TIP3    H227628   2.141   4.161   2.959
 9222TIP3   OH227629   4.896   1.638   4.187
 9222TIP3    H127630   4.841   1.633   4.109
 9222TIP3    H227631   4.948   1.717   4.174
 9223TIP3   OH227632   4.064   2.167   2.509
 9223TIP3    H127633   4.091   2.138   2.422
 9223TIP3    H227634   3.984   2.217   2.494
 9224TIP3   OH227635   2.525   6.764   4.420
 9224TIP3    H127636   2.601   6.705   4.429
 9224TIP3    H227637   2.560   6.841   4.377
 9225TIP3   OH227638   7.066   1.665   1.168
 9225TIP3    H127639   7.023   1.739   1.210
 9225TIP3    H227640   7.139   1.643   1.225
 9226TIP3   OH227641   2.569   0.905   5.381
 9226TIP3    H127642   2.588   0.883   5.290
 9226TIP3    H227643   2.475   0.893   5.390
 9227TIP3   OH227644   7.175   0.545   5.352
 9227TIP3    H127645   7.167   0.493   5.272
 9227TIP3    H227646   7.085   0.567   5.376
 9228TIP3   OH227647   6.620   1.021   1.082
 9228TIP3    H127648   6.613   1.116   1.068
 9228TIP3    H227649   6.688   1.012   1.149
 9229TIP3   OH227650   1.300   6.306   2.401
 9229TIP3    H127651   1.375   6.352   2.361
 9229TIP3    H227652   1.333   6.219   2.421
 9230TIP3   OH227653   2.152   6.309   3.628
 9230TIP3    H127654   2.218   6.379   3.622
 9230TIP3    H227655   2.143   6.278   3.538
 9231TIP3   OH227656   5.577   4.193   2.793
 9231TIP3    H127657   5.524   4.151   2.725
 9231TIP3    H227658   5.637   4.125   2.822
 9232TIP3   OH227659   0.517   5.598   3.400
 9232TIP3    H127660   0.604   5.571   3.370
 9232TIP3    H227661   0.492   5.531   3.463
 9233TIP3   OH227662   4.921   4.073   4.258
 9233TIP3    H127663   4.828   4.062   4.236
 9233TIP3    H227664   4.941   4.163   4.231
 9234TIP3   OH227665   3.598   5.486   4.008
 9234TIP3    H127666   3.608   5.395   4.034
 9234TIP3    H227667   3.688   5.519   4.002
 9235TIP3   OH227668   3.682   6.127   0.927
 9235TIP3    H127669   3.633   6.119   0.845
 9235TIP3    H227670   3.618   6.161   0.990
 9236TIP3   OH227671   4.481   3.773   0.404
 9236TIP3    H127672   4.452   3.700   0.460
 9236TIP3    H227673   4.558   3.807   0.450
 9237TIP3   OH227674   1.462   3.840   3.853
 9237TIP3    H127675   1.380   3.818   3.897
 9237TIP3    H227676   1.436   3.901   3.784
 9238TIP3   OH227677   4.882   6.146   3.139
 9238TIP3    H127678   4.858   6.054   3.138
 9238TIP3    H227679   4.799   6.193   3.141
 9239TIP3   OH227680   5.540   3.556   3.728
 9239TIP3    H127681   5.546   3.651   3.737
 9239TIP3    H227682   5.517   3.542   3.636
 9240TIP3   OH227683   0.126   4.523   5.312
 9240TIP3    H127684   0.134   4.512   5.407
 9240TIP3    H227685   0.054   4.585   5.301
 9241TIP3   OH227686   3.253   1.874   3.590
 9241TIP3    H127687   3.325   1.848   3.648
 9241TIP3    H227688   3.206   1.941   3.639
 9242TIP3   OH227689   1.161   4.139   0.466
 9242TIP3    H127690   1.139   4.046   0.478
 9242TIP3    H227691   1.256   4.139   0.455
 9243TIP3   OH227692   4.739   2.870   0.667
 9243TIP3    H127693   4.747   2.913   0.582
 9243TIP3    H227694   4.788   2.927   0.727
 9244TIP3   OH227695   1.784   0.627   5.810
 9244TIP3    H127696   1.712   0.609   5.870
 9244TIP3    H227697   1.812   0.717   5.831
 9245TIP3   OH227698   5.739   5.522   5.811
 9245TIP3    H127699   5.769   5.522   5.901
 9245TIP3    H227700   5.755   5.611   5.780
 9246TIP3   OH227701   6.949   2.650   4.943
 9246TIP3    H127702   6.877   2.690   4.894
 9246TIP3    H227703   6.932   2.556   4.938
 9247TIP3   OH227704   6.682   4.094   1.300
 9247TIP3    H127705   6.597   4.090   1.257
 9247TIP3    H227706   6.712   4.184   1.287
 9248TIP3   OH227707   6.970   3.353   0.598
 9248TIP3    H127708   7.023   3.303   0.535
 9248TIP3    H227709   6.979   3.444   0.571
 9249TIP3   OH227710   0.480   2.802   4.912
 9249TIP3    H127711   0.405   2.858   4.932
 9249TIP3    H227712   0.531   2.800   4.993
 9250TIP3   OH227713   1.058   6.751   4.616
 9250TIP3    H127714   0.973   6.766   4.657
 9250TIP3    H227715   1.052   6.664   4.578
 9251TIP3   OH227716   2.330   2.940   3.866
 9251TIP3    H127717   2.262   2.879   3.894
 9251TIP3    H227718   2.372   2.898   3.791
 9252TIP3   OH227719   2.151   2.048   0.318
 9252TIP3    H127720   2.156   1.963   0.361
 9252TIP3    H227721   2.058   2.068   0.316
 9253TIP3   OH227722   6.772   2.316   1.339
 9253TIP3    H127723   6.763   2.253   1.268
 9253TIP3    H227724   6.847   2.283   1.390
 9254TIP3   OH227725   4.292   6.542   5.406
 9254TIP3    H127726   4.282   6.550   5.501
 9254TIP3    H227727   4.218   6.490   5.378
 9255TIP3   OH227728   6.242   2.059   5.726
 9255TIP3    H127729   6.324   2.097   5.757
 9255TIP3    H227730   6.195   2.032   5.805
 9256TIP3   OH227731   3.220   4.210   2.383
 9256TIP3    H127732   3.211   4.298   2.346
 9256TIP3    H227733   3.149   4.204   2.447
 9257TIP3   OH227734   2.604   3.375   4.047
 9257TIP3    H127735   2.680   3.348   4.099
 9257TIP3    H227736   2.562   3.292   4.022
 9258TIP3   OH227737   6.457   2.124   3.859
 9258TIP3    H127738   6.496   2.137   3.945
 9258TIP3    H227739   6.435   2.213   3.829
 9259TIP3   OH227740   3.996   5.849   5.778
 9259TIP3    H127741   3.965   5.923   5.830
 9259TIP3    H227742   4.088   5.838   5.805
 9260TIP3   OH227743   3.119   5.891   1.906
 9260TIP3    H127744   3.105   5.975   1.951
 9260TIP3    H227745   3.098   5.825   1.972
 9261TIP3   OH227746   1.608   0.933   5.581
 9261TIP3    H127747   1.550   1.001   5.548
 9261TIP3    H227748   1.551   0.874   5.631
 9262TIP3   OH227749   6.468   6.086   0.787
 9262TIP3    H127750   6.506   5.998   0.792
 9262TIP3    H227751   6.434   6.102   0.876
 9263TIP3   OH227752   0.249   4.486   5.052
 9263TIP3    H127753   0.298   4.567   5.040
 9263TIP3    H227754   0.187   4.505   5.122
 9264TIP3   OH227755   4.611   5.759   5.246
 9264TIP3    H127756   4.653   5.764   5.332
 9264TIP3    H227757   4.519   5.777   5.264
 9265TIP3   OH227758   1.797   5.990   1.188
 9265TIP3    H127759   1.875   5.940   1.163
 9265TIP3    H227760   1.764   5.946   1.266
 9266TIP3   OH227761   0.905   6.111   3.346
 9266TIP3    H127762   0.910   6.126   3.440
 9266TIP3    H227763   0.994   6.090   3.320
 9267TIP3   OH227764   1.260   3.963   4.248
 9267TIP3    H127765   1.314   4.042   4.254
 9267TIP3    H227766   1.245   3.936   4.338
 9268TIP3   OH227767   2.525   1.281   1.572
 9268TIP3    H127768   2.544   1.360   1.522
 9268TIP3    H227769   2.589   1.282   1.644
 9269TIP3   OH227770   5.671   4.272   5.117
 9269TIP3    H127771   5.695   4.328   5.043
 9269TIP3    H227772   5.715   4.311   5.192
 9270TIP3   OH227773   0.205   2.747   2.853
 9270TIP3    H127774   0.187   2.653   2.845
 9270TIP3    H227775   0.154   2.787   2.782
 9271TIP3   OH227776   3.658   2.642   3.078
 9271TIP3    H127777   3.694   2.566   3.124
 9271TIP3    H227778   3.662   2.618   2.985
 9272TIP3   OH227779   5.868   1.640   0.739
 9272TIP3    H127780   5.914   1.612   0.660
 9272TIP3    H227781   5.812   1.712   0.709
 9273TIP3   OH227782   5.614   0.906   5.367
 9273TIP3    H127783   5.706   0.911   5.341
 9273TIP3    H227784   5.600   0.813   5.384
 9274TIP3   OH227785   7.024   5.150   3.199
 9274TIP3    H127786   7.052   5.175   3.111
 9274TIP3    H227787   7.023   5.232   3.249
 9275TIP3   OH227788   0.552   3.076   3.836
 9275TIP3    H127789   0.580   2.997   3.883
 9275TIP3    H227790   0.461   3.057   3.811
 9276TIP3   OH227791   5.507   0.758   4.673
 9276TIP3    H127792   5.543   0.770   4.585
 9276TIP3    H227793   5.513   0.845   4.712
 9277TIP3   OH227794   3.073   2.026   3.351
 9277TIP3    H127795   3.132   2.072   3.290
 9277TIP3    H227796   3.047   2.093   3.414
 9278TIP3   OH227797   3.236   4.613   4.262
 9278TIP3    H127798   3.153   4.625   4.214
 9278TIP3    H227799   3.267   4.527   4.234
 9279TIP3   OH227800   4.811   4.224   3.289
 9279TIP3    H127801   4.850   4.180   3.364
 9279TIP3    H227802   4.874   4.292   3.265
 9280TIP3   OH227803   2.412   4.876   3.066
 9280TIP3    H127804   2.403   4.968   3.093
 9280TIP3    H227805   2.396   4.826   3.147
 9281TIP3   OH227806   7.154   0.724   0.597
 9281TIP3    H127807   7.059   0.731   0.604
 9281TIP3    H227808   7.168   0.668   0.520
 9282TIP3   OH227809   2.341   6.611   0.158
 9282TIP3    H127810   2.406   6.669   0.197
 9282TIP3    H227811   2.383   6.525   0.159
 9283TIP3   OH227812   6.977   2.112   4.928
 9283TIP3    H127813   7.057   2.164   4.936
 9283TIP3    H227814   6.914   2.156   4.985
 9284TIP3   OH227815   2.602   4.948   4.575
 9284TIP3    H127816   2.653   5.007   4.520
 9284TIP3    H227817   2.659   4.928   4.649
 9285TIP3   OH227818   0.769   2.074   3.379
 9285TIP3    H127819   0.796   2.034   3.462
 9285TIP3    H227820   0.851   2.089   3.332
 9286TIP3   OH227821   1.697   5.166   1.250
 9286TIP3    H127822   1.776   5.201   1.291
 9286TIP3    H227823   1.636   5.239   1.249
 9287TIP3   OH227824   2.817   0.253   5.294
 9287TIP3    H127825   2.756   0.289   5.358
 9287TIP3    H227826   2.821   0.160   5.316
 9288TIP3   OH227827   6.681   2.319   1.756
 9288TIP3    H127828   6.614   2.271   1.805
 9288TIP3    H227829   6.743   2.252   1.727
 9289TIP3   OH227830   5.825   5.063   4.541
 9289TIP3    H127831   5.828   5.018   4.456
 9289TIP3    H227832   5.905   5.034   4.586
 9290TIP3   OH227833   0.053   3.916   4.596
 9290TIP3    H127834   0.143   3.946   4.587
 9290TIP3    H227835   0.019   3.963   4.672
 9291TIP3   OH227836   2.758   3.746   4.955
 9291TIP3    H127837   2.817   3.740   4.879
 9291TIP3    H227838   2.717   3.660   4.961
 9292TIP3   OH227839   5.525   2.942   3.287
 9292TIP3    H127840   5.485   2.937   3.200
 9292TIP3    H227841   5.619   2.936   3.270
 9293TIP3   OH227842   2.821   0.547   4.170
 9293TIP3    H127843   2.764   0.540   4.246
 9293TIP3    H227844   2.896   0.599   4.201
 9294TIP3   OH227845   6.418   2.034   4.745
 9294TIP3    H127846   6.347   2.082   4.702
 9294TIP3    H227847   6.411   1.945   4.711
 9295TIP3   OH227848   4.249   4.147   2.173
 9295TIP3    H127849   4.187   4.169   2.243
 9295TIP3    H227850   4.325   4.203   2.190
 9296TIP3   OH227851   2.935   0.349   4.007
 9296TIP3    H127852   2.862   0.318   3.953
 9296TIP3    H227853   2.897   0.419   4.060
 9297TIP3   OH227854   1.911   2.328   5.499
 9297TIP3    H127855   1.824   2.319   5.461
 9297TIP3    H227856   1.971   2.323   5.425
 9298TIP3   OH227857   3.558   1.528   2.716
 9298TIP3    H127858   3.578   1.603   2.660
 9298TIP3    H227859   3.550   1.455   2.655
 9299TIP3   OH227860   5.031   5.450   3.116
 9299TIP3    H127861   5.009   5.519   3.178
 9299TIP3    H227862   5.064   5.497   3.039
 9300TIP3   OH227863   3.955   6.512   4.517
 9300TIP3    H127864   4.031   6.498   4.460
 9300TIP3    H227865   3.994   6.532   4.602
 9301TIP3   OH227866   0.996   1.357  -0.026
 9301TIP3    H127867   1.000   1.385   0.065
 9301TIP3    H227868   0.947   1.274  -0.024
 9302TIP3   OH227869   1.712   4.218   0.649
 9302TIP3    H127870   1.719   4.190   0.557
 9302TIP3    H227871   1.647   4.160   0.687
 9303TIP3   OH227872   2.681   2.439   0.644
 9303TIP3    H127873   2.712   2.444   0.553
 9303TIP3    H227874   2.746   2.488   0.694
 9304TIP3   OH227875   1.559   0.416   2.503
 9304TIP3    H127876   1.629   0.380   2.448
 9304TIP3    H227877   1.489   0.437   2.441
 9305TIP3   OH227878   0.473   6.662   2.641
 9305TIP3    H127879   0.566   6.673   2.663
 9305TIP3    H227880   0.454   6.571   2.667
 9306TIP3   OH227881   2.660   1.386   5.629
 9306TIP3    H127882   2.657   1.476   5.596
 9306TIP3    H227883   2.582   1.378   5.683
 9307TIP3   OH227884   3.994   3.132   4.804
 9307TIP3    H127885   4.037   3.131   4.890
 9307TIP3    H227886   3.900   3.127   4.824
 9308TIP3   OH227887   2.119   6.356   1.014
 9308TIP3    H127888   2.072   6.346   0.931
 9308TIP3    H227889   2.190   6.292   1.009
 9309TIP3   OH227890   4.080   6.059   0.797
 9309TIP3    H127891   4.035   6.037   0.878
 9309TIP3    H227892   4.015   6.110   0.747
 9310TIP3   OH227893   1.390   1.105   2.511
 9310TIP3    H127894   1.436   1.021   2.513
 9310TIP3    H227895   1.391   1.135   2.602
 9311TIP3   OH227896   2.729   0.806   1.158
 9311TIP3    H127897   2.669   0.745   1.116
 9311TIP3    H227898   2.674   0.882   1.180
 9312TIP3   OH227899   3.377   6.610   1.330
 9312TIP3    H127900   3.336   6.694   1.307
 9312TIP3    H227901   3.469   6.632   1.343
 9313TIP3   OH227902   3.362   1.890   5.772
 9313TIP3    H127903   3.424   1.949   5.815
 9313TIP3    H227904   3.301   1.948   5.728
 9314TIP3   OH227905   5.002   4.957   3.694
 9314TIP3    H127906   4.971   5.014   3.623
 9314TIP3    H227907   4.940   4.975   3.766
 9315TIP3   OH227908   4.618   5.188   4.469
 9315TIP3    H127909   4.677   5.142   4.409
 9315TIP3    H227910   4.633   5.281   4.450
 9316TIP3   OH227911   3.966   0.151   4.900
 9316TIP3    H127912   4.017   0.133   4.821
 9316TIP3    H227913   3.905   0.078   4.907
 9317TIP3   OH227914   3.801   6.309   4.375
 9317TIP3    H127915   3.856   6.375   4.416
 9317TIP3    H227916   3.737   6.358   4.324
 9318TIP3   OH227917   3.161   6.038   3.774
 9318TIP3    H127918   3.084   6.029   3.717
 9318TIP3    H227919   3.228   5.986   3.731
 9319TIP3   OH227920   2.239   5.265   5.533
 9319TIP3    H127921   2.169   5.208   5.503
 9319TIP3    H227922   2.249   5.244   5.626
 9320TIP3   OH227923   5.682   3.304   0.626
 9320TIP3    H127924   5.607   3.292   0.567
 9320TIP3    H227925   5.736   3.371   0.583
 9321TIP3   OH227926   0.484   1.725   3.391
 9321TIP3    H127927   0.492   1.755   3.301
 9321TIP3    H227928   0.539   1.647   3.396
 9322TIP3   OH227929   5.628   5.919   1.075
 9322TIP3    H127930   5.585   5.985   1.021
 9322TIP3    H227931   5.638   5.960   1.161
 9323TIP3   OH227932   4.424   3.401   2.768
 9323TIP3    H127933   4.513   3.436   2.780
 9323TIP3    H227934   4.436   3.306   2.774
 9324TIP3   OH227935   2.118   0.247   5.473
 9324TIP3    H127936   2.159   0.277   5.554
 9324TIP3    H227937   2.152   0.158   5.460
 9325TIP3   OH227938   6.118   1.765   3.512
 9325TIP3    H127939   6.037   1.811   3.489
 9325TIP3    H227940   6.173   1.832   3.553
 9326TIP3   OH227941   6.757   5.164   1.984
 9326TIP3    H127942   6.773   5.255   1.957
 9326TIP3    H227943   6.828   5.114   1.945
 9327TIP3   OH227944   0.365   2.678   4.298
 9327TIP3    H127945   0.400   2.755   4.344
 9327TIP3    H227946   0.430   2.659   4.231
 9328TIP3   OH227947   0.618   5.453   0.807
 9328TIP3    H127948   0.591   5.483   0.721
 9328TIP3    H227949   0.704   5.494   0.822
 9329TIP3   OH227950   2.277   5.228   0.823
 9329TIP3    H127951   2.252   5.250   0.912
 9329TIP3    H227952   2.218   5.281   0.768
 9330TIP3   OH227953   3.397   2.692   0.127
 9330TIP3    H127954   3.383   2.663   0.218
 9330TIP3    H227955   3.378   2.786   0.129
 9331TIP3   OH227956   2.399   2.977   5.864
 9331TIP3    H127957   2.393   3.071   5.883
 9331TIP3    H227958   2.310   2.952   5.838
 9332TIP3   OH227959   2.401   5.762   4.718
 9332TIP3    H127960   2.321   5.723   4.752
 9332TIP3    H227961   2.471   5.723   4.771
 9333TIP3   OH227962   4.283   5.353   0.179
 9333TIP3    H127963   4.349   5.378   0.114
 9333TIP3    H227964   4.286   5.257   0.179
 9334TIP3   OH227965   3.179   0.779   5.315
 9334TIP3    H127966   3.084   0.785   5.305
 9334TIP3    H227967   3.213   0.791   5.226
 9335TIP3   OH227968   0.659   5.894   4.772
 9335TIP3    H127969   0.709   5.822   4.734
 9335TIP3    H227970   0.726   5.951   4.810
 9336TIP3   OH227971   0.203   3.322   1.089
 9336TIP3    H127972   0.278   3.377   1.112
 9336TIP3    H227973   0.131   3.357   1.141
 9337TIP3   OH227974   1.457   0.799   5.758
 9337TIP3    H127975   1.364   0.824   5.761
 9337TIP3    H227976   1.480   0.782   5.850
 9338TIP3   OH227977   0.454   4.278   1.346
 9338TIP3    H127978   0.405   4.336   1.288
 9338TIP3    H227979   0.467   4.329   1.426
 9339TIP3   OH227980   0.221   4.484   4.020
 9339TIP3    H127981   0.311   4.503   4.046
 9339TIP3    H227982   0.228   4.413   3.957
 9340TIP3   OH227983   4.268   1.037   5.889
 9340TIP3    H127984   4.289   1.017   5.797
 9340TIP3    H227985   4.184   1.082   5.885
 9341TIP3   OH227986   2.572   5.008   2.598
 9341TIP3    H127987   2.497   5.051   2.639
 9341TIP3    H227988   2.617   4.966   2.671
 9342TIP3   OH227989   2.161   5.539   5.480
 9342TIP3    H127990   2.176   5.452   5.516
 9342TIP3    H227991   2.249   5.573   5.465
 9343TIP3   OH227992   1.239   5.464   3.529
 9343TIP3    H127993   1.258   5.384   3.578
 9343TIP3    H227994   1.156   5.495   3.566
 9344TIP3   OH227995   6.552   2.935   3.513
 9344TIP3    H127996   6.533   2.906   3.424
 9344TIP3    H227997   6.607   2.866   3.549
 9345TIP3   OH227998   7.097   0.722   3.064
 9345TIP3    H127999   7.146   0.678   2.994
 9345TIP3    H228000   7.151   0.797   3.088
 9346TIP3   OH228001   1.060   3.936   4.745
 9346TIP3    H128002   1.113   3.924   4.666
 9346TIP3    H228003   0.986   3.990   4.716
 9347TIP3   OH228004   2.580   4.050   4.527
 9347TIP3    H128005   2.589   3.968   4.478
 9347TIP3    H228006   2.611   4.029   4.615
 9348TIP3   OH228007   1.507   6.502   2.853
 9348TIP3    H128008   1.534   6.440   2.920
 9348TIP3    H228009   1.573   6.571   2.855
 9349TIP3   OH228010   5.927   1.824   4.802
 9349TIP3    H128011   5.963   1.910   4.825
 9349TIP3    H228012   5.967   1.803   4.717
 9350TIP3   OH228013   1.755   0.489   3.979
 9350TIP3    H128014   1.802   0.568   4.005
 9350TIP3    H228015   1.794   0.419   4.031
 9351TIP3   OH228016   1.567   3.697   2.757
 9351TIP3    H128017   1.550   3.679   2.665
 9351TIP3    H228018   1.549   3.614   2.801
 9352TIP3   OH228019   4.834   5.862   1.363
 9352TIP3    H128020   4.879   5.902   1.437
 9352TIP3    H228021   4.819   5.934   1.302
 9353TIP3   OH228022   1.827   5.070   3.854
 9353TIP3    H128023   1.910   5.107   3.824
 9353TIP3    H228024   1.760   5.118   3.805
 9354TIP3   OH228025   2.354   3.950   0.037
 9354TIP3    H128026   2.393   3.878   0.087
 9354TIP3    H228027   2.385   4.029   0.080
 9355TIP3   OH228028   5.428   4.408   2.524
 9355TIP3    H128029   5.368   4.405   2.449
 9355TIP3    H228030   5.406   4.329   2.574
 9356TIP3   OH228031   0.255   1.712   1.912
 9356TIP3    H128032   0.205   1.779   1.959
 9356TIP3    H228033   0.192   1.641   1.899
 9357TIP3   OH228034   3.815   2.258   4.223
 9357TIP3    H128035   3.773   2.201   4.287
 9357TIP3    H228036   3.901   2.218   4.209
 9358TIP3   OH228037   1.995   2.181   2.760
 9358TIP3    H128038   1.995   2.086   2.748
 9358TIP3    H228039   1.934   2.197   2.831
 9359TIP3   OH228040   1.349   2.709   5.313
 9359TIP3    H128041   1.404   2.724   5.390
 9359TIP3    H228042   1.409   2.713   5.239
 9360TIP3   OH228043   3.638   5.848   3.861
 9360TIP3    H128044   3.560   5.817   3.908
 9360TIP3    H228045   3.628   5.943   3.858
 9361TIP3   OH228046   1.418   0.046   2.586
 9361TIP3    H128047   1.368   0.122   2.557
 9361TIP3    H228048   1.452   0.008   2.505
 9362TIP3   OH228049   4.194   4.695   1.530
 9362TIP3    H128050   4.224   4.673   1.442
 9362TIP3    H228051   4.114   4.747   1.516
 9363TIP3   OH228052   6.024   2.152   1.883
 9363TIP3    H128053   6.018   2.184   1.793
 9363TIP3    H228054   5.984   2.222   1.936
 9364TIP3   OH228055   3.915   2.495   4.451
 9364TIP3    H128056   3.865   2.515   4.530
 9364TIP3    H228057   3.974   2.423   4.478
 9365TIP3   OH228058   3.652   5.771   2.042
 9365TIP3    H128059   3.703   5.705   1.994
 9365TIP3    H228060   3.567   5.773   1.997
 9366TIP3   OH228061   4.435   3.504   5.779
 9366TIP3    H128062   4.502   3.538   5.719
 9366TIP3    H228063   4.472   3.519   5.866
 9367TIP3   OH228064   1.602   2.721   0.609
 9367TIP3    H128065   1.634   2.724   0.519
 9367TIP3    H228066   1.679   2.738   0.663
 9368TIP3   OH228067   4.840   6.159   1.360
 9368TIP3    H128068   4.810   6.144   1.450
 9368TIP3    H228069   4.929   6.193   1.371
 9369TIP3   OH228070   4.262   0.465   2.612
 9369TIP3    H128071   4.240   0.499   2.525
 9369TIP3    H228072   4.338   0.516   2.639
 9370TIP3   OH228073   5.447   2.623   3.609
 9370TIP3    H128074   5.485   2.703   3.647
 9370TIP3    H228075   5.455   2.558   3.678
 9371TIP3   OH228076   5.294   2.564   0.357
 9371TIP3    H128077   5.295   2.551   0.262
 9371TIP3    H228078   5.216   2.518   0.387
 9372TIP3   OH228079   5.306   2.553   4.876
 9372TIP3    H128080   5.334   2.560   4.967
 9372TIP3    H228081   5.386   2.537   4.826
 9373TIP3   OH228082   4.764   4.501   2.358
 9373TIP3    H128083   4.848   4.533   2.324
 9373TIP3    H228084   4.783   4.477   2.449
 9374TIP3   OH228085   2.906   1.771   4.221
 9374TIP3    H128086   2.916   1.854   4.267
 9374TIP3    H228087   2.881   1.709   4.289
 9375TIP3   OH228088   6.765   5.838   3.637
 9375TIP3    H128089   6.688   5.793   3.600
 9375TIP3    H228090   6.783   5.908   3.574
 9376TIP3   OH228091   0.647   5.197   2.333
 9376TIP3    H128092   0.709   5.133   2.297
 9376TIP3    H228093   0.698   5.278   2.340
 9377TIP3   OH228094   4.700   6.336   2.789
 9377TIP3    H128095   4.708   6.381   2.873
 9377TIP3    H228096   4.790   6.321   2.762
 9378TIP3   OH228097   3.587   3.211   5.688
 9378TIP3    H128098   3.674   3.227   5.726
 9378TIP3    H228099   3.526   3.235   5.758
 9379TIP3   OH228100   6.618   5.896   4.287
 9379TIP3    H128101   6.620   5.810   4.245
 9379TIP3    H228102   6.539   5.896   4.340
 9380TIP3   OH228103   0.719   6.282   1.746
 9380TIP3    H128104   0.630   6.248   1.756
 9380TIP3    H228105   0.774   6.204   1.743
 9381TIP3   OH228106   5.409   6.242   0.373
 9381TIP3    H128107   5.468   6.233   0.298
 9381TIP3    H228108   5.344   6.173   0.360
 9382TIP3   OH228109   5.136   1.529   5.557
 9382TIP3    H128110   5.138   1.537   5.461
 9382TIP3    H228111   5.184   1.606   5.588
 9383TIP3   OH228112   0.687   4.715   0.888
 9383TIP3    H128113   0.739   4.749   0.816
 9383TIP3    H228114   0.615   4.778   0.897
 9384TIP3   OH228115   7.081   0.700   4.011
 9384TIP3    H128116   7.063   0.790   4.035
 9384TIP3    H228117   7.158   0.705   3.953
 9385TIP3   OH228118   5.493   1.585   2.735
 9385TIP3    H128119   5.521   1.549   2.651
 9385TIP3    H228120   5.399   1.602   2.723
 9386TIP3   OH228121   3.119   0.341   0.199
 9386TIP3    H128122   3.080   0.361   0.114
 9386TIP3    H228123   3.140   0.248   0.194
 9387TIP3   OH228124   3.371   3.472   4.263
 9387TIP3    H128125   3.322   3.513   4.333
 9387TIP3    H228126   3.448   3.528   4.252
 9388TIP3   OH228127   6.681   0.091   5.731
 9388TIP3    H128128   6.759   0.050   5.692
 9388TIP3    H228129   6.686   0.182   5.704
 9389TIP3   OH228130   0.451   1.959   0.312
 9389TIP3    H128131   0.449   1.944   0.218
 9389TIP3    H228132   0.459   2.054   0.320
 9390TIP3   OH228133   4.821   3.565   2.932
 9390TIP3    H128134   4.900   3.619   2.933
 9390TIP3    H228135   4.749   3.627   2.936
 9391TIP3   OH228136   4.656   5.334   5.776
 9391TIP3    H128137   4.696   5.261   5.730
 9391TIP3    H228138   4.628   5.394   5.707
 9392TIP3   OH228139   6.674   3.278   3.087
 9392TIP3    H128140   6.729   3.287   3.010
 9392TIP3    H228141   6.735   3.254   3.157
 9393TIP3   OH228142   0.922   3.174   0.486
 9393TIP3    H128143   0.990   3.240   0.470
 9393TIP3    H228144   0.947   3.100   0.432
 9394TIP3   OH228145   7.142   1.816   0.681
 9394TIP3    H128146   7.115   1.729   0.711
 9394TIP3    H228147   7.214   1.798   0.620
 9395TIP3   OH228148   3.145   2.094   3.041
 9395TIP3    H128149   3.117   2.002   3.045
 9395TIP3    H228150   3.074   2.142   3.085
 9396TIP3   OH228151   1.295   1.298   4.208
 9396TIP3    H128152   1.353   1.266   4.139
 9396TIP3    H228153   1.215   1.324   4.162
 9397TIP3   OH228154   1.564   4.744   5.217
 9397TIP3    H128155   1.588   4.651   5.217
 9397TIP3    H228156   1.469   4.744   5.210
 9398TIP3   OH228157   5.350   0.321   5.017
 9398TIP3    H128158   5.313   0.402   5.050
 9398TIP3    H228159   5.279   0.279   4.969
 9399TIP3   OH228160   0.545   6.095   5.286
 9399TIP3    H128161   0.461   6.110   5.330
 9399TIP3    H228162   0.522   6.082   5.194
 9400TIP3   OH228163   0.981   0.320   0.661
 9400TIP3    H128164   0.904   0.272   0.694
 9400TIP3    H228165   0.974   0.406   0.701
 9401TIP3   OH228166   1.495   5.616   0.996
 9401TIP3    H128167   1.477   5.523   0.983
 9401TIP3    H228168   1.426   5.645   1.057
 9402TIP3   OH228169   5.923   3.930   1.805
 9402TIP3    H128170   5.916   3.908   1.712
 9402TIP3    H228171   5.982   3.863   1.840
 9403TIP3   OH228172   2.260   5.667   2.864
 9403TIP3    H128173   2.228   5.592   2.914
 9403TIP3    H228174   2.345   5.688   2.904
 9404TIP3   OH228175   1.329   0.752   2.468
 9404TIP3    H128176   1.319   0.789   2.381
 9404TIP3    H228177   1.414   0.784   2.498
 9405TIP3   OH228178   2.732   0.260   3.858
 9405TIP3    H128179   2.779   0.195   3.805
 9405TIP3    H228180   2.657   0.285   3.805
 9406TIP3   OH228181   5.610   6.318   1.337
 9406TIP3    H128182   5.657   6.292   1.416
 9406TIP3    H228183   5.580   6.408   1.354
 9407TIP3   OH228184   4.694   0.477   4.636
 9407TIP3    H128185   4.778   0.521   4.650
 9407TIP3    H228186   4.639   0.543   4.594
 9408TIP3   OH228187   6.042   5.172   3.793
 9408TIP3    H128188   6.124   5.166   3.743
 9408TIP3    H228189   5.989   5.099   3.761
 9409TIP3   OH228190   5.578   0.551   4.850
 9409TIP3    H128191   5.672   0.543   4.865
 9409TIP3    H228192   5.569   0.622   4.787
 9410TIP3   OH228193   3.289   4.811   2.014
 9410TIP3    H128194   3.242   4.864   2.078
 9410TIP3    H228195   3.356   4.766   2.066
 9411TIP3   OH228196   2.634   4.189   1.323
 9411TIP3    H128197   2.604   4.101   1.343
 9411TIP3    H228198   2.718   4.197   1.368
 9412TIP3   OH228199   4.924   4.627   4.858
 9412TIP3    H128200   4.898   4.542   4.893
 9412TIP3    H228201   5.019   4.624   4.854
 9413TIP3   OH228202   1.944   1.932   5.694
 9413TIP3    H128203   2.017   1.903   5.641
 9413TIP3    H228204   1.983   1.989   5.761
 9414TIP3   OH228205   3.797   6.298   4.021
 9414TIP3    H128206   3.782   6.267   4.110
 9414TIP3    H228207   3.759   6.230   3.965
 9415TIP3   OH228208   5.788   3.904   3.224
 9415TIP3    H128209   5.820   3.836   3.283
 9415TIP3    H228210   5.854   3.909   3.154
 9416TIP3   OH228211   4.798   3.695   0.937
 9416TIP3    H128212   4.861   3.763   0.963
 9416TIP3    H228213   4.784   3.645   1.018
 9417TIP3   OH228214   5.073   0.406   3.167
 9417TIP3    H128215   5.117   0.377   3.247
 9417TIP3    H228216   5.090   0.500   3.163
 9418TIP3   OH228217   2.486   4.122   2.433
 9418TIP3    H128218   2.430   4.143   2.508
 9418TIP3    H228219   2.568   4.169   2.452
 9419TIP3   OH228220   1.488   3.924   5.261
 9419TIP3    H128221   1.461   3.832   5.264
 9419TIP3    H228222   1.430   3.968   5.324
 9420TIP3   OH228223   3.871   0.999   4.646
 9420TIP3    H128224   3.940   0.936   4.666
 9420TIP3    H228225   3.914   1.063   4.589
 9421TIP3   OH228226   0.702   2.408   4.858
 9421TIP3    H128227   0.718   2.502   4.850
 9421TIP3    H228228   0.621   2.401   4.908
 9422TIP3   OH228229   4.545   1.129   0.835
 9422TIP3    H128230   4.508   1.093   0.754
 9422TIP3    H228231   4.479   1.110   0.901
 9423TIP3   OH228232   0.411   2.754   2.249
 9423TIP3    H128233   0.434   2.846   2.260
 9423TIP3    H228234   0.337   2.740   2.307
 9424TIP3   OH228235   5.543   1.555   3.456
 9424TIP3    H128236   5.489   1.494   3.506
 9424TIP3    H228237   5.543   1.636   3.508
 9425TIP3   OH228238   5.014   3.687   2.436
 9425TIP3    H128239   5.103   3.689   2.400
 9425TIP3    H228240   4.965   3.749   2.382
 9426TIP3   OH228241   0.195   0.351   1.198
 9426TIP3    H128242   0.276   0.366   1.148
 9426TIP3    H228243   0.173   0.260   1.180
 9427TIP3   OH228244   1.834   1.163   5.662
 9427TIP3    H128245   1.825   1.095   5.595
 9427TIP3    H228246   1.921   1.199   5.649
 9428TIP3   OH228247   0.986   4.323   3.151
 9428TIP3    H128248   1.005   4.317   3.057
 9428TIP3    H228249   0.995   4.416   3.171
 9429TIP3   OH228250   6.628   0.996   0.071
 9429TIP3    H128251   6.620   1.032   0.159
 9429TIP3    H228252   6.717   1.018   0.045
 9430TIP3   OH228253   6.210   1.847   2.987
 9430TIP3    H128254   6.209   1.764   3.035
 9430TIP3    H228255   6.267   1.831   2.912
 9431TIP3   OH228256   3.751   5.100   1.046
 9431TIP3    H128257   3.756   5.005   1.055
 9431TIP3    H228258   3.842   5.130   1.052
 9432TIP3   OH228259   5.593   5.961   4.094
 9432TIP3    H128260   5.638   6.037   4.057
 9432TIP3    H228261   5.664   5.905   4.126
 9433TIP3   OH228262   3.287   1.637   1.295
 9433TIP3    H128263   3.283   1.658   1.388
 9433TIP3    H228264   3.381   1.642   1.273
 9434TIP3   OH228265   4.462   4.106   5.182
 9434TIP3    H128266   4.484   4.034   5.122
 9434TIP3    H228267   4.544   4.153   5.194
 9435TIP3   OH228268   2.327   1.762   4.443
 9435TIP3    H128269   2.361   1.703   4.376
 9435TIP3    H228270   2.281   1.705   4.504
 9436TIP3   OH228271   7.250   6.383   4.102
 9436TIP3    H128272   7.191   6.308   4.104
 9436TIP3    H228273   7.194   6.458   4.121
 9437TIP3   OH228274   6.308   5.406   3.888
 9437TIP3    H128275   6.289   5.453   3.806
 9437TIP3    H228276   6.365   5.334   3.862
 9438TIP3   OH228277   1.103   1.314   2.687
 9438TIP3    H128278   1.153   1.394   2.705
 9438TIP3    H228279   1.099   1.269   2.772
 9439TIP3   OH228280   4.079   0.971   4.224
 9439TIP3    H128281   4.038   0.958   4.139
 9439TIP3    H228282   4.098   0.882   4.256
 9440TIP3   OH228283   4.204   4.553   0.428
 9440TIP3    H128284   4.211   4.635   0.478
 9440TIP3    H228285   4.289   4.545   0.385
 9441TIP3   OH228286   5.181   2.087   1.469
 9441TIP3    H128287   5.091   2.114   1.449
 9441TIP3    H228288   5.182   1.993   1.448
 9442TIP3   OH228289   3.505   1.168   5.381
 9442TIP3    H128290   3.502   1.086   5.431
 9442TIP3    H228291   3.591   1.205   5.401
 9443TIP3   OH228292   5.308   0.138   0.704
 9443TIP3    H128293   5.232   0.175   0.659
 9443TIP3    H228294   5.336   0.066   0.649
 9444TIP3   OH228295   4.103   2.803   3.291
 9444TIP3    H128296   4.088   2.806   3.197
 9444TIP3    H228297   4.062   2.883   3.324
 9445TIP3   OH228298   4.511   0.127   3.002
 9445TIP3    H128299   4.522   0.213   2.961
 9445TIP3    H228300   4.559   0.067   2.946
 9446TIP3   OH228301   2.914   1.865   3.534
 9446TIP3    H128302   2.976   1.898   3.469
 9446TIP3    H228303   2.952   1.891   3.618
 9447TIP3   OH228304   5.597   6.215   4.631
 9447TIP3    H128305   5.590   6.259   4.546
 9447TIP3    H228306   5.565   6.126   4.616
 9448TIP3   OH228307   0.600   4.614   1.913
 9448TIP3    H128308   0.546   4.693   1.918
 9448TIP3    H228309   0.614   4.601   1.819
 9449TIP3   OH228310   3.982   2.702   3.674
 9449TIP3    H128311   3.893   2.675   3.696
 9449TIP3    H228312   3.988   2.792   3.706
 9450TIP3   OH228313   1.445   3.257   4.442
 9450TIP3    H128314   1.535   3.223   4.436
 9450TIP3    H228315   1.395   3.186   4.482
 9451TIP3   OH228316   3.754   1.822   2.847
 9451TIP3    H128317   3.788   1.884   2.782
 9451TIP3    H228318   3.755   1.871   2.929
 9452TIP3   OH228319   4.716   0.964   4.502
 9452TIP3    H128320   4.792   0.937   4.450
 9452TIP3    H228321   4.749   0.968   4.592
 9453TIP3   OH228322   5.752   1.184   2.682
 9453TIP3    H128323   5.824   1.182   2.619
 9453TIP3    H228324   5.747   1.275   2.711
 9454TIP3   OH228325   5.223   4.780   3.679
 9454TIP3    H128326   5.138   4.822   3.683
 9454TIP3    H228327   5.284   4.845   3.715
 9455TIP3   OH228328   6.023   4.775   3.002
 9455TIP3    H128329   5.990   4.849   2.952
 9455TIP3    H228330   6.003   4.698   2.948
 9456TIP3   OH228331   2.862   0.056   1.013
 9456TIP3    H128332   2.839  -0.025   0.967
 9456TIP3    H228333   2.813   0.052   1.095
 9457TIP3   OH228334   7.014   2.235   1.447
 9457TIP3    H128335   7.042   2.309   1.393
 9457TIP3    H228336   7.065   2.243   1.527
 9458TIP3   OH228337   4.075   1.066   2.289
 9458TIP3    H128338   4.045   1.134   2.350
 9458TIP3    H228339   4.163   1.094   2.263
 9459TIP3   OH228340   2.808   5.446   4.837
 9459TIP3    H128341   2.748   5.442   4.912
 9459TIP3    H228342   2.788   5.368   4.786
 9460TIP3   OH228343   5.185   2.270   5.301
 9460TIP3    H128344   5.106   2.322   5.287
 9460TIP3    H228345   5.177   2.197   5.240
 9461TIP3   OH228346   6.410   6.140   1.047
 9461TIP3    H128347   6.371   6.100   1.124
 9461TIP3    H228348   6.338   6.186   1.005
 9462TIP3   OH228349   1.587   1.250   0.739
 9462TIP3    H128350   1.532   1.197   0.797
 9462TIP3    H228351   1.627   1.187   0.680
 9463TIP3   OH228352   0.621   0.655   0.732
 9463TIP3    H128353   0.586   0.744   0.718
 9463TIP3    H228354   0.714   0.663   0.712
 9464TIP3   OH228355   0.941   3.684   5.463
 9464TIP3    H128356   0.949   3.729   5.380
 9464TIP3    H228357   0.885   3.741   5.516
 9465TIP3   OH228358   7.027   0.918   0.854
 9465TIP3    H128359   7.061   0.836   0.888
 9465TIP3    H228360   6.933   0.902   0.843
 9466TIP3   OH228361   3.694   2.664   0.806
 9466TIP3    H128362   3.625   2.610   0.843
 9466TIP3    H228363   3.757   2.601   0.770
 9467TIP3   OH228364   3.214   2.004   4.026
 9467TIP3    H128365   3.164   2.035   3.950
 9467TIP3    H228366   3.185   1.914   4.039
 9468TIP3   OH228367   1.583   1.950   0.497
 9468TIP3    H128368   1.610   1.858   0.502
 9468TIP3    H228369   1.503   1.949   0.445
 9469TIP3   OH228370   5.780   6.286   1.135
 9469TIP3    H128371   5.710   6.287   1.201
 9469TIP3    H228372   5.760   6.360   1.078
 9470TIP3   OH228373   1.480   3.130   0.129
 9470TIP3    H128374   1.531   3.176   0.062
 9470TIP3    H228375   1.533   3.054   0.153
 9471TIP3   OH228376   0.171   6.386   5.691
 9471TIP3    H128377   0.202   6.453   5.751
 9471TIP3    H228378   0.095   6.348   5.734
 9472TIP3   OH228379   6.567   0.314   1.710
 9472TIP3    H128380   6.594   0.290   1.799
 9472TIP3    H228381   6.627   0.383   1.684
 9473TIP3   OH228382   6.258   2.610   2.470
 9473TIP3    H128383   6.203   2.533   2.486
 9473TIP3    H228384   6.198   2.678   2.441
 9474TIP3   OH228385   5.593   1.568   4.571
 9474TIP3    H128386   5.531   1.497   4.589
 9474TIP3    H228387   5.539   1.647   4.569
 9475TIP3   OH228388   2.599   3.085   4.615
 9475TIP3    H128389   2.661   3.104   4.545
 9475TIP3    H228390   2.526   3.146   4.600
 9476TIP3   OH228391   4.287   2.967   4.825
 9476TIP3    H128392   4.297   2.925   4.911
 9476TIP3    H228393   4.365   2.941   4.777
 9477TIP3   OH228394   1.433   4.247   5.318
 9477TIP3    H128395   1.349   4.292   5.303
 9477TIP3    H228396   1.475   4.246   5.232
 9478TIP3   OH228397   4.385   3.440   0.841
 9478TIP3    H128398   4.302   3.455   0.887
 9478TIP3    H228399   4.451   3.440   0.911
 9479TIP3   OH228400   7.001   6.187   2.855
 9479TIP3    H128401   7.092   6.158   2.845
 9479TIP3    H228402   6.976   6.217   2.768
 9480TIP3   OH228403   2.235   5.606   5.111
 9480TIP3    H128404   2.281   5.687   5.135
 9480TIP3    H228405   2.188   5.629   5.030
 9481TIP3   OH228406   4.623   4.704   4.694
 9481TIP3    H128407   4.575   4.687   4.776
 9481TIP3    H228408   4.599   4.794   4.672
 9482TIP3   OH228409   2.533   5.306   2.936
 9482TIP3    H128410   2.610   5.292   2.881
 9482TIP3    H228411   2.545   5.393   2.973
 9483TIP3   OH228412   2.890   6.112   2.352
 9483TIP3    H128413   2.826   6.160   2.404
 9483TIP3    H228414   2.955   6.082   2.416
 9484TIP3   OH228415   0.489   2.071   1.319
 9484TIP3    H128416   0.504   1.996   1.378
 9484TIP3    H228417   0.552   2.137   1.347
 9485TIP3   OH228418   2.404   3.567   0.619
 9485TIP3    H128419   2.468   3.503   0.650
 9485TIP3    H228420   2.401   3.553   0.524
 9486TIP3   OH228421   5.174   4.816   2.963
 9486TIP3    H128422   5.228   4.877   3.014
 9486TIP3    H228423   5.156   4.744   3.024
 9487TIP3   OH228424   5.940   3.325   1.614
 9487TIP3    H128425   5.866   3.272   1.584
 9487TIP3    H228426   5.911   3.416   1.604
 9488TIP3   OH228427   5.508   0.226   1.328
 9488TIP3    H128428   5.456   0.240   1.407
 9488TIP3    H228429   5.474   0.291   1.265
 9489TIP3   OH228430   1.806   3.371   0.441
 9489TIP3    H128431   1.811   3.392   0.534
 9489TIP3    H228432   1.835   3.451   0.397
 9490TIP3   OH228433   5.128   4.986   0.889
 9490TIP3    H128434   5.103   4.894   0.897
 9490TIP3    H228435   5.097   5.026   0.971
 9491TIP3   OH228436   6.720   0.500   3.720
 9491TIP3    H128437   6.639   0.549   3.705
 9491TIP3    H228438   6.700   0.445   3.796
 9492TIP3   OH228439   4.936   5.564   2.116
 9492TIP3    H128440   4.881   5.531   2.187
 9492TIP3    H228441   4.922   5.659   2.118
 9493TIP3   OH228442   4.123   2.469   1.708
 9493TIP3    H128443   4.211   2.471   1.670
 9493TIP3    H228444   4.127   2.529   1.782
 9494TIP3   OH228445   3.504   3.365   3.762
 9494TIP3    H128446   3.409   3.355   3.771
 9494TIP3    H228447   3.540   3.304   3.825
 9495TIP3   OH228448   5.149   6.375   0.547
 9495TIP3    H128449   5.118   6.454   0.503
 9495TIP3    H228450   5.230   6.402   0.591
 9496TIP3   OH228451   3.421   4.060   0.786
 9496TIP3    H128452   3.496   4.060   0.845
 9496TIP3    H228453   3.416   4.150   0.754
 9497TIP3   OH228454   6.467   1.269   2.442
 9497TIP3    H128455   6.478   1.248   2.349
 9497TIP3    H228456   6.411   1.199   2.475
 9498TIP3   OH228457   4.434   3.137   0.579
 9498TIP3    H128458   4.354   3.156   0.530
 9498TIP3    H228459   4.409   3.068   0.640
 9499TIP3   OH228460   5.042   3.127   0.241
 9499TIP3    H128461   5.009   3.154   0.155
 9499TIP3    H228462   5.085   3.043   0.226
 9500TIP3   OH228463   2.757   6.576   3.821
 9500TIP3    H128464   2.755   6.605   3.912
 9500TIP3    H228465   2.715   6.647   3.772
 9501TIP3   OH228466   1.528   0.433   4.993
 9501TIP3    H128467   1.543   0.393   5.079
 9501TIP3    H228468   1.610   0.418   4.945
 9502TIP3   OH228469   2.454   1.956   3.272
 9502TIP3    H128470   2.536   1.977   3.316
 9502TIP3    H228471   2.479   1.935   3.182
 9503TIP3   OH228472   3.696   1.009  -0.002
 9503TIP3    H128473   3.698   0.942  -0.070
 9503TIP3    H228474   3.706   0.959   0.080
 9504TIP3   OH228475   1.570   2.693   1.178
 9504TIP3    H128476   1.530   2.688   1.265
 9504TIP3    H228477   1.497   2.676   1.118
 9505TIP3   OH228478   0.824   6.321   3.151
 9505TIP3    H128479   0.805   6.344   3.242
 9505TIP3    H228480   0.790   6.232   3.141
 9506TIP3   OH228481   1.189   0.453   4.371
 9506TIP3    H128482   1.119   0.519   4.373
 9506TIP3    H228483   1.197   0.430   4.278
 9507TIP3   OH228484   1.486   0.548   4.324
 9507TIP3    H128485   1.525   0.465   4.352
 9507TIP3    H228486   1.393   0.540   4.347
 9508TIP3   OH228487   4.784   3.569   0.302
 9508TIP3    H128488   4.744   3.578   0.216
 9508TIP3    H228489   4.872   3.535   0.284
 9509TIP3   OH228490   5.031   6.583   1.530
 9509TIP3    H128491   5.112   6.533   1.525
 9509TIP3    H228492   4.966   6.520   1.563
 9510TIP3   OH228493   1.330   6.382   5.270
 9510TIP3    H128494   1.367   6.318   5.331
 9510TIP3    H228495   1.267   6.332   5.218
 9511TIP3   OH228496   3.874   5.783   4.864
 9511TIP3    H128497   3.833   5.707   4.907
 9511TIP3    H228498   3.964   5.755   4.847
 9512TIP3   OH228499   1.921   6.178   4.193
 9512TIP3    H128500   1.848   6.195   4.133
 9512TIP3    H228501   1.900   6.228   4.271
 9513TIP3   OH228502   5.699   2.582   3.029
 9513TIP3    H128503   5.775   2.641   3.023
 9513TIP3    H228504   5.682   2.556   2.938
 9514TIP3   OH228505   6.110   4.064   1.608
 9514TIP3    H128506   6.038   4.004   1.588
 9514TIP3    H228507   6.086   4.102   1.693
 9515TIP3   OH228508   5.027   0.569   0.601
 9515TIP3    H128509   5.016   0.661   0.576
 9515TIP3    H228510   4.938   0.537   0.617
 9516TIP3   OH228511   4.166   1.175   0.657
 9516TIP3    H128512   4.082   1.136   0.633
 9516TIP3    H228513   4.161   1.189   0.751
 9517TIP3   OH228514   4.296   5.272   4.154
 9517TIP3    H128515   4.330   5.258   4.242
 9517TIP3    H228516   4.281   5.367   4.149
 9518TIP3   OH228517   5.193   6.478   3.619
 9518TIP3    H128518   5.119   6.425   3.588
 9518TIP3    H228519   5.154   6.535   3.685
 9519TIP3   OH228520   5.214   0.364   5.745
 9519TIP3    H128521   5.178   0.307   5.812
 9519TIP3    H228522   5.235   0.306   5.672
 9520TIP3   OH228523   5.528   5.174   5.012
 9520TIP3    H128524   5.525   5.092   5.062
 9520TIP3    H228525   5.594   5.159   4.945
 9521TIP3   OH228526   1.228   6.153   3.447
 9521TIP3    H128527   1.166   6.224   3.429
 9521TIP3    H228528   1.209   6.126   3.536
 9522TIP3   OH228529   2.965   4.924   0.859
 9522TIP3    H128530   2.974   4.943   0.953
 9522TIP3    H228531   2.919   4.999   0.823
 9523TIP3   OH228532   1.827   1.971   1.714
 9523TIP3    H128533   1.782   2.021   1.646
 9523TIP3    H228534   1.770   1.976   1.791
 9524TIP3   OH228535   4.104   3.730   1.945
 9524TIP3    H128536   4.162   3.806   1.934
 9524TIP3    H228537   4.016   3.765   1.936
 9525TIP3   OH228538   0.844   5.047   0.771
 9525TIP3    H128539   0.758   5.056   0.812
 9525TIP3    H228540   0.827   5.057   0.677
 9526TIP3   OH228541   5.814   0.779   5.040
 9526TIP3    H128542   5.823   0.720   4.966
 9526TIP3    H228543   5.809   0.866   5.001
 9527TIP3   OH228544   2.882   0.909   0.714
 9527TIP3    H128545   2.890   1.000   0.686
 9527TIP3    H228546   2.894   0.858   0.634
 9528TIP3   OH228547   5.396   3.648   1.704
 9528TIP3    H128548   5.361   3.558   1.700
 9528TIP3    H228549   5.351   3.694   1.633
 9529TIP3   OH228550   0.984   1.551   0.169
 9529TIP3    H128551   0.943   1.529   0.253
 9529TIP3    H228552   1.026   1.635   0.184
 9530TIP3   OH228553   1.412   4.641   2.926
 9530TIP3    H128554   1.427   4.646   2.831
 9530TIP3    H228555   1.388   4.550   2.942
 9531TIP3   OH228556   2.236   6.578   3.786
 9531TIP3    H128557   2.271   6.663   3.763
 9531TIP3    H228558   2.165   6.598   3.848
 9532TIP3   OH228559   4.237   2.489   4.651
 9532TIP3    H128560   4.211   2.572   4.611
 9532TIP3    H228561   4.331   2.498   4.665
 9533TIP3   OH228562   3.335   0.999   4.233
 9533TIP3    H128563   3.264   1.025   4.176
 9533TIP3    H228564   3.368   1.081   4.270
 9534TIP3   OH228565   3.885   5.648   0.779
 9534TIP3    H128566   3.961   5.624   0.833
 9534TIP3    H228567   3.815   5.665   0.842
 9535TIP3   OH228568   3.870   1.975   3.626
 9535TIP3    H128569   3.869   2.065   3.657
 9535TIP3    H228570   3.914   1.926   3.696
 9536TIP3   OH228571   6.226   1.666   5.046
 9536TIP3    H128572   6.290   1.733   5.025
 9536TIP3    H228573   6.277   1.595   5.085
 9537TIP3   OH228574   4.404   0.432   0.588
 9537TIP3    H128575   4.459   0.446   0.665
 9537TIP3    H228576   4.432   0.347   0.554
 9538TIP3   OH228577   3.746   4.858   0.691
 9538TIP3    H128578   3.799   4.795   0.643
 9538TIP3    H228579   3.807   4.927   0.717
 9539TIP3   OH228580   0.739   5.903   2.585
 9539TIP3    H128581   0.810   5.847   2.616
 9539TIP3    H228582   0.693   5.929   2.665
 9540TIP3   OH228583   1.523   5.592   3.484
 9540TIP3    H128584   1.551   5.584   3.575
 9540TIP3    H228585   1.449   5.653   3.487
 9541TIP3   OH228586   2.942   3.751   1.828
 9541TIP3    H128587   2.977   3.668   1.860
 9541TIP3    H228588   2.848   3.736   1.820
 9542TIP3   OH228589   0.294   1.006   4.163
 9542TIP3    H128590   0.311   1.097   4.139
 9542TIP3    H228591   0.206   1.006   4.201
 9543TIP3   OH228592   4.093   3.593   4.399
 9543TIP3    H128593   4.117   3.650   4.472
 9543TIP3    H228594   4.035   3.527   4.437
 9544TIP3   OH228595   6.737   0.712   2.122
 9544TIP3    H128596   6.661   0.691   2.176
 9544TIP3    H228597   6.709   0.694   2.032
 9545TIP3   OH228598   4.812   1.149   3.539
 9545TIP3    H128599   4.743   1.095   3.577
 9545TIP3    H228600   4.766   1.208   3.479
 9546TIP3   OH228601   5.988   3.071   5.769
 9546TIP3    H128602   6.061   3.106   5.717
 9546TIP3    H228603   5.982   2.979   5.744
 9547TIP3   OH228604   0.070   6.332   1.587
 9547TIP3    H128605  -0.003   6.271   1.581
 9547TIP3    H228606   0.038   6.412   1.546
 9548TIP3   OH228607   2.123   1.493   0.164
 9548TIP3    H128608   2.183   1.494   0.238
 9548TIP3    H228609   2.091   1.403   0.159
 9549TIP3   OH228610   6.368   4.799   4.491
 9549TIP3    H128611   6.341   4.873   4.546
 9549TIP3    H228612   6.363   4.833   4.401
 9550TIP3   OH228613   4.313   0.702   5.232
 9550TIP3    H128614   4.220   0.716   5.247
 9550TIP3    H228615   4.333   0.757   5.155
 9551TIP3   OH228616   1.910   2.216   3.735
 9551TIP3    H128617   1.974   2.227   3.805
 9551TIP3    H228618   1.884   2.305   3.711
 9552TIP3   OH228619   2.308   1.736   3.214
 9552TIP3    H128620   2.338   1.818   3.253
 9552TIP3    H228621   2.387   1.697   3.175
 9553TIP3   OH228622   4.181   6.545   5.656
 9553TIP3    H128623   4.128   6.604   5.709
 9553TIP3    H228624   4.172   6.459   5.698
 9554TIP3   OH228625   1.020   1.720   3.556
 9554TIP3    H128626   0.993   1.779   3.627
 9554TIP3    H228627   1.114   1.735   3.547
 9555TIP3   OH228628   2.567   3.047   2.626
 9555TIP3    H128629   2.584   3.102   2.703
 9555TIP3    H228630   2.558   2.958   2.661
 9556TIP3   OH228631   5.971   2.225   0.232
 9556TIP3    H128632   5.917   2.150   0.258
 9556TIP3    H228633   5.909   2.295   0.215
 9557TIP3   OH228634   7.206   3.433   3.210
 9557TIP3    H128635   7.122   3.387   3.204
 9557TIP3    H228636   7.186   3.522   3.181
 9558TIP3   OH228637   4.690   0.062   0.354
 9558TIP3    H128638   4.773   0.054   0.307
 9558TIP3    H228639   4.633  -0.004   0.313
 9559TIP3   OH228640   1.838   5.861   2.170
 9559TIP3    H128641   1.853   5.769   2.147
 9559TIP3    H228642   1.879   5.871   2.256
 9560TIP3   OH228643   6.593   6.598   1.894
 9560TIP3    H128644   6.528   6.644   1.947
 9560TIP3    H228645   6.580   6.505   1.914
 9561TIP3   OH228646   5.295   3.070   1.006
 9561TIP3    H128647   5.208   3.109   0.997
 9561TIP3    H228648   5.280   2.985   1.046
 9562TIP3   OH228649   5.900   3.961   3.844
 9562TIP3    H128650   5.989   3.946   3.875
 9562TIP3    H228651   5.878   3.881   3.796
 9563TIP3   OH228652   3.533   2.887   3.895
 9563TIP3    H128653   3.442   2.864   3.911
 9563TIP3    H228654   3.548   2.868   3.803
 9564TIP3   OH228655   3.585   0.068   2.741
 9564TIP3    H128656   3.614   0.114   2.663
 9564TIP3    H228657   3.619  -0.021   2.731
 9565TIP3   OH228658   0.700   6.783   4.308
 9565TIP3    H128659   0.719   6.801   4.400
 9565TIP3    H228660   0.673   6.691   4.307
 9566TIP3   OH228661   2.359   5.359   5.171
 9566TIP3    H128662   2.342   5.356   5.265
 9566TIP3    H228663   2.336   5.448   5.145
 9567TIP3   OH228664   1.275   0.895   5.141
 9567TIP3    H128665   1.298   0.857   5.225
 9567TIP3    H228666   1.187   0.862   5.123
 9568TIP3   OH228667   7.223   1.021   5.701
 9568TIP3    H128668   7.217   1.105   5.747
 9568TIP3    H228669   7.132   0.997   5.684
 9569TIP3   OH228670   6.626   2.791   1.296
 9569TIP3    H128671   6.661   2.855   1.357
 9569TIP3    H228672   6.540   2.768   1.333
 9570TIP3   OH228673   0.607   6.293   3.701
 9570TIP3    H128674   0.567   6.306   3.787
 9570TIP3    H228675   0.691   6.338   3.707
 9571TIP3   OH228676   3.281   5.885   5.384
 9571TIP3    H128677   3.375   5.883   5.367
 9571TIP3    H228678   3.241   5.888   5.298
 9572TIP3   OH228679   4.988   6.114   2.125
 9572TIP3    H128680   4.910   6.137   2.175
 9572TIP3    H228681   5.062   6.134   2.183
 9573TIP3   OH228682   2.764   3.515   1.387
 9573TIP3    H128683   2.711   3.467   1.451
 9573TIP3    H228684   2.780   3.452   1.317
 9574TIP3   OH228685   6.696   2.754   2.134
 9574TIP3    H128686   6.659   2.800   2.059
 9574TIP3    H228687   6.652   2.792   2.210
 9575TIP3   OH228688   2.186   6.015   4.637
 9575TIP3    H128689   2.279   5.995   4.623
 9575TIP3    H228690   2.143   5.930   4.633
 9576TIP3   OH228691   3.644   6.351   1.130
 9576TIP3    H128692   3.734   6.361   1.100
 9576TIP3    H228693   3.632   6.420   1.195
 9577TIP3   OH228694   0.697   5.040   4.380
 9577TIP3    H128695   0.618   5.050   4.433
 9577TIP3    H228696   0.764   5.090   4.427
 9578TIP3   OH228697   2.547   4.208   5.193
 9578TIP3    H128698   2.546   4.223   5.288
 9578TIP3    H228699   2.516   4.118   5.183
 9579TIP3   OH228700   1.169   4.321   3.448
 9579TIP3    H128701   1.171   4.323   3.353
 9579TIP3    H228702   1.231   4.252   3.473
 9580TIP3   OH228703   6.218   5.435   0.063
 9580TIP3    H128704   6.271   5.367   0.103
 9580TIP3    H228705   6.242   5.434  -0.030
 9581TIP3   OH228706   2.387   0.805   0.360
 9581TIP3    H128707   2.442   0.728   0.345
 9581TIP3    H228708   2.429   0.874   0.310
 9582TIP3   OH228709   0.028   0.166   1.801
 9582TIP3    H128710   0.023   0.125   1.888
 9582TIP3    H228711  -0.002   0.098   1.741
 9583TIP3   OH228712   3.232   1.004   2.717
 9583TIP3    H128713   3.235   1.041   2.805
 9583TIP3    H228714   3.290   1.060   2.666
 9584TIP3   OH228715   7.020   2.048   2.164
 9584TIP3    H128716   7.098   2.098   2.189
 9584TIP3    H228717   6.975   2.103   2.100
 9585TIP3   OH228718   3.359   3.570   3.466
 9585TIP3    H128719   3.343   3.633   3.395
 9585TIP3    H228720   3.272   3.542   3.494
 9586TIP3   OH228721   6.098   3.206   4.690
 9586TIP3    H128722   6.180   3.212   4.641
 9586TIP3    H228723   6.125   3.208   4.782
 9587TIP3   OH228724   5.913   1.827   0.273
 9587TIP3    H128725   5.874   1.884   0.207
 9587TIP3    H228726   5.998   1.803   0.236
 9588TIP3   OH228727   5.860   2.885   4.698
 9588TIP3    H128728   5.921   2.898   4.770
 9588TIP3    H228729   5.863   2.966   4.648
 9589TIP3   OH228730   6.431   5.237   2.942
 9589TIP3    H128731   6.413   5.144   2.946
 9589TIP3    H228732   6.512   5.244   2.892
 9590TIP3   OH228733   4.476   4.675   4.912
 9590TIP3    H128734   4.470   4.770   4.925
 9590TIP3    H228735   4.397   4.640   4.952
 9591TIP3   OH228736   6.500   5.004   0.153
 9591TIP3    H128737   6.467   4.914   0.154
 9591TIP3    H228738   6.520   5.023   0.244
 9592TIP3   OH228739   3.929   3.709   2.697
 9592TIP3    H128740   4.015   3.678   2.722
 9592TIP3    H228741   3.927   3.701   2.601
 9593TIP3   OH228742   2.918   2.226   3.104
 9593TIP3    H128743   2.862   2.149   3.093
 9593TIP3    H228744   2.881   2.272   3.180
 9594TIP3   OH228745   1.870   4.654   3.660
 9594TIP3    H128746   1.926   4.687   3.730
 9594TIP3    H228747   1.825   4.578   3.698
 9595TIP3   OH228748   0.881   4.504   0.062
 9595TIP3    H128749   0.908   4.454  -0.016
 9595TIP3    H228750   0.837   4.440   0.118
 9596TIP3   OH228751   6.650   0.395   1.056
 9596TIP3    H128752   6.599   0.475   1.048
 9596TIP3    H228753   6.659   0.363   0.966
 9597TIP3   OH228754   1.685   6.173   0.709
 9597TIP3    H128755   1.721   6.181   0.621
 9597TIP3    H228756   1.591   6.161   0.696
 9598TIP3   OH228757   6.954   1.253   2.634
 9598TIP3    H128758   6.871   1.285   2.598
 9598TIP3    H228759   7.008   1.233   2.557
 9599TIP3   OH228760   5.452   1.872   3.922
 9599TIP3    H128761   5.443   1.786   3.881
 9599TIP3    H228762   5.379   1.923   3.886
 9600TIP3   OH228763  -0.003   5.832   2.340
 9600TIP3    H128764   0.066   5.891   2.310
 9600TIP3    H228765   0.001   5.835   2.435
 9601TIP3   OH228766   1.734   0.560   0.057
 9601TIP3    H128767   1.753   0.468   0.039
 9601TIP3    H228768   1.752   0.571   0.151
 9602TIP3   OH228769   3.012   1.658   5.513
 9602TIP3    H128770   3.011   1.641   5.419
 9602TIP3    H228771   3.036   1.574   5.552
 9603TIP3   OH228772   7.066   6.500   1.895
 9603TIP3    H128773   7.085   6.507   1.989
 9603TIP3    H228774   7.056   6.591   1.866
 9604TIP3   OH228775   3.962   5.240   2.338
 9604TIP3    H128776   4.045   5.201   2.363
 9604TIP3    H228777   3.926   5.276   2.419
 9605TIP3   OH228778   3.999   2.731   2.299
 9605TIP3    H128779   3.925   2.694   2.349
 9605TIP3    H228780   4.026   2.660   2.241
 9606TIP3   OH228781   4.097   6.627   0.980
 9606TIP3    H128782   4.173   6.632   1.038
 9606TIP3    H228783   4.024   6.658   1.034
 9607TIP3   OH228784   6.084   6.058   0.727
 9607TIP3    H128785   6.074   6.089   0.637
 9607TIP3    H228786   6.138   6.125   0.769
 9608TIP3   OH228787   3.635   3.003   4.234
 9608TIP3    H128788   3.708   3.065   4.242
 9608TIP3    H228789   3.661   2.945   4.163
 9609TIP3   OH228790   2.049   6.805   5.749
 9609TIP3    H128791   2.029   6.737   5.814
 9609TIP3    H228792   1.965   6.826   5.709
 9610TIP3   OH228793   2.787   2.166   0.607
 9610TIP3    H128794   2.733   2.157   0.529
 9610TIP3    H228795   2.727   2.198   0.674
 9611TIP3   OH228796   4.809   0.669   1.659
 9611TIP3    H128797   4.871   0.706   1.596
 9611TIP3    H228798   4.852   0.591   1.692
 9612TIP3   OH228799   3.763   2.828   4.056
 9612TIP3    H128800   3.768   2.739   4.089
 9612TIP3    H228801   3.681   2.831   4.006
 9613TIP3   OH228802   5.220   4.108   2.711
 9613TIP3    H128803   5.201   4.189   2.759
 9613TIP3    H228804   5.296   4.130   2.656
 9614TIP3   OH228805   1.140   0.907   4.903
 9614TIP3    H128806   1.105   0.991   4.875
 9614TIP3    H228807   1.220   0.929   4.951
 9615TIP3   OH228808   0.588   5.543   3.923
 9615TIP3    H128809   0.617   5.453   3.909
 9615TIP3    H228810   0.606   5.587   3.840
 9616TIP3   OH228811   6.350   0.159   3.918
 9616TIP3    H128812   6.309   0.091   3.864
 9616TIP3    H228813   6.321   0.242   3.880
 9617TIP3   OH228814   6.228   1.242   2.842
 9617TIP3    H128815   6.173   1.167   2.865
 9617TIP3    H228816   6.299   1.240   2.906
 9618TIP3   OH228817   1.415   5.475   5.349
 9618TIP3    H128818   1.447   5.418   5.279
 9618TIP3    H228819   1.361   5.419   5.404
 9619TIP3   OH228820   1.772   5.096   5.723
 9619TIP3    H128821   1.737   5.124   5.638
 9619TIP3    H228822   1.763   5.000   5.722
 9620TIP3   OH228823   0.803   1.860   1.356
 9620TIP3    H128824   0.870   1.821   1.411
 9620TIP3    H228825   0.745   1.787   1.333
 9621TIP3   OH228826   2.724   1.742   0.161
 9621TIP3    H128827   2.815   1.770   0.151
 9621TIP3    H228828   2.688   1.748   0.073
 9622TIP3   OH228829   1.684   2.373   0.829
 9622TIP3    H128830   1.639   2.328   0.900
 9622TIP3    H228831   1.777   2.370   0.853
 9623TIP3   OH228832   7.165   3.081   5.379
 9623TIP3    H128833   7.177   3.167   5.421
 9623TIP3    H228834   7.251   3.040   5.383
 9624TIP3   OH228835   6.136   1.624   3.135
 9624TIP3    H128836   6.106   1.550   3.083
 9624TIP3    H228837   6.059   1.654   3.182
 9625TIP3   OH228838   0.442   2.427   4.999
 9625TIP3    H128839   0.436   2.333   5.014
 9625TIP3    H228840   0.380   2.465   5.062
 9626TIP3   OH228841   4.675   0.726   5.501
 9626TIP3    H128842   4.678   0.647   5.554
 9626TIP3    H228843   4.683   0.696   5.411
 9627TIP3   OH228844   1.616   2.332   5.685
 9627TIP3    H128845   1.531   2.293   5.703
 9627TIP3    H228846   1.674   2.257   5.670
 9628TIP3   OH228847   0.109   2.876   3.721
 9628TIP3    H128848   0.094   2.801   3.778
 9628TIP3    H228849   0.049   2.864   3.648
 9629TIP3   OH228850   1.284   1.347   5.649
 9629TIP3    H128851   1.343   1.283   5.689
 9629TIP3    H228852   1.206   1.296   5.626
 9630TIP3   OH228853   2.479   2.185   5.750
 9630TIP3    H128854   2.553   2.139   5.709
 9630TIP3    H228855   2.495   2.177   5.844
 9631TIP3   OH228856   0.980   5.904   2.018
 9631TIP3    H128857   0.991   5.858   2.102
 9631TIP3    H228858   0.890   5.885   1.992
 9632TIP3   OH228859   5.444   4.596   2.702
 9632TIP3    H128860   5.452   4.550   2.785
 9632TIP3    H228861   5.448   4.527   2.635
 9633TIP3   OH228862   6.432   3.396   0.652
 9633TIP3    H128863   6.418   3.306   0.682
 9633TIP3    H228864   6.520   3.394   0.613
 9634TIP3   OH228865   5.963   4.970   1.291
 9634TIP3    H128866   5.919   4.929   1.217
 9634TIP3    H228867   6.056   4.960   1.271
 9635TIP3   OH228868   1.157   5.079   0.088
 9635TIP3    H128869   1.202   5.142   0.032
 9635TIP3    H228870   1.136   5.006   0.030
 9636TIP3   OH228871   6.236   3.143   0.504
 9636TIP3    H128872   6.172   3.095   0.452
 9636TIP3    H228873   6.187   3.214   0.545
 9637TIP3   OH228874   6.940   0.977   5.003
 9637TIP3    H128875   6.872   0.965   5.070
 9637TIP3    H228876   6.893   0.969   4.920
 9638TIP3   OH228877   0.466   5.001   5.819
 9638TIP3    H128878   0.470   4.909   5.846
 9638TIP3    H228879   0.528   5.046   5.876
 9639TIP3   OH228880   1.397   2.525   1.479
 9639TIP3    H128881   1.320   2.491   1.435
 9639TIP3    H228882   1.427   2.453   1.535
 9640TIP3   OH228883   3.230   1.344   5.138
 9640TIP3    H128884   3.317   1.361   5.103
 9640TIP3    H228885   3.178   1.317   5.063
 9641TIP3   OH228886   2.952   3.700   5.508
 9641TIP3    H128887   3.038   3.690   5.548
 9641TIP3    H228888   2.957   3.782   5.459
 9642TIP3   OH228889   1.767   5.168   3.321
 9642TIP3    H128890   1.815   5.171   3.404
 9642TIP3    H228891   1.690   5.222   3.337
 9643TIP3   OH228892   4.177   3.164   5.023
 9643TIP3    H128893   4.140   3.194   5.106
 9643TIP3    H228894   4.177   3.068   5.031
 9644TIP3   OH228895   0.580   6.557   4.331
 9644TIP3    H128896   0.492   6.594   4.333
 9644TIP3    H228897   0.576   6.483   4.393
 9645TIP3   OH228898   3.245   4.471   0.908
 9645TIP3    H128899   3.164   4.449   0.954
 9645TIP3    H228900   3.237   4.565   0.891
 9646TIP3   OH228901   3.900   5.058   5.016
 9646TIP3    H128902   3.851   5.015   5.086
 9646TIP3    H228903   3.848   5.041   4.937
 9647TIP3   OH228904   5.386   6.265   3.164
 9647TIP3    H128905   5.363   6.342   3.216
 9647TIP3    H228906   5.393   6.195   3.228
 9648TIP3   OH228907   3.358   2.457   1.095
 9648TIP3    H128908   3.271   2.434   1.129
 9648TIP3    H228909   3.344   2.539   1.048
 9649TIP3   OH228910   2.632   2.876   1.774
 9649TIP3    H128911   2.541   2.902   1.761
 9649TIP3    H228912   2.656   2.914   1.859
 9650TIP3   OH228913   0.477   1.646   4.649
 9650TIP3    H128914   0.561   1.676   4.614
 9650TIP3    H228915   0.494   1.631   4.742
 9651TIP3   OH228916   0.961   6.353   5.732
 9651TIP3    H128917   1.000   6.296   5.665
 9651TIP3    H228918   1.016   6.341   5.809
 9652TIP3   OH228919   0.122   1.361   1.419
 9652TIP3    H128920   0.136   1.326   1.507
 9652TIP3    H228921   0.151   1.291   1.360
 9653TIP3   OH228922   3.893   6.742   3.760
 9653TIP3    H128923   3.798   6.743   3.775
 9653TIP3    H228924   3.920   6.653   3.785
 9654TIP3   OH228925   2.155   4.578   5.262
 9654TIP3    H128926   2.224   4.513   5.249
 9654TIP3    H228927   2.191   4.638   5.328
 9655TIP3   OH228928   2.857   3.578   3.940
 9655TIP3    H128929   2.916   3.547   3.871
 9655TIP3    H228930   2.839   3.500   3.992
 9656TIP3   OH228931   0.771   0.145   5.247
 9656TIP3    H128932   0.853   0.190   5.229
 9656TIP3    H228933   0.721   0.153   5.165
 9657TIP3   OH228934   0.701   0.548   2.294
 9657TIP3    H128935   0.787   0.525   2.259
 9657TIP3    H228936   0.716   0.626   2.348
 9658TIP3   OH228937   5.451   5.760   0.765
 9658TIP3    H128938   5.407   5.831   0.811
 9658TIP3    H228939   5.433   5.682   0.817
 9659TIP3   OH228940   6.661   1.497   5.113
 9659TIP3    H128941   6.627   1.486   5.202
 9659TIP3    H228942   6.674   1.408   5.080
 9660TIP3   OH228943   4.254   2.584   3.626
 9660TIP3    H128944   4.162   2.612   3.623
 9660TIP3    H228945   4.270   2.562   3.718
 9661TIP3   OH228946   6.860   1.949   1.797
 9661TIP3    H128947   6.896   2.027   1.840
 9661TIP3    H228948   6.881   1.961   1.704
 9662TIP3   OH228949   4.633   0.105   2.093
 9662TIP3    H128950   4.682   0.024   2.076
 9662TIP3    H228951   4.543   0.076   2.109
 9663TIP3   OH228952   1.967   0.228   3.732
 9663TIP3    H128953   2.045   0.199   3.684
 9663TIP3    H228954   1.999   0.241   3.822
 9664TIP3   OH228955   5.133   0.570   2.754
 9664TIP3    H128956   5.217   0.537   2.787
 9664TIP3    H228957   5.148   0.663   2.739
 9665TIP3   OH228958   4.116   5.932   4.968
 9665TIP3    H128959   4.059   5.901   5.038
 9665TIP3    H228960   4.155   5.852   4.932
 9666TIP3   OH228961   6.315   3.948   0.711
 9666TIP3    H128962   6.405   3.944   0.679
 9666TIP3    H228963   6.271   4.007   0.650
 9667TIP3   OH228964   5.836   3.021   3.862
 9667TIP3    H128965   5.767   3.086   3.872
 9667TIP3    H228966   5.823   2.986   3.774
 9668TIP3   OH228967   6.159   3.353   0.865
 9668TIP3    H128968   6.234   3.296   0.846
 9668TIP3    H228969   6.102   3.345   0.788
 9669TIP3   OH228970   1.384   3.006   1.091
 9669TIP3    H128971   1.301   2.959   1.101
 9669TIP3    H228972   1.359   3.089   1.050
 9670TIP3   OH228973   3.476   0.768   4.130
 9670TIP3    H128974   3.435   0.846   4.166
 9670TIP3    H228975   3.417   0.740   4.060
 9671TIP3   OH228976   6.933   5.788   4.290
 9671TIP3    H128977   6.894   5.871   4.264
 9671TIP3    H228978   6.886   5.762   4.369
 9672TIP3   OH228979   6.100   0.965   3.433
 9672TIP3    H128980   6.132   0.982   3.522
 9672TIP3    H228981   6.049   0.884   3.442
 9673TIP3   OH228982   1.439   2.677   2.302
 9673TIP3    H128983   1.520   2.628   2.282
 9673TIP3    H228984   1.391   2.620   2.362
 9674TIP3   OH228985   1.464   2.566   4.611
 9674TIP3    H128986   1.510   2.646   4.635
 9674TIP3    H228987   1.420   2.587   4.529
 9675TIP3   OH228988   4.882   5.380   3.941
 9675TIP3    H128989   4.920   5.426   4.015
 9675TIP3    H228990   4.949   5.315   3.917
 9676TIP3   OH228991   6.462   3.534  -0.012
 9676TIP3    H128992   6.471   3.629  -0.011
 9676TIP3    H228993   6.543   3.502   0.028
 9677TIP3   OH228994   6.011   2.945   4.946
 9677TIP3    H128995   6.093   2.898   4.963
 9677TIP3    H228996   6.033   3.037   4.960
 9678TIP3   OH228997   1.719   3.477   2.194
 9678TIP3    H128998   1.805   3.441   2.172
 9678TIP3    H228999   1.736   3.569   2.216
 9679TIP3   OH229000   0.362   6.204   0.929
 9679TIP3    H129001   0.340   6.130   0.985
 9679TIP3    H229002   0.350   6.170   0.840
 9680TIP3   OH229003   6.424   2.104   4.347
 9680TIP3    H129004   6.505   2.150   4.368
 9680TIP3    H229005   6.354   2.165   4.369
 9681TIP3   OH229006   4.907   2.174   4.860
 9681TIP3    H129007   4.968   2.246   4.842
 9681TIP3    H229008   4.932   2.105   4.798
 9682TIP3   OH229009   5.675   5.832   4.716
 9682TIP3    H129010   5.755   5.783   4.694
 9682TIP3    H229011   5.639   5.858   4.632
 9683TIP3   OH229012   2.783   5.941   5.299
 9683TIP3    H129013   2.863   5.909   5.340
 9683TIP3    H229014   2.812   6.008   5.236
 9684TIP3   OH229015   5.593   2.938   0.542
 9684TIP3    H129016   5.551   3.024   0.548
 9684TIP3    H229017   5.588   2.915   0.449
 9685TIP3   OH229018   1.886   0.656   1.412
 9685TIP3    H129019   1.917   0.686   1.498
 9685TIP3    H229020   1.899   0.731   1.354
 9686TIP3   OH229021   2.251   0.706   3.900
 9686TIP3    H129022   2.192   0.689   3.827
 9686TIP3    H229023   2.329   0.653   3.880
 9687TIP3   OH229024   4.451   2.713   4.879
 9687TIP3    H129025   4.480   2.677   4.795
 9687TIP3    H229026   4.356   2.701   4.878
 9688TIP3   OH229027   2.428   4.204   0.161
 9688TIP3    H129028   2.520   4.184   0.150
 9688TIP3    H229029   2.426   4.272   0.229
 9689TIP3   OH229030   2.754   6.201   2.758
 9689TIP3    H129031   2.832   6.151   2.733
 9689TIP3    H229032   2.789   6.282   2.797
 9690TIP3   OH229033   0.054   1.000   4.353
 9690TIP3    H129034  -0.028   0.951   4.354
 9690TIP3    H229035   0.028   1.090   4.335
 9691TIP3   OH229036   3.276   6.583   3.304
 9691TIP3    H129037   3.248   6.512   3.246
 9691TIP3    H229038   3.215   6.579   3.377
 9692TIP3   OH229039   6.343   4.073   5.583
 9692TIP3    H129040   6.274   4.052   5.645
 9692TIP3    H229041   6.395   4.141   5.628
 9693TIP3   OH229042   4.616   5.184   0.209
 9693TIP3    H129043   4.664   5.140   0.279
 9693TIP3    H229044   4.529   5.145   0.212
 9694TIP3   OH229045   2.172   4.186   3.144
 9694TIP3    H129046   2.240   4.242   3.182
 9694TIP3    H229047   2.194   4.098   3.174
 9695TIP3   OH229048   2.526   1.491   0.726
 9695TIP3    H129049   2.540   1.563   0.788
 9695TIP3    H229050   2.442   1.453   0.753
 9696TIP3   OH229051   4.364   2.222   0.322
 9696TIP3    H129052   4.418   2.300   0.332
 9696TIP3    H229053   4.283   2.243   0.369
 9697TIP3   OH229054   6.594   6.136   2.642
 9697TIP3    H129055   6.675   6.085   2.641
 9697TIP3    H229056   6.610   6.205   2.707
 9698TIP3   OH229057   2.989   0.849   1.971
 9698TIP3    H129058   2.979   0.833   2.065
 9698TIP3    H229059   3.029   0.768   1.937
 9699TIP3   OH229060   6.240   6.393   4.126
 9699TIP3    H129061   6.313   6.444   4.091
 9699TIP3    H229062   6.172   6.458   4.143
 9700TIP3   OH229063   6.553   6.597   5.792
 9700TIP3    H129064   6.645   6.618   5.808
 9700TIP3    H229065   6.552   6.560   5.703
 9701TIP3   OH229066   2.227   2.746   5.021
 9701TIP3    H129067   2.239   2.659   4.982
 9701TIP3    H229068   2.301   2.756   5.081
 9702TIP3   OH229069   0.617   0.674   4.645
 9702TIP3    H129070   0.588   0.586   4.672
 9702TIP3    H229071   0.571   0.690   4.563
 9703TIP3   OH229072   5.795   6.709   2.549
 9703TIP3    H129073   5.790   6.666   2.463
 9703TIP3    H229074   5.721   6.672   2.598
 9704TIP3   OH229075   6.701   4.797   2.194
 9704TIP3    H129076   6.762   4.763   2.259
 9704TIP3    H229077   6.680   4.722   2.139
 9705TIP3   OH229078   0.120   2.798   1.124
 9705TIP3    H129079   0.049   2.750   1.082
 9705TIP3    H229080   0.161   2.734   1.183
 9706TIP3   OH229081   0.870   5.829   2.263
 9706TIP3    H129082   0.904   5.836   2.352
 9706TIP3    H229083   0.817   5.750   2.263
 9707TIP3   OH229084   3.366   4.001   2.165
 9707TIP3    H129085   3.287   4.055   2.158
 9707TIP3    H229086   3.368   3.975   2.257
 9708TIP3   OH229087   6.144   6.061   5.054
 9708TIP3    H129088   6.158   6.150   5.022
 9708TIP3    H229089   6.194   6.057   5.136
 9709TIP3   OH229090   5.536   6.338   2.946
 9709TIP3    H129091   5.477   6.343   2.871
 9709TIP3    H229092   5.487   6.288   3.012
 9710TIP3   OH229093   0.591   4.428   0.927
 9710TIP3    H129094   0.573   4.522   0.925
 9710TIP3    H229095   0.683   4.421   0.902
 9711TIP3   OH229096   4.439   3.171   0.913
 9711TIP3    H129097   4.368   3.214   0.865
 9711TIP3    H229098   4.511   3.167   0.851
 9712TIP3   OH229099   6.818   4.262   4.834
 9712TIP3    H129100   6.794   4.169   4.839
 9712TIP3    H229101   6.887   4.272   4.900
 9713TIP3   OH229102   1.362   3.977   1.011
 9713TIP3    H129103   1.322   3.973   0.924
 9713TIP3    H229104   1.386   3.887   1.031
 9714TIP3   OH229105   0.039   4.358   1.496
 9714TIP3    H129106   0.047   4.281   1.440
 9714TIP3    H229107   0.002   4.426   1.440
 9715TIP3   OH229108   6.843   1.287   0.984
 9715TIP3    H129109   6.883   1.323   0.905
 9715TIP3    H229110   6.912   1.289   1.050
 9716TIP3   OH229111   3.632   0.844   4.524
 9716TIP3    H129112   3.718   0.880   4.548
 9716TIP3    H229113   3.573   0.919   4.525
 9717TIP3   OH229114   6.330   3.144   2.502
 9717TIP3    H129115   6.341   3.188   2.586
 9717TIP3    H229116   6.282   3.206   2.448
 9718TIP3   OH229117   4.015   6.683   5.828
 9718TIP3    H129118   4.000   6.758   5.770
 9718TIP3    H229119   4.091   6.707   5.880
 9719TIP3   OH229120   5.463   3.605   5.816
 9719TIP3    H129121   5.408   3.554   5.874
 9719TIP3    H229122   5.520   3.541   5.774
 9720TIP3   OH229123   5.246   4.376   4.022
 9720TIP3    H129124   5.319   4.401   3.966
 9720TIP3    H229125   5.172   4.366   3.963
 9721TIP3   OH229126   5.090   2.968   3.850
 9721TIP3    H129127   5.055   2.890   3.894
 9721TIP3    H229128   5.116   2.936   3.764
 9722TIP3   OH229129   5.722   5.391   5.430
 9722TIP3    H129130   5.708   5.475   5.387
 9722TIP3    H229131   5.646   5.380   5.487
 9723TIP3   OH229132   1.017   2.138   4.282
 9723TIP3    H129133   1.045   2.115   4.194
 9723TIP3    H229134   1.088   2.194   4.316
 9724TIP3   OH229135   2.186   5.046   0.309
 9724TIP3    H129136   2.254   5.052   0.242
 9724TIP3    H229137   2.104   5.051   0.260
 9725TIP3   OH229138   0.757   3.119   2.531
 9725TIP3    H129139   0.770   3.059   2.457
 9725TIP3    H229140   0.844   3.153   2.549
 9726TIP3   OH229141   3.327   6.089   0.422
 9726TIP3    H129142   3.372   6.018   0.469
 9726TIP3    H229143   3.381   6.166   0.439
 9727TIP3   OH229144   2.243   3.299   3.331
 9727TIP3    H129145   2.221   3.352   3.408
 9727TIP3    H229146   2.336   3.278   3.341
 9728TIP3   OH229147   2.762   0.091   4.600
 9728TIP3    H129148   2.703   0.111   4.673
 9728TIP3    H229149   2.783   0.177   4.563
 9729TIP3   OH229150   0.378   1.416   0.262
 9729TIP3    H129151   0.287   1.441   0.278
 9729TIP3    H229152   0.374   1.323   0.241
 9730TIP3   OH229153   5.763   2.713   3.799
 9730TIP3    H129154   5.750   2.722   3.893
 9730TIP3    H229155   5.682   2.744   3.760
 9731TIP3   OH229156   5.232   0.618   5.632
 9731TIP3    H129157   5.324   0.641   5.641
 9731TIP3    H229158   5.223   0.536   5.680
 9732TIP3   OH229159   6.158   6.186   5.649
 9732TIP3    H129160   6.120   6.246   5.712
 9732TIP3    H229161   6.089   6.121   5.633
 9733TIP3   OH229162   6.948   4.758   5.536
 9733TIP3    H129163   6.891   4.695   5.491
 9733TIP3    H229164   6.914   4.763   5.625
 9734TIP3   OH229165   6.722   1.780   1.961
 9734TIP3    H129166   6.740   1.800   1.869
 9734TIP3    H229167   6.725   1.865   2.005
 9735TIP3   OH229168   2.291   1.364   3.412
 9735TIP3    H129169   2.272   1.310   3.489
 9735TIP3    H229170   2.256   1.450   3.433
 9736TIP3   OH229171   1.626   3.555   4.395
 9736TIP3    H129172   1.540   3.584   4.363
 9736TIP3    H229173   1.675   3.636   4.408
 9737TIP3   OH229174   6.558   3.852   3.141
 9737TIP3    H129175   6.536   3.787   3.208
 9737TIP3    H229176   6.488   3.845   3.076
 9738TIP3   OH229177   0.056   4.066   0.742
 9738TIP3    H129178   0.105   3.989   0.771
 9738TIP3    H229179   0.111   4.103   0.672
 9739TIP3   OH229180   6.699   4.832   5.066
 9739TIP3    H129181   6.679   4.807   4.975
 9739TIP3    H229182   6.747   4.757   5.101
 9740TIP3   OH229183   1.711   5.880   2.761
 9740TIP3    H129184   1.674   5.926   2.686
 9740TIP3    H229185   1.639   5.827   2.795
 9741TIP3   OH229186   1.791   1.688   2.226
 9741TIP3    H129187   1.834   1.731   2.152
 9741TIP3    H229188   1.863   1.650   2.276
 9742TIP3   OH229189   2.445   2.000   2.302
 9742TIP3    H129190   2.410   2.077   2.258
 9742TIP3    H229191   2.390   1.988   2.379
 9743TIP3   OH229192   0.623   6.414   0.118
 9743TIP3    H129193   0.716   6.438   0.117
 9743TIP3    H229194   0.615   6.350   0.188
 9744TIP3   OH229195   3.282   5.446   3.988
 9744TIP3    H129196   3.219   5.490   4.045
 9744TIP3    H229197   3.362   5.441   4.040
 9745TIP3   OH229198   6.581   2.657   0.295
 9745TIP3    H129199   6.573   2.699   0.209
 9745TIP3    H229200   6.523   2.582   0.291
 9746TIP3   OH229201   0.876   1.498   0.421
 9746TIP3    H129202   0.907   1.515   0.510
 9746TIP3    H229203   0.785   1.529   0.421
 9747TIP3   OH229204   5.016   0.725   1.478
 9747TIP3    H129205   4.949   0.763   1.421
 9747TIP3    H229206   5.038   0.642   1.436
 9748TIP3   OH229207   0.862   2.906   4.705
 9748TIP3    H129208   0.873   3.000   4.716
 9748TIP3    H229209   0.826   2.896   4.617
 9749TIP3   OH229210   4.089   3.133   1.580
 9749TIP3    H129211   4.031   3.204   1.552
 9749TIP3    H229212   4.122   3.160   1.665
   7.21638   6.80367   5.89214   0.00000   0.00000  -2.40546   0.00000  -2.40546  -3.40183
