Title
29212
    1ASP      N    1   1.245   0.950   3.482 -0.1063 -0.0450 -0.5140
    1ASP    HT1    2   1.266   1.045   3.517  3.9960 -1.1978  0.7964
    1ASP    HT2    3   1.206   0.941   3.386  1.3462 -0.3781 -1.1079
    1ASP    HT3    4   1.341   0.913   3.467 -0.0603 -0.3130  0.4118
    1ASP     CA    5   1.182   0.858   3.577  0.0462  0.6990  0.5214
    1ASP     HA    6   1.178   0.761   3.530 -1.4813  0.1844  1.6281
    1ASP     CB    7   1.264   0.841   3.703  0.6485 -0.0789  0.5659
    1ASP    HB1    8   1.208   0.771   3.769  1.3933 -0.4313  0.8315
    1ASP    HB2    9   1.263   0.937   3.760 -2.3149 -0.2882  1.0826
    1ASP     CG   10   1.405   0.792   3.675 -0.5903  0.5297  0.6126
    1ASP    OD1   11   1.466   0.735   3.772 -0.0023  0.1297  0.4068
    1ASP    OD2   12   1.462   0.824   3.570  0.8383  0.1356  0.4489
    1ASP      C   13   1.032   0.884   3.599 -0.1984 -0.1020 -0.0180
    1ASP      O   14   0.965   0.924   3.506  0.2376 -0.4063 -0.0293
    2GLY      N   15   0.976   0.868   3.723 -0.0458 -0.3801  0.1072
    2GLY     HN   16   1.035   0.837   3.798  0.4396 -0.9008 -0.4748
    2GLY     CA   17   0.836   0.884   3.752  0.4697  0.3329 -0.1970
    2GLY    HA1   18   0.817   0.990   3.751  1.8130  0.5913 -0.8034
    2GLY    HA2   19   0.815   0.831   3.843  1.7193  1.0425  0.5259
    2GLY      C   20   0.746   0.813   3.657  0.9932 -0.5337 -0.4836
    2GLY      O   21   0.767   0.696   3.637 -0.2633 -0.1795  0.0175
    3ASP      N   22   0.642   0.875   3.595  0.2849  0.1909  0.5164
    3ASP     HN   23   0.635   0.975   3.603 -0.5499  0.4265 -2.2435
    3ASP     CA   24   0.543   0.812   3.500  0.5892  0.3127 -0.5038
    3ASP     HA   25   0.536   0.714   3.544  1.1498  0.8722  0.8670
    3ASP     CB   26   0.410   0.899   3.502  0.7635 -0.2340 -0.3473
    3ASP    HB1   27   0.338   0.861   3.426 -0.3476 -0.3330  0.7174
    3ASP    HB2   28   0.440   1.004   3.481  3.0652 -0.6228  0.8142
    3ASP     CG   29   0.333   0.882   3.629  0.2597  0.3673 -0.4026
    3ASP    OD1   30   0.346   0.780   3.699 -0.0235 -0.1094 -0.0657
    3ASP    OD2   31   0.245   0.967   3.657  0.2454 -0.7615  0.1189
    3ASP      C   32   0.597   0.788   3.359  0.5745 -0.5155  0.5968
    3ASP      O   33   0.691   0.853   3.325  0.0600  0.1566  0.9232
    4GLY      N   34   0.544   0.700   3.277  0.3029  0.0034  0.0241
    4GLY     HN   35   0.470   0.645   3.316 -0.5515  0.4609 -0.9157
    4GLY     CA   36   0.582   0.676   3.138 -0.0940  0.2199 -0.4417
    4GLY    HA1   37   0.514   0.599   3.103  0.4236 -1.1122  1.3425
    4GLY    HA2   38   0.688   0.659   3.132 -0.1020  0.5675 -2.4694
    4GLY      C   39   0.554   0.792   3.046 -0.1020  0.8021  0.0630
    4GLY      O   40   0.487   0.892   3.081 -0.5917 -0.0309  0.3568
    5PRO      N   41   0.612   0.776   2.918 -0.2546 -0.3844  0.3324
    5PRO     CD   42   0.711   0.672   2.890 -0.0156  0.2493 -1.0176
    5PRO    HD1   43   0.661   0.573   2.896  1.0762 -0.4165 -2.3756
    5PRO    HD2   44   0.794   0.682   2.963 -1.2416  0.9714  0.3440
    5PRO     CA   45   0.586   0.855   2.795  0.3164 -0.2691 -0.1051
    5PRO     HA   46   0.649   0.942   2.792  0.5727 -0.4833 -2.0408
    5PRO     CB   47   0.635   0.763   2.680 -0.2957 -0.2433  0.3175
    5PRO    HB1   48   0.670   0.830   2.598  2.0841 -0.3674  1.1596
    5PRO    HB2   49   0.554   0.696   2.645  0.1804 -1.7387  1.9484
    5PRO     CG   50   0.751   0.685   2.743  0.4538 -0.2192 -0.6832
    5PRO    HG1   51   0.769   0.590   2.688 -0.4319 -0.6056 -0.3179
    5PRO    HG2   52   0.840   0.752   2.748 -1.5921  2.6463  0.5840
    5PRO      C   53   0.443   0.907   2.768  0.0260  0.4598  0.3885
    5PRO      O   54   0.348   0.842   2.812  0.2281  0.0904 -0.2488
    6GLY      N   55   0.431   1.030   2.707 -0.2570  0.6361 -0.2115
    6GLY     HN   56   0.512   1.083   2.686 -0.8987  1.5860 -0.3890
    6GLY     CA   57   0.295   1.095   2.698 -0.0719 -0.5809 -0.3790
    6GLY    HA1   58   0.218   1.021   2.682  0.4154 -1.0470 -0.6398
    6GLY    HA2   59   0.289   1.167   2.618 -2.1561  0.0614  0.3042
    6GLY      C   60   0.272   1.165   2.833  0.3729 -0.2882 -0.5399
    6GLY      O   61   0.359   1.204   2.904 -0.1653  0.2909  0.1539
    7ASP      N   62   0.141   1.200   2.855 -0.5977  0.2306  0.4537
    7ASP     HN   63   0.074   1.162   2.792 -0.8970  0.2526  0.7516
    7ASP     CA   64   0.097   1.298   2.957  0.7305  0.9976 -0.2938
    7ASP     HA   65   0.162   1.384   2.954 -0.7711  2.3997  2.6203
    7ASP     CB   66  -0.046   1.350   2.941  0.0138 -0.0915  0.0035
    7ASP    HB1   67  -0.078   1.436   3.005  0.1746 -0.4091  0.5139
    7ASP    HB2   68  -0.122   1.270   2.956  1.0772 -0.6478  3.2754
    7ASP     CG   69  -0.073   1.407   2.803  0.6718  0.5139  0.9538
    7ASP    OD1   70   0.012   1.471   2.735 -0.7311  0.2582  0.3723
    7ASP    OD2   71  -0.194   1.407   2.760  0.2885  0.4368  1.2576
    7ASP      C   72   0.106   1.231   3.096  0.0543  0.1056  0.1885
    7ASP      O   73   0.110   1.108   3.100  0.1438  0.2504  0.8828
    8PRO      N   74   0.117   1.297   3.211  0.0599  0.0753  1.4830
    8PRO     CD   75   0.157   1.439   3.219  0.6273  0.6804  0.1613
    8PRO    HD1   76   0.064   1.497   3.238 -0.0383 -0.2399 -0.1935
    8PRO    HD2   77   0.219   1.483   3.138  0.2218 -0.7021 -0.9350
    8PRO     CA   78   0.141   1.226   3.329  0.4425 -0.6108  0.4190
    8PRO     HA   79   0.178   1.125   3.321  0.7084 -0.5439  0.7910
    8PRO     CB   80   0.254   1.302   3.394  0.2674 -0.0709  0.4974
    8PRO    HB1   81   0.348   1.264   3.347 -1.2076 -0.2651 -2.4953
    8PRO    HB2   82   0.263   1.285   3.503  1.4500 -0.1909  0.4028
    8PRO     CG   83   0.236   1.443   3.353 -0.6492  0.3118  0.4829
    8PRO    HG1   84   0.182   1.507   3.426  0.6978  1.6564  0.3665
    8PRO    HG2   85   0.339   1.486   3.353 -1.1272  1.5090  0.9181
    8PRO      C   86   0.021   1.220   3.421  0.4826 -0.5868 -0.4425
    8PRO      O   87  -0.073   1.293   3.417  0.4664 -0.8216 -0.2958
    9GLY      N   88   0.018   1.122   3.515 -0.4540 -0.1801 -0.3711
    9GLY     HN   89   0.102   1.072   3.537  1.1125  1.7004 -1.7520
    9GLY     CA   90  -0.092   1.101   3.601  0.2970  0.2296  0.0451
    9GLY    HA1   91  -0.099   0.998   3.633 -0.5742  0.7314  1.5602
    9GLY    HA2   92  -0.182   1.137   3.553 -1.5504 -0.8921  2.4581
    9GLY      C   93  -0.076   1.168   3.736  0.3351  0.2857  0.7689
    9GLY      O   94   0.023   1.229   3.761  0.2279  0.4066 -0.5020
   10ASP      N   95  -0.177   1.160   3.834 -0.5232 -0.0567  0.5684
   10ASP     HN   96  -0.264   1.120   3.807 -1.2208  0.6956  1.6096
   10ASP     CA   97  -0.189   1.221   3.962 -0.4123 -0.0149 -0.3165
   10ASP     HA   98  -0.178   1.327   3.944 -1.3423 -0.2095 -2.2106
   10ASP     CB   99  -0.332   1.204   4.021 -0.1748  0.3634 -0.1996
   10ASP    HB1  100  -0.342   1.235   4.127 -2.5376 -0.1414 -0.2194
   10ASP    HB2  101  -0.356   1.096   4.029  0.8311  0.2035  0.7536
   10ASP     CG  102  -0.451   1.269   3.948  0.1961  0.0632  0.0406
   10ASP    OD1  103  -0.567   1.228   3.971  0.1054 -0.3828  0.1372
   10ASP    OD2  104  -0.433   1.356   3.864 -0.2951  0.2136 -0.0573
   10ASP      C  105  -0.087   1.178   4.064 -0.0878  0.0856 -0.1268
   10ASP      O  106  -0.053   1.058   4.072 -0.1867 -0.7893  0.3178
   11GLY      N  107  -0.035   1.275   4.143  0.1781  0.6350  0.1763
   11GLY     HN  108  -0.054   1.371   4.126 -0.8103  0.0105 -2.8490
   11GLY     CA  109   0.063   1.250   4.251  0.2679  0.3463  0.1924
   11GLY    HA1  110   0.100   1.346   4.282  0.6245  0.5307 -0.7591
   11GLY    HA2  111   0.134   1.177   4.215  2.3545  1.2131  2.3426
   11GLY      C  112  -0.005   1.190   4.369  0.3293 -0.2399 -0.0125
   11GLY    OT1  113  -0.004   1.061   4.381  0.6882 -0.4747  0.2979
   11GLY    OT2  114  -0.053   1.258   4.467 -0.0939 -0.3207  0.3608
   12LIT    LIT  115   5.337   6.051   5.311 -0.1392 -0.0556  0.2672
   13LIT    LIT  116   2.224   4.503   0.043  0.4501 -0.1599 -0.4806
   14LIT    LIT  117   1.679   4.826   2.939 -0.5369  0.0385 -0.5438
   15LIT    LIT  118   3.205   2.121   3.371  0.1967 -0.3417  0.1717
   16LIT    LIT  119   7.080   1.101   4.533 -0.5308  0.3920  0.8440
   17LIT    LIT  120   2.373   2.971   4.860 -0.5308  0.5255 -0.3615
   18LIT    LIT  121   1.077   1.447   3.260  0.7522  0.1222 -0.5249
   19LIT    LIT  122   1.557   2.120   5.647 -0.0377 -0.3449  0.4549
   20LIT    LIT  123   5.135   0.051   4.059  0.5297 -0.3734  0.7233
   21LIT    LIT  124   6.924   4.964   3.550  0.2632 -0.1015  0.6639
   22LIT    LIT  125   2.782   6.108   5.491 -0.2826  0.5306  0.8666
   23LIT    LIT  126   7.142   6.347   5.712  0.6289 -0.6928  0.3010
   24LIT    LIT  127   3.811   1.533   1.535 -0.4954 -0.1869  0.9196
   25LIT    LIT  128   7.020   1.431   2.584  0.4919  0.0366 -0.1413
   26LIT    LIT  129   6.605   1.361   3.810 -0.5679  0.5829  0.5218
   27LIT    LIT  130   3.717   5.483   5.478  0.5387  0.6136 -0.6102
   28LIT    LIT  131   5.169   3.535   5.860  0.6026 -0.0772  0.3988
   29LIT    LIT  132   3.277   0.755   1.071 -0.1663  0.6419  0.5837
   30LIT    LIT  133   4.400   4.786   5.063  0.7475 -0.7149 -0.4105
   31LIT    LIT  134   4.047   2.112   5.542 -0.1875 -0.3121  0.8935
   32LIT    LIT  135   5.921   4.948   3.638 -1.9154  0.1863 -0.9862
   33LIT    LIT  136   1.539   1.801   0.353  1.3652  0.2312 -0.1646
   34LIT    LIT  137   4.409   4.388   1.028 -0.6795 -1.4233  0.7782
   35LIT    LIT  138   0.787   3.383   5.817  0.7841 -0.8384 -0.5264
   36LIT    LIT  139   1.103   0.045   1.324  0.7315 -1.2531 -0.5591
   37LIT    LIT  140   1.667   2.916   0.316  0.3811 -1.2944  1.0036
   38LIT    LIT  141   1.722   5.270   1.715 -0.9573 -0.2837 -0.0405
   39LIT    LIT  142   1.640   0.635   3.791  0.4834 -0.7845  0.2559
   40LIT    LIT  143   5.432   6.061   0.384 -0.4108  0.4781 -0.3178
   41LIT    LIT  144   5.630   2.658   1.962 -0.1364  1.0019  0.2333
   42LIT    LIT  145   0.176   0.839   3.777  0.5126 -1.2434  0.3067
   43CLA    CLA  146   5.528   6.148   0.575  0.3784 -0.0327 -0.0911
   44CLA    CLA  147   1.368   4.634   3.835 -0.5428  0.1258  0.0132
   45CLA    CLA  148   3.744   3.448   4.418  0.1871  0.0001  0.2918
   46CLA    CLA  149   4.886   3.225   1.041  0.3678 -0.1914  0.0652
   47CLA    CLA  150   0.646   5.309   5.382  0.0424 -0.0286  0.0504
   48CLA    CLA  151   3.631   3.132   1.100  0.5539 -0.2146 -0.2198
   49CLA    CLA  152   5.721   0.873   0.704 -0.3438 -0.7699  0.0288
   50CLA    CLA  153   1.445   4.488   2.938  0.2503 -0.4628  0.0572
   51CLA    CLA  154   2.702   5.306   5.288  0.5178 -0.2952  0.1698
   52CLA    CLA  155   1.467   6.020   1.324  0.5106 -0.1853 -0.1297
   53CLA    CLA  156   6.022   5.157   2.819  0.5207 -0.2801 -0.1936
   54CLA    CLA  157   0.056   4.138   0.124 -0.1404 -0.0627 -0.0136
   55CLA    CLA  158   0.463   4.704   5.844 -0.0453 -0.3087  0.1925
   56CLA    CLA  159   0.160   2.265   0.734  0.1376  0.3807 -0.2840
   57CLA    CLA  160   6.999   4.215   4.248 -0.0553 -0.1015 -0.0498
   58CLA    CLA  161   2.642   0.512   0.979 -0.2334  0.0141 -0.0624
   59CLA    CLA  162   6.399   5.556   0.346 -0.0827  0.5891 -0.3253
   60CLA    CLA  163   5.720   1.166   1.551 -0.2525  0.1931 -0.0840
   61CLA    CLA  164   7.150   5.041   3.205  0.1111 -0.1197 -0.1554
   62CLA    CLA  165   4.128   2.435   3.441 -0.2735 -0.2453  0.3536
   63CLA    CLA  166   6.281   6.772   1.969  0.2749  0.0048 -0.1610
   64CLA    CLA  167   3.892   1.967   1.247  0.2034  0.1135 -0.1984
   65CLA    CLA  168   6.627   2.337   4.646  0.1706 -0.3195  0.1737
   66CLA    CLA  169   1.345   0.753   4.606  0.1129 -0.2420 -0.2490
   67CLA    CLA  170   1.446   0.530   0.976  0.0290  0.3962  0.1101
   68CLA    CLA  171   3.020   3.821   1.749  0.0147  0.3294  0.0210
   69CLA    CLA  172   0.197   0.985   5.451  0.4643 -0.1724 -0.1140
   70TIP3   OH2  173   5.223   6.652   1.190  0.8608 -0.1631  0.0565
   70TIP3    H1  174   5.253   6.569   1.226 -1.7897 -0.7585  1.0608
   70TIP3    H2  175   5.239   6.644   1.096  0.5526 -1.8656  0.1188
   71TIP3   OH2  176   4.820   4.377   5.425 -0.3951 -0.5519  0.1971
   71TIP3    H1  177   4.728   4.370   5.447 -1.0408 -1.0195 -2.3403
   71TIP3    H2  178   4.835   4.307   5.362  1.0977  0.9479 -1.2035
   72TIP3   OH2  179   3.189   6.012   4.622  0.6954 -0.5859  0.2772
   72TIP3    H1  180   3.097   6.010   4.647  1.2073 -2.8951  2.4523
   72TIP3    H2  181   3.218   6.100   4.646 -1.2514  0.8066 -2.0884
   73TIP3   OH2  182   4.980   3.500   4.555 -0.2451  0.2262 -0.1385
   73TIP3    H1  183   5.064   3.459   4.536  0.1514  0.0633  1.7976
   73TIP3    H2  184   4.925   3.428   4.587 -0.6229  0.5985  0.0549
   74TIP3   OH2  185   0.396   6.370   0.452  0.3390  0.1155  0.0049
   74TIP3    H1  186   0.478   6.395   0.409  0.7289  0.3248  0.8439
   74TIP3    H2  187   0.420   6.359   0.545 -0.3496 -0.8973  0.0857
   75TIP3   OH2  188   1.903   4.893   3.749  0.3100  0.2695  0.2534
   75TIP3    H1  189   1.993   4.882   3.719  0.0036 -0.1368 -0.5279
   75TIP3    H2  190   1.905   4.974   3.801  1.4479 -0.5222  1.5292
   76TIP3   OH2  191   2.068   4.776   3.010 -0.9614  0.1614 -0.2196
   76TIP3    H1  192   2.075   4.842   3.078  1.1156 -0.5982  0.3998
   76TIP3    H2  193   2.090   4.821   2.929 -2.5599  0.8672 -0.2910
   77TIP3   OH2  194   2.602   0.165   5.552 -0.2213  0.2620 -0.2229
   77TIP3    H1  195   2.672   0.114   5.513 -0.3316 -0.4357  0.4617
   77TIP3    H2  196   2.536   0.100   5.578 -0.4203  0.7541  0.5432
   78TIP3   OH2  197   2.827   2.959   4.611  0.5251 -0.0942  0.2942
   78TIP3    H1  198   2.822   2.879   4.663 -0.9626  0.8832  1.7214
   78TIP3    H2  199   2.737   2.979   4.587  1.0997 -0.1800 -2.2263
   79TIP3   OH2  200   0.883   5.088   1.648 -0.2108  0.1434 -0.2684
   79TIP3    H1  201   0.850   5.062   1.734 -0.8465 -1.6199 -1.0043
   79TIP3    H2  202   0.828   5.162   1.622 -2.3107 -1.4277 -0.5761
   80TIP3   OH2  203   4.339   5.162   1.838 -0.1653 -0.7214 -0.5689
   80TIP3    H1  204   4.374   5.105   1.770  1.3202 -0.9735  0.3544
   80TIP3    H2  205   4.411   5.170   1.902 -0.7505  1.2224 -0.0864
   81TIP3   OH2  206   2.436   3.509   3.010 -0.4635 -0.1950  0.1800
   81TIP3    H1  207   2.419   3.597   2.978 -0.7607 -0.2353  0.2221
   81TIP3    H2  208   2.428   3.516   3.105 -1.9203 -0.5580  0.1070
   82TIP3   OH2  209   4.889   6.506   4.434  0.4892  0.4961  0.0303
   82TIP3    H1  210   4.902   6.551   4.351  2.2329  1.6281  0.8619
   82TIP3    H2  211   4.798   6.475   4.431  0.2907  1.1701 -1.9561
   83TIP3   OH2  212   1.075   2.867   0.906  0.0732 -0.1386 -0.5338
   83TIP3    H1  213   0.998   2.836   0.858  0.3406 -0.6105 -0.6592
   83TIP3    H2  214   1.058   2.844   0.997 -0.6629  1.2005 -0.2971
   84TIP3   OH2  215   0.429   6.406   0.750  0.3212  0.5505 -0.3811
   84TIP3    H1  216   0.414   6.497   0.773  0.7022  0.7873 -1.0432
   84TIP3    H2  217   0.523   6.392   0.766  0.3164  0.3542 -0.5143
   85TIP3   OH2  218   1.254   4.812   2.505  0.3369  0.0434  0.1972
   85TIP3    H1  219   1.160   4.824   2.514  0.2718 -0.8791  1.0381
   85TIP3    H2  220   1.266   4.717   2.515  1.4131  0.2312  0.7646
   86TIP3   OH2  221   1.343   0.689   0.732 -0.1626  0.4489 -0.4517
   86TIP3    H1  222   1.425   0.739   0.730  0.4091 -0.4634 -0.5009
   86TIP3    H2  223   1.360   0.620   0.796  0.1038 -1.3875 -2.4027
   87TIP3   OH2  224   5.409   2.865   1.334 -0.0124 -0.4305  0.2429
   87TIP3    H1  225   5.462   2.793   1.369  0.8401  0.9512  1.9772
   87TIP3    H2  226   5.349   2.823   1.273  2.8074 -2.1517 -1.5706
   88TIP3   OH2  227   4.514   6.369   3.262  0.0127 -0.4301 -0.5522
   88TIP3    H1  228   4.431   6.327   3.288 -0.8428  1.5853  0.1593
   88TIP3    H2  229   4.558   6.387   3.345 -0.3097  1.3240 -0.7350
   89TIP3   OH2  230   3.106   1.175   2.470 -0.3454  0.3930 -0.3978
   89TIP3    H1  231   3.106   1.270   2.462 -0.8577  0.3556 -0.8523
   89TIP3    H2  232   3.016   1.152   2.495  0.1502  0.1502  1.3072
   90TIP3   OH2  233   4.431   1.912   1.267 -0.2820 -0.8081 -0.1682
   90TIP3    H1  234   4.344   1.951   1.277  0.8484  2.2570 -1.2909
   90TIP3    H2  235   4.491   1.981   1.292  1.9064 -2.6885  0.0765
   91TIP3   OH2  236   6.247   2.192   0.236 -0.4575  0.2016 -0.2273
   91TIP3    H1  237   6.199   2.167   0.157  1.3049 -0.7593 -1.0553
   91TIP3    H2  238   6.269   2.109   0.277  1.1934  0.5427 -0.3445
   92TIP3   OH2  239   4.539   0.557   1.347  0.2143 -0.1609  0.1136
   92TIP3    H1  240   4.553   0.630   1.287 -0.8535  0.1678  0.2329
   92TIP3    H2  241   4.496   0.490   1.295 -0.0743 -0.1497  0.3306
   93TIP3   OH2  242   1.721   0.129   3.198  0.5828 -0.5483 -0.0148
   93TIP3    H1  243   1.795   0.109   3.255 -0.4264  0.4095  1.7289
   93TIP3    H2  244   1.645   0.133   3.257 -0.4430  0.9568 -1.3407
   94TIP3   OH2  245   0.967   2.438   0.950  0.2962 -0.0188  0.0822
   94TIP3    H1  246   0.893   2.393   0.992 -0.2332  1.0468  0.3365
   94TIP3    H2  247   0.960   2.414   0.858 -1.6508  1.6679 -0.2920
   95TIP3   OH2  248   5.281   6.530   2.806 -0.4489 -0.3310 -0.3419
   95TIP3    H1  249   5.243   6.488   2.730 -2.2773  1.3867 -0.4628
   95TIP3    H2  250   5.373   6.545   2.783 -0.5569 -1.3429 -1.4965
   96TIP3   OH2  251   5.269   2.371   0.314 -0.3038 -0.0131  0.4273
   96TIP3    H1  252   5.323   2.422   0.254 -0.1959  1.9381  2.1106
   96TIP3    H2  253   5.182   2.370   0.273 -0.6521  2.6926  0.9210
   97TIP3   OH2  254   4.940   1.909   4.473  0.5020  0.1629 -0.1042
   97TIP3    H1  255   4.855   1.925   4.432  0.6794  0.7746 -0.2492
   97TIP3    H2  256   4.919   1.865   4.556  0.1551 -1.3003 -0.9404
   98TIP3   OH2  257   3.328   1.403   4.567  0.2861  0.2511 -0.2712
   98TIP3    H1  258   3.306   1.324   4.616 -0.7428  1.0158  0.5580
   98TIP3    H2  259   3.244   1.434   4.532  0.8084  0.4815 -1.3737
   99TIP3   OH2  260   0.572   0.573   1.822  0.1065  0.2846 -0.0274
   99TIP3    H1  261   0.517   0.506   1.782 -1.6202  0.8756  1.2302
   99TIP3    H2  262   0.556   0.564   1.916 -0.6092  2.7671  0.1557
  100TIP3   OH2  263   2.912   4.412   2.082 -0.0605 -0.3252  0.1029
  100TIP3    H1  264   2.825   4.376   2.102  0.1804 -0.9542  0.0230
  100TIP3    H2  265   2.947   4.355   2.014  0.4745 -0.1530  0.2282
  101TIP3   OH2  266   0.651   6.621   5.760  0.0657 -0.1270 -0.1622
  101TIP3    H1  267   0.736   6.599   5.723 -0.1203  1.1730 -1.4416
  101TIP3    H2  268   0.626   6.703   5.717 -1.7360 -0.3663  0.3374
  102TIP3   OH2  269   0.644   4.017   2.768  0.0909  0.0392 -0.3940
  102TIP3    H1  270   0.574   4.020   2.703 -1.4056  0.5934  1.1751
  102TIP3    H2  271   0.612   3.955   2.834  1.0737  0.3186  0.3583
  103TIP3   OH2  272   2.193   6.020   2.950 -0.2290 -0.1296  0.1622
  103TIP3    H1  273   2.243   5.999   2.871 -2.4628 -0.5652 -1.1993
  103TIP3    H2  274   2.141   6.097   2.927 -0.1814  0.3559  1.5597
  104TIP3   OH2  275   3.117   2.774   0.107 -0.0327  0.2820 -0.7123
  104TIP3    H1  276   3.122   2.695   0.052  0.9205 -0.8352  0.8884
  104TIP3    H2  277   3.040   2.821   0.075 -1.7489 -2.2284 -0.5678
  105TIP3   OH2  278   2.913   3.819   5.756 -0.1025 -0.9285 -0.4741
  105TIP3    H1  279   2.936   3.903   5.715  1.4321 -1.0518  0.0809
  105TIP3    H2  280   2.853   3.778   5.694 -1.7436  1.0053 -0.2940
  106TIP3   OH2  281   3.261   3.896   2.526  0.1931 -0.2577 -0.1135
  106TIP3    H1  282   3.180   3.845   2.522  0.5784 -1.0023  0.9718
  106TIP3    H2  283   3.330   3.831   2.513  0.6129  0.4156 -1.3251
  107TIP3   OH2  284   0.255   3.303   5.494  0.2480 -0.4293  0.1038
  107TIP3    H1  285   0.234   3.360   5.421 -1.9800 -1.2000  0.0699
  107TIP3    H2  286   0.225   3.350   5.571 -1.0804 -1.2724  0.1251
  108TIP3   OH2  287   6.484   3.639   1.475 -0.1963  0.1484 -0.1993
  108TIP3    H1  288   6.423   3.632   1.401 -1.6888 -1.4336  1.0987
  108TIP3    H2  289   6.490   3.733   1.493 -1.0348  0.4345 -1.3217
  109TIP3   OH2  290   0.742   1.705   1.804  0.1497 -0.5423 -0.2823
  109TIP3    H1  291   0.829   1.691   1.841 -0.0270 -1.0458 -0.0495
  109TIP3    H2  292   0.734   1.800   1.797  1.1750 -0.5146 -1.4192
  110TIP3   OH2  293   3.297   0.929   1.014  0.3275 -0.0957  0.3483
  110TIP3    H1  294   3.278   0.995   0.948  0.6528  0.6145  0.9389
  110TIP3    H2  295   3.358   0.973   1.074  2.6153 -1.7257 -0.6131
  111TIP3   OH2  296   2.173   5.854   0.651 -0.1300  0.1513  0.1748
  111TIP3    H1  297   2.147   5.834   0.741 -0.4045  0.2640  0.1210
  111TIP3    H2  298   2.258   5.811   0.641 -0.3382 -0.3032  0.3237
  112TIP3   OH2  299   0.364   5.188   4.806  0.1485  0.8457 -0.5865
  112TIP3    H1  300   0.411   5.253   4.858  0.0504  0.2818  0.2128
  112TIP3    H2  301   0.272   5.213   4.814  0.2469  1.7936 -1.9395
  113TIP3   OH2  302   4.553   4.883   5.118 -0.0250 -0.1837 -0.2194
  113TIP3    H1  303   4.590   4.852   5.201 -1.9128  0.3970  0.8846
  113TIP3    H2  304   4.574   4.977   5.116 -0.2055 -0.1438 -0.2619
  114TIP3   OH2  305   6.854   6.276   4.699  0.0892  0.5771 -0.3560
  114TIP3    H1  306   6.919   6.218   4.738 -0.3045  0.4742  0.1494
  114TIP3    H2  307   6.851   6.250   4.607  0.0588 -0.0683 -0.1731
  115TIP3   OH2  308   1.728   2.374   3.622 -0.0305  0.4263  0.4549
  115TIP3    H1  309   1.636   2.396   3.607 -0.3213  0.3714  2.0028
  115TIP3    H2  310   1.772   2.397   3.540 -1.6574 -1.0923 -0.9517
  116TIP3   OH2  311   1.431   5.364   3.114 -0.1220 -0.2326  0.0227
  116TIP3    H1  312   1.427   5.275   3.148 -2.9958  0.2581  1.2148
  116TIP3    H2  313   1.407   5.355   3.022  2.8768 -0.9740 -0.8091
  117TIP3   OH2  314   3.811   1.481   2.915  0.2908 -0.3724 -0.2309
  117TIP3    H1  315   3.746   1.526   2.970  0.7043 -2.3611  2.0267
  117TIP3    H2  316   3.768   1.400   2.889  1.0359 -0.6017 -0.7752
  118TIP3   OH2  317   1.196   0.276   3.425  0.0525  0.1235 -1.2830
  118TIP3    H1  318   1.136   0.343   3.393 -0.6641 -0.2209 -0.7007
  118TIP3    H2  319   1.171   0.197   3.377 -0.7797 -0.3072 -0.1853
  119TIP3   OH2  320   5.290   3.138   1.924 -0.2267 -0.4826 -0.0726
  119TIP3    H1  321   5.218   3.088   1.886  0.2572 -0.2357 -1.3558
  119TIP3    H2  322   5.347   3.159   1.850  1.8117 -1.6865  1.0514
  120TIP3   OH2  323   1.452   3.271   3.205  0.3728  0.5670  0.1996
  120TIP3    H1  324   1.502   3.329   3.262 -0.2083  0.8106  0.4742
  120TIP3    H2  325   1.428   3.327   3.130  0.0085  0.6272  0.3557
  121TIP3   OH2  326   5.492   1.149   0.119 -0.0177  0.9233  0.0011
  121TIP3    H1  327   5.483   1.069   0.067 -1.0572 -0.0013  1.5283
  121TIP3    H2  328   5.440   1.214   0.071  0.8329  0.7221 -1.2539
  122TIP3   OH2  329   6.820   2.577   2.548 -0.3135 -0.0552  0.2479
  122TIP3    H1  330   6.872   2.622   2.614 -1.2491  1.1042  0.2162
  122TIP3    H2  331   6.787   2.499   2.593  1.5040 -0.8921  0.2299
  123TIP3   OH2  332   0.955   5.495   3.823 -0.0107  0.2637 -0.5820
  123TIP3    H1  333   0.916   5.449   3.898  0.8249 -0.2322 -0.4360
  123TIP3    H2  334   1.046   5.510   3.849 -0.1891  1.7701 -0.7527
  124TIP3   OH2  335   4.229   0.959   0.070 -0.4166 -0.3951  0.2552
  124TIP3    H1  336   4.224   1.054   0.085 -1.6430  0.1070 -2.5788
  124TIP3    H2  337   4.316   0.945   0.034 -0.4020 -0.2628  0.2392
  125TIP3   OH2  338   5.965   3.115   5.890  0.5601  0.2859  0.5517
  125TIP3    H1  339   5.991   3.201   5.859 -0.1370  0.2037 -0.2991
  125TIP3    H2  340   6.033   3.056   5.857  0.8476  0.4576  0.8341
  126TIP3   OH2  341   5.632   5.270   1.943 -0.2012  0.0230  0.1884
  126TIP3    H1  342   5.715   5.255   1.989  1.2750  1.3608 -1.8427
  126TIP3    H2  343   5.613   5.363   1.958  0.1240  0.3984 -1.4710
  127TIP3   OH2  344   7.111   0.262   3.967 -0.2526  0.0774 -0.2586
  127TIP3    H1  345   7.189   0.286   3.917 -0.0170  3.9330  1.5865
  127TIP3    H2  346   7.142   0.201   4.034  0.5964 -0.4934 -1.1573
  128TIP3   OH2  347   6.253   6.064   4.785 -0.1475  0.2203  0.1519
  128TIP3    H1  348   6.282   6.151   4.812  0.2783 -0.2539  1.2680
  128TIP3    H2  349   6.185   6.081   4.720 -0.2803  1.3875  0.5726
  129TIP3   OH2  350   0.429   5.580   1.680 -1.0196 -0.2788 -0.6485
  129TIP3    H1  351   0.497   5.646   1.697 -1.5663  0.1009  0.0867
  129TIP3    H2  352   0.457   5.538   1.599  0.4553 -0.5821 -0.0108
  130TIP3   OH2  353   2.752   5.442   4.095  0.2683 -0.0246  0.8095
  130TIP3    H1  354   2.660   5.419   4.088  0.0852  0.8925 -0.0611
  130TIP3    H2  355   2.757   5.531   4.059  1.7257 -0.6221 -0.5599
  131TIP3   OH2  356   3.445   5.929   1.834 -0.1420  0.5921  0.3425
  131TIP3    H1  357   3.383   5.858   1.816 -0.5585  1.2349 -0.8646
  131TIP3    H2  358   3.478   5.955   1.748  0.2828  1.6150  0.7968
  132TIP3   OH2  359   5.810   6.131   1.110 -0.1167  0.3180  0.8751
  132TIP3    H1  360   5.810   6.221   1.076 -0.1067 -0.5398 -1.5923
  132TIP3    H2  361   5.900   6.117   1.139 -0.1779  1.1642  1.5349
  133TIP3   OH2  362   4.751   5.361   3.930  0.4509  0.4013  0.7276
  133TIP3    H1  363   4.827   5.415   3.909 -0.1421  1.2506  0.7020
  133TIP3    H2  364   4.785   5.271   3.932  0.9837  0.4765 -1.7077
  134TIP3   OH2  365   1.070   3.262   2.327  0.1096  0.3273 -0.0184
  134TIP3    H1  366   1.107   3.327   2.388 -1.5177  0.9116  0.4022
  134TIP3    H2  367   1.141   3.200   2.312  1.5724  1.9299 -0.0422
  135TIP3   OH2  368   0.952   2.877   3.277 -0.1740  0.1170 -0.8885
  135TIP3    H1  369   0.945   2.971   3.260  0.0038  0.2230 -0.3939
  135TIP3    H2  370   0.906   2.864   3.359  0.8156 -0.0310 -0.3415
  136TIP3   OH2  371   2.224   0.089   1.988  0.0899  0.1594  0.4214
  136TIP3    H1  372   2.170   0.165   2.012 -0.2960 -0.0323  0.1600
  136TIP3    H2  373   2.173   0.043   1.921  0.7002  0.1281 -0.0322
  137TIP3   OH2  374   4.966   1.925   2.656  0.2515  0.4493  0.1123
  137TIP3    H1  375   4.945   1.979   2.732 -1.0542  0.0081  0.0882
  137TIP3    H2  376   4.884   1.880   2.636  0.4263  0.9397 -1.8738
  138TIP3   OH2  377   3.383   5.583   4.267 -0.2763  0.1853 -0.3725
  138TIP3    H1  378   3.356   5.497   4.233 -1.2452 -0.0784  0.9792
  138TIP3    H2  379   3.368   5.577   4.361  0.4767  1.5525 -0.1450
  139TIP3   OH2  380   1.675   1.315   0.763  0.1645  0.0845 -0.2267
  139TIP3    H1  381   1.667   1.410   0.769  3.4166  0.4568  0.0666
  139TIP3    H2  382   1.636   1.283   0.845  1.9344  1.4951  1.2634
  140TIP3   OH2  383   3.673   1.886   2.127 -0.2368  0.3315  0.2695
  140TIP3    H1  384   3.661   1.847   2.040 -0.5311  0.0861  0.4206
  140TIP3    H2  385   3.664   1.812   2.187  2.5283 -0.0202  0.3880
  141TIP3   OH2  386   5.160   3.952   5.081 -0.0495  0.1784 -0.0998
  141TIP3    H1  387   5.204   4.001   5.150  0.0151  0.7047 -0.5106
  141TIP3    H2  388   5.188   3.861   5.095  2.1666  0.6573 -1.0807
  142TIP3   OH2  389   6.657   1.803   3.079 -0.0727 -0.2381 -0.0861
  142TIP3    H1  390   6.589   1.828   3.018  0.9085  0.1668 -1.0504
  142TIP3    H2  391   6.678   1.883   3.127  0.6465 -0.0221 -0.7383
  143TIP3   OH2  392   1.880   3.024   5.580  0.3634 -0.3103  0.2158
  143TIP3    H1  393   1.947   2.976   5.630  1.6379 -1.9328 -2.7735
  143TIP3    H2  394   1.930   3.081   5.522 -0.5337 -2.8367 -3.3692
  144TIP3   OH2  395   3.465   1.206   2.241 -0.1140  0.4514 -0.2947
  144TIP3    H1  396   3.429   1.282   2.195 -1.0779 -1.3082 -2.6989
  144TIP3    H2  397   3.389   1.152   2.262  0.6626 -0.8045 -0.5557
  145TIP3   OH2  398   3.874   6.184   1.601 -0.5386  0.3101 -0.0322
  145TIP3    H1  399   3.870   6.091   1.579 -0.4679  0.4146 -0.4899
  145TIP3    H2  400   3.865   6.186   1.697 -2.5380 -0.0371 -0.1697
  146TIP3   OH2  401   6.865   4.897   4.241 -0.3270  0.7857  0.6659
  146TIP3    H1  402   6.877   4.970   4.180 -0.9726 -0.4554 -1.0272
  146TIP3    H2  403   6.872   4.819   4.186 -1.6767 -0.3717  2.0661
  147TIP3   OH2  404   2.479   1.270   1.912  0.5955  0.0207 -0.4336
  147TIP3    H1  405   2.404   1.259   1.970  0.8481 -0.1306 -0.1353
  147TIP3    H2  406   2.455   1.220   1.834 -0.3125  1.2937 -1.0090
  148TIP3   OH2  407   6.192   3.180   2.535 -0.6439 -0.0857  0.0979
  148TIP3    H1  408   6.215   3.145   2.621 -1.8332 -0.9002  0.1031
  148TIP3    H2  409   6.162   3.104   2.485 -0.0952  0.3984 -1.0070
  149TIP3   OH2  410   1.118   4.408   2.894  0.2965 -0.1638 -0.3595
  149TIP3    H1  411   1.076   4.402   2.808  0.0193  1.3496 -0.3599
  149TIP3    H2  412   1.187   4.473   2.882  1.6776 -1.4932  0.0425
  150TIP3   OH2  413   6.996   5.280   4.283 -0.0762 -0.2019  0.0383
  150TIP3    H1  414   7.018   5.336   4.209 -0.7496 -1.5250 -1.2256
  150TIP3    H2  415   6.903   5.297   4.298  0.2998  0.8595  1.3280
  151TIP3   OH2  416   6.204   3.405   5.600  0.1246  0.3117 -0.7182
  151TIP3    H1  417   6.212   3.501   5.600  0.3209  0.3008 -1.3013
  151TIP3    H2  418   6.254   3.377   5.523 -3.0348 -0.0154 -2.8041
  152TIP3   OH2  419   6.935   3.660   5.006 -0.5812 -0.1470  0.5348
  152TIP3    H1  420   6.915   3.613   4.925 -0.4804 -1.1617  1.0921
  152TIP3    H2  421   6.978   3.741   4.976  1.9575 -1.6988 -0.3725
  153TIP3   OH2  422   4.320   6.174   0.548 -1.2555 -0.1366 -0.3628
  153TIP3    H1  423   4.248   6.230   0.577 -0.0342  1.8891 -0.9702
  153TIP3    H2  424   4.382   6.235   0.507  1.2190 -1.6602  0.9000
  154TIP3   OH2  425   6.192   3.383   0.917 -0.2747  0.0423 -0.1133
  154TIP3    H1  426   6.198   3.340   0.832 -3.4917  2.1134 -1.5634
  154TIP3    H2  427   6.237   3.466   0.906 -0.6128  0.2780  0.2435
  155TIP3   OH2  428   6.622   6.335   0.142  0.0727  0.2031 -0.2813
  155TIP3    H1  429   6.663   6.419   0.121  0.5408 -0.3159 -1.5211
  155TIP3    H2  430   6.623   6.331   0.238  2.6204  0.3698 -0.2318
  156TIP3   OH2  431   3.586   4.258   0.008 -0.1353  0.0070 -1.0031
  156TIP3    H1  432   3.674   4.238   0.041 -0.6536 -1.4315 -0.3933
  156TIP3    H2  433   3.570   4.348   0.037  0.2622 -0.4901  0.9134
  157TIP3   OH2  434   0.717   1.143   0.301 -0.1315  0.2865  0.0209
  157TIP3    H1  435   0.670   1.085   0.362  0.9385  0.8797  1.4662
  157TIP3    H2  436   0.723   1.226   0.348 -1.1332  1.4406 -1.7797
  158TIP3   OH2  437   3.367   1.875   1.284  0.1083  0.2992  0.3532
  158TIP3    H1  438   3.421   1.849   1.359 -1.1725 -0.7029  0.9772
  158TIP3    H2  439   3.310   1.944   1.319 -1.9301 -1.5826  0.9693
  159TIP3   OH2  440   4.089   6.752   4.077  0.4976 -0.8949 -0.4476
  159TIP3    H1  441   4.107   6.753   4.171 -0.5773 -0.0637 -0.2323
  159TIP3    H2  442   4.174   6.770   4.037  0.7717 -0.1907  0.4102
  160TIP3   OH2  443   6.736   5.243   1.669  0.1047  0.4246 -0.4977
  160TIP3    H1  444   6.687   5.183   1.724  0.5203 -0.6652 -1.2767
  160TIP3    H2  445   6.818   5.259   1.717 -0.6375  1.6208  0.4289
  161TIP3   OH2  446   5.052   4.826   1.425 -0.3770 -0.2648  0.1781
  161TIP3    H1  447   5.094   4.746   1.396 -0.3429 -0.1009 -0.2352
  161TIP3    H2  448   4.994   4.799   1.496 -0.5491 -0.6922 -0.1241
  162TIP3   OH2  449   6.132   2.922   5.799 -0.1006 -0.1767  0.2457
  162TIP3    H1  450   6.173   2.950   5.717 -0.2316 -2.6145 -0.7347
  162TIP3    H2  451   6.200   2.874   5.845 -0.5185 -0.2690  0.7749
  163TIP3   OH2  452   6.536   1.698   3.386 -0.2960  0.6981 -0.0381
  163TIP3    H1  453   6.616   1.751   3.391  1.3655 -1.7431  1.4336
  163TIP3    H2  454   6.498   1.702   3.474 -0.2486 -0.3225  0.0461
  164TIP3   OH2  455   1.204   2.565   4.851 -0.5563  0.4960 -0.2102
  164TIP3    H1  456   1.292   2.530   4.838 -0.4367  0.2121  1.2084
  164TIP3    H2  457   1.146   2.491   4.835 -0.3980  0.0786  1.0303
  165TIP3   OH2  458   3.377   6.176   2.515 -0.6084  0.0682  0.0256
  165TIP3    H1  459   3.351   6.104   2.573  0.3928 -0.6637 -0.4072
  165TIP3    H2  460   3.353   6.256   2.563  0.5744 -0.5049  1.6626
  166TIP3   OH2  461   4.517   2.224   3.343 -0.5568 -0.0587 -0.3154
  166TIP3    H1  462   4.426   2.207   3.318 -0.3763  0.0957 -1.1092
  166TIP3    H2  463   4.569   2.178   3.277 -0.0600  0.2249 -0.1286
  167TIP3   OH2  464   0.887   2.126   5.438  0.0918  0.2186 -0.8591
  167TIP3    H1  465   0.978   2.134   5.409  0.2324  0.6875 -0.3043
  167TIP3    H2  466   0.868   2.209   5.481 -0.5638  0.0734 -0.8538
  168TIP3   OH2  467   3.808   1.913   4.684 -0.8301  0.5242  0.9503
  168TIP3    H1  468   3.779   1.889   4.772 -4.1088  1.3308  0.2311
  168TIP3    H2  469   3.735   1.888   4.628  1.9586 -1.9007 -1.9597
  169TIP3   OH2  470   0.581   5.927   4.268  0.4070 -0.0805 -0.0368
  169TIP3    H1  471   0.626   5.981   4.332  1.3065  1.8639 -2.1879
  169TIP3    H2  472   0.646   5.863   4.240 -0.6611 -2.5565  2.5236
  170TIP3   OH2  473   2.338   2.646   3.729  0.5884 -0.4150 -0.0841
  170TIP3    H1  474   2.366   2.705   3.799 -0.7786  1.3218 -0.9265
  170TIP3    H2  475   2.282   2.581   3.774  1.2500 -0.4589  0.6933
  171TIP3   OH2  476   5.374   0.845   1.738 -0.0646  0.2731 -0.2904
  171TIP3    H1  477   5.300   0.887   1.693 -1.4803 -1.8015 -0.0548
  171TIP3    H2  478   5.334   0.804   1.815  1.5106 -0.1866  0.3102
  172TIP3   OH2  479   1.107   3.014   2.801  0.8295 -0.2094 -0.1135
  172TIP3    H1  480   1.073   3.098   2.772  0.7404  0.0673  0.7609
  172TIP3    H2  481   1.046   2.949   2.765  1.0829  0.0654 -1.0652
  173TIP3   OH2  482   4.714   2.368   1.610  0.1988  0.4619  0.0373
  173TIP3    H1  483   4.681   2.318   1.536  0.2167 -0.5600  0.7106
  173TIP3    H2  484   4.745   2.450   1.571 -1.3456  0.6495 -0.8459
  174TIP3   OH2  485   4.874   4.345   2.956  0.1099  0.1939  0.4243
  174TIP3    H1  486   4.928   4.386   2.889  1.8936 -1.6062  0.6663
  174TIP3    H2  487   4.849   4.261   2.918 -0.0228 -0.2504  1.4708
  175TIP3   OH2  488   6.279   3.393   4.310  0.0111 -0.2713  0.4787
  175TIP3    H1  489   6.208   3.352   4.261 -0.1863 -0.1228  0.6389
  175TIP3    H2  490   6.235   3.447   4.375  0.1157  2.9337 -1.8364
  176TIP3   OH2  491   3.289   5.054   3.812  0.3439  0.4289 -0.2828
  176TIP3    H1  492   3.313   4.984   3.873  0.4281  2.2758  1.9619
  176TIP3    H2  493   3.302   5.016   3.725  2.6624 -1.5747  0.8112
  177TIP3   OH2  494   1.906   1.041   3.018 -0.0379 -0.5697  0.0967
  177TIP3    H1  495   1.952   1.034   3.102  0.9278 -0.8585 -0.4463
  177TIP3    H2  496   1.966   1.090   2.962 -1.4152  1.1937  0.0836
  178TIP3   OH2  497   3.177   2.485   4.103 -0.3883  0.6231 -0.4139
  178TIP3    H1  498   3.238   2.550   4.140  1.0746 -0.3389 -1.0287
  178TIP3    H2  499   3.129   2.452   4.179  2.3981 -1.1454  0.7499
  179TIP3   OH2  500   5.213   1.917   4.580 -0.0086 -0.2935 -0.2541
  179TIP3    H1  501   5.125   1.924   4.541 -0.9470 -1.2892  1.5517
  179TIP3    H2  502   5.214   1.983   4.648  1.0015  0.3068 -0.8348
  180TIP3   OH2  503   0.439   2.966   1.450  0.0990  0.0983  0.7006
  180TIP3    H1  504   0.380   3.042   1.449 -0.0925 -0.0529  0.5290
  180TIP3    H2  505   0.525   3.003   1.469  0.5440  0.7278 -2.1319
  181TIP3   OH2  506   1.374   6.804   4.226  0.2447 -0.2778  0.0427
  181TIP3    H1  507   1.364   6.811   4.321  0.7630 -0.3819  0.1037
  181TIP3    H2  508   1.465   6.781   4.213 -0.1505 -1.6834 -0.4226
  182TIP3   OH2  509   3.617   1.066   0.817 -0.4545  0.0989 -0.4647
  182TIP3    H1  510   3.637   1.159   0.813 -2.7036  0.7304  1.2087
  182TIP3    H2  511   3.657   1.037   0.899  0.9771 -0.6622 -1.3890
  183TIP3   OH2  512   4.489   4.310   4.114 -0.2315  0.3664  0.0008
  183TIP3    H1  513   4.480   4.373   4.042  0.8021  0.4099 -0.0960
  183TIP3    H2  514   4.536   4.358   4.182  0.9513 -0.4358 -0.2396
  184TIP3   OH2  515   6.456   2.510   3.585 -0.6227  0.3301  0.2811
  184TIP3    H1  516   6.485   2.584   3.638  0.1944  0.2589 -0.0595
  184TIP3    H2  517   6.479   2.534   3.495 -0.0725 -0.4729  0.2074
  185TIP3   OH2  518   4.681   4.900   0.120 -0.5844  0.1910 -0.1331
  185TIP3    H1  519   4.645   4.824   0.074  0.6468 -0.4311 -0.1100
  185TIP3    H2  520   4.764   4.918   0.075 -0.5449  1.1184  0.2894
  186TIP3   OH2  521   6.151   5.672   2.340  0.6150 -0.5411 -0.0588
  186TIP3    H1  522   6.132   5.602   2.277  2.4923 -1.0283 -0.1281
  186TIP3    H2  523   6.190   5.627   2.414 -0.0341  0.2335  0.7779
  187TIP3   OH2  524   4.004   1.364   3.992 -0.0035 -0.4086 -0.3874
  187TIP3    H1  525   3.938   1.364   3.923 -2.3309 -0.2024  1.7236
  187TIP3    H2  526   4.042   1.452   3.989 -1.8176  0.4338  0.1077
  188TIP3   OH2  527   4.587   5.627   3.231  0.0072 -0.0846  0.0029
  188TIP3    H1  528   4.604   5.720   3.246  2.2644 -0.3768 -0.3730
  188TIP3    H2  529   4.622   5.584   3.310 -0.1492 -0.6813 -0.2510
  189TIP3   OH2  530   4.970   0.597   0.165 -0.1037  0.0172  0.1486
  189TIP3    H1  531   4.954   0.504   0.178 -0.6089 -0.0253 -0.7203
  189TIP3    H2  532   5.058   0.601   0.128  0.1244 -0.0733  0.6745
  190TIP3   OH2  533   2.863   4.697   2.340 -0.7042 -0.2269 -0.1655
  190TIP3    H1  534   2.880   4.731   2.428 -1.3916  0.0411 -0.1265
  190TIP3    H2  535   2.937   4.639   2.322 -0.3477  0.0339  0.4237
  191TIP3   OH2  536   1.971   2.387   4.254 -0.1558  0.3388  0.0443
  191TIP3    H1  537   1.928   2.326   4.314  0.8273  0.7341  1.2118
  191TIP3    H2  538   1.901   2.445   4.223 -0.4770  1.1935  2.1624
  192TIP3   OH2  539   4.830   5.799   1.690 -0.5965  0.1250 -0.3431
  192TIP3    H1  540   4.758   5.845   1.733 -0.4535  0.2339 -0.2199
  192TIP3    H2  541   4.908   5.830   1.735 -0.4010  0.6083 -1.0019
  193TIP3   OH2  542   4.147   3.561   4.851 -0.2493 -0.0243 -0.9666
  193TIP3    H1  543   4.169   3.533   4.939 -2.2423  0.2442 -0.3339
  193TIP3    H2  544   4.118   3.652   4.861 -0.4953  0.0081 -1.8787
  194TIP3   OH2  545   1.741   6.213   3.429  0.2904 -0.2848  0.2028
  194TIP3    H1  546   1.775   6.160   3.357  1.3782 -0.9613  1.1901
  194TIP3    H2  547   1.786   6.181   3.506 -1.6993 -0.3756  1.3949
  195TIP3   OH2  548   6.031   5.492   5.199 -0.0027 -0.1037  0.4191
  195TIP3    H1  549   5.944   5.477   5.236 -0.0406 -1.2424 -0.1063
  195TIP3    H2  550   6.050   5.413   5.148  0.0111  1.3935 -2.0678
  196TIP3   OH2  551   0.513   0.195   1.496  0.3017 -0.0556 -0.0511
  196TIP3    H1  552   0.432   0.145   1.482  0.7135 -2.0180  3.3591
  196TIP3    H2  553   0.483   0.279   1.530 -0.3693 -0.7278  1.0895
  197TIP3   OH2  554   4.654   0.215   3.295  0.2199 -0.7784  0.2231
  197TIP3    H1  555   4.688   0.284   3.237  1.4393 -0.4417  1.2955
  197TIP3    H2  556   4.670   0.134   3.247 -0.6175 -0.3903 -0.7614
  198TIP3   OH2  557   4.201   4.372   2.861 -1.0216  0.2281 -0.0239
  198TIP3    H1  558   4.117   4.417   2.870 -0.4234  1.3309  0.2407
  198TIP3    H2  559   4.178   4.283   2.836 -2.2461  0.7352 -0.7984
  199TIP3   OH2  560   5.681   5.310   3.579 -0.0210 -0.2266 -0.4036
  199TIP3    H1  561   5.622   5.238   3.601  0.2535 -0.4220 -0.3026
  199TIP3    H2  562   5.625   5.387   3.575 -0.2594 -0.3881 -0.1694
  200TIP3   OH2  563   4.829   4.601   5.197 -0.2054 -0.3164 -0.5939
  200TIP3    H1  564   4.865   4.555   5.121 -0.1635 -1.0821 -0.1216
  200TIP3    H2  565   4.866   4.555   5.273 -2.0987 -1.0880 -0.0910
  201TIP3   OH2  566   0.643   4.020   2.257 -0.0377  0.1006  0.1196
  201TIP3    H1  567   0.690   4.085   2.310 -0.9318  0.5435  0.3987
  201TIP3    H2  568   0.559   4.062   2.238  0.2980 -0.0029 -1.7861
  202TIP3   OH2  569   0.530   0.979   0.137 -0.9239 -0.1537 -0.2117
  202TIP3    H1  570   0.544   0.998   0.044 -0.3097 -1.6923 -0.4720
  202TIP3    H2  571   0.596   1.030   0.183 -0.4582 -0.2861 -0.7219
  203TIP3   OH2  572   1.611   6.298   4.501 -0.5030 -0.6614  0.7523
  203TIP3    H1  573   1.705   6.281   4.502 -0.7526 -2.4031 -0.3140
  203TIP3    H2  574   1.597   6.361   4.572  1.3819 -0.7671  1.2749
  204TIP3   OH2  575   0.114   2.073   3.774 -0.1732  0.3699  0.8090
  204TIP3    H1  576   0.093   2.165   3.762 -0.8889  0.1165 -0.0253
  204TIP3    H2  577   0.131   2.064   3.868 -1.1952  1.1427  1.0843
  205TIP3   OH2  578   4.437   1.657   5.827 -0.1842  0.4663 -0.1293
  205TIP3    H1  579   4.368   1.722   5.843  0.2475  0.5200  1.7699
  205TIP3    H2  580   4.507   1.682   5.887  1.3304  0.1488 -1.6994
  206TIP3   OH2  581   0.675   4.891   3.171 -0.4076 -0.0678  0.2535
  206TIP3    H1  582   0.654   4.832   3.243 -0.9889 -0.0842  0.0757
  206TIP3    H2  583   0.679   4.978   3.211  0.3225 -0.2000  0.4914
  207TIP3   OH2  584   0.747   5.290   1.571 -0.0863 -0.0554  0.0511
  207TIP3    H1  585   0.701   5.353   1.516 -1.4926 -0.7012  0.4461
  207TIP3    H2  586   0.813   5.342   1.617  0.9234  0.5618 -1.9707
  208TIP3   OH2  587   4.057   3.881   2.882  0.5778 -0.1436  0.9295
  208TIP3    H1  588   4.087   3.971   2.883  0.7506 -0.1725  3.3397
  208TIP3    H2  589   4.092   3.842   2.962 -1.8566 -1.5157  1.4570
  209TIP3   OH2  590   5.319   5.792   1.739  0.4135  0.3842 -0.0346
  209TIP3    H1  591   5.350   5.731   1.806 -0.4199  0.0847  0.0904
  209TIP3    H2  592   5.372   5.871   1.752  1.4931 -0.2840 -0.1728
  210TIP3   OH2  593   5.290   1.905   1.104 -0.2747  0.4582  0.0362
  210TIP3    H1  594   5.371   1.878   1.147  0.4236 -0.0559 -1.5528
  210TIP3    H2  595   5.318   1.956   1.029 -1.4002 -0.0632 -0.7673
  211TIP3   OH2  596   2.927   0.521   3.149  0.1745  0.2468 -0.6317
  211TIP3    H1  597   2.992   0.558   3.090 -0.4146  1.3178 -0.6355
  211TIP3    H2  598   2.889   0.448   3.100  1.8550 -0.8733 -0.3473
  212TIP3   OH2  599   4.063   3.264   4.079  0.1232 -0.1066 -0.0741
  212TIP3    H1  600   4.018   3.184   4.053  0.6870 -0.1641 -0.9274
  212TIP3    H2  601   4.001   3.310   4.135 -0.6072 -0.6513 -0.4198
  213TIP3   OH2  602   1.102   2.322   4.536 -0.4393 -0.0415  0.1743
  213TIP3    H1  603   1.087   2.331   4.631 -0.5803  0.7581  0.0817
  213TIP3    H2  604   1.156   2.243   4.528 -2.3754 -1.5019  0.7351
  214TIP3   OH2  605   3.931   5.842   4.490  0.6193  0.3619  0.4510
  214TIP3    H1  606   3.874   5.769   4.514 -0.3270  1.4603  1.6950
  214TIP3    H2  607   3.941   5.892   4.571  0.8864  1.8608 -0.4700
  215TIP3   OH2  608   4.364   0.918   2.538  0.3125  0.1784 -0.1326
  215TIP3    H1  609   4.329   0.832   2.517  1.0116 -0.4451  1.1709
  215TIP3    H2  610   4.343   0.971   2.461 -1.8869 -0.6116 -0.1540
  216TIP3   OH2  611   6.587   2.451   5.146  0.2647  0.1882 -0.0649
  216TIP3    H1  612   6.659   2.399   5.111 -0.0243  0.1516 -0.6044
  216TIP3    H2  613   6.605   2.454   5.241  1.1497  0.4621 -0.2264
  217TIP3   OH2  614   1.448   2.501   4.704 -0.4982 -1.0063  0.5655
  217TIP3    H1  615   1.492   2.458   4.631 -2.6375 -0.1803 -1.3348
  217TIP3    H2  616   1.379   2.554   4.663  0.9323  3.0749  2.8013
  218TIP3   OH2  617   6.764   6.384   5.804  0.5245  0.0171  0.4258
  218TIP3    H1  618   6.797   6.457   5.857 -0.4849  1.7595 -1.2356
  218TIP3    H2  619   6.737   6.318   5.868 -0.6817  2.0437  2.1254
  219TIP3   OH2  620   3.633   3.543   3.571  0.1563 -0.2699 -0.0637
  219TIP3    H1  621   3.616   3.463   3.522  0.1373  0.1023 -0.6788
  219TIP3    H2  622   3.564   3.547   3.636  0.2760 -0.8542  0.1040
  220TIP3   OH2  623   4.645   1.313   3.780  0.1421  0.0003 -0.4363
  220TIP3    H1  624   4.623   1.241   3.721 -1.3102 -1.1836  1.4160
  220TIP3    H2  625   4.632   1.277   3.868  2.5012  1.5736  0.6694
  221TIP3   OH2  626   0.227   3.820   3.873  0.1400  0.3250 -0.2444
  221TIP3    H1  627   0.180   3.772   3.805  1.2533 -0.9914 -0.1291
  221TIP3    H2  628   0.221   3.764   3.950  2.1886 -0.0956 -0.3341
  222TIP3   OH2  629   6.985   3.524   2.536 -0.0046 -0.3350 -0.0697
  222TIP3    H1  630   6.909   3.466   2.542  1.4372 -2.3485 -0.0953
  222TIP3    H2  631   7.049   3.485   2.596  1.4437  0.6108 -0.9430
  223TIP3   OH2  632   2.970   6.112   5.757  0.1880  0.1926  0.9478
  223TIP3    H1  633   3.012   6.185   5.802  1.2720 -0.7660  1.5610
  223TIP3    H2  634   2.883   6.106   5.796  0.6398  0.2157  1.9841
  224TIP3   OH2  635   6.392   3.150   0.756  0.5233  0.6843 -0.6201
  224TIP3    H1  636   6.444   3.142   0.676 -1.2362  0.6465 -1.8175
  224TIP3    H2  637   6.345   3.067   0.763  1.3440  0.3247  0.9922
  225TIP3   OH2  638   5.508   3.400   3.971  0.2806 -0.2675  0.4232
  225TIP3    H1  639   5.453   3.454   4.028 -0.0781 -2.4351  2.2703
  225TIP3    H2  640   5.448   3.364   3.906  0.7265  2.3820 -1.6035
  226TIP3   OH2  641   3.639   1.879   5.826  0.0178  0.0337  0.7010
  226TIP3    H1  642   3.669   1.940   5.893  2.3579 -1.9768  1.6352
  226TIP3    H2  643   3.691   1.901   5.749 -0.2004  0.1604  0.5901
  227TIP3   OH2  644   4.442   6.494   3.700 -0.3474  0.1386 -0.6570
  227TIP3    H1  645   4.371   6.458   3.647 -2.1268  0.7449  1.1659
  227TIP3    H2  646   4.399   6.554   3.761  1.8432  1.0944  0.0661
  228TIP3   OH2  647   5.365   6.194   4.468  0.0109  0.0979  0.0276
  228TIP3    H1  648   5.363   6.288   4.451 -0.4090 -0.1388 -1.2932
  228TIP3    H2  649   5.360   6.187   4.564 -3.0707  1.3390  0.0450
  229TIP3   OH2  650   3.529   6.057   2.349 -0.0822  0.5848  0.0680
  229TIP3    H1  651   3.481   6.102   2.419  0.7241 -1.3008  1.9431
  229TIP3    H2  652   3.464   6.002   2.307 -0.1042 -0.1245  0.9927
  230TIP3   OH2  653   2.165   5.017   0.183 -0.2805  0.0333  0.3713
  230TIP3    H1  654   2.222   4.990   0.255 -0.0353 -0.4995 -0.0170
  230TIP3    H2  655   2.151   5.111   0.198  1.5271  0.4174 -0.0900
  231TIP3   OH2  656   4.731   5.060   5.378  0.2635  0.0301  0.2879
  231TIP3    H1  657   4.785   5.082   5.302 -0.4714 -0.6450 -0.4542
  231TIP3    H2  658   4.726   4.965   5.377  1.3483 -0.0895  1.9933
  232TIP3   OH2  659   3.962   0.476   3.994 -0.0986  0.1724 -0.5321
  232TIP3    H1  660   3.957   0.402   3.934 -0.0539 -0.7696  0.5970
  232TIP3    H2  661   3.879   0.474   4.042  0.3755  0.1476  0.3121
  233TIP3   OH2  662   1.966   1.984   0.472 -0.0405 -0.3093 -0.0753
  233TIP3    H1  663   1.979   1.912   0.535 -1.6999 -0.8827 -0.3383
  233TIP3    H2  664   1.935   1.940   0.393 -0.6842  0.6725 -0.3742
  234TIP3   OH2  665   0.750   2.001   1.900  0.1921 -0.0434  1.1104
  234TIP3    H1  666   0.762   2.058   1.824 -0.7845 -0.4792  0.6178
  234TIP3    H2  667   0.684   2.045   1.953 -1.9858 -1.5443 -0.1839
  235TIP3   OH2  668   0.664   5.474   1.178 -0.1833  0.1856  0.6344
  235TIP3    H1  669   0.713   5.393   1.191 -0.1755 -0.1864 -1.4479
  235TIP3    H2  670   0.642   5.475   1.085 -2.2053  1.4389  1.0562
  236TIP3   OH2  671   2.724   4.476   5.396 -0.8489  0.1670 -0.8751
  236TIP3    H1  672   2.631   4.456   5.387 -1.5457  1.8213  1.4593
  236TIP3    H2  673   2.732   4.567   5.368 -0.8037  1.3179  2.3699
  237TIP3   OH2  674   6.548   5.770   5.062 -0.3215  0.2077  0.5054
  237TIP3    H1  675   6.539   5.686   5.106 -0.2289  0.2646  0.6344
  237TIP3    H2  676   6.519   5.834   5.127 -2.7844  0.1238 -0.3742
  238TIP3   OH2  677   0.334   6.080   5.255 -0.5791  0.2552  0.3841
  238TIP3    H1  678   0.323   5.990   5.223 -1.8638  0.7765 -0.7260
  238TIP3    H2  679   0.334   6.134   5.176 -0.8850  1.3285  1.1003
  239TIP3   OH2  680   6.163   2.633   2.696  0.2004  0.3105  0.0111
  239TIP3    H1  681   6.131   2.714   2.658  0.7776  0.7263  0.3975
  239TIP3    H2  682   6.113   2.623   2.777 -3.0988 -2.0248 -2.0591
  240TIP3   OH2  683   4.568   2.835   0.446  0.2700  0.0633 -0.3407
  240TIP3    H1  684   4.524   2.792   0.519  1.2517 -0.2537  0.0782
  240TIP3    H2  685   4.516   2.914   0.430  0.3224  0.4031  1.0316
  241TIP3   OH2  686   6.074   1.758   2.751 -0.2513  0.1426 -0.1268
  241TIP3    H1  687   6.024   1.693   2.801 -0.6080  0.6998  0.2634
  241TIP3    H2  688   6.121   1.808   2.817  1.3555 -0.7707 -0.5299
  242TIP3   OH2  689   0.110   2.998   5.249 -0.0594 -0.3098  0.1369
  242TIP3    H1  690   0.171   3.068   5.226 -1.1718  0.5581 -0.2662
  242TIP3    H2  691   0.111   2.997   5.345 -2.4613  2.5870  0.3445
  243TIP3   OH2  692   1.938   4.741   4.981  0.1242  0.1409  0.7041
  243TIP3    H1  693   1.869   4.805   4.999 -0.2227 -0.4322  1.4608
  243TIP3    H2  694   2.007   4.791   4.937 -0.7581  0.7251 -0.0350
  244TIP3   OH2  695   3.855   5.874   0.834 -0.3370  0.3755 -0.7620
  244TIP3    H1  696   3.796   5.804   0.864 -0.5595  0.7823 -0.2463
  244TIP3    H2  697   3.860   5.935   0.908  3.3229 -1.2404  0.5864
  245TIP3   OH2  698   0.641   3.250   2.361 -0.1924  0.2533  0.0266
  245TIP3    H1  699   0.686   3.247   2.277  0.6619  1.4552  0.4165
  245TIP3    H2  700   0.654   3.340   2.393 -1.2975  0.0971  1.0100
  246TIP3   OH2  701   3.541   1.837   3.345  0.8464  1.1316  0.3906
  246TIP3    H1  702   3.624   1.791   3.332  0.3857  0.6520 -1.1693
  246TIP3    H2  703   3.522   1.827   3.438  1.3716 -0.8489  0.3423
  247TIP3   OH2  704   5.152   2.717   1.192 -0.1517 -0.2231  0.0619
  247TIP3    H1  705   5.136   2.657   1.119  0.9625 -2.3100  1.4289
  247TIP3    H2  706   5.079   2.779   1.189 -1.2301 -1.5061 -1.5690
  248TIP3   OH2  707   0.053   5.473   2.054  0.0789 -0.2411 -0.1562
  248TIP3    H1  708  -0.013   5.408   2.033  0.7802 -1.1567  0.3787
  248TIP3    H2  709   0.128   5.450   1.999  0.0575  0.6175 -0.5578
  249TIP3   OH2  710   3.799   0.284   4.671  0.1022 -0.2435  0.1910
  249TIP3    H1  711   3.797   0.302   4.765  0.7485 -1.5638  0.4780
  249TIP3    H2  712   3.884   0.316   4.642  0.4637 -1.0372  0.3363
  250TIP3   OH2  713   0.187   4.292   4.522 -0.6286 -0.1671  0.3045
  250TIP3    H1  714   0.253   4.360   4.535 -0.8065  0.2398 -0.8059
  250TIP3    H2  715   0.135   4.323   4.448 -0.5859 -1.6123 -0.3661
  251TIP3   OH2  716   7.155   1.093   2.659 -0.0087  0.3120  0.2632
  251TIP3    H1  717   7.119   1.033   2.594 -1.7021  1.0892  0.4388
  251TIP3    H2  718   7.111   1.071   2.741  0.9653  0.3701  0.8196
  252TIP3   OH2  719   2.642   6.371   2.328  0.3789  0.6095  0.4533
  252TIP3    H1  720   2.626   6.351   2.420 -0.4286 -1.4121 -0.0877
  252TIP3    H2  721   2.736   6.355   2.316  0.2953 -0.0932  0.7085
  253TIP3   OH2  722   3.068   1.077   4.890  0.2362 -0.2555 -0.0031
  253TIP3    H1  723   2.987   1.109   4.930 -0.0211 -0.5622 -0.2650
  253TIP3    H2  724   3.121   1.047   4.964 -0.0560 -0.4247  0.1392
  254TIP3   OH2  725   3.381   0.664   2.792  0.0703 -0.8695 -0.0186
  254TIP3    H1  726   3.302   0.716   2.805 -0.2925 -1.7519  1.6650
  254TIP3    H2  727   3.352   0.590   2.739 -0.2890 -1.2930  0.7590
  255TIP3   OH2  728   1.489   5.317   1.273 -0.2232  0.3276  0.3839
  255TIP3    H1  729   1.505   5.229   1.239 -0.3351  1.1623 -2.0266
  255TIP3    H2  730   1.395   5.322   1.284 -0.4326  0.6762 -1.2478
  256TIP3   OH2  731   3.365   6.389   4.391  0.2087  0.0329  0.0137
  256TIP3    H1  732   3.439   6.430   4.436  0.7702  0.5231 -1.3097
  256TIP3    H2  733   3.362   6.432   4.306 -0.3015 -1.4615 -0.7557
  257TIP3   OH2  734   1.495   2.896   3.764 -0.1976  0.0055 -0.1008
  257TIP3    H1  735   1.430   2.826   3.767  0.0614 -0.2062  0.8961
  257TIP3    H2  736   1.454   2.965   3.712  0.1412 -1.4685 -2.4812
  258TIP3   OH2  737   6.997   0.240   2.692  0.4020 -0.4122 -0.0813
  258TIP3    H1  738   6.930   0.189   2.646  0.4980  0.1431 -0.8623
  258TIP3    H2  739   7.057   0.269   2.623  0.3941  0.6792  0.3415
  259TIP3   OH2  740   0.302   5.907   2.289 -0.0278 -0.0648 -0.1858
  259TIP3    H1  741   0.361   5.943   2.224 -0.0808 -0.3727 -0.4109
  259TIP3    H2  742   0.289   5.816   2.261 -1.5835  0.3239 -0.8537
  260TIP3   OH2  743   5.747   4.195   2.445 -0.2316  0.0437 -0.2376
  260TIP3    H1  744   5.710   4.119   2.490  1.0410 -0.5562 -0.1609
  260TIP3    H2  745   5.674   4.256   2.436 -1.4716 -1.4956 -0.9792
  261TIP3   OH2  746   2.130   4.497   3.340  0.4442 -0.1345  0.3267
  261TIP3    H1  747   2.052   4.524   3.292  0.1804 -0.4007  0.6039
  261TIP3    H2  748   2.118   4.403   3.356  0.9056 -0.2185  0.2142
  262TIP3   OH2  749   6.619   1.932   2.544  0.0690 -0.1666 -0.7728
  262TIP3    H1  750   6.525   1.918   2.556  0.1688 -0.7343 -0.6013
  262TIP3    H2  751   6.626   1.983   2.463 -0.5265  2.1246  0.5407
  263TIP3   OH2  752   0.820   3.137   2.539 -0.0974 -0.4547  0.0927
  263TIP3    H1  753   0.746   3.169   2.486  0.1282  0.3553  0.2485
  263TIP3    H2  754   0.782   3.121   2.625 -0.1201 -0.1536  0.1398
  264TIP3   OH2  755   4.430   2.870   1.193  0.1253  0.2528 -0.3469
  264TIP3    H1  756   4.337   2.867   1.215 -0.1874  0.8350 -1.5128
  264TIP3    H2  757   4.471   2.911   1.269  0.1061 -3.8379  2.1371
  265TIP3   OH2  758   6.836   4.462   2.845 -0.0596  0.4105  0.1332
  265TIP3    H1  759   6.823   4.367   2.840 -3.1709  0.7730 -4.0127
  265TIP3    H2  760   6.927   4.474   2.817  0.0126 -1.3568 -0.5755
  266TIP3   OH2  761   3.694   6.264   2.644 -0.3299  0.2927  0.6322
  266TIP3    H1  762   3.690   6.250   2.549 -0.4542 -0.9019  0.7961
  266TIP3    H2  763   3.787   6.260   2.664 -0.2829  0.8113  0.5298
  267TIP3   OH2  764   0.567   1.479   4.555  0.2223  0.5402  0.4088
  267TIP3    H1  765   0.639   1.416   4.545  0.5420  0.9941 -0.2404
  267TIP3    H2  766   0.496   1.443   4.503 -0.6614 -0.7971  2.4199
  268TIP3   OH2  767   1.453   6.697   2.857 -0.7275 -0.0425 -0.0879
  268TIP3    H1  768   1.494   6.715   2.942  0.4382  0.6965 -0.7832
  268TIP3    H2  769   1.361   6.679   2.879 -0.1714 -1.3069  1.4686
  269TIP3   OH2  770   2.438   4.132   1.836 -0.3788  0.6529  0.3022
  269TIP3    H1  771   2.374   4.065   1.811 -1.7561  1.7447  0.7504
  269TIP3    H2  772   2.483   4.095   1.912 -0.7702  0.0275  0.2345
  270TIP3   OH2  773   5.019   1.897   1.182 -0.0231  0.0045  0.2248
  270TIP3    H1  774   4.991   1.976   1.229  0.6822  2.2333 -2.7528
  270TIP3    H2  775   5.112   1.912   1.164  0.3188 -1.8872  0.1935
  271TIP3   OH2  776   2.970   0.972   2.921  0.4135  0.0319 -0.3072
  271TIP3    H1  777   2.876   0.959   2.927  0.2631  0.9125 -0.6355
  271TIP3    H2  778   3.008   0.888   2.947 -0.4800 -0.7143 -1.3535
  272TIP3   OH2  779   5.862   1.087   5.901  0.0427  0.3995  0.4412
  272TIP3    H1  780   5.878   1.002   5.942  0.3972  0.9965  1.5696
  272TIP3    H2  781   5.866   1.068   5.807  0.5584 -0.7497  0.6659
  273TIP3   OH2  782   5.532   5.093   0.652  0.4005 -0.0524  0.4110
  273TIP3    H1  783   5.448   5.053   0.629  0.5432  0.5045 -1.2425
  273TIP3    H2  784   5.587   5.019   0.678  0.1836 -0.7882 -1.0655
  274TIP3   OH2  785   4.213   0.839   5.121  0.0612 -0.0006  0.3436
  274TIP3    H1  786   4.269   0.823   5.044  0.2497  0.7550  0.3172
  274TIP3    H2  787   4.206   0.753   5.163  2.5656  0.1317  1.2369
  275TIP3   OH2  788   0.330   0.522   3.663  0.2216  0.0822 -0.3420
  275TIP3    H1  789   0.272   0.486   3.730  1.1342 -0.0913  0.3779
  275TIP3    H2  790   0.309   0.615   3.661 -0.4594 -0.0728 -0.4756
  276TIP3   OH2  791   7.032   5.371  -0.014 -0.0886  0.1892 -0.2176
  276TIP3    H1  792   6.992   5.446   0.031  0.7425  0.4101  0.1757
  276TIP3    H2  793   7.125   5.375   0.010  0.1606 -0.3601 -1.0476
  277TIP3   OH2  794   0.065   2.373   4.378 -0.1900  0.0473  0.3495
  277TIP3    H1  795   0.059   2.423   4.297 -2.0885  0.4372  0.7024
  277TIP3    H2  796  -0.021   2.334   4.390  0.3632 -0.8760  1.6515
  278TIP3   OH2  797   3.210   3.868   1.105 -0.4462 -0.1564  0.2724
  278TIP3    H1  798   3.247   3.901   1.186 -0.5700  0.9786 -0.1071
  278TIP3    H2  799   3.283   3.869   1.043 -0.4435 -0.6366  0.2699
  279TIP3   OH2  800   3.737   0.990   1.073 -0.4981  0.6932  0.2841
  279TIP3    H1  801   3.761   1.060   1.134 -1.4379  1.0156  0.2888
  279TIP3    H2  802   3.777   0.911   1.111 -1.4474  0.8081  1.5990
  280TIP3   OH2  803   3.759   1.184   1.883  0.3255 -0.0544 -0.5858
  280TIP3    H1  804   3.852   1.163   1.876  1.0525  2.0076  1.4955
  280TIP3    H2  805   3.726   1.126   1.952  0.3988  0.1187 -0.4040
  281TIP3   OH2  806   3.402   6.608   2.085 -0.4302 -0.2750  0.1219
  281TIP3    H1  807   3.477   6.629   2.140 -0.2002  1.4995 -0.7853
  281TIP3    H2  808   3.331   6.591   2.146  0.0831  0.5587  0.9814
  282TIP3   OH2  809   2.764   4.562   3.010  0.6742 -0.0510 -0.7751
  282TIP3    H1  810   2.774   4.585   2.918  2.2640 -0.1115 -0.6406
  282TIP3    H2  811   2.836   4.606   3.055 -1.3392  1.8461  0.8323
  283TIP3   OH2  812   1.871   3.254   5.061  0.1338  0.2349  0.1173
  283TIP3    H1  813   1.807   3.249   5.132  0.5632 -1.7508  0.4121
  283TIP3    H2  814   1.954   3.268   5.105  0.5716 -2.1273  0.1781
  284TIP3   OH2  815   2.384   2.125   0.025  0.0933 -0.0048  0.3395
  284TIP3    H1  816   2.340   2.096   0.105  1.2282  2.2382  1.8807
  284TIP3    H2  817   2.325   2.190  -0.012 -0.4579 -1.0789 -0.7666
  285TIP3   OH2  818   6.757   3.343   0.858  0.3526 -0.2294 -0.0512
  285TIP3    H1  819   6.788   3.406   0.792  1.0783 -1.0642 -0.5313
  285TIP3    H2  820   6.769   3.257   0.817  1.2913 -0.7989  1.3351
  286TIP3   OH2  821   0.179   0.496   4.671  0.5150  0.4897  0.6965
  286TIP3    H1  822   0.123   0.545   4.610 -0.4114 -0.2624  0.9246
  286TIP3    H2  823   0.182   0.552   4.749  0.4057  0.7226  0.5382
  287TIP3   OH2  824   5.251   3.823   5.415 -0.5064  0.5221  0.1560
  287TIP3    H1  825   5.238   3.872   5.496 -0.0205  0.1674  0.4571
  287TIP3    H2  826   5.282   3.888   5.352  0.2955  0.5798  0.5967
  288TIP3   OH2  827   1.015   1.873   0.694  0.3740 -0.5861 -0.5577
  288TIP3    H1  828   1.066   1.933   0.639 -0.6391 -0.9986 -2.0012
  288TIP3    H2  829   0.946   1.928   0.731 -1.0818 -0.9209 -2.5616
  289TIP3   OH2  830   5.632   4.123   3.951 -0.1409  0.2609  0.4085
  289TIP3    H1  831   5.683   4.042   3.951 -0.8326 -0.2052  1.6946
  289TIP3    H2  832   5.681   4.183   3.894  1.0495 -0.6413  0.4576
  290TIP3   OH2  833   1.092   2.195   1.674  0.3362  0.2550 -0.2286
  290TIP3    H1  834   1.085   2.288   1.699  1.5945 -0.0139  1.2696
  290TIP3    H2  835   1.157   2.159   1.735  1.0262 -1.2662 -1.8015
  291TIP3   OH2  836   1.793   0.892   5.743 -0.1494 -0.3880 -0.6609
  291TIP3    H1  837   1.847   0.819   5.711 -1.2696 -0.4901 -2.4425
  291TIP3    H2  838   1.803   0.888   5.838 -0.4027 -3.0770 -0.6570
  292TIP3   OH2  839   6.442   0.490   3.569 -0.6021 -0.0094  0.1596
  292TIP3    H1  840   6.465   0.551   3.499 -0.8670 -1.1859 -1.0197
  292TIP3    H2  841   6.487   0.409   3.545 -1.5820 -0.7572  0.7587
  293TIP3   OH2  842   0.077   6.471   5.698  0.3235  0.3794  0.4435
  293TIP3    H1  843   0.095   6.536   5.630 -0.1267 -0.4949 -0.5353
  293TIP3    H2  844   0.161   6.461   5.743  1.1535 -0.3630 -1.1784
  294TIP3   OH2  845   2.038   5.841   5.007 -0.0750 -0.4333  0.3317
  294TIP3    H1  846   2.013   5.749   5.015 -1.7978  0.0155  0.3308
  294TIP3    H2  847   1.960   5.886   4.976  0.4682  1.1756  1.1297
  295TIP3   OH2  848   4.236   1.795   2.386 -0.1509  0.5956 -0.6808
  295TIP3    H1  849   4.315   1.841   2.359 -0.4509  1.5817  0.0726
  295TIP3    H2  850   4.181   1.795   2.307  0.0199  1.1661 -0.8059
  296TIP3   OH2  851   3.662   3.271   2.962  0.1994  0.2348  0.3967
  296TIP3    H1  852   3.631   3.358   2.937 -1.5013  0.2705  2.3573
  296TIP3    H2  853   3.726   3.287   3.032  0.5326 -0.0492  0.1585
  297TIP3   OH2  854   3.596   0.650   2.951  0.1080  1.0221  0.0682
  297TIP3    H1  855   3.551   0.575   2.989  2.9819 -0.4725  0.7779
  297TIP3    H2  856   3.541   0.676   2.877 -0.8322 -2.0199 -0.4409
  298TIP3   OH2  857   5.288   4.553   3.426 -0.0254 -0.3488 -0.1795
  298TIP3    H1  858   5.270   4.460   3.442  1.2214 -0.4430  0.8451
  298TIP3    H2  859   5.203   4.590   3.404 -0.7879 -1.4676  0.7509
  299TIP3   OH2  860   2.434   0.676   5.830  0.0216  0.4295 -0.3893
  299TIP3    H1  861   2.421   0.585   5.857 -0.5763  0.5446 -0.2580
  299TIP3    H2  862   2.481   0.671   5.747 -1.2826 -0.0543 -1.1320
  300TIP3   OH2  863   6.898   6.639   2.119  0.2187  0.1314  0.0940
  300TIP3    H1  864   6.943   6.647   2.034  1.1896 -0.5648  0.5167
  300TIP3    H2  865   6.843   6.561   2.110  0.5913 -0.1507  0.2049
  301TIP3   OH2  866   3.309   4.188   4.938  0.5047  0.0376  0.3313
  301TIP3    H1  867   3.215   4.197   4.921  0.6028  1.2688  0.3635
  301TIP3    H2  868   3.318   4.203   5.032  0.9534  2.0634  0.0040
  302TIP3   OH2  869   3.925   4.875   1.844  0.3284  0.3648  0.5287
  302TIP3    H1  870   3.990   4.925   1.795  1.2508 -1.1712  0.1205
  302TIP3    H2  871   3.950   4.886   1.936 -0.2080  1.6132  0.5421
  303TIP3   OH2  872   6.859   4.021   5.004  0.1408 -0.2273  0.3125
  303TIP3    H1  873   6.951   3.994   5.001  0.3137  0.4011 -1.1499
  303TIP3    H2  874   6.857   4.094   5.066  1.1046  1.2601 -1.3028
  304TIP3   OH2  875   4.565   1.479   0.056 -0.0594 -0.2216 -0.8998
  304TIP3    H1  876   4.597   1.514   0.139  1.0396 -0.1139 -1.3547
  304TIP3    H2  877   4.644   1.449   0.011 -0.8175 -2.0939 -1.0764
  305TIP3   OH2  878   6.951   2.365   1.431 -0.1300  0.1187  0.4406
  305TIP3    H1  879   6.994   2.401   1.508 -0.5401 -3.8235  2.7631
  305TIP3    H2  880   6.858   2.376   1.448 -0.2178  0.7902 -0.3901
  306TIP3   OH2  881   3.810   0.520   2.584 -0.1122 -0.3285  0.0002
  306TIP3    H1  882   3.750   0.481   2.647 -0.2350 -0.7211 -0.3599
  306TIP3    H2  883   3.754   0.551   2.513  0.1638 -1.4786 -0.7542
  307TIP3   OH2  884   0.593   3.444   5.775 -0.3066 -0.0597  0.0036
  307TIP3    H1  885   0.520   3.472   5.831 -0.9126 -1.3729 -0.1046
  307TIP3    H2  886   0.554   3.429   5.689  0.0011 -1.2309  0.0599
  308TIP3   OH2  887   4.970   1.870   3.194  0.3954  0.5631 -0.1100
  308TIP3    H1  888   4.934   1.959   3.189 -1.7002 -0.2456 -0.4289
  308TIP3    H2  889   5.026   1.863   3.116  1.1304  1.7891  0.2704
  309TIP3   OH2  890   6.876   4.677   4.053  0.4344 -0.3878 -0.2391
  309TIP3    H1  891   6.893   4.609   4.118 -0.1737 -0.3763 -0.0613
  309TIP3    H2  892   6.955   4.678   3.999  0.1234 -1.8514 -0.7859
  310TIP3   OH2  893   3.266   2.420   1.600 -0.0201 -0.7382  0.0746
  310TIP3    H1  894   3.189   2.408   1.544  0.9625  2.5812 -2.2882
  310TIP3    H2  895   3.341   2.410   1.541  1.1257  1.2785  1.0594
  311TIP3   OH2  896   2.723   6.258   5.620  0.1773  0.4285 -0.0517
  311TIP3    H1  897   2.646   6.258   5.678 -0.2585  2.0116 -0.5732
  311TIP3    H2  898   2.726   6.347   5.585  3.0405  0.8379  0.9863
  312TIP3   OH2  899   0.159   4.731   2.554 -0.3057 -0.4268 -0.6725
  312TIP3    H1  900   0.179   4.638   2.546 -1.2428 -0.6679 -0.3845
  312TIP3    H2  901   0.097   4.736   2.627  0.2781  0.5054 -0.2182
  313TIP3   OH2  902   3.898   5.752   3.877 -0.1913 -0.2679 -0.1434
  313TIP3    H1  903   3.930   5.736   3.966  1.8437  0.1004 -0.7485
  313TIP3    H2  904   3.804   5.763   3.886 -0.1475 -1.1823  1.8295
  314TIP3   OH2  905   2.178   0.867   5.511 -0.0391  0.3353  0.5560
  314TIP3    H1  906   2.136   0.880   5.426  0.5939 -0.2342  0.1522
  314TIP3    H2  907   2.171   0.952   5.554 -1.0684  0.4199  0.2621
  315TIP3   OH2  908   1.150   1.625   4.980  0.1178  0.2976  0.1348
  315TIP3    H1  909   1.086   1.556   4.996  0.7659 -0.3984 -0.2233
  315TIP3    H2  910   1.233   1.590   5.011  1.1805 -0.5832 -3.2511
  316TIP3   OH2  911   5.222   5.826   3.392  0.3617  0.1782  0.2353
  316TIP3    H1  912   5.138   5.870   3.392 -0.5491 -1.4929  0.3367
  316TIP3    H2  913   5.221   5.771   3.314  0.6238 -1.1436  1.1233
  317TIP3   OH2  914   5.817   3.250   1.803  0.1162  0.6308 -0.6821
  317TIP3    H1  915   5.880   3.308   1.760 -1.0144  2.2625 -0.2355
  317TIP3    H2  916   5.855   3.163   1.795  0.7378  1.0767 -3.5213
  318TIP3   OH2  917   6.371   5.857   5.282  0.0618  0.6587  0.0344
  318TIP3    H1  918   6.342   5.768   5.300 -0.5412  1.1836  1.8557
  318TIP3    H2  919   6.429   5.879   5.355  1.5128  1.2219 -1.2327
  319TIP3   OH2  920   2.331   1.961   4.215  0.7376 -0.0700  0.5468
  319TIP3    H1  921   2.304   1.872   4.239  1.1706 -0.4619 -0.4003
  319TIP3    H2  922   2.426   1.961   4.225  0.7653  0.2172  0.3006
  320TIP3   OH2  923   3.068   1.877   3.063  0.0154  0.5276 -0.3846
  320TIP3    H1  924   3.090   1.791   3.028  0.1056  0.2134  0.4178
  320TIP3    H2  925   3.150   1.926   3.061  0.1566  0.3056 -0.0365
  321TIP3   OH2  926   6.087   6.751   5.599 -0.1492  0.6028  0.3871
  321TIP3    H1  927   6.019   6.750   5.531  0.7337 -1.9160 -0.5410
  321TIP3    H2  928   6.168   6.732   5.552  0.5383 -0.8443  2.0725
  322TIP3   OH2  929   6.896   3.231   5.081  0.3308  0.2367 -0.1369
  322TIP3    H1  930   6.936   3.309   5.119 -0.1841 -0.1991  1.3523
  322TIP3    H2  931   6.966   3.167   5.077  1.0522  1.0414 -2.3893
  323TIP3   OH2  932   3.351   1.024   4.665 -0.0573 -0.1140 -0.3548
  323TIP3    H1  933   3.381   1.060   4.749 -1.2281 -1.2150  0.5979
  323TIP3    H2  934   3.431   0.998   4.620  0.6159  0.7348  0.3058
  324TIP3   OH2  935   4.283   4.325   1.467 -0.2975 -0.0854  0.2039
  324TIP3    H1  936   4.376   4.305   1.455 -0.0989  1.6225 -1.5861
  324TIP3    H2  937   4.282   4.418   1.490 -1.6111  0.2268 -1.0160
  325TIP3   OH2  938   3.874   1.614   1.375 -0.4673 -0.6387  0.5810
  325TIP3    H1  939   3.924   1.690   1.404 -2.2713  0.3283  1.3089
  325TIP3    H2  940   3.920   1.583   1.297  1.0868  0.3356  1.0681
  326TIP3   OH2  941   5.498   5.938   3.368 -0.0203 -0.2404  0.3902
  326TIP3    H1  942   5.426   5.877   3.385  0.1091 -0.3490  0.5563
  326TIP3    H2  943   5.574   5.897   3.410  0.3244 -0.5353 -0.5078
  327TIP3   OH2  944   2.890   4.118   5.267 -0.1232 -0.2661 -0.3938
  327TIP3    H1  945   2.916   4.173   5.193 -1.1502  1.4081  0.4195
  327TIP3    H2  946   2.890   4.178   5.342  3.9826 -2.5053  1.7231
  328TIP3   OH2  947   6.062   1.038   0.353  0.0596  0.0914 -0.5723
  328TIP3    H1  948   6.078   1.123   0.393 -0.2213  0.1615 -0.6109
  328TIP3    H2  949   5.977   1.010   0.387 -0.4750  0.4283 -1.5998
  329TIP3   OH2  950   0.890   4.072   5.745 -0.2395  0.5806  0.1583
  329TIP3    H1  951   0.800   4.098   5.765 -0.6289 -1.5758  1.5018
  329TIP3    H2  952   0.881   3.993   5.692  0.7478 -1.1376  2.3589
  330TIP3   OH2  953   5.614   2.680   1.214 -0.2095 -0.0128 -0.5996
  330TIP3    H1  954   5.552   2.661   1.145 -0.3729  0.0457 -0.4682
  330TIP3    H2  955   5.675   2.743   1.174  0.5872 -1.1228 -1.1688
  331TIP3   OH2  956   1.060   6.457   2.642  0.3542 -0.4034 -0.2446
  331TIP3    H1  957   1.123   6.416   2.701  1.0549  1.0113  0.0354
  331TIP3    H2  958   1.099   6.447   2.555 -0.4355 -2.0419 -0.4372
  332TIP3   OH2  959   0.770   4.645   4.648 -0.6261 -0.3177  0.2168
  332TIP3    H1  960   0.798   4.611   4.733  0.6916  0.6666  0.2054
  332TIP3    H2  961   0.793   4.576   4.586  0.8233  0.0104  0.3542
  333TIP3   OH2  962   1.092   1.965   0.323 -0.0301 -0.4338  0.3840
  333TIP3    H1  963   1.076   2.035   0.260  0.7043 -0.8336 -0.2664
  333TIP3    H2  964   1.140   2.007   0.394 -2.4026  0.4206  1.5853
  334TIP3   OH2  965   2.650   1.450   4.255  0.1149  0.1102  0.8255
  334TIP3    H1  966   2.603   1.368   4.240 -0.6015  0.6844 -0.2175
  334TIP3    H2  967   2.726   1.425   4.307  0.6813 -1.4688 -0.6520
  335TIP3   OH2  968   2.509   4.462   2.836 -0.5725  0.1179  0.5050
  335TIP3    H1  969   2.486   4.413   2.757 -0.0273  0.7848 -0.0789
  335TIP3    H2  970   2.566   4.532   2.805 -0.4852  0.4885  1.4731
  336TIP3   OH2  971   4.851   2.633   1.314 -0.2267  0.6568  0.7347
  336TIP3    H1  972   4.865   2.700   1.247  1.6217 -0.1175  0.2815
  336TIP3    H2  973   4.756   2.632   1.328 -0.8340  0.0622 -2.6905
  337TIP3   OH2  974   3.322   4.725   0.344 -0.1347 -0.3918  0.6035
  337TIP3    H1  975   3.374   4.650   0.316  2.1267  0.9018  1.0717
  337TIP3    H2  976   3.320   4.783   0.268 -1.2606 -0.5830  0.4706
  338TIP3   OH2  977   1.777   4.287   2.875  0.1751  0.0185  0.1272
  338TIP3    H1  978   1.704   4.271   2.936 -0.8805 -2.1359 -1.5425
  338TIP3    H2  979   1.853   4.298   2.931 -1.0515 -0.0084  1.8847
  339TIP3   OH2  980   1.403   4.204   0.187  0.5931 -0.1411  0.2765
  339TIP3    H1  981   1.465   4.152   0.136  0.4702 -0.3617  0.3488
  339TIP3    H2  982   1.442   4.292   0.191 -0.0357  0.2482 -1.3424
  340TIP3   OH2  983   0.218   3.716   2.979  0.2987  0.0062 -0.0751
  340TIP3    H1  984   0.163   3.657   2.927  0.7408 -0.3124 -0.1941
  340TIP3    H2  985   0.290   3.660   3.008  0.3672  0.3324  0.3773
  341TIP3   OH2  986   1.831   0.856   0.580 -0.0737 -0.2186  0.5705
  341TIP3    H1  987   1.778   0.800   0.524  0.2541 -0.5821  0.6212
  341TIP3    H2  988   1.814   0.825   0.669 -0.9354  0.6421  0.7220
  342TIP3   OH2  989   3.514   3.214   4.351  0.0928  0.1697 -0.0453
  342TIP3    H1  990   3.583   3.273   4.380  0.6216 -0.5173  0.1099
  342TIP3    H2  991   3.433   3.263   4.366  0.5557  1.1794 -0.6989
  343TIP3   OH2  992   0.705   6.641   3.280 -0.0150  0.0169  0.0309
  343TIP3    H1  993   0.614   6.664   3.262 -0.3397 -1.3068 -0.1059
  343TIP3    H2  994   0.704   6.602   3.367  0.2569 -0.8365 -0.3323
  344TIP3   OH2  995   2.334   2.516   1.894  0.2457  0.2882 -0.0171
  344TIP3    H1  996   2.261   2.477   1.943  0.7243 -1.0444 -0.3217
  344TIP3    H2  997   2.292   2.563   1.822 -0.4094  1.4214  1.0738
  345TIP3   OH2  998   2.158   3.525   5.803 -0.4438  0.2513 -0.9245
  345TIP3    H1  999   2.127   3.543   5.714  0.3612 -1.0664 -1.5065
  345TIP3    H2 1000   2.141   3.431   5.815  2.0338 -0.2472 -0.7902
  346TIP3   OH2 1001   6.751   4.943   4.725  0.4581 -0.5745 -0.0327
  346TIP3    H1 1002   6.803   4.870   4.758  3.3028  0.4915 -1.8509
  346TIP3    H2 1003   6.814   5.014   4.712 -1.9041  1.6894  0.0379
  347TIP3   OH2 1004   0.749   2.692   2.908  0.7666  0.0600 -0.0149
  347TIP3    H1 1005   0.817   2.626   2.916  0.6652 -0.0600 -0.1417
  347TIP3    H2 1006   0.687   2.670   2.977 -1.7170 -2.8606 -2.8420
  348TIP3   OH2 1007   2.651   0.139   0.423 -0.0535  0.4239  0.0263
  348TIP3    H1 1008   2.631   0.113   0.513  1.6733 -0.5978  0.1529
  348TIP3    H2 1009   2.568   0.127   0.376 -0.9325  0.8062  1.4181
  349TIP3   OH2 1010   0.827   4.882   0.748 -0.4274 -0.5241  0.7002
  349TIP3    H1 1011   0.873   4.799   0.757 -1.5077 -1.1293  0.8021
  349TIP3    H2 1012   0.734   4.859   0.750 -0.7878  0.4272 -1.3816
  350TIP3   OH2 1013   2.687   1.379   5.384 -0.5105 -0.2792  0.3475
  350TIP3    H1 1014   2.766   1.432   5.376 -0.6214  0.0866  1.4432
  350TIP3    H2 1015   2.623   1.437   5.425 -0.2584 -1.5746  2.7663
  351TIP3   OH2 1016   4.899   1.522   4.982  0.2449  0.1646  0.0587
  351TIP3    H1 1017   4.841   1.567   4.920 -0.7593 -0.5258  0.4790
  351TIP3    H2 1018   4.909   1.434   4.946 -1.0351 -0.5198  1.2684
  352TIP3   OH2 1019   1.109   3.089   0.281  0.3186  0.2974 -0.2619
  352TIP3    H1 1020   1.083   3.027   0.350 -1.0196  1.4733  0.3488
  352TIP3    H2 1021   1.113   3.035   0.201  2.3081 -1.1764  0.7398
  353TIP3   OH2 1022   3.694   0.644   4.924  0.3016  0.5095 -0.1051
  353TIP3    H1 1023   3.625   0.694   4.881 -0.6701 -1.2275 -0.6449
  353TIP3    H2 1024   3.694   0.676   5.014 -0.9288  0.8150 -0.1969
  354TIP3   OH2 1025   0.868   5.160   3.125  0.0086  0.4529  0.3490
  354TIP3    H1 1026   0.913   5.109   3.193 -0.2183  0.8227  0.7838
  354TIP3    H2 1027   0.873   5.250   3.156  1.1245  0.8215 -0.8084
  355TIP3   OH2 1028   4.794   4.918   2.912 -0.5040  0.7280  0.2061
  355TIP3    H1 1029   4.732   4.856   2.873 -0.0858  0.6144 -0.2901
  355TIP3    H2 1030   4.739   4.980   2.961 -1.2933  2.2326 -2.3709
  356TIP3   OH2 1031   2.444   2.741   5.264 -0.5230 -0.4969  0.1768
  356TIP3    H1 1032   2.434   2.649   5.290 -0.8268 -1.0258 -1.6787
  356TIP3    H2 1033   2.365   2.784   5.299 -1.4511 -1.4001 -0.7264
  357TIP3   OH2 1034   1.525   6.557   2.636  0.5886  0.0322  0.0801
  357TIP3    H1 1035   1.481   6.630   2.591  0.3365 -0.9904 -1.3959
  357TIP3    H2 1036   1.521   6.581   2.729  0.2039  1.7225 -0.3311
  358TIP3   OH2 1037   2.464   3.812   2.173 -0.2070  0.3702 -0.2648
  358TIP3    H1 1038   2.493   3.897   2.207 -0.1954  0.4354 -0.4335
  358TIP3    H2 1039   2.499   3.809   2.084  0.0130  0.0755 -0.1695
  359TIP3   OH2 1040   5.323   3.912   4.793  0.7018  0.3302 -0.1750
  359TIP3    H1 1041   5.327   3.858   4.714 -0.5023 -0.3710  0.2137
  359TIP3    H2 1042   5.400   3.887   4.844  0.6507 -0.3483 -0.4252
  360TIP3   OH2 1043   1.448   5.605   0.031  0.2110  0.2729  0.6170
  360TIP3    H1 1044   1.402   5.637  -0.047  1.4532 -1.5397 -0.9668
  360TIP3    H2 1045   1.465   5.684   0.083 -2.1605  1.3341 -0.0692
  361TIP3   OH2 1046   4.909   1.580   3.260  0.0845 -0.3730 -0.0561
  361TIP3    H1 1047   4.814   1.579   3.245  0.1755 -2.1803 -0.8300
  361TIP3    H2 1048   4.929   1.671   3.281 -2.0726 -0.2483  1.8782
  362TIP3   OH2 1049   5.428   1.082   3.570 -0.2384  0.0196 -0.1689
  362TIP3    H1 1050   5.425   1.031   3.651  1.0985 -0.6799 -0.5401
  362TIP3    H2 1051   5.519   1.112   3.563 -0.6847  1.3794 -0.6332
  363TIP3   OH2 1052   0.600   1.827   2.915  0.0784 -0.2509  0.3746
  363TIP3    H1 1053   0.536   1.861   2.852 -0.6198 -0.8816  0.7362
  363TIP3    H2 1054   0.673   1.799   2.861 -0.5390 -0.8376 -0.1765
  364TIP3   OH2 1055   5.929   4.467   2.583  0.0989  0.0224  0.2491
  364TIP3    H1 1056   5.879   4.403   2.533  1.1145 -0.1143 -0.6241
  364TIP3    H2 1057   6.008   4.483   2.530  1.7257 -0.8975  2.2893
  365TIP3   OH2 1058   6.561   6.558   1.083  0.4108  0.9269  0.1323
  365TIP3    H1 1059   6.592   6.641   1.047 -1.3354  0.5253 -2.6005
  365TIP3    H2 1060   6.494   6.529   1.021 -0.3726 -1.6160  2.0135
  366TIP3   OH2 1061   6.128   6.531   2.090  0.0653  0.9989  0.6546
  366TIP3    H1 1062   6.074   6.528   2.011 -1.2145  2.1111  1.4510
  366TIP3    H2 1063   6.193   6.600   2.072 -0.5290  1.5929  0.7397
  367TIP3   OH2 1064   5.907   2.004   4.357  0.0630  0.6075 -0.2427
  367TIP3    H1 1065   5.989   1.953   4.355 -0.9294 -1.0518 -0.4766
  367TIP3    H2 1066   5.917   2.061   4.432  2.0775  1.5763 -1.1544
  368TIP3   OH2 1067   1.168   3.963   1.174  0.4831  0.2629  0.2682
  368TIP3    H1 1068   1.236   3.947   1.109 -0.1179  1.3645 -0.6722
  368TIP3    H2 1069   1.141   3.876   1.203 -1.0734 -0.4522 -2.9057
  369TIP3   OH2 1070   7.106   2.553   3.415 -0.0421 -0.2089  0.1847
  369TIP3    H1 1071   7.183   2.531   3.468 -1.3003 -1.8672  1.4269
  369TIP3    H2 1072   7.142   2.596   3.338  2.2472 -1.9799  0.1476
  370TIP3   OH2 1073   0.782   1.440   5.673 -0.1623 -0.3513  0.5378
  370TIP3    H1 1074   0.798   1.349   5.649  0.4597 -0.2232  0.4475
  370TIP3    H2 1075   0.862   1.486   5.648  0.1026 -0.0288  1.8734
  371TIP3   OH2 1076   6.702   0.875   0.323 -0.0177 -0.0963  0.6148
  371TIP3    H1 1077   6.717   0.945   0.387 -0.3135 -0.3411  0.9581
  371TIP3    H2 1078   6.769   0.810   0.343  1.0117  0.5929 -0.4591
  372TIP3   OH2 1079   6.092   6.409   1.212 -0.1260 -0.1321 -0.2851
  372TIP3    H1 1080   6.086   6.440   1.121 -0.7357  1.2864  0.1993
  372TIP3    H2 1081   6.063   6.318   1.209 -0.1529 -0.0965 -1.5083
  373TIP3   OH2 1082   1.639   0.197   4.595  0.3473 -0.4770 -0.5682
  373TIP3    H1 1083   1.581   0.121   4.592 -0.5943  0.2508 -1.5622
  373TIP3    H2 1084   1.654   0.211   4.688  0.2343 -1.6489 -0.3566
  374TIP3   OH2 1085   1.388   5.758   4.468  0.7471 -0.3734 -0.2395
  374TIP3    H1 1086   1.415   5.667   4.457  0.7746 -0.4400  0.3310
  374TIP3    H2 1087   1.320   5.754   4.536  1.5645  0.1634  0.6209
  375TIP3   OH2 1088   6.147   0.555   2.956  0.1020  0.0872 -0.4126
  375TIP3    H1 1089   6.061   0.565   2.915  0.2681 -0.2918 -0.8535
  375TIP3    H2 1090   6.141   0.472   3.003  0.5933 -0.4865 -1.3534
  376TIP3   OH2 1091   5.275   0.409   0.333  0.2523  0.0641  1.0985
  376TIP3    H1 1092   5.254   0.440   0.421  0.5353  1.7741  0.6001
  376TIP3    H2 1093   5.367   0.384   0.338  0.4556  0.7918  1.1460
  377TIP3   OH2 1094   4.284   5.234   0.350  0.7618 -0.9069  0.1739
  377TIP3    H1 1095   4.275   5.218   0.256 -2.1881  1.2033 -0.0358
  377TIP3    H2 1096   4.352   5.302   0.355  1.2514 -1.3371 -0.3610
  378TIP3   OH2 1097   2.183   4.429   4.252  0.7512  0.1018 -0.3826
  378TIP3    H1 1098   2.199   4.342   4.289 -0.8076  0.1988  0.6234
  378TIP3    H2 1099   2.266   4.475   4.260  0.7981 -0.3047  1.9082
  379TIP3   OH2 1100   6.736   2.078   0.154  0.0263 -0.2792  0.4241
  379TIP3    H1 1101   6.642   2.092   0.137  0.2790  2.6856  0.9495
  379TIP3    H2 1102   6.780   2.127   0.085  1.1846 -0.2683  1.1577
  380TIP3   OH2 1103   5.198   0.875   0.447  0.1528 -0.3679  0.0899
  380TIP3    H1 1104   5.186   0.969   0.451  0.9613 -0.2655  0.1912
  380TIP3    H2 1105   5.234   0.851   0.532 -0.0599 -0.7707  0.0696
  381TIP3   OH2 1106   6.522   0.124   5.647 -0.5630 -0.2222 -0.7532
  381TIP3    H1 1107   6.478   0.192   5.597 -3.6922 -1.5155  0.0203
  381TIP3    H2 1108   6.571   0.074   5.582 -1.3662  0.4398 -1.8983
  382TIP3   OH2 1109   1.514   6.638   5.532 -0.5891  0.1249  0.1367
  382TIP3    H1 1110   1.534   6.700   5.602  1.5204  1.0739 -1.2239
  382TIP3    H2 1111   1.583   6.573   5.537  0.3478  0.8900 -1.7785
  383TIP3   OH2 1112   2.568   0.795   4.422 -0.4484 -0.9480 -0.1656
  383TIP3    H1 1113   2.546   0.872   4.368  0.7751 -0.6311 -0.2369
  383TIP3    H2 1114   2.544   0.721   4.367  0.4204 -0.6230 -1.0132
  384TIP3   OH2 1115   7.173   1.725   4.580 -0.1312  0.7818 -0.0731
  384TIP3    H1 1116   7.153   1.774   4.660  2.3129  0.3184  0.9043
  384TIP3    H2 1117   7.124   1.644   4.589  1.0304  0.2092  1.6070
  385TIP3   OH2 1118   6.885   5.652   0.027  0.1912  0.0187  0.0472
  385TIP3    H1 1119   6.809   5.597   0.008  0.4978  0.1411 -1.7132
  385TIP3    H2 1120   6.848   5.738   0.045 -0.2231 -0.4817  1.8614
  386TIP3   OH2 1121   3.381   4.645   5.655  0.3275  0.6111  0.3998
  386TIP3    H1 1122   3.467   4.663   5.693  0.5506  1.3683 -0.4240
  386TIP3    H2 1123   3.336   4.730   5.658  0.0433  0.4865 -0.2368
  387TIP3   OH2 1124   3.485   5.821   5.586  0.3910 -0.2207 -0.7192
  387TIP3    H1 1125   3.390   5.815   5.599  0.0771 -0.0986 -2.6637
  387TIP3    H2 1126   3.510   5.901   5.631 -0.5604  0.1228 -0.7661
  388TIP3   OH2 1127   4.587   4.357   5.099  0.1847 -0.0401  0.0856
  388TIP3    H1 1128   4.621   4.306   5.173  0.7469 -1.0105 -0.8068
  388TIP3    H2 1129   4.666   4.390   5.055  0.0192 -1.6832 -1.5811
  389TIP3   OH2 1130   4.204   1.707   0.597 -0.1918 -0.1427  0.3486
  389TIP3    H1 1131   4.272   1.768   0.567  2.2212 -2.0995  1.4157
  389TIP3    H2 1132   4.229   1.623   0.558 -2.4967 -0.8024  0.1755
  390TIP3   OH2 1133   1.284   1.757   0.743 -0.0213  0.3080  0.3890
  390TIP3    H1 1134   1.217   1.825   0.736 -1.5108 -0.9867  1.4125
  390TIP3    H2 1135   1.328   1.775   0.826 -0.1121  0.2832  0.4425
  391TIP3   OH2 1136   1.248   2.847   1.908  0.1895 -0.2960 -0.1756
  391TIP3    H1 1137   1.243   2.941   1.890  0.1997 -0.7710 -3.1580
  391TIP3    H2 1138   1.335   2.821   1.879 -0.0302 -1.3319  0.0511
  392TIP3   OH2 1139   5.051   2.869   2.925 -0.4256 -0.2087 -0.7335
  392TIP3    H1 1140   5.039   2.961   2.948  0.0367 -0.1887 -0.5638
  392TIP3    H2 1141   5.041   2.822   3.007  0.3457 -0.2165 -0.6371
  393TIP3   OH2 1142   3.938   5.663   2.328 -0.0812 -0.2012 -0.7087
  393TIP3    H1 1143   3.942   5.647   2.234 -1.2364 -0.5355 -0.7047
  393TIP3    H2 1144   3.956   5.757   2.337 -0.3164 -0.0997 -1.2890
  394TIP3   OH2 1145   4.110   2.373   1.497 -0.5397 -0.5979 -0.5955
  394TIP3    H1 1146   4.107   2.362   1.592  0.8879  0.0484 -0.4502
  394TIP3    H2 1147   4.127   2.466   1.484  0.3315 -0.8581 -1.4458
  395TIP3   OH2 1148   0.898   4.336   0.270  0.1284 -0.7889  0.2013
  395TIP3    H1 1149   0.843   4.312   0.196 -0.4421 -0.5727  0.5471
  395TIP3    H2 1150   0.982   4.294   0.253 -0.4293 -1.8829  0.1172
  396TIP3   OH2 1151   5.181   5.880   1.175 -0.4457 -0.1033  0.3979
  396TIP3    H1 1152   5.219   5.813   1.232  0.2339  1.1122  1.4139
  396TIP3    H2 1153   5.189   5.844   1.087 -0.5202 -1.5548  0.9570
  397TIP3   OH2 1154   2.174   3.458   2.484 -0.2503  0.1992 -0.0880
  397TIP3    H1 1155   2.179   3.395   2.412 -0.1921 -1.0017  0.9362
  397TIP3    H2 1156   2.173   3.405   2.563 -1.6896  1.4275  0.7863
  398TIP3   OH2 1157   5.600   4.899   0.837 -0.2363 -0.0500 -0.2108
  398TIP3    H1 1158   5.541   4.825   0.843  1.2303 -1.2782 -0.1988
  398TIP3    H2 1159   5.603   4.936   0.925  1.0893 -1.6975  0.4838
  399TIP3   OH2 1160   1.347   0.078   5.108  0.3085  0.7251 -0.2191
  399TIP3    H1 1161   1.254   0.073   5.129  0.4254 -1.6893  0.0200
  399TIP3    H2 1162   1.391   0.073   5.193  0.6752  1.8105 -0.3341
  400TIP3   OH2 1163   1.710   1.777   0.817 -0.0024 -0.2011 -0.0358
  400TIP3    H1 1164   1.683   1.823   0.737  0.8234 -0.5623 -0.5399
  400TIP3    H2 1165   1.717   1.685   0.790  3.0439  0.0105 -0.3593
  401TIP3   OH2 1166   2.554   1.234   3.051 -0.0104 -0.2054 -0.2095
  401TIP3    H1 1167   2.618   1.163   3.057  0.1871  0.1022  2.9275
  401TIP3    H2 1168   2.596   1.300   2.996  0.2747 -1.9598 -2.2170
  402TIP3   OH2 1169   1.638   4.924   1.681 -0.2414 -0.3312  0.1295
  402TIP3    H1 1170   1.713   4.883   1.638 -1.0864  0.1329 -1.8923
  402TIP3    H2 1171   1.634   5.012   1.646 -1.6247 -0.2844  0.3284
  403TIP3   OH2 1172   2.725   3.043   1.397  0.3591  0.3930 -0.1517
  403TIP3    H1 1173   2.664   2.980   1.358  0.6562  0.2664 -0.4202
  403TIP3    H2 1174   2.803   2.991   1.419  1.0645  0.8552 -1.4351
  404TIP3   OH2 1175   1.953   2.848   5.104  0.5001 -0.0293  0.4534
  404TIP3    H1 1176   1.898   2.826   5.179 -1.0595  1.3124 -0.2399
  404TIP3    H2 1177   1.897   2.899   5.047  1.6357 -1.0285 -1.6808
  405TIP3   OH2 1178   0.156   3.574   2.602  0.7882 -0.2614  0.2353
  405TIP3    H1 1179   0.088   3.535   2.548  0.4353 -0.9889  1.1844
  405TIP3    H2 1180   0.169   3.512   2.674  4.2049 -1.4298 -1.1726
  406TIP3   OH2 1181   4.946   5.696   4.159  0.8136 -0.2172  0.2753
  406TIP3    H1 1182   4.902   5.759   4.102  2.4064 -0.5060 -1.3862
  406TIP3    H2 1183   4.882   5.676   4.227 -1.3114 -0.0059 -1.5386
  407TIP3   OH2 1184   6.281   1.816   3.131  0.5208  0.3433 -0.3237
  407TIP3    H1 1185   6.345   1.747   3.111  0.0180 -0.8086  1.7898
  407TIP3    H2 1186   6.327   1.873   3.192 -0.9532 -1.5937  2.8292
  408TIP3   OH2 1187   5.574   0.825   5.288  0.2438  0.0948  0.4165
  408TIP3    H1 1188   5.533   0.851   5.206  2.8369  0.6948 -0.8038
  408TIP3    H2 1189   5.616   0.741   5.270 -0.1431 -0.3593  1.5087
  409TIP3   OH2 1190   1.859   1.008   2.223 -0.0781  0.2319 -0.1396
  409TIP3    H1 1191   1.795   0.958   2.172 -0.0457  0.2764 -0.2240
  409TIP3    H2 1192   1.926   0.944   2.247 -0.5646  0.0082  0.6388
  410TIP3   OH2 1193   4.408   6.520   5.101  0.3510 -0.2065 -0.1857
  410TIP3    H1 1194   4.321   6.520   5.062  0.0424 -0.2031  0.4942
  410TIP3    H2 1195   4.393   6.535   5.194  1.1737  1.3226 -0.2744
  411TIP3   OH2 1196   2.355   0.302   4.642 -0.2832 -0.2546  0.0593
  411TIP3    H1 1197   2.288   0.236   4.624  0.2657 -1.0586  0.9083
  411TIP3    H2 1198   2.308   0.374   4.684 -1.2543  0.8284 -2.6724
  412TIP3   OH2 1199   1.477   2.968   3.374  0.2695  0.4074  0.4238
  412TIP3    H1 1200   1.522   2.892   3.412 -0.2835 -1.3036 -2.0852
  412TIP3    H2 1201   1.547   3.019   3.333  0.2333 -1.3921 -2.0663
  413TIP3   OH2 1202   3.506   3.365   5.347  0.0581 -0.2491 -0.0660
  413TIP3    H1 1203   3.528   3.446   5.394 -1.2669  0.2186 -0.2098
  413TIP3    H2 1204   3.591   3.326   5.326  0.6972  0.4154  1.1761
  414TIP3   OH2 1205   4.196   1.789   5.046  0.0751  0.1678 -0.2608
  414TIP3    H1 1206   4.280   1.829   5.071  0.0197  0.2025 -0.1298
  414TIP3    H2 1207   4.191   1.802   4.951 -0.4616  1.4853 -0.0763
  415TIP3   OH2 1208   0.581   1.734   4.631 -0.4130  0.3538 -0.7195
  415TIP3    H1 1209   0.548   1.645   4.620 -0.1077  0.2281 -0.6180
  415TIP3    H2 1210   0.526   1.788   4.573 -0.8633  0.1619 -0.4773
  416TIP3   OH2 1211   2.306   4.082   4.918 -0.1119  0.4520 -0.0663
  416TIP3    H1 1212   2.282   4.141   4.989 -1.4202  0.0359 -0.1279
  416TIP3    H2 1213   2.292   4.134   4.838  1.2100  0.8699 -0.0386
  417TIP3   OH2 1214   1.878   3.660   3.241 -0.0263 -0.8283  0.4000
  417TIP3    H1 1215   1.805   3.712   3.275  0.0605 -1.3281  1.4015
  417TIP3    H2 1216   1.854   3.641   3.151 -0.5582  0.0379  0.3459
  418TIP3   OH2 1217   0.141   1.668   0.278  0.0282 -0.1032  0.3784
  418TIP3    H1 1218   0.158   1.644   0.369  2.0567  1.3675  0.4525
  418TIP3    H2 1219   0.070   1.732   0.284  0.4600  0.3333  0.9896
  419TIP3   OH2 1220   4.771   1.611   2.848 -0.1456 -0.2446 -0.3974
  419TIP3    H1 1221   4.770   1.536   2.789  0.1494  0.6614 -1.6045
  419TIP3    H2 1222   4.838   1.591   2.913  0.3300 -0.7766 -1.0449
  420TIP3   OH2 1223   5.626   3.259   2.622 -0.5400 -0.4936 -0.1718
  420TIP3    H1 1224   5.681   3.302   2.556 -0.7631  0.2273  0.1052
  420TIP3    H2 1225   5.542   3.303   2.615 -0.1188  0.6660  1.6611
  421TIP3   OH2 1226   3.417   4.458   0.413 -0.0408  1.0470  0.0788
  421TIP3    H1 1227   3.324   4.468   0.430 -0.0103  0.8472  0.3666
  421TIP3    H2 1228   3.460   4.478   0.496  0.2227  1.8973 -0.2539
  422TIP3   OH2 1229   6.418   4.301   2.438 -0.0345 -0.2920 -0.1130
  422TIP3    H1 1230   6.436   4.338   2.524  0.2147  1.1936 -0.7670
  422TIP3    H2 1231   6.412   4.377   2.380  1.5773 -1.3312 -1.7441
  423TIP3   OH2 1232   0.451   4.956   4.893  0.2517  0.3103  0.3646
  423TIP3    H1 1233   0.509   4.914   4.829  0.4828 -1.8330  1.8863
  423TIP3    H2 1234   0.415   5.031   4.846  0.6206 -0.9833 -2.1933
  424TIP3   OH2 1235   6.977   5.431   1.979 -0.6482  0.3745  0.1376
  424TIP3    H1 1236   6.904   5.452   2.037 -0.4061 -1.9969  1.4602
  424TIP3    H2 1237   6.985   5.335   1.984  2.2702  0.4892 -0.2494
  425TIP3   OH2 1238   3.585   0.173   0.643 -0.2784  0.3757 -0.1686
  425TIP3    H1 1239   3.526   0.152   0.571  0.3479 -0.4827 -0.4439
  425TIP3    H2 1240   3.568   0.107   0.710  1.5066 -0.9268 -0.9290
  426TIP3   OH2 1241   1.573   3.495   1.969  0.0845 -0.1409  0.0504
  426TIP3    H1 1242   1.581   3.461   1.880 -0.6708  1.1624 -0.5317
  426TIP3    H2 1243   1.487   3.464   1.999  1.3613 -2.7889  1.3517
  427TIP3   OH2 1244   5.996   4.571   5.656  0.1623 -0.0317  0.0190
  427TIP3    H1 1245   5.910   4.535   5.635  0.9095 -0.9905 -1.6359
  427TIP3    H2 1246   5.978   4.657   5.693 -1.4729  0.1802 -1.1418
  428TIP3   OH2 1247   5.205   5.659   4.062  0.5359 -0.4934  0.9561
  428TIP3    H1 1248   5.228   5.742   4.022  1.1366  0.2370  2.7141
  428TIP3    H2 1249   5.120   5.674   4.104 -0.5692 -1.5347 -0.7658
  429TIP3   OH2 1250   7.096   2.157  -0.023 -0.0097 -0.1781  0.6177
  429TIP3    H1 1251   7.118   2.180   0.068 -2.0602  0.3138  1.0305
  429TIP3    H2 1252   7.009   2.195  -0.037 -0.0649 -0.9309 -1.3052
  430TIP3   OH2 1253   6.781   3.026   3.890 -0.2644 -0.1934  0.1719
  430TIP3    H1 1254   6.719   2.961   3.924 -0.7428 -0.3045 -0.8799
  430TIP3    H2 1255   6.729   3.081   3.832  0.1936  0.9939  0.8714
  431TIP3   OH2 1256   1.681   2.191   3.820 -0.3324 -0.4659 -0.1315
  431TIP3    H1 1257   1.688   2.257   3.750  1.1493 -0.2306  0.2104
  431TIP3    H2 1258   1.737   2.120   3.791  1.2334  0.1248  1.3350
  432TIP3   OH2 1259   5.575   0.736   4.701 -0.4165 -0.2423 -0.1617
  432TIP3    H1 1260   5.611   0.755   4.614 -0.1946  0.7971  0.1480
  432TIP3    H2 1261   5.542   0.646   4.694  0.2704 -0.4384 -1.0984
  433TIP3   OH2 1262   5.121   4.923   1.027 -0.3943 -0.4312 -0.3951
  433TIP3    H1 1263   5.165   4.929   0.943 -3.2743 -0.8998 -2.0845
  433TIP3    H2 1264   5.096   4.830   1.035  2.7576 -1.2075  2.7245
  434TIP3   OH2 1265   1.402   0.322   1.417  0.6179 -0.3827  0.5688
  434TIP3    H1 1266   1.416   0.248   1.476  0.1497 -0.4141  0.6386
  434TIP3    H2 1267   1.431   0.289   1.332 -1.7940 -1.4780  0.0927
  435TIP3   OH2 1268   2.878   1.200   2.779  0.6248 -0.0927 -0.1868
  435TIP3    H1 1269   2.830   1.145   2.717  0.1959 -0.6662  0.6315
  435TIP3    H2 1270   2.934   1.138   2.828 -1.9106 -0.3514  2.7080
  436TIP3   OH2 1271   5.308   2.168   4.388 -0.3448 -1.1692  0.3559
  436TIP3    H1 1272   5.385   2.116   4.366 -0.6681 -1.8493  0.7987
  436TIP3    H2 1273   5.285   2.141   4.477  0.6604  1.1828  1.4167
  437TIP3   OH2 1274   3.318   6.052   3.750  0.1041 -0.0714 -0.5402
  437TIP3    H1 1275   3.387   6.105   3.789 -1.2084  1.2250  0.1080
  437TIP3    H2 1276   3.238   6.078   3.795 -0.6683 -2.4706 -0.3385
  438TIP3   OH2 1277   5.357   5.196   1.247 -0.3780 -1.0102  0.6289
  438TIP3    H1 1278   5.278   5.238   1.281 -0.2810  1.9667 -2.3495
  438TIP3    H2 1279   5.418   5.196   1.322 -1.5812  1.1672  1.7102
  439TIP3   OH2 1280   4.873   3.743   2.762  0.4142 -0.2545 -0.1988
  439TIP3    H1 1281   4.900   3.807   2.828  1.3314 -0.1974 -0.6127
  439TIP3    H2 1282   4.879   3.659   2.807  0.7526 -0.1888 -0.1126
  440TIP3   OH2 1283   4.102   5.358   0.793 -0.2390  0.0392 -0.0872
  440TIP3    H1 1284   4.151   5.434   0.825 -1.0094  0.5527 -0.1325
  440TIP3    H2 1285   4.146   5.334   0.711  0.8634 -0.4185  0.5994
  441TIP3   OH2 1286   1.681   2.073   0.699  0.0472  0.1240  0.1089
  441TIP3    H1 1287   1.705   2.159   0.665  0.5795 -0.6119 -1.4475
  441TIP3    H2 1288   1.715   2.073   0.789  2.3930  0.6200 -0.6900
  442TIP3   OH2 1289   0.022   3.638   5.353  0.0800 -0.2330  0.4756
  442TIP3    H1 1290   0.074   3.633   5.433  1.5366  0.7866 -0.3568
  442TIP3    H2 1291  -0.019   3.724   5.356  1.5800  0.5760 -0.6618
  443TIP3   OH2 1292   2.932   5.782   2.637 -0.2692 -0.2565 -0.1872
  443TIP3    H1 1293   2.982   5.746   2.710 -0.4042 -0.9032 -0.4085
  443TIP3    H2 1294   2.936   5.877   2.650  2.1175 -0.1900 -0.9423
  444TIP3   OH2 1295   1.541   1.052   2.465 -0.5500  0.8423 -0.3428
  444TIP3    H1 1296   1.608   1.034   2.531 -2.1949  3.8219  2.3764
  444TIP3    H2 1297   1.492   0.970   2.457  0.5199  0.0130  1.0889
  445TIP3   OH2 1298   4.959   3.088   5.717 -0.6641 -0.2220  0.0520
  445TIP3    H1 1299   4.971   3.164   5.661 -1.6500 -0.3247 -0.3260
  445TIP3    H2 1300   5.036   3.087   5.774 -0.2898  0.6323 -0.4252
  446TIP3   OH2 1301   6.763   1.303   2.784 -0.4099 -0.9695 -0.2394
  446TIP3    H1 1302   6.720   1.292   2.699 -1.2809  2.0374 -0.2953
  446TIP3    H2 1303   6.837   1.361   2.766 -1.0673  0.3608  1.1208
  447TIP3   OH2 1304   3.150   0.868   0.625  0.2464 -0.9551 -0.0445
  447TIP3    H1 1305   3.097   0.918   0.563 -1.2136  1.4133  2.9036
  447TIP3    H2 1306   3.094   0.797   0.654  0.9077 -2.0224 -1.2307
  448TIP3   OH2 1307   2.218   1.259   4.145  0.2003 -0.1437 -0.1617
  448TIP3    H1 1308   2.125   1.276   4.138  0.5980  1.4681 -2.2199
  448TIP3    H2 1309   2.225   1.199   4.219 -2.4862 -0.6559 -0.2182
  449TIP3   OH2 1310   4.246   0.775   0.288  0.4165 -0.2727  0.4526
  449TIP3    H1 1311   4.217   0.831   0.216  0.2235 -0.9316  0.0030
  449TIP3    H2 1312   4.212   0.817   0.367 -0.9034 -0.4713  0.0201
  450TIP3   OH2 1313   0.452   3.002   3.089 -0.1618  0.0759  0.0364
  450TIP3    H1 1314   0.474   3.059   3.162 -0.1256 -0.2752  0.3048
  450TIP3    H2 1315   0.433   2.917   3.130 -0.5107 -0.0247 -0.3259
  451TIP3   OH2 1316   1.766   1.637   1.912 -0.3915  0.5520  0.1377
  451TIP3    H1 1317   1.846   1.687   1.930 -0.7076  0.8195  0.8629
  451TIP3    H2 1318   1.736   1.671   1.828 -1.1650  2.3862  1.0931
  452TIP3   OH2 1319   2.622   5.332   1.894 -0.1209  0.0963  0.1783
  452TIP3    H1 1320   2.565   5.340   1.970  0.2274 -2.9197  0.8738
  452TIP3    H2 1321   2.709   5.318   1.931  0.7118  2.0629 -0.8651
  453TIP3   OH2 1322   6.259   2.962   4.532 -0.4348 -0.1421  0.1760
  453TIP3    H1 1323   6.250   2.888   4.472 -0.2087 -1.3563  1.5804
  453TIP3    H2 1324   6.348   2.994   4.517  0.0245 -1.1639  0.6445
  454TIP3   OH2 1325   5.576   5.403   0.065 -0.4256 -0.2813  0.0393
  454TIP3    H1 1326   5.669   5.400   0.088 -0.5319 -0.6585  0.4281
  454TIP3    H2 1327   5.550   5.312   0.059 -0.2907 -0.2298 -2.0793
  455TIP3   OH2 1328   4.192   0.504   1.546  0.3351 -0.3017 -0.3250
  455TIP3    H1 1329   4.262   0.443   1.523  0.1117  0.1972 -2.5321
  455TIP3    H2 1330   4.231   0.561   1.612  1.0676 -1.7864  0.5562
  456TIP3   OH2 1331   3.357   0.860   5.855  0.0074 -0.3410 -0.4838
  456TIP3    H1 1332   3.407   0.781   5.836 -1.8424 -1.7774  0.2435
  456TIP3    H2 1333   3.371   0.874   5.949 -0.6429 -0.5416 -0.3545
  457TIP3   OH2 1334   4.708   3.223   1.433 -0.0356  0.2070 -0.4288
  457TIP3    H1 1335   4.786   3.196   1.385 -0.0395  0.5336 -0.6163
  457TIP3    H2 1336   4.718   3.184   1.520 -0.3085 -0.8939 -0.8705
  458TIP3   OH2 1337   3.696   3.151   3.871 -0.3756  0.0523  0.5411
  458TIP3    H1 1338   3.768   3.213   3.878 -1.4759  1.4733 -0.2084
  458TIP3    H2 1339   3.731   3.080   3.816  0.0819  1.3118 -0.8583
  459TIP3   OH2 1340   4.154   6.462   2.182 -0.2383  0.0929 -0.0564
  459TIP3    H1 1341   4.117   6.520   2.248 -0.5697  0.4921 -0.5800
  459TIP3    H2 1342   4.237   6.503   2.158 -0.1644  0.0008  0.0396
  460TIP3   OH2 1343   6.311   2.904   0.459 -0.5091 -0.3027  0.1743
  460TIP3    H1 1344   6.284   2.816   0.431 -0.3875 -0.5920  0.9433
  460TIP3    H2 1345   6.249   2.928   0.527 -0.1547 -0.0580  0.4148
  461TIP3   OH2 1346   5.084   0.086   5.822  0.1779  0.1339 -0.6313
  461TIP3    H1 1347   5.113   0.023   5.888  1.0370  0.5819 -0.5571
  461TIP3    H2 1348   5.134   0.166   5.841  0.0088  0.4579 -1.4612
  462TIP3   OH2 1349   4.472   2.551   3.885 -0.3598 -1.0066 -0.4025
  462TIP3    H1 1350   4.460   2.591   3.971 -1.3391 -2.8666  0.3873
  462TIP3    H2 1351   4.443   2.619   3.824 -0.7152 -0.0335  0.7879
  463TIP3   OH2 1352   6.801   3.965   5.802 -0.1032  0.4373  0.0399
  463TIP3    H1 1353   6.838   3.984   5.889  0.0522  0.4668 -0.0321
  463TIP3    H2 1354   6.721   4.017   5.799 -0.9941 -0.8281  0.8095
  464TIP3   OH2 1355   4.513   5.633   0.894  0.1099 -0.0539 -0.5867
  464TIP3    H1 1356   4.560   5.716   0.881 -3.1613  1.8397 -1.5797
  464TIP3    H2 1357   4.541   5.578   0.821  2.2580  0.1507  0.0178
  465TIP3   OH2 1358   6.949   6.192   2.153 -0.0961 -0.6463 -0.6125
  465TIP3    H1 1359   7.004   6.115   2.169 -0.1146 -0.5933 -0.2729
  465TIP3    H2 1360   7.009   6.266   2.162  0.1781 -0.6693 -2.1400
  466TIP3   OH2 1361   1.190   6.575   5.475 -0.3598  0.5643  0.5079
  466TIP3    H1 1362   1.263   6.612   5.525 -0.5583  1.5782  0.0555
  466TIP3    H2 1363   1.112   6.618   5.510 -0.6976 -0.0891  0.5847
  467TIP3   OH2 1364   6.401   6.236   2.996  0.4297  0.4151  0.5867
  467TIP3    H1 1365   6.399   6.159   3.053  3.5621  0.7562  1.3262
  467TIP3    H2 1366   6.470   6.217   2.932  1.1775  2.5161  0.6961
  468TIP3   OH2 1367   6.504   5.820   3.952  0.1558 -0.3976  0.4549
  468TIP3    H1 1368   6.529   5.901   3.908  1.2138 -1.4448 -0.9710
  468TIP3    H2 1369   6.409   5.820   3.951  0.1431 -0.0858 -1.3552
  469TIP3   OH2 1370   4.880   3.497   1.557 -0.1745  0.0544  0.0838
  469TIP3    H1 1371   4.888   3.590   1.575 -0.6194  0.3827 -1.2865
  469TIP3    H2 1372   4.851   3.492   1.466 -1.2224 -1.3983  0.4547
  470TIP3   OH2 1373   6.953   1.919   0.153  0.0439 -0.0993  0.1649
  470TIP3    H1 1374   6.951   1.933   0.059  2.3229  2.0476  0.3337
  470TIP3    H2 1375   6.868   1.950   0.184 -0.5817 -0.4867 -1.0976
  471TIP3   OH2 1376   5.000   2.740   3.196 -0.0397 -0.1278  0.4169
  471TIP3    H1 1377   5.064   2.741   3.267  0.3692 -1.1478  0.0736
  471TIP3    H2 1378   4.918   2.714   3.238 -0.2110  1.0142  0.8255
  472TIP3   OH2 1379   2.143   4.086   2.641  0.3563  0.1077 -0.3326
  472TIP3    H1 1380   2.206   4.027   2.682  0.5630  0.6914  0.2097
  472TIP3    H2 1381   2.187   4.171   2.639 -0.3044  0.4619 -0.2115
  473TIP3   OH2 1382   5.761   2.007   2.604  0.2236  0.0700 -0.1391
  473TIP3    H1 1383   5.784   1.980   2.693 -0.5049  1.6485  0.5630
  473TIP3    H2 1384   5.838   1.984   2.552 -0.3575 -3.4043  0.2850
  474TIP3   OH2 1385   3.006   6.073   0.323  0.1097 -0.2090 -0.0294
  474TIP3    H1 1386   2.949   6.147   0.300 -0.5404 -0.1412  1.6939
  474TIP3    H2 1387   2.973   6.000   0.270 -1.3522 -0.0627  0.6372
  475TIP3   OH2 1388   1.134   5.256   4.017 -0.9145  0.3572 -0.1197
  475TIP3    H1 1389   1.040   5.269   4.007 -0.9385  0.3183  0.0502
  475TIP3    H2 1390   1.173   5.339   3.990 -1.0578  0.7452  0.8298
  476TIP3   OH2 1391   6.723   4.652   2.326  0.8262  0.1103  0.1977
  476TIP3    H1 1392   6.807   4.606   2.322  0.8249  0.1909 -1.1723
  476TIP3    H2 1393   6.742   4.739   2.289  0.3614  0.4974  0.8468
  477TIP3   OH2 1394   4.428   3.407   2.395 -0.3608  0.4334  0.5442
  477TIP3    H1 1395   4.451   3.328   2.348 -0.5522  0.4290  0.4553
  477TIP3    H2 1396   4.356   3.445   2.345  1.0886  1.7923 -0.6055
  478TIP3   OH2 1397   0.718   4.005   5.104 -0.3930  0.1599 -0.3396
  478TIP3    H1 1398   0.663   4.074   5.140 -0.6996  0.3534 -1.1539
  478TIP3    H2 1399   0.765   4.046   5.032  0.7454 -0.0389  0.2635
  479TIP3   OH2 1400   3.858   3.334   1.021  0.3791  0.3239  0.6669
  479TIP3    H1 1401   3.945   3.300   1.042  1.5413 -0.3625 -3.9965
  479TIP3    H2 1402   3.798   3.264   1.045  1.5851 -0.7856  0.5516
  480TIP3   OH2 1403   7.128   6.228   3.640 -0.1019 -0.4169 -0.1477
  480TIP3    H1 1404   7.047   6.189   3.609 -0.1564 -1.3574  1.1015
  480TIP3    H2 1405   7.172   6.158   3.688 -0.2776  1.0319  2.3365
  481TIP3   OH2 1406   2.275   3.927   1.740 -0.0874  0.1368 -0.1445
  481TIP3    H1 1407   2.349   3.890   1.692  0.4683 -1.2380  1.6736
  481TIP3    H2 1408   2.211   3.856   1.743 -0.6840  0.6721 -0.0120
  482TIP3   OH2 1409   0.603   1.964   3.680  0.4586  0.8373 -0.5180
  482TIP3    H1 1410   0.684   1.986   3.634  0.4999  0.2258 -0.7414
  482TIP3    H2 1411   0.533   1.988   3.620  0.5099  0.1425 -0.8680
  483TIP3   OH2 1412   6.032   1.287   0.461 -0.3133  0.3795 -0.5914
  483TIP3    H1 1413   5.942   1.256   0.475 -0.3897 -0.4920 -2.5841
  483TIP3    H2 1414   6.036   1.371   0.507 -1.6833 -0.2436  0.7417
  484TIP3   OH2 1415   3.687   4.376   4.568 -0.5657 -0.6093  0.1681
  484TIP3    H1 1416   3.639   4.358   4.649  0.1152 -0.0833  0.6991
  484TIP3    H2 1417   3.663   4.465   4.545  2.5276  0.9038  2.1996
  485TIP3   OH2 1418   1.224   2.902   5.302  0.1513  0.0634  0.3441
  485TIP3    H1 1419   1.236   2.878   5.210  0.1735 -0.7485  0.5461
  485TIP3    H2 1420   1.160   2.972   5.301  0.8621  0.7208 -0.3581
  486TIP3   OH2 1421   7.049   3.652   0.593 -0.4211 -0.1964 -0.1729
  486TIP3    H1 1422   6.964   3.695   0.588  0.7739  2.4134  0.1581
  486TIP3    H2 1423   7.112   3.724   0.586  1.7636 -2.0292 -0.3572
  487TIP3   OH2 1424   6.900   5.180   0.379  0.1144  0.3927 -0.1264
  487TIP3    H1 1425   6.888   5.164   0.473 -1.6311 -0.8573 -0.5181
  487TIP3    H2 1426   6.812   5.174   0.342  0.6300  1.8762 -1.7348
  488TIP3   OH2 1427   4.242   6.138   0.030 -0.0589  0.5563 -0.0899
  488TIP3    H1 1428   4.291   6.218   0.046  0.2112  0.4887 -0.5782
  488TIP3    H2 1429   4.235   6.096   0.116 -0.0735  1.0258  0.1404
  489TIP3   OH2 1430   4.712   5.274   4.751  0.3246 -0.2766  0.5055
  489TIP3    H1 1431   4.781   5.208   4.748  0.3308 -0.2773  0.6729
  489TIP3    H2 1432   4.703   5.296   4.844 -0.8944 -1.3197  0.6560
  490TIP3   OH2 1433   6.992   6.491   2.839 -0.5472  0.1931 -0.1034
  490TIP3    H1 1434   7.010   6.427   2.771 -1.6355  0.8113 -0.9990
  490TIP3    H2 1435   6.948   6.563   2.794  0.8274  1.6868  0.8278
  491TIP3   OH2 1436   3.404   2.622   5.103 -0.2530 -0.1577 -0.2472
  491TIP3    H1 1437   3.455   2.662   5.032 -0.0754 -1.0944 -0.6664
  491TIP3    H2 1438   3.467   2.572   5.153 -0.8452 -2.0812 -1.3081
  492TIP3   OH2 1439   2.389   2.622   2.364  0.2000 -0.6379  0.5107
  492TIP3    H1 1440   2.419   2.664   2.284 -4.1342  0.3951 -0.8690
  492TIP3    H2 1441   2.430   2.671   2.435  3.5492 -1.0881 -0.9285
  493TIP3   OH2 1442   1.730   4.632   5.383  0.2194  0.2928  0.1782
  493TIP3    H1 1443   1.684   4.628   5.467 -0.7862  1.9996 -0.2590
  493TIP3    H2 1444   1.691   4.707   5.338  1.5052  0.0637 -1.3718
  494TIP3   OH2 1445   6.966   6.444   1.399  0.0724  0.5714  0.2569
  494TIP3    H1 1446   6.934   6.482   1.481  0.6143  0.4313  0.5412
  494TIP3    H2 1447   6.923   6.494   1.330 -0.9138  0.2554  0.6229
  495TIP3   OH2 1448   0.387   2.415   1.113 -0.1854  0.3825 -0.7567
  495TIP3    H1 1449   0.297   2.395   1.087 -0.0903 -1.8614  0.3558
  495TIP3    H2 1450   0.441   2.375   1.044 -0.0418 -0.9574  0.0823
  496TIP3   OH2 1451   2.277   3.772   2.966 -0.0786  0.1216 -0.3174
  496TIP3    H1 1452   2.193   3.797   3.004  0.2656  0.4305  0.2509
  496TIP3    H2 1453   2.254   3.725   2.886 -0.8876 -2.0080  1.0855
  497TIP3   OH2 1454   0.105   5.596   3.121 -0.0374 -0.0101  0.2207
  497TIP3    H1 1455   0.100   5.599   3.217  1.1613  2.2705  0.2780
  497TIP3    H2 1456   0.181   5.542   3.102 -0.9281 -1.4188  0.4634
  498TIP3   OH2 1457   1.132   5.870   1.706  0.1482  0.0033 -0.1965
  498TIP3    H1 1458   1.210   5.925   1.709 -0.3036  0.6481  0.1841
  498TIP3    H2 1459   1.069   5.915   1.762 -0.9030  0.1394 -1.4351
  499TIP3   OH2 1460   5.811   3.387   4.861 -0.2470  0.0546 -0.4644
  499TIP3    H1 1461   5.723   3.362   4.832 -0.8017  0.2425  0.9607
  499TIP3    H2 1462   5.865   3.381   4.782 -1.6954  0.7338 -1.5736
  500TIP3   OH2 1463   1.286   4.986   5.860 -0.2888 -0.7002 -0.2836
  500TIP3    H1 1464   1.320   4.901   5.886 -1.3497 -0.4923  2.0136
  500TIP3    H2 1465   1.191   4.976   5.863 -0.4536  0.8573  1.2520
  501TIP3   OH2 1466   5.687   2.910   4.849  0.7632 -0.0293  0.1580
  501TIP3    H1 1467   5.624   2.976   4.881  0.2061 -0.3657 -0.2384
  501TIP3    H2 1468   5.703   2.854   4.925 -0.0762 -0.4526  0.0271
  502TIP3   OH2 1469   5.676   5.500   4.105  0.2210 -0.4088 -0.4650
  502TIP3    H1 1470   5.705   5.590   4.090 -0.8810 -0.1806 -1.3634
  502TIP3    H2 1471   5.686   5.487   4.200 -1.5142  1.3598  0.0106
  503TIP3   OH2 1472   1.780   5.333   0.595  0.9204  0.0735 -0.2671
  503TIP3    H1 1473   1.863   5.369   0.626  1.2295  0.2366 -1.2346
  503TIP3    H2 1474   1.714   5.365   0.656  1.2331  1.9755 -0.8668
  504TIP3   OH2 1475   2.258   1.499   3.614  0.1371 -0.0973  0.5906
  504TIP3    H1 1476   2.311   1.569   3.651  0.5129  0.9246 -1.6863
  504TIP3    H2 1477   2.291   1.419   3.654  0.2405  0.9196  2.6498
  505TIP3   OH2 1478   6.210   3.423   2.229  0.0872  0.1708  0.1131
  505TIP3    H1 1479   6.282   3.474   2.192  0.3343  0.2421  0.6749
  505TIP3    H2 1480   6.196   3.461   2.316 -0.9689  0.4797 -0.1818
  506TIP3   OH2 1481   5.204   2.730   2.734  0.3692 -0.2384 -0.7038
  506TIP3    H1 1482   5.180   2.776   2.814  2.5613 -0.3626  0.1032
  506TIP3    H2 1483   5.128   2.676   2.714 -0.7001  0.7205  0.5986
  507TIP3   OH2 1484   5.407   6.751   5.411  0.6083 -0.4784 -0.3722
  507TIP3    H1 1485   5.456   6.814   5.463 -0.8599  1.4282 -1.1573
  507TIP3    H2 1486   5.393   6.795   5.327 -3.1483 -0.4289  0.0775
  508TIP3   OH2 1487   0.047   6.363   3.020 -0.3286  0.2612  0.1716
  508TIP3    H1 1488  -0.003   6.355   3.101 -0.5983 -0.0250 -0.0216
  508TIP3    H2 1489  -0.008   6.322   2.953  0.5005 -0.7801  0.1031
  509TIP3   OH2 1490   0.518   3.808   4.962 -0.2512  0.5924  0.0470
  509TIP3    H1 1491   0.469   3.850   4.891  2.6127  1.3652 -1.6253
  509TIP3    H2 1492   0.570   3.879   5.000 -1.4086  0.1153  2.7721
  510TIP3   OH2 1493   6.206   1.531   2.644 -0.0990  1.0089  0.3550
  510TIP3    H1 1494   6.238   1.516   2.733  0.3912  1.3304  0.2399
  510TIP3    H2 1495   6.154   1.611   2.651  0.8173  1.6402  0.1608
  511TIP3   OH2 1496   1.171   4.585   3.379 -0.3482  0.1082 -1.1090
  511TIP3    H1 1497   1.199   4.601   3.289 -0.3504  0.7059 -1.0121
  511TIP3    H2 1498   1.078   4.565   3.372 -0.0725 -1.1643 -1.3628
  512TIP3   OH2 1499   0.700   5.951   1.340 -0.0537 -0.3906 -0.1433
  512TIP3    H1 1500   0.796   5.956   1.338 -0.0884  0.2543 -0.5575
  512TIP3    H2 1501   0.678   5.884   1.276  0.0878  0.0419 -0.6480
  513TIP3   OH2 1502   3.769   2.959   0.877  0.0413  0.1871 -0.3757
  513TIP3    H1 1503   3.699   2.995   0.931 -0.0125  0.5762 -0.7022
  513TIP3    H2 1504   3.843   2.949   0.938 -0.1757  0.1383 -0.1181
  514TIP3   OH2 1505   4.258   3.952   3.178 -0.1880  0.5253  0.1993
  514TIP3    H1 1506   4.334   3.955   3.236  0.9191  1.0081 -1.2081
  514TIP3    H2 1507   4.247   4.042   3.148 -1.1224  0.3913  0.1278
  515TIP3   OH2 1508   6.551   0.652   3.358  0.3698  0.1658 -0.6465
  515TIP3    H1 1509   6.582   0.713   3.291  2.6377 -0.8581 -0.6209
  515TIP3    H2 1510   6.521   0.575   3.308 -0.5972  0.4825 -0.5797
  516TIP3   OH2 1511   4.585   2.662   1.300 -0.4561  0.7421 -0.4101
  516TIP3    H1 1512   4.571   2.587   1.242  1.9137  1.1370 -1.5954
  516TIP3    H2 1513   4.511   2.720   1.281 -0.5553  0.1749 -1.9552
  517TIP3   OH2 1514   4.661   2.172   2.653  0.0199  0.4431 -0.5578
  517TIP3    H1 1515   4.725   2.139   2.716 -0.2864 -0.7250 -0.8208
  517TIP3    H2 1516   4.703   2.248   2.613 -0.3940  2.2443  2.1601
  518TIP3   OH2 1517   7.153   1.150   2.127 -0.4272 -0.3711 -0.3363
  518TIP3    H1 1518   7.188   1.100   2.202 -1.4765 -2.5623 -1.2074
  518TIP3    H2 1519   7.226   1.155   2.065 -0.0560 -0.0392  0.1202
  519TIP3   OH2 1520   3.860   4.814   1.479  1.0091  0.1141 -0.3278
  519TIP3    H1 1521   3.823   4.895   1.514  0.7892 -0.3198  0.4484
  519TIP3    H2 1522   3.814   4.802   1.395  0.1812  0.1607  0.1091
  520TIP3   OH2 1523   1.724   1.341   4.883 -0.5889  0.0485 -0.0441
  520TIP3    H1 1524   1.687   1.265   4.928  0.1303 -0.0890  0.3318
  520TIP3    H2 1525   1.737   1.405   4.953  2.8835 -1.0427  0.4890
  521TIP3   OH2 1526   0.655   1.749   4.300 -0.2037 -0.0473  0.2969
  521TIP3    H1 1527   0.653   1.723   4.208 -0.2588 -1.1291  0.5884
  521TIP3    H2 1528   0.566   1.781   4.318 -1.1881 -2.7189  0.7272
  522TIP3   OH2 1529   1.417   0.005   4.266 -0.3844 -0.8186 -0.1197
  522TIP3    H1 1530   1.436   0.087   4.311 -1.6978 -0.4390 -0.2147
  522TIP3    H2 1531   1.389  -0.055   4.336 -0.6075 -0.8004 -0.1909
  523TIP3   OH2 1532   1.357   5.194   5.330  0.7707  0.5203 -0.1911
  523TIP3    H1 1533   1.332   5.272   5.378  1.9433  0.5802  0.3660
  523TIP3    H2 1534   1.345   5.122   5.392  0.7606  0.4003 -0.3297
  524TIP3   OH2 1535   2.511   3.313   4.816  0.1854  0.2333  0.0345
  524TIP3    H1 1536   2.507   3.359   4.899 -0.8363 -0.3351  0.3073
  524TIP3    H2 1537   2.530   3.381   4.751 -0.3389  0.8852  0.5578
  525TIP3   OH2 1538   4.119   2.690   1.864 -0.4086  0.0654  0.1958
  525TIP3    H1 1539   4.080   2.753   1.924 -0.6538 -1.6492  1.9709
  525TIP3    H2 1540   4.206   2.724   1.845 -0.2870  0.6132  1.6578
  526TIP3   OH2 1541   5.162   2.991   3.353 -0.1890  0.0769 -0.4429
  526TIP3    H1 1542   5.070   2.967   3.346 -0.4776  1.3737 -1.4171
  526TIP3    H2 1543   5.192   2.946   3.433 -1.4125 -1.0592 -0.5832
  527TIP3   OH2 1544   1.584   4.051   1.774  0.5156  0.1876  0.2679
  527TIP3    H1 1545   1.558   4.079   1.686  0.4551  0.8053  0.4803
  527TIP3    H2 1546   1.669   4.093   1.788 -0.0523  1.1077  0.9939
  528TIP3   OH2 1547   3.904   4.321   3.730 -0.0550 -0.4970  0.3486
  528TIP3    H1 1548   3.811   4.308   3.716 -0.4505 -0.3956  2.5086
  528TIP3    H2 1549   3.944   4.235   3.716 -0.7515 -0.9774  1.2311
  529TIP3   OH2 1550   3.926   1.277   5.026  0.3066 -0.2782 -0.0526
  529TIP3    H1 1551   3.884   1.363   5.023  0.9317  0.1209  1.5346
  529TIP3    H2 1552   3.968   1.274   5.113 -0.4717 -2.5445  0.2999
  530TIP3   OH2 1553   6.995   2.549   1.208  0.0299 -0.3440  0.5702
  530TIP3    H1 1554   7.083   2.571   1.238  1.9246 -0.9201 -3.7460
  530TIP3    H2 1555   6.971   2.470   1.255  3.1388 -1.7872 -0.0730
  531TIP3   OH2 1556   1.575   1.498   1.312  0.3655  0.0044 -0.6864
  531TIP3    H1 1557   1.567   1.529   1.402 -0.6848  0.6799 -0.9949
  531TIP3    H2 1558   1.494   1.449   1.296  0.9998 -0.9775 -0.9373
  532TIP3   OH2 1559   4.202   4.999   0.772 -0.1629  0.0573 -0.1311
  532TIP3    H1 1560   4.280   4.957   0.735  0.8176  0.2289  1.6281
  532TIP3    H2 1561   4.192   5.080   0.721  1.6131  0.6847  0.4537
  533TIP3   OH2 1562   3.894   2.511   5.206 -0.4930 -0.4329 -0.0927
  533TIP3    H1 1563   3.988   2.496   5.217 -0.1201  1.5955 -0.1178
  533TIP3    H2 1564   3.873   2.475   5.120 -0.0649 -2.1406  0.4796
  534TIP3   OH2 1565   1.992   5.415   3.886 -0.4163  0.1909  0.1056
  534TIP3    H1 1566   2.025   5.487   3.940 -0.9324 -0.4894  1.3444
  534TIP3    H2 1567   2.001   5.338   3.941 -0.6173 -0.5839 -0.9264
  535TIP3   OH2 1568   1.605   0.674   1.382 -0.0860  0.4657 -0.5151
  535TIP3    H1 1569   1.610   0.588   1.423  0.3179 -0.3321 -2.1594
  535TIP3    H2 1570   1.639   0.734   1.448  0.8295 -0.7964  0.2016
  536TIP3   OH2 1571   3.840   2.924   3.774  0.8532  0.2857 -0.4092
  536TIP3    H1 1572   3.803   2.853   3.826 -0.7313  1.0895 -0.3902
  536TIP3    H2 1573   3.922   2.945   3.819  1.0731 -1.1274 -0.0897
  537TIP3   OH2 1574   1.637   1.579   2.607  0.0398 -0.2164 -0.0243
  537TIP3    H1 1575   1.668   1.495   2.572 -0.2105  0.7561 -2.8607
  537TIP3    H2 1576   1.621   1.633   2.529 -3.1250  1.3409  1.5206
  538TIP3   OH2 1577   4.933   1.341   3.600  0.3947  0.4125 -0.0719
  538TIP3    H1 1578   4.866   1.399   3.635 -0.3046 -1.3116  1.6545
  538TIP3    H2 1579   4.902   1.253   3.622  2.7474 -0.4993 -0.0892
  539TIP3   OH2 1580   6.528   2.780   5.741 -0.2472  0.2935  0.2558
  539TIP3    H1 1581   6.566   2.783   5.653 -0.0403 -2.9404  0.1191
  539TIP3    H2 1582   6.562   2.858   5.784 -0.4507  2.0638 -2.5264
  540TIP3   OH2 1583   1.106   0.635   0.608  0.7092 -0.2981  0.0901
  540TIP3    H1 1584   1.115   0.546   0.573  2.9272  0.1358 -0.6656
  540TIP3    H2 1585   1.190   0.651   0.652 -0.2878  0.8537  1.6561
  541TIP3   OH2 1586   1.935   1.176   5.362  0.0503 -0.4096 -0.0572
  541TIP3    H1 1587   1.930   1.165   5.457 -0.1456 -1.1282 -0.1441
  541TIP3    H2 1588   1.853   1.221   5.339 -0.1428 -0.7066  0.0505
  542TIP3   OH2 1589   0.492   5.971   5.706  0.0430  0.3801  0.0613
  542TIP3    H1 1590   0.573   5.923   5.693  0.6056  1.0901  0.8755
  542TIP3    H2 1591   0.476   5.967   5.800 -0.5675  0.7260 -0.0229
  543TIP3   OH2 1592   6.427   1.774   2.884  0.2603 -0.4754  0.0412
  543TIP3    H1 1593   6.374   1.696   2.868 -1.1881 -0.0477  2.2394
  543TIP3    H2 1594   6.364   1.846   2.883  1.3633  0.5170 -0.6060
  544TIP3   OH2 1595   2.498   1.258   1.050  0.1653  0.5404 -0.5913
  544TIP3    H1 1596   2.447   1.334   1.078  0.5921  0.6710 -0.1586
  544TIP3    H2 1597   2.456   1.230   0.969 -1.3050 -0.0341  0.3128
  545TIP3   OH2 1598   6.287   0.840   1.952 -0.2249  0.1940 -0.5133
  545TIP3    H1 1599   6.210   0.847   1.896 -0.0281 -1.1042 -0.9792
  545TIP3    H2 1600   6.258   0.873   2.037 -1.2197 -0.0607 -0.7481
  546TIP3   OH2 1601   0.687   5.205   5.073 -0.2621 -0.1580  0.3740
  546TIP3    H1 1602   0.676   5.223   5.167 -3.6708 -0.0623  0.0929
  546TIP3    H2 1603   0.661   5.114   5.064 -2.3907  0.4886 -0.7035
  547TIP3   OH2 1604   4.170   4.374   0.463 -0.2498 -0.1451 -0.3224
  547TIP3    H1 1605   4.224   4.323   0.524 -0.6200  2.9973  2.9471
  547TIP3    H2 1606   4.082   4.336   0.472  0.3199 -2.0695 -1.9206
  548TIP3   OH2 1607   6.909   4.021   0.108 -0.0291 -0.1663  0.0469
  548TIP3    H1 1608   6.986   4.078   0.113  0.7823 -1.1110 -1.2287
  548TIP3    H2 1609   6.844   4.073   0.059  0.6125 -0.2255 -0.8838
  549TIP3   OH2 1610   4.221   4.515   5.511 -0.3006 -0.3649 -0.0287
  549TIP3    H1 1611   4.250   4.528   5.420 -0.2356  1.2888  0.1998
  549TIP3    H2 1612   4.127   4.500   5.504 -0.2159 -0.7362 -0.4044
  550TIP3   OH2 1613   5.493   3.999   3.362  0.4609 -0.3729  0.1624
  550TIP3    H1 1614   5.534   4.024   3.445 -0.4081  1.0299  0.1986
  550TIP3    H2 1615   5.470   3.906   3.374 -0.0007 -0.1031  1.6608
  551TIP3   OH2 1616   6.358   5.127   3.150  0.6979  0.6475 -0.1677
  551TIP3    H1 1617   6.366   5.055   3.087  1.3370 -0.3565  1.0190
  551TIP3    H2 1618   6.287   5.099   3.208  1.3574  0.6918  0.6628
  552TIP3   OH2 1619   5.684   0.196   4.879  0.0040  0.0052  0.2379
  552TIP3    H1 1620   5.593   0.220   4.893 -0.0684 -0.8940  1.5242
  552TIP3    H2 1621   5.712   0.249   4.804 -1.5915  0.2103 -0.2523
  553TIP3   OH2 1622   1.414   2.186   4.684  0.4789 -0.6509  0.2526
  553TIP3    H1 1623   1.354   2.116   4.660  2.2453 -2.5965  1.2513
  553TIP3    H2 1624   1.360   2.247   4.735 -1.4811 -0.3204 -2.0568
  554TIP3   OH2 1625   0.934   1.253   4.105  0.3790 -0.4774 -0.2104
  554TIP3    H1 1626   0.981   1.244   4.188  0.0718 -0.5777 -0.0460
  554TIP3    H2 1627   0.925   1.348   4.093 -0.3653 -0.4695  0.3262
  555TIP3   OH2 1628   2.868   4.247   4.617 -0.1893 -0.1898  0.3268
  555TIP3    H1 1629   2.936   4.308   4.646 -1.4344  1.5804 -0.2981
  555TIP3    H2 1630   2.909   4.161   4.623  2.3522  0.8462 -0.6380
  556TIP3   OH2 1631   3.496   1.768   2.925 -0.1600 -0.2595  0.0351
  556TIP3    H1 1632   3.476   1.860   2.936  0.6782  0.0694 -0.9959
  556TIP3    H2 1633   3.454   1.743   2.843 -0.5842 -0.8648  0.4273
  557TIP3   OH2 1634   5.606   4.507   4.125 -0.1606 -0.3440  0.3469
  557TIP3    H1 1635   5.596   4.415   4.152  0.6862  0.0573  2.2382
  557TIP3    H2 1636   5.573   4.557   4.200  0.2710  0.9041 -0.2727
  558TIP3   OH2 1637   2.095   6.783   3.955  0.2475 -0.1197 -0.3628
  558TIP3    H1 1638   2.038   6.837   3.900  0.7730  0.3041 -0.4969
  558TIP3    H2 1639   2.045   6.770   4.035 -1.0381 -1.7210 -1.3377
  559TIP3   OH2 1640   0.243   1.754   0.947  0.1399  0.3955 -0.2656
  559TIP3    H1 1641   0.180   1.820   0.920 -1.4782 -1.3405 -0.9981
  559TIP3    H2 1642   0.249   1.694   0.872 -0.6707 -1.8343  1.3331
  560TIP3   OH2 1643   3.953   1.111   2.102 -0.0904  0.2290  0.1203
  560TIP3    H1 1644   3.962   1.205   2.118 -0.2115  0.8840 -2.9858
  560TIP3    H2 1645   3.870   1.087   2.143 -0.5031  1.6638  0.1847
  561TIP3   OH2 1646   1.717   2.950   4.927 -0.7067  0.3990  0.4943
  561TIP3    H1 1647   1.703   2.866   4.883  0.3772  0.4989 -0.0828
  561TIP3    H2 1648   1.630   2.990   4.930 -1.2768 -0.7948  0.9158
  562TIP3   OH2 1649   3.724   6.071   3.923 -0.4630 -0.1166 -0.2543
  562TIP3    H1 1650   3.669   6.049   3.998  0.2232 -1.8079 -0.2151
  562TIP3    H2 1651   3.685   6.151   3.887 -0.3031  1.2573  2.3953
  563TIP3   OH2 1652   2.868   4.428   5.772  0.3572 -0.0104 -0.2418
  563TIP3    H1 1653   2.914   4.511   5.759  0.4748 -0.2049 -1.1255
  563TIP3    H2 1654   2.848   4.398   5.683  0.3138 -0.9296  0.0718
  564TIP3   OH2 1655   6.806   1.477   1.517  0.6938  0.1641  0.2032
  564TIP3    H1 1656   6.712   1.488   1.530  0.2938  0.6916 -2.5586
  564TIP3    H2 1657   6.842   1.475   1.605 -1.6774  2.0120  1.3387
  565TIP3   OH2 1658   5.250   3.834   0.798  0.1387 -0.1688 -0.1333
  565TIP3    H1 1659   5.307   3.889   0.743  1.1518 -0.0659  0.9717
  565TIP3    H2 1660   5.296   3.830   0.882 -1.1642 -0.6766  0.5696
  566TIP3   OH2 1661   2.066   0.710   3.460  0.2671 -0.0711  0.3175
  566TIP3    H1 1662   2.150   0.676   3.489  0.3244 -1.0248 -0.8894
  566TIP3    H2 1663   2.006   0.636   3.469  0.1842 -0.2651 -1.4623
  567TIP3   OH2 1664   0.567   6.436   2.204 -0.0779 -0.5569  0.5840
  567TIP3    H1 1665   0.580   6.343   2.185  1.7520 -0.8267  2.6669
  567TIP3    H2 1666   0.644   6.460   2.257 -1.1735  1.7983  1.2246
  568TIP3   OH2 1667   7.102   6.458   4.830 -0.1767 -0.2643  0.5711
  568TIP3    H1 1668   7.034   6.421   4.887 -0.8233  1.1932  0.7926
  568TIP3    H2 1669   7.184   6.440   4.876 -0.3962 -2.0308  0.3154
  569TIP3   OH2 1670   0.044   6.112   0.042  0.2141 -0.5073  0.1904
  569TIP3    H1 1671  -0.017   6.059   0.094  1.8470 -1.4638  1.2068
  569TIP3    H2 1672   0.078   6.177   0.103 -2.6210  2.6531 -1.3056
  570TIP3   OH2 1673   1.126   4.221   0.168  0.5332  0.3607 -0.9340
  570TIP3    H1 1674   1.221   4.232   0.170  0.7082 -0.8843 -1.4273
  570TIP3    H2 1675   1.112   4.144   0.113 -0.6942 -0.1489  0.0436
  571TIP3   OH2 1676   1.001   2.067   5.814  0.0922  0.4119  0.1633
  571TIP3    H1 1677   1.023   2.016   5.891  0.0926  1.0261  0.5769
  571TIP3    H2 1678   0.908   2.049   5.799  0.3160 -0.4348 -0.2545
  572TIP3   OH2 1679   6.090   4.735   0.791  0.1493 -0.6283  0.0992
  572TIP3    H1 1680   6.175   4.695   0.777  0.5136  0.4161 -0.8774
  572TIP3    H2 1681   6.108   4.829   0.795 -0.8746 -0.4331  0.5515
  573TIP3   OH2 1682   5.983   6.205   0.802  0.5345  0.1703 -0.2114
  573TIP3    H1 1683   6.005   6.128   0.855  0.1023  0.3135  0.1883
  573TIP3    H2 1684   5.916   6.251   0.854  0.6826  0.7363 -0.5161
  574TIP3   OH2 1685   1.579   5.372   2.725 -0.4489  0.0564 -0.4395
  574TIP3    H1 1686   1.498   5.414   2.755  0.5978  2.5103 -0.7741
  574TIP3    H2 1687   1.562   5.351   2.633 -0.7687  0.4272 -0.4681
  575TIP3   OH2 1688   0.729   1.378   1.719  0.2284 -0.2706 -0.0935
  575TIP3    H1 1689   0.803   1.430   1.688 -0.1143 -0.6140 -1.5255
  575TIP3    H2 1690   0.733   1.386   1.815  2.6643 -1.0285 -0.0606
  576TIP3   OH2 1691   6.103   5.519   4.764 -0.2246  0.3105  0.2058
  576TIP3    H1 1692   6.009   5.512   4.781  0.0229  0.0273  1.5734
  576TIP3    H2 1693   6.134   5.585   4.827  0.2873  1.4025 -1.1398
  577TIP3   OH2 1694   6.887   4.203   2.810 -0.0450  0.2006  0.2215
  577TIP3    H1 1695   6.947   4.148   2.860  1.2830  0.4617 -1.0267
  577TIP3    H2 1696   6.921   4.201   2.720 -1.7406  0.5944 -0.4793
  578TIP3   OH2 1697   6.637   6.138   3.557 -0.8043 -0.0645  0.2511
  578TIP3    H1 1698   6.662   6.227   3.580 -0.5303 -0.3799  1.2378
  578TIP3    H2 1699   6.554   6.147   3.511 -1.2542  0.6345  1.1661
  579TIP3   OH2 1700   3.183   3.621   3.219 -0.7579 -0.5103  0.1483
  579TIP3    H1 1701   3.215   3.692   3.165 -1.2349 -0.4060 -0.0027
  579TIP3    H2 1702   3.136   3.564   3.159 -0.3748 -0.9579  0.2672
  580TIP3   OH2 1703   1.243   5.346   3.673  0.1743 -0.3149  0.3671
  580TIP3    H1 1704   1.224   5.383   3.759  0.5331 -0.9389  0.7242
  580TIP3    H2 1705   1.310   5.280   3.690 -1.4887 -2.1933 -0.0068
  581TIP3   OH2 1706   4.720   1.140   1.924  0.2516 -0.1664 -1.2963
  581TIP3    H1 1707   4.702   1.105   2.011  1.0450 -0.9934 -1.4453
  581TIP3    H2 1708   4.676   1.225   1.922  1.6316  0.6372  0.4986
  582TIP3   OH2 1709   3.707   3.759   2.255  0.4022  0.2816  0.2608
  582TIP3    H1 1710   3.775   3.770   2.321  0.5122  0.5816  0.0997
  582TIP3    H2 1711   3.734   3.682   2.205 -0.2498 -0.6201  1.2472
  583TIP3   OH2 1712   4.546   3.909   0.507  0.2553 -0.0975  0.3605
  583TIP3    H1 1713   4.459   3.868   0.513  0.0868  0.3552  1.1633
  583TIP3    H2 1714   4.606   3.841   0.537  0.2692 -0.6796 -0.9456
  584TIP3   OH2 1715   2.460   1.603   3.767  0.6658  0.3956 -0.5102
  584TIP3    H1 1716   2.465   1.543   3.842  0.7008 -0.7060 -1.3664
  584TIP3    H2 1717   2.457   1.690   3.806 -3.1750 -0.2195  0.9426
  585TIP3   OH2 1718   4.952   3.281   0.674 -0.0343  0.2547 -0.1316
  585TIP3    H1 1719   4.913   3.309   0.757  1.9145  2.5335  0.1251
  585TIP3    H2 1720   4.917   3.342   0.610  1.1318  0.7426 -0.3268
  586TIP3   OH2 1721   6.572   2.831   0.315 -0.4285  0.4784 -0.6481
  586TIP3    H1 1722   6.583   2.742   0.348 -0.0287  0.1060 -1.7367
  586TIP3    H2 1723   6.477   2.840   0.302 -0.5761  0.5771  0.4020
  587TIP3   OH2 1724   4.389   0.127   1.030  0.4180  0.4607 -0.5146
  587TIP3    H1 1725   4.382   0.051   0.972 -1.4274  0.9954 -1.0599
  587TIP3    H2 1726   4.323   0.188   0.997  0.7342  1.6196  0.9251
  588TIP3   OH2 1727   2.123   2.173   3.419  0.2879  0.2492  0.0191
  588TIP3    H1 1728   2.187   2.234   3.456  0.5154 -0.3641  0.6679
  588TIP3    H2 1729   2.167   2.088   3.422 -0.4748 -0.1475  0.2708
  589TIP3   OH2 1730   4.444   5.000   0.223  0.3129 -0.1379  0.0427
  589TIP3    H1 1731   4.458   5.062   0.295 -0.5128 -0.5154  0.5427
  589TIP3    H2 1732   4.532   4.973   0.198  0.6128 -0.2148  1.1034
  590TIP3   OH2 1733   3.960   5.947   0.413 -0.0793 -0.2120 -0.1314
  590TIP3    H1 1734   3.951   5.920   0.505  0.0062  0.3104  0.0287
  590TIP3    H2 1735   3.990   6.037   0.417  3.0280 -1.0946 -0.6572
  591TIP3   OH2 1736   5.406   5.471   1.149  0.2619 -0.7781  0.3299
  591TIP3    H1 1737   5.323   5.489   1.105  0.6463 -0.7624 -0.4109
  591TIP3    H2 1738   5.394   5.385   1.189 -0.6405 -0.1168  1.5545
  592TIP3   OH2 1739   6.199   2.377   3.279  0.1548 -0.1628  0.0921
  592TIP3    H1 1740   6.247   2.460   3.276  0.5440 -0.3649  0.6029
  592TIP3    H2 1741   6.265   2.312   3.305  0.0330 -0.7648 -1.0346
  593TIP3   OH2 1742   3.027   4.728   4.723  0.2539 -0.2767  0.3873
  593TIP3    H1 1743   2.963   4.782   4.770  0.5943 -0.5257  1.1554
  593TIP3    H2 1744   3.047   4.779   4.644 -1.0327 -0.2903  0.0227
  594TIP3   OH2 1745   6.654   0.612   5.788  0.0356 -0.4873 -0.0361
  594TIP3    H1 1746   6.570   0.636   5.828 -0.4894 -0.5750 -1.0584
  594TIP3    H2 1747   6.706   0.693   5.792  0.5362 -0.8663  2.0980
  595TIP3   OH2 1748   4.676   6.381   0.802  0.0360 -0.6771  0.0466
  595TIP3    H1 1749   4.611   6.334   0.854 -1.4342  1.7813  0.5860
  595TIP3    H2 1750   4.720   6.438   0.864  0.8730 -0.3885 -0.7918
  596TIP3   OH2 1751   6.438   3.915   2.073 -0.5161  0.2287 -0.0023
  596TIP3    H1 1752   6.354   3.869   2.082 -0.6566  0.5476  0.4000
  596TIP3    H2 1753   6.449   3.959   2.157 -1.4720  2.6930 -1.0517
  597TIP3   OH2 1754   4.407   6.349   1.705 -0.1440  0.2065 -0.2628
  597TIP3    H1 1755   4.425   6.430   1.754 -0.4845  0.7096 -0.9552
  597TIP3    H2 1756   4.371   6.379   1.622  1.0034 -0.6250 -1.0895
  598TIP3   OH2 1757   0.535   2.607   1.204 -0.6372  0.0356  0.0244
  598TIP3    H1 1758   0.489   2.609   1.288 -0.9183 -1.6232 -0.0421
  598TIP3    H2 1759   0.501   2.529   1.160 -0.2481  0.6846 -1.4994
  599TIP3   OH2 1760   4.458   3.532   1.665  0.7428  0.1813 -0.0802
  599TIP3    H1 1761   4.541   3.543   1.712  0.4947  1.8418  0.0211
  599TIP3    H2 1762   4.456   3.604   1.602 -0.9581  0.6478  0.4441
  600TIP3   OH2 1763   2.053   5.846   5.301  0.2421  0.3229  0.6660
  600TIP3    H1 1764   2.067   5.840   5.206  2.8883 -0.4639  1.0316
  600TIP3    H2 1765   2.028   5.937   5.315  0.2869  0.5803 -0.7438
  601TIP3   OH2 1766   1.895   2.489   5.178 -0.4612 -0.1011  0.5665
  601TIP3    H1 1767   1.830   2.554   5.204  0.2927  1.2388 -0.7592
  601TIP3    H2 1768   1.905   2.501   5.084 -0.2386 -2.1166  0.2841
  602TIP3   OH2 1769   0.583   2.001   2.700 -0.0686 -0.1266  0.2974
  602TIP3    H1 1770   0.623   2.083   2.671  0.0581 -0.3207 -0.0893
  602TIP3    H2 1771   0.655   1.939   2.705 -0.0391 -0.0190  1.3587
  603TIP3   OH2 1772   6.838   1.360   5.305 -0.3711  0.2124  0.3907
  603TIP3    H1 1773   6.873   1.323   5.386  2.1827  0.4329 -0.5124
  603TIP3    H2 1774   6.832   1.454   5.322 -0.3322  0.1990  0.4793
  604TIP3   OH2 1775   2.401   5.473   2.731  0.4372  0.0290 -0.1300
  604TIP3    H1 1776   2.385   5.392   2.780 -0.0515 -1.0540 -1.9880
  604TIP3    H2 1777   2.495   5.476   2.719  0.3031 -1.5626 -2.0576
  605TIP3   OH2 1778   2.439   0.124   3.607  0.7716  0.0964  0.2460
  605TIP3    H1 1779   2.427   0.049   3.665 -0.7851 -0.5648 -0.8939
  605TIP3    H2 1780   2.376   0.189   3.638  2.0699  0.9744  1.1908
  606TIP3   OH2 1781   6.376   4.361   5.428  0.3144  0.9546  0.1684
  606TIP3    H1 1782   6.343   4.337   5.341 -0.1740 -0.5976  0.7503
  606TIP3    H2 1783   6.298   4.391   5.475 -0.0323 -1.1030  1.0044
  607TIP3   OH2 1784   0.928   3.801   2.595  0.5767 -0.2821  0.2687
  607TIP3    H1 1785   0.875   3.791   2.516  0.1077 -0.3633  0.5858
  607TIP3    H2 1786   1.018   3.797   2.565  0.4393 -2.6968 -0.0041
  608TIP3   OH2 1787   5.316   1.221   2.347 -0.4646  0.8203  0.4336
  608TIP3    H1 1788   5.334   1.133   2.379  0.9158  0.4865 -1.1205
  608TIP3    H2 1789   5.318   1.276   2.425  0.6467 -0.2313  1.1810
  609TIP3   OH2 1790   5.664   2.770   4.378 -0.1287  0.2173  0.2666
  609TIP3    H1 1791   5.590   2.710   4.387  0.1309 -0.3333 -1.1329
  609TIP3    H2 1792   5.636   2.849   4.426 -1.4917 -0.0942  0.0339
  610TIP3   OH2 1793   6.687   2.911   1.493 -0.4657 -0.2336 -0.0727
  610TIP3    H1 1794   6.602   2.948   1.470 -0.0038  0.6998 -0.3222
  610TIP3    H2 1795   6.682   2.820   1.463 -1.5059 -0.3055  0.2721
  611TIP3   OH2 1796   4.946   1.412   1.220 -0.0572 -0.3536 -0.2302
  611TIP3    H1 1797   4.893   1.491   1.224 -0.0780 -0.3016 -1.1805
  611TIP3    H2 1798   4.962   1.389   1.311 -1.3179 -0.1063  0.0826
  612TIP3   OH2 1799   1.556   3.262   5.767 -0.2766  0.0452  0.4345
  612TIP3    H1 1800   1.473   3.217   5.753 -0.9158  0.9296  1.2248
  612TIP3    H2 1801   1.598   3.213   5.839  0.0407 -0.5892 -0.1731
  613TIP3   OH2 1802   3.244   6.253   2.845 -0.2965 -0.5587 -0.0962
  613TIP3    H1 1803   3.256   6.327   2.905 -0.0517 -0.3290 -0.4254
  613TIP3    H2 1804   3.261   6.176   2.899  2.4722 -0.2917 -0.4132
  614TIP3   OH2 1805   3.977   3.401   0.798  0.0250  0.4494  0.2319
  614TIP3    H1 1806   3.912   3.401   0.728  0.6865 -3.4648 -0.6360
  614TIP3    H2 1807   3.927   3.409   0.879 -1.2790  0.0858 -0.5144
  615TIP3   OH2 1808   1.503   3.973   2.434  0.1547 -0.5919 -0.0056
  615TIP3    H1 1809   1.593   3.945   2.418  0.8160  0.6184  1.3567
  615TIP3    H2 1810   1.500   3.992   2.528 -0.6233  2.3303 -0.5160
  616TIP3   OH2 1811   6.055   2.852   2.588  0.2331  0.5709  0.2064
  616TIP3    H1 1812   5.971   2.852   2.541  0.3256  0.1593  0.0375
  616TIP3    H2 1813   6.117   2.887   2.524  0.3835 -0.1130 -0.0230
  617TIP3   OH2 1814   6.605   5.414   1.403 -0.3883  0.1080  0.4110
  617TIP3    H1 1815   6.695   5.391   1.429 -0.2150 -1.7757 -1.5334
  617TIP3    H2 1816   6.615   5.461   1.321 -1.1780 -2.5904 -1.3676
  618TIP3   OH2 1817   4.431   0.518   3.421  0.2930  0.3970  0.1700
  618TIP3    H1 1818   4.373   0.582   3.381  0.2546 -0.7485 -1.7388
  618TIP3    H2 1819   4.517   0.536   3.383  0.1499 -1.0541 -0.9641
  619TIP3   OH2 1820   7.163   3.386   0.625 -0.1686  0.2667 -0.4038
  619TIP3    H1 1821   7.128   3.474   0.618 -0.6579  0.2774  1.6210
  619TIP3    H2 1822   7.146   3.346   0.540 -2.0258  1.3963 -0.6008
  620TIP3   OH2 1823   3.971   2.695   3.409 -0.3147 -0.4257 -0.0957
  620TIP3    H1 1824   3.896   2.636   3.406 -0.0699 -0.7512  0.0150
  620TIP3    H2 1825   4.047   2.636   3.409 -0.0720 -0.1162  0.2129
  621TIP3   OH2 1826   5.738   1.188   5.006 -0.1735  0.7331  0.4684
  621TIP3    H1 1827   5.790   1.268   5.006 -0.2690  0.7993  0.9481
  621TIP3    H2 1828   5.647   1.218   5.000 -0.2001  0.6565  0.4801
  622TIP3   OH2 1829   1.111   5.431   3.261  0.2618 -0.6993  0.4757
  622TIP3    H1 1830   1.100   5.475   3.345  0.4589  1.5366 -0.5884
  622TIP3    H2 1831   1.164   5.353   3.280 -0.6506 -0.8533  2.5544
  623TIP3   OH2 1832   0.594   3.665   3.564  0.2254 -0.3317 -0.4801
  623TIP3    H1 1833   0.626   3.608   3.494  0.3123 -0.2158 -0.5363
  623TIP3    H2 1834   0.669   3.675   3.623  0.4607  0.3706 -0.8923
  624TIP3   OH2 1835   3.482   2.190   5.246  0.6451  0.1178  0.4137
  624TIP3    H1 1836   3.400   2.207   5.293 -0.5040  1.8894 -2.0418
  624TIP3    H2 1837   3.462   2.115   5.189  0.9496  0.1600  0.2513
  625TIP3   OH2 1838   2.590   0.131   5.007 -0.0424 -0.3091  0.1937
  625TIP3    H1 1839   2.682   0.124   5.031  0.4665 -0.5015 -1.6215
  625TIP3    H2 1840   2.589   0.115   4.913 -1.8884  0.1252  0.0997
  626TIP3   OH2 1841   6.282   5.079   2.280  0.3406 -0.2353 -0.6623
  626TIP3    H1 1842   6.298   5.057   2.371 -2.4621 -1.0135 -0.2454
  626TIP3    H2 1843   6.365   5.063   2.236  1.2786 -1.5795  1.4438
  627TIP3   OH2 1844   2.892   5.220   4.037  0.3014  0.5414 -0.3761
  627TIP3    H1 1845   2.836   5.293   4.065 -0.2645  0.1845 -0.5641
  627TIP3    H2 1846   2.955   5.261   3.978  0.1568  0.9301 -0.2692
  628TIP3   OH2 1847   2.593   4.379   5.839  0.2054 -0.4405 -0.5608
  628TIP3    H1 1848   2.688   4.375   5.827  0.4656  0.0271  1.0834
  628TIP3    H2 1849   2.570   4.471   5.821  0.3300 -0.1595  0.6725
  629TIP3   OH2 1850   3.405   5.329   5.756 -0.4392 -0.1228 -0.6164
  629TIP3    H1 1851   3.346   5.294   5.822 -0.7358 -0.0901 -0.8575
  629TIP3    H2 1852   3.388   5.275   5.678 -1.8425  1.3310 -1.3834
  630TIP3   OH2 1853   3.947   0.128   1.610  0.3286  0.0658 -0.9722
  630TIP3    H1 1854   3.987   0.130   1.523  0.5555 -1.6701 -0.9547
  630TIP3    H2 1855   3.982   0.049   1.651 -1.6028 -0.4796 -0.2170
  631TIP3   OH2 1856   2.887   3.416   3.287  0.2716  0.3881  0.3878
  631TIP3    H1 1857   2.852   3.387   3.371 -0.9751 -3.8880 -1.3488
  631TIP3    H2 1858   2.875   3.511   3.288 -1.6432  0.3004  4.1548
  632TIP3   OH2 1859   3.981   0.135   5.697 -0.1345  0.3805 -0.2040
  632TIP3    H1 1860   3.904   0.177   5.657 -0.2023  0.1867 -0.2782
  632TIP3    H2 1861   3.959   0.130   5.790 -0.9210 -1.1516 -0.4337
  633TIP3   OH2 1862   4.524   6.682   3.401  0.1523 -0.0305 -0.1576
  633TIP3    H1 1863   4.606   6.648   3.363 -1.3089 -1.4408 -2.2467
  633TIP3    H2 1864   4.528   6.776   3.385  1.4024 -0.0512 -0.1097
  634TIP3   OH2 1865   3.027   6.694   1.553 -0.4171  0.5342  0.2790
  634TIP3    H1 1866   3.078   6.726   1.478 -0.5624  1.5100  0.5703
  634TIP3    H2 1867   3.085   6.708   1.628  0.1556 -1.4677  0.2459
  635TIP3   OH2 1868   0.565   2.804   0.939  0.3458  0.1671 -0.5159
  635TIP3    H1 1869   0.644   2.754   0.957  0.1511 -0.2319 -0.7567
  635TIP3    H2 1870   0.502   2.740   0.905  0.1305  0.5877 -0.9412
  636TIP3   OH2 1871   0.793   2.355   3.710 -0.0960  0.1212  0.3027
  636TIP3    H1 1872   0.722   2.401   3.755 -0.4837  0.2169 -0.3870
  636TIP3    H2 1873   0.858   2.338   3.778 -1.3925 -1.2441  1.2627
  637TIP3   OH2 1874   3.187   5.717   0.667  0.5609 -0.4373  0.8008
  637TIP3    H1 1875   3.253   5.761   0.613 -1.3437  0.0194 -1.2549
  637TIP3    H2 1876   3.142   5.789   0.712 -1.1651 -0.3832 -0.9378
  638TIP3   OH2 1877   3.941   3.856   1.147  0.0560 -0.8421 -0.2443
  638TIP3    H1 1878   4.019   3.897   1.108 -0.1143 -1.2241 -1.0101
  638TIP3    H2 1879   3.889   3.828   1.072 -1.6589  0.9037  0.2217
  639TIP3   OH2 1880   6.804   4.484   1.364 -0.2356 -0.3971  0.7915
  639TIP3    H1 1881   6.895   4.499   1.338  0.2625 -1.4567  1.8389
  639TIP3    H2 1882   6.753   4.520   1.292  1.0393 -1.8359 -0.9400
  640TIP3   OH2 1883   4.839   2.391   0.464 -0.1114 -0.6204 -0.2764
  640TIP3    H1 1884   4.886   2.461   0.418  0.6004  0.1299  1.5176
  640TIP3    H2 1885   4.760   2.433   0.498  1.5497  0.1367  3.0606
  641TIP3   OH2 1886   4.155   6.178   2.249  0.8327 -0.3247 -0.3473
  641TIP3    H1 1887   4.083   6.141   2.198  1.7039 -1.2928 -0.9195
  641TIP3    H2 1888   4.163   6.268   2.219 -0.9870  0.2424  0.6841
  642TIP3   OH2 1889   4.025   0.937   1.897 -0.0906  0.4763 -0.1545
  642TIP3    H1 1890   4.004   0.844   1.888 -0.9217  0.1898  3.1287
  642TIP3    H2 1891   3.983   0.962   1.980  0.6064  3.6391 -0.6404
  643TIP3   OH2 1892   1.731   1.247   2.220  0.3372  0.3107  0.0216
  643TIP3    H1 1893   1.809   1.194   2.235  0.2526  0.1814 -0.0004
  643TIP3    H2 1894   1.666   1.186   2.186  0.2810  0.4538 -0.1264
  644TIP3   OH2 1895   4.622   5.289   4.483 -0.0711 -0.3427 -0.3132
  644TIP3    H1 1896   4.678   5.342   4.539  2.3338 -1.0204 -1.9275
  644TIP3    H2 1897   4.630   5.200   4.519  0.9111 -0.6513 -1.2358
  645TIP3   OH2 1898   1.194   5.785   3.899  0.6427  0.3655 -0.3301
  645TIP3    H1 1899   1.149   5.777   3.983 -0.8591 -2.1324 -1.2419
  645TIP3    H2 1900   1.191   5.878   3.878 -0.8441  0.7520  1.3836
  646TIP3   OH2 1901   3.791   4.127   1.143  0.3465 -0.4190  0.4586
  646TIP3    H1 1902   3.853   4.174   1.199 -0.0691  0.7236 -0.0257
  646TIP3    H2 1903   3.813   4.034   1.156  0.8942 -0.1259  1.7549
  647TIP3   OH2 1904   7.013   3.564   2.004 -0.8757  1.1329  0.2335
  647TIP3    H1 1905   7.084   3.565   1.939 -0.3008  0.6286  0.8366
  647TIP3    H2 1906   6.946   3.508   1.965  0.0416 -0.3005  0.6357
  648TIP3   OH2 1907   2.806   4.999   3.839 -0.0787  0.2934  0.2295
  648TIP3    H1 1908   2.835   5.076   3.889  0.5535  1.0079 -1.1797
  648TIP3    H2 1909   2.712   5.011   3.827  0.0237  0.8775 -0.0086
  649TIP3   OH2 1910   0.993   6.083   1.419  0.5753  0.1086  0.0318
  649TIP3    H1 1911   0.954   6.149   1.476  0.1233  1.4343 -1.7388
  649TIP3    H2 1912   1.087   6.105   1.417  0.5422  0.2440  0.0021
  650TIP3   OH2 1913   1.054   0.681   3.937  0.5340  0.8779  0.1459
  650TIP3    H1 1914   1.078   0.626   4.012  1.9199  1.3453  0.0700
  650TIP3    H2 1915   0.991   0.743   3.973 -2.9135 -2.0538 -0.2355
  651TIP3   OH2 1916   2.615   0.115   4.320 -0.3256  0.1643  0.2542
  651TIP3    H1 1917   2.667   0.035   4.309 -0.2677  0.3695 -1.1393
  651TIP3    H2 1918   2.524   0.085   4.315 -0.3116  0.2652 -1.2869
  652TIP3   OH2 1919   2.266   0.012   0.768 -0.1928  0.1658  0.2352
  652TIP3    H1 1920   2.295   0.034   0.680 -0.9168  0.1868 -0.0054
  652TIP3    H2 1921   2.346   0.013   0.821  0.2648  0.0147 -0.4448
  653TIP3   OH2 1922   4.684   6.021   4.973 -0.0928  0.0805  0.5488
  653TIP3    H1 1923   4.624   6.097   4.978 -0.8040 -0.5011  1.2755
  653TIP3    H2 1924   4.661   5.978   4.891 -1.0030 -0.3756  1.0180
  654TIP3   OH2 1925   3.127   0.733   2.675  0.0756  0.0369 -0.1107
  654TIP3    H1 1926   3.066   0.682   2.729 -0.0334  0.6684  0.3736
  654TIP3    H2 1927   3.129   0.687   2.592 -0.8773 -0.1346 -0.0527
  655TIP3   OH2 1928   2.535   6.679   5.733  0.0379  0.2727  0.6037
  655TIP3    H1 1929   2.577   6.758   5.767 -1.3264  1.2117  0.1722
  655TIP3    H2 1930   2.529   6.621   5.809 -1.1670  1.5699  1.5451
  656TIP3   OH2 1931   6.264   6.600   4.093  0.1026  0.2510  0.4808
  656TIP3    H1 1932   6.249   6.684   4.137  0.7648  0.8230 -0.3716
  656TIP3    H2 1933   6.337   6.561   4.141  1.7278  1.4780 -0.8826
  657TIP3   OH2 1934   4.980   5.761   2.692  0.0469  0.2389 -0.5283
  657TIP3    H1 1935   4.962   5.676   2.653 -0.8324  0.3277 -0.3365
  657TIP3    H2 1936   5.002   5.742   2.784 -0.8884  0.2654 -0.2874
  658TIP3   OH2 1937   6.867   1.263   1.352 -0.2140 -0.3038  0.1862
  658TIP3    H1 1938   6.838   1.343   1.396 -0.2527  0.9131 -1.9190
  658TIP3    H2 1939   6.923   1.219   1.416 -1.4638  0.5956  1.9645
  659TIP3   OH2 1940   0.820   3.436   0.371 -0.8016 -0.4984  0.2269
  659TIP3    H1 1941   0.824   3.473   0.459  0.6835  0.0827 -0.0531
  659TIP3    H2 1942   0.910   3.408   0.353 -0.9063  0.1133 -1.3959
  660TIP3   OH2 1943   6.534   2.371   2.613 -0.4364  0.4002 -0.4815
  660TIP3    H1 1944   6.527   2.276   2.618 -0.9959  0.4735  0.2678
  660TIP3    H2 1945   6.611   2.392   2.666  0.1923  0.3130 -1.3307
  661TIP3   OH2 1946   3.024   3.988   2.203 -0.1272  0.2384  0.4604
  661TIP3    H1 1947   3.031   3.990   2.107 -2.6060  3.0825  0.2052
  661TIP3    H2 1948   3.109   4.019   2.234  0.9029 -1.2399 -0.7375
  662TIP3   OH2 1949   4.738   5.493   0.716 -0.6086 -0.4090  0.3815
  662TIP3    H1 1950   4.712   5.401   0.721 -1.0021 -0.2858  0.6852
  662TIP3    H2 1951   4.834   5.491   0.711 -0.7009 -0.9415 -2.4607
  663TIP3   OH2 1952   0.360   4.039   5.304 -0.5230 -0.1257 -0.9065
  663TIP3    H1 1953   0.446   3.999   5.295 -0.6615 -0.0030 -3.2929
  663TIP3    H2 1954   0.372   4.106   5.372  0.9841 -0.7630 -0.5032
  664TIP3   OH2 1955   1.270   0.078   0.367  0.5862 -0.2246  0.2597
  664TIP3    H1 1956   1.214   0.085   0.445  1.1157 -0.5194  0.6757
  664TIP3    H2 1957   1.291  -0.015   0.360 -1.2663 -0.5669 -1.5517
  665TIP3   OH2 1958   7.125   4.466   2.449  0.2005 -0.1315 -0.4321
  665TIP3    H1 1959   7.176   4.408   2.505 -0.1893 -2.3741 -2.2527
  665TIP3    H2 1960   7.042   4.420   2.436  0.3948  0.1047 -3.0769
  666TIP3   OH2 1961   4.647   1.620   0.293 -0.8970 -0.6608  0.0921
  666TIP3    H1 1962   4.606   1.703   0.266  0.3249 -0.2436 -0.5776
  666TIP3    H2 1963   4.730   1.646   0.333 -1.3632 -1.4692  1.6743
  667TIP3   OH2 1964   5.981   3.098   1.137 -0.1492  0.5296  0.2029
  667TIP3    H1 1965   5.974   3.090   1.042  0.0404 -0.9426  0.2952
  667TIP3    H2 1966   6.013   3.187   1.151 -1.0615  1.0850 -1.0568
  668TIP3   OH2 1967   1.813   0.814   4.814 -0.5232  0.2332 -0.2161
  668TIP3    H1 1968   1.877   0.743   4.808 -1.2848 -0.5858  0.9146
  668TIP3    H2 1969   1.841   0.864   4.891 -0.2008  0.9702 -0.7980
  669TIP3   OH2 1970   0.290   5.946   3.154 -0.3934 -0.2659  0.0980
  669TIP3    H1 1971   0.295   5.864   3.204 -0.0330 -0.2667  0.0644
  669TIP3    H2 1972   0.375   5.953   3.112 -0.5437 -0.0414 -0.1684
  670TIP3   OH2 1973   4.735   5.747   2.452 -0.5168  0.2745  0.0781
  670TIP3    H1 1974   4.712   5.707   2.536 -0.9221  2.1194  0.8965
  670TIP3    H2 1975   4.802   5.690   2.416 -0.6249 -0.7813  1.4694
  671TIP3   OH2 1976   2.568   5.711   3.919  1.3282  0.7418 -0.4326
  671TIP3    H1 1977   2.659   5.696   3.946  1.3959  0.9766 -0.5240
  671TIP3    H2 1978   2.518   5.711   4.000  1.0890 -1.4991 -0.5225
  672TIP3   OH2 1979   2.535   6.225   0.513  0.3248  0.1016  0.4473
  672TIP3    H1 1980   2.549   6.317   0.538  0.9401  0.9862 -2.6664
  672TIP3    H2 1981   2.441   6.220   0.495  0.2742  0.0795  0.7093
  673TIP3   OH2 1982   2.014   0.773   2.888 -0.0794 -0.1183  0.3467
  673TIP3    H1 1983   1.983   0.742   2.803 -1.0670  2.3154 -0.2485
  673TIP3    H2 1984   1.996   0.867   2.888  2.1830  0.4145  2.2747
  674TIP3   OH2 1985   7.177   6.274   4.448 -0.5800  0.4090 -0.4414
  674TIP3    H1 1986   7.145   6.230   4.370  0.5175 -1.3495  0.0456
  674TIP3    H2 1987   7.124   6.238   4.520  0.1781  0.0280 -0.0635
  675TIP3   OH2 1988   5.984   3.597   0.759 -0.0659  0.3882 -0.5718
  675TIP3    H1 1989   5.897   3.602   0.720  0.0390 -0.1209 -0.8756
  675TIP3    H2 1990   5.977   3.530   0.827  0.0524  0.4561 -0.4909
  676TIP3   OH2 1991   2.184   2.906   4.258 -0.4244  0.5309  0.3464
  676TIP3    H1 1992   2.102   2.878   4.297 -0.8954 -1.9282 -2.0727
  676TIP3    H2 1993   2.160   2.935   4.170  1.2457  0.0851 -0.2958
  677TIP3   OH2 1994   4.588   1.297   0.772 -0.1865 -0.2507 -0.1340
  677TIP3    H1 1995   4.579   1.369   0.709 -1.9621  0.3485  0.7156
  677TIP3    H2 1996   4.550   1.332   0.853 -0.3766 -1.8943  0.5205
  678TIP3   OH2 1997   0.471   3.449   4.642  0.2165  0.1151 -0.0086
  678TIP3    H1 1998   0.534   3.497   4.695  1.6763 -2.0002  0.2940
  678TIP3    H2 1999   0.387   3.492   4.659  1.3195  2.1082  0.7047
  679TIP3   OH2 2000   2.182   5.437   2.540 -0.4466 -1.0733 -0.5022
  679TIP3    H1 2001   2.210   5.502   2.475  0.6836  0.7685  1.6646
  679TIP3    H2 2002   2.251   5.439   2.606 -1.1261 -3.4967  0.3571
  680TIP3   OH2 2003   5.935   5.224   5.680  0.0290 -0.4402 -0.5292
  680TIP3    H1 2004   5.876   5.296   5.703  0.5344 -0.6225  1.5290
  680TIP3    H2 2005   5.913   5.155   5.742  1.7541 -0.8648 -0.3424
  681TIP3   OH2 2006   1.830   5.683   2.308  0.5278 -0.3964 -0.8605
  681TIP3    H1 2007   1.743   5.716   2.285  0.5771  0.7227  0.4362
  681TIP3    H2 2008   1.820   5.646   2.395  1.4546  0.2486 -0.4588
  682TIP3   OH2 2009   0.905   4.549   3.037 -0.1254 -0.1953 -0.4208
  682TIP3    H1 2010   0.994   4.540   3.005  0.5164 -0.3951  1.3470
  682TIP3    H2 2011   0.905   4.629   3.089 -0.7532 -0.6131  0.2505
  683TIP3   OH2 2012   6.450   3.482   2.637  0.9034  0.6234 -0.1503
  683TIP3    H1 2013   6.449   3.539   2.714  2.4652 -0.2717  0.6027
  683TIP3    H2 2014   6.446   3.393   2.674 -0.6415  0.1891 -1.2463
  684TIP3   OH2 2015   3.984   1.211   4.758 -0.3432  0.4437  0.0718
  684TIP3    H1 2016   3.957   1.237   4.846 -0.4508  0.0174  0.1709
  684TIP3    H2 2017   4.074   1.241   4.750 -0.0856 -0.1700  0.6057
  685TIP3   OH2 2018   4.267   3.927   3.608 -0.5883 -0.1259  0.5883
  685TIP3    H1 2019   4.224   3.842   3.599  0.2138 -0.5553  0.7225
  685TIP3    H2 2020   4.344   3.909   3.663 -0.6377  0.7650  0.9596
  686TIP3   OH2 2021   2.518   2.854   1.296 -0.2517 -0.2696 -0.5025
  686TIP3    H1 2022   2.452   2.851   1.366 -0.5642  1.4729 -0.6673
  686TIP3    H2 2023   2.588   2.796   1.326  0.8507  2.3970  2.5897
  687TIP3   OH2 2024   3.917   1.154   3.128 -0.3057 -0.3784 -0.0162
  687TIP3    H1 2025   3.982   1.210   3.087  1.1014 -2.8122 -1.3614
  687TIP3    H2 2026   3.850   1.214   3.160  1.9359  2.1499  0.2745
  688TIP3   OH2 2027   1.973   1.198   0.263 -0.5756  0.1197  0.5081
  688TIP3    H1 2028   2.064   1.166   0.260 -0.4363  0.4448  0.9930
  688TIP3    H2 2029   1.957   1.235   0.176  0.2815  1.4248  0.8663
  689TIP3   OH2 2030   3.351   4.498   2.189 -0.3079  0.5827 -0.1965
  689TIP3    H1 2031   3.424   4.528   2.242  0.5398  2.0706 -2.0720
  689TIP3    H2 2032   3.380   4.413   2.154 -1.0650 -0.6455  1.9321
  690TIP3   OH2 2033   2.427   5.319   4.759 -0.7154  0.1617 -0.0698
  690TIP3    H1 2034   2.424   5.386   4.827  0.1544 -2.7174  3.1232
  690TIP3    H2 2035   2.506   5.340   4.708  1.8541 -0.3836  3.3004
  691TIP3   OH2 2036   3.297   5.961   2.945 -0.3709  0.0062  0.2263
  691TIP3    H1 2037   3.390   5.967   2.965  0.0141  2.1544 -1.6880
  691TIP3    H2 2038   3.293   5.915   2.861 -0.9929  0.1782  0.1525
  692TIP3   OH2 2039   6.920   3.837   2.373 -0.1019  0.9146  0.8676
  692TIP3    H1 2040   6.948   3.837   2.465  0.2075  0.9876  0.7732
  692TIP3    H2 2041   6.987   3.787   2.327 -1.7214 -1.7143  1.1068
  693TIP3   OH2 2042   1.185   6.621   0.535 -0.4479  0.4418 -0.2151
  693TIP3    H1 2043   1.174   6.527   0.522 -0.6180  0.4628 -0.2225
  693TIP3    H2 2044   1.096   6.656   0.533 -0.6236  0.2958  2.2626
  694TIP3   OH2 2045   6.096   4.507   1.270  0.2201 -0.5143 -0.4423
  694TIP3    H1 2046   6.120   4.597   1.294  2.6726 -0.5497 -2.3930
  694TIP3    H2 2047   6.062   4.514   1.181 -1.1362 -1.3651 -0.0250
  695TIP3   OH2 2048   3.233   2.500   4.580 -0.8407 -0.4913 -0.1411
  695TIP3    H1 2049   3.298   2.469   4.516 -1.8492 -1.1485 -0.8830
  695TIP3    H2 2050   3.161   2.533   4.526 -0.4459  1.8113  0.6495
  696TIP3   OH2 2051   0.205   4.396   2.280  0.0877  0.1326 -0.5743
  696TIP3    H1 2052   0.247   4.329   2.227  2.0368  1.1184 -0.3801
  696TIP3    H2 2053   0.112   4.376   2.276  0.2104 -0.2661 -3.7305
  697TIP3   OH2 2054   1.321   6.451   0.292 -0.6392  0.6196  0.8507
  697TIP3    H1 2055   1.266   6.502   0.353 -1.2581  1.1334 -0.1113
  697TIP3    H2 2056   1.400   6.503   0.282 -1.9287  2.3008 -1.3958
  698TIP3   OH2 2057   4.425   3.950   1.253 -0.0608 -0.0105 -0.3889
  698TIP3    H1 2058   4.509   3.994   1.238  0.0313 -0.0851 -0.1025
  698TIP3    H2 2059   4.418   3.888   1.181  0.3363 -0.3036 -0.1811
  699TIP3   OH2 2060   6.935   3.796   4.417 -0.4314  0.3293  0.0412
  699TIP3    H1 2061   6.922   3.817   4.509 -1.4983  0.1801 -0.0589
  699TIP3    H2 2062   6.912   3.704   4.409 -1.5487  0.6384 -0.5747
  700TIP3   OH2 2063   7.027   0.314   0.110 -0.3539  0.9380 -0.0531
  700TIP3    H1 2064   6.948   0.366   0.092 -1.9549 -1.3261  0.0605
  700TIP3    H2 2065   7.019   0.238   0.053  2.3746  1.1568 -0.8662
  701TIP3   OH2 2066   3.547   0.847   3.790  0.2770 -0.2390  0.5345
  701TIP3    H1 2067   3.557   0.807   3.876 -0.3360 -2.4610 -0.3642
  701TIP3    H2 2068   3.607   0.798   3.733 -0.9396 -0.3118 -0.7421
  702TIP3   OH2 2069   5.484   0.840   1.069 -0.2469 -0.2098 -0.3293
  702TIP3    H1 2070   5.400   0.884   1.063 -0.2339 -0.1181  0.1354
  702TIP3    H2 2071   5.548   0.911   1.076 -0.2397 -0.3009  0.5817
  703TIP3   OH2 2072   2.663   0.093   1.079 -0.3375 -0.1203  0.1212
  703TIP3    H1 2073   2.589   0.147   1.107 -0.3996  0.5395 -1.2310
  703TIP3    H2 2074   2.740   0.134   1.119 -0.7859 -1.7423  2.8790
  704TIP3   OH2 2075   1.519   4.325   4.108  0.6622 -0.3717 -1.4348
  704TIP3    H1 2076   1.448   4.265   4.132 -0.3493  0.6117 -1.8880
  704TIP3    H2 2077   1.498   4.407   4.151  1.1668  0.1307 -2.1078
  705TIP3   OH2 2078   1.848   6.514   3.037 -0.0914  0.1814 -0.0600
  705TIP3    H1 2079   1.911   6.555   3.096  0.4161 -1.1804  0.3619
  705TIP3    H2 2080   1.767   6.564   3.050  0.5189  1.0798  0.3843
  706TIP3   OH2 2081   4.324   1.358   5.470 -0.3634 -0.4675 -0.1798
  706TIP3    H1 2082   4.329   1.380   5.563  0.6724 -1.6770  0.0728
  706TIP3    H2 2083   4.388   1.415   5.428 -0.1696 -0.5609 -0.0136
  707TIP3   OH2 2084   6.778   3.396   5.798  0.0296 -0.0278  0.3478
  707TIP3    H1 2085   6.786   3.359   5.710 -1.0499  0.2702  0.1071
  707TIP3    H2 2086   6.795   3.490   5.786  0.1029 -0.0215  0.4985
  708TIP3   OH2 2087   7.077   1.566   5.530 -0.0173 -0.1624  0.3850
  708TIP3    H1 2088   7.151   1.584   5.472 -0.5206 -2.2029 -1.0069
  708TIP3    H2 2089   7.117   1.556   5.617  1.1720 -0.0255 -0.1208
  709TIP3   OH2 2090   4.657   0.733   0.477  0.1544 -0.3298 -0.3144
  709TIP3    H1 2091   4.710   0.765   0.404  0.5979  3.6200  1.5002
  709TIP3    H2 2092   4.573   0.777   0.467 -0.5355 -1.4389  0.4238
  710TIP3   OH2 2093   6.599   4.185   3.272  0.0479  0.6834  0.4846
  710TIP3    H1 2094   6.543   4.262   3.281 -1.9467 -0.7196  0.5317
  710TIP3    H2 2095   6.545   4.120   3.228  1.3946 -0.9985  1.1864
  711TIP3   OH2 2096   4.957   0.166   1.534 -0.0045  0.1635  0.3000
  711TIP3    H1 2097   5.041   0.124   1.553 -0.1697 -0.3883 -0.1651
  711TIP3    H2 2098   4.972   0.217   1.454  0.1027  0.7285  0.6723
  712TIP3   OH2 2099   5.700   3.383   2.109 -0.1295  0.3089 -0.0076
  712TIP3    H1 2100   5.723   3.382   2.016  0.4934  0.6292  0.1358
  712TIP3    H2 2101   5.776   3.421   2.152 -0.3797  0.0871  0.6475
  713TIP3   OH2 2102   6.989   0.600   3.715  0.3577 -0.1288 -0.0278
  713TIP3    H1 2103   7.014   0.544   3.642  0.9003  0.8635 -0.6384
  713TIP3    H2 2104   6.921   0.657   3.679  1.2839  1.0042 -0.0781
  714TIP3   OH2 2105   6.366   2.381   2.351 -0.1155 -0.3111  0.2063
  714TIP3    H1 2106   6.342   2.412   2.263 -0.4294  1.7212  0.9464
  714TIP3    H2 2107   6.462   2.380   2.350 -0.1151 -0.2713 -0.1472
  715TIP3   OH2 2108   4.374   4.067   1.752 -0.2972  0.3279 -0.1843
  715TIP3    H1 2109   4.319   4.007   1.803  0.0707  1.1235  1.1761
  715TIP3    H2 2110   4.315   4.140   1.731  0.2412  1.2564  1.4107
  716TIP3   OH2 2111   1.503   5.711   1.167  0.5520 -0.0543  0.1483
  716TIP3    H1 2112   1.458   5.794   1.187  3.6652  1.4987  1.4420
  716TIP3    H2 2113   1.475   5.652   1.238 -2.6990 -0.7206 -1.4775
  717TIP3   OH2 2114   6.325   6.093   3.730  0.5230  0.6925  0.0998
  717TIP3    H1 2115   6.320   5.998   3.730 -0.0312  0.7004  1.2305
  717TIP3    H2 2116   6.238   6.122   3.703  0.1248  0.8554  1.4596
  718TIP3   OH2 2117   3.340   0.425   1.885 -0.2431  0.0383  0.0418
  718TIP3    H1 2118   3.319   0.518   1.874  1.1494  0.1761 -1.9775
  718TIP3    H2 2119   3.287   0.381   1.818 -0.6990 -0.6326  0.8177
  719TIP3   OH2 2120   2.143   5.539   0.366 -0.3857 -0.2211  0.0281
  719TIP3    H1 2121   2.164   5.569   0.278 -0.5130  1.5412  0.5527
  719TIP3    H2 2122   2.222   5.556   0.418 -0.7478 -0.0170  0.5272
  720TIP3   OH2 2123   1.878   6.409   3.969  0.0321  0.3978 -0.0211
  720TIP3    H1 2124   1.952   6.351   3.948 -0.7881 -0.8927  0.5190
  720TIP3    H2 2125   1.903   6.450   4.052 -0.1191 -0.5464  0.5080
  721TIP3   OH2 2126   7.113   4.976   2.445 -0.4927 -0.0833 -0.0560
  721TIP3    H1 2127   7.185   4.961   2.384 -0.5944 -2.0236  0.2540
  721TIP3    H2 2128   7.085   4.889   2.472 -2.0139  0.6665  0.9534
  722TIP3   OH2 2129   5.112   0.581   5.692 -0.4375  0.5137 -0.0352
  722TIP3    H1 2130   5.077   0.641   5.626 -1.6075 -0.1580 -0.0653
  722TIP3    H2 2131   5.034   0.541   5.730  0.2432  0.5810  1.4715
  723TIP3   OH2 2132   5.821   5.590   1.845 -0.4989 -0.1078 -0.0174
  723TIP3    H1 2133   5.828   5.685   1.841  0.7967 -0.1958 -0.2411
  723TIP3    H2 2134   5.864   5.559   1.765  1.0981 -0.9402  1.1030
  724TIP3   OH2 2135   0.048   2.931   4.854 -0.1826 -0.1450  0.0245
  724TIP3    H1 2136   0.139   2.905   4.847 -0.4279 -0.8280 -0.7930
  724TIP3    H2 2137   0.047   2.999   4.922  0.8734 -0.3580  0.2621
  725TIP3   OH2 2138   2.886   5.269   2.786 -0.6545  0.6678 -0.2215
  725TIP3    H1 2139   2.895   5.242   2.695  0.7812 -0.1388  0.1247
  725TIP3    H2 2140   2.964   5.234   2.829 -1.5397  0.6075  1.4178
  726TIP3   OH2 2141   1.406   1.765   1.136  0.5002 -0.3753 -0.1078
  726TIP3    H1 2142   1.311   1.778   1.132  0.4550 -0.8846 -1.0363
  726TIP3    H2 2143   1.434   1.816   1.212 -0.4203  0.3884 -0.2558
  727TIP3   OH2 2144   5.955   2.321   1.850 -0.4166 -0.4435 -0.4790
  727TIP3    H1 2145   5.980   2.319   1.942 -3.0414 -3.4270  0.3753
  727TIP3    H2 2146   6.006   2.252   1.809  0.2785  0.4524 -1.1638
  728TIP3   OH2 2147   3.657   3.624   0.102  0.4400 -0.0630  0.4006
  728TIP3    H1 2148   3.705   3.686   0.048  0.7386 -3.3500 -3.5842
  728TIP3    H2 2149   3.681   3.538   0.067 -2.0479 -2.3514  3.6814
  729TIP3   OH2 2150   0.577   6.177   2.103  0.0015  0.1522  0.3743
  729TIP3    H1 2151   0.581   6.089   2.142 -2.4048  1.0629  2.9908
  729TIP3    H2 2152   0.504   6.172   2.042  0.8228 -0.0013 -0.6329
  730TIP3   OH2 2153   2.874   2.703   5.666 -0.2278  0.3423  0.0403
  730TIP3    H1 2154   2.897   2.612   5.683  1.7295  0.4731 -1.5155
  730TIP3    H2 2155   2.945   2.736   5.610 -1.3885  2.5381 -0.2681
  731TIP3   OH2 2156   3.312   6.420   0.275 -0.2565 -0.8986 -0.9223
  731TIP3    H1 2157   3.377   6.362   0.315 -0.9422 -1.0823 -0.0574
  731TIP3    H2 2158   3.364   6.480   0.221  0.6848 -0.6771  0.2055
  732TIP3   OH2 2159   1.361   2.092   3.597  0.7255  0.0426  0.7140
  732TIP3    H1 2160   1.390   2.182   3.581 -1.2170  0.4890 -0.5970
  732TIP3    H2 2161   1.425   2.037   3.551  0.5145  0.8853 -0.6186
  733TIP3   OH2 2162   4.638   2.344   1.358  0.4040 -0.3937  0.1292
  733TIP3    H1 2163   4.687   2.366   1.279  0.3154 -1.1619 -0.1520
  733TIP3    H2 2164   4.547   2.344   1.331  0.4360 -1.6779 -0.0430
  734TIP3   OH2 2165   2.301   3.822   3.260 -0.2630 -0.1749  0.3063
  734TIP3    H1 2166   2.340   3.910   3.256  0.5020 -0.4264  1.6348
  734TIP3    H2 2167   2.228   3.831   3.321 -1.5459 -0.0066 -1.1877
  735TIP3   OH2 2168   3.303   0.275   1.188 -0.5041  0.3282 -0.3125
  735TIP3    H1 2169   3.215   0.273   1.224 -0.3063  0.2332  0.1635
  735TIP3    H2 2170   3.355   0.321   1.253 -0.4727  1.6009 -1.1900
  736TIP3   OH2 2171   3.523   6.574   0.164 -0.2495 -0.7593 -0.1846
  736TIP3    H1 2172   3.508   6.628   0.087 -1.2102  0.1844  0.6465
  736TIP3    H2 2173   3.524   6.635   0.238  0.6818 -1.6382  0.5663
  737TIP3   OH2 2174   5.283   1.141   3.109 -0.1102 -0.3603 -0.3339
  737TIP3    H1 2175   5.305   1.110   3.197 -1.4859 -1.3967 -0.3114
  737TIP3    H2 2176   5.210   1.201   3.123  2.0323  2.4630 -0.4589
  738TIP3   OH2 2177   3.631   4.654   3.538  0.0451 -0.0193 -0.1791
  738TIP3    H1 2178   3.573   4.609   3.599  0.9407 -0.6080  0.2579
  738TIP3    H2 2179   3.679   4.584   3.494  0.5872  0.4610 -0.3668
  739TIP3   OH2 2180   1.403   2.314   5.159  0.1996 -0.0043  0.1927
  739TIP3    H1 2181   1.492   2.286   5.181  0.3151  0.7562  0.7267
  739TIP3    H2 2182   1.359   2.234   5.130  0.8933 -0.4881  0.4520
  740TIP3   OH2 2183   4.415   3.457   0.747  0.5016 -0.3442 -0.3127
  740TIP3    H1 2184   4.334   3.466   0.797  0.4261  0.3176 -0.5373
  740TIP3    H2 2185   4.469   3.532   0.774  1.2194 -1.0139  0.1571
  741TIP3   OH2 2186   4.645   4.528   0.596  0.6233  0.4961  0.1537
  741TIP3    H1 2187   4.676   4.458   0.539  1.3753  1.7929 -1.1228
  741TIP3    H2 2188   4.550   4.515   0.601  0.6463 -0.1169 -0.7638
  742TIP3   OH2 2189   0.390   0.687   2.030 -0.4001 -0.8680  0.4140
  742TIP3    H1 2190   0.353   0.683   1.942  1.4232 -0.4361 -0.4067
  742TIP3    H2 2191   0.353   0.610   2.075 -1.4476 -1.0262 -0.6603
  743TIP3   OH2 2192   5.508   0.383   5.081  0.4880  0.2103 -0.3664
  743TIP3    H1 2193   5.603   0.377   5.090  0.3657 -0.8804  0.3997
  743TIP3    H2 2194   5.485   0.304   5.031 -0.2678 -1.0052  1.7743
  744TIP3   OH2 2195   1.813   3.792   5.736  0.3915 -0.2616  0.3872
  744TIP3    H1 2196   1.832   3.793   5.643  0.3450  0.4845  0.3845
  744TIP3    H2 2197   1.742   3.855   5.748  1.2406  0.5746  1.1038
  745TIP3   OH2 2198   6.132   5.790   1.649 -0.2311 -0.0272 -0.4242
  745TIP3    H1 2199   6.225   5.767   1.647  0.0277  0.9624 -1.5883
  745TIP3    H2 2200   6.115   5.829   1.563 -1.0321  2.3651  0.7045
  746TIP3   OH2 2201   2.677   1.025   1.749  0.0192  0.4368  0.0134
  746TIP3    H1 2202   2.726   1.023   1.831  1.1522 -0.4867 -0.6619
  746TIP3    H2 2203   2.600   0.971   1.766 -0.2823  1.0876  0.7737
  747TIP3   OH2 2204   6.111   4.980   5.537  0.3138 -0.1718  0.0165
  747TIP3    H1 2205   6.152   4.900   5.504  1.6334  0.1094  0.8853
  747TIP3    H2 2206   6.018   4.962   5.536  0.5152 -1.2738 -0.9434
  748TIP3   OH2 2207   4.621   4.096   2.608 -0.5356  0.0341 -0.3317
  748TIP3    H1 2208   4.597   4.029   2.544 -1.7049 -1.2371  1.3741
  748TIP3    H2 2209   4.616   4.178   2.558 -2.2763 -0.8097 -1.6721
  749TIP3   OH2 2210   4.179   6.736   5.397 -0.4689 -0.3226 -0.7363
  749TIP3    H1 2211   4.245   6.802   5.415 -0.0418 -0.9717  0.2083
  749TIP3    H2 2212   4.178   6.681   5.476 -0.5954 -1.6109 -1.5907
  750TIP3   OH2 2213   0.723   6.583   3.612 -0.5892  0.7495 -0.1687
  750TIP3    H1 2214   0.725   6.495   3.576 -0.6787  0.6296  0.1144
  750TIP3    H2 2215   0.680   6.574   3.697 -0.2873  1.0054  0.0176
  751TIP3   OH2 2216   2.004   5.720   4.466 -0.3460  0.3760  0.5525
  751TIP3    H1 2217   1.940   5.654   4.492 -0.6094 -0.0292 -1.0134
  751TIP3    H2 2218   2.069   5.673   4.415 -1.3019  1.4791 -1.8303
  752TIP3   OH2 2219   0.568   0.124   3.104 -0.0176 -0.2416  0.2691
  752TIP3    H1 2220   0.560   0.192   3.171 -1.0324  0.1370 -0.2161
  752TIP3    H2 2221   0.562   0.171   3.021  3.0376 -0.4601 -0.1807
  753TIP3   OH2 2222   1.049   0.641   2.626 -0.0768 -0.3931 -0.2452
  753TIP3    H1 2223   1.085   0.572   2.571 -0.0726  0.7544 -1.7629
  753TIP3    H2 2224   0.978   0.679   2.574 -0.1209  0.6845  0.5665
  754TIP3   OH2 2225   2.186   6.727   0.068  0.2492  0.0831 -0.5016
  754TIP3    H1 2226   2.174   6.790   0.139 -0.0513 -1.9598  1.3600
  754TIP3    H2 2227   2.115   6.746   0.007 -0.7454  0.5879  0.7651
  755TIP3   OH2 2228   5.811   1.464   0.444  0.2594  0.0776  0.6910
  755TIP3    H1 2229   5.860   1.535   0.486 -2.6509  1.5077  1.9779
  755TIP3    H2 2230   5.770   1.505   0.368  0.0329 -0.7492  0.3529
  756TIP3   OH2 2231   2.326   6.120   0.755  0.3269  0.3226 -0.2430
  756TIP3    H1 2232   2.283   6.192   0.708 -0.5383 -0.0645 -0.0503
  756TIP3    H2 2233   2.362   6.161   0.834 -1.7842  0.2382  0.8326
  757TIP3   OH2 2234   1.720   3.377   4.205 -0.0389  0.3397  0.2716
  757TIP3    H1 2235   1.796   3.431   4.224  0.6876 -0.7195  0.4455
  757TIP3    H2 2236   1.648   3.439   4.193  0.6589  1.3060  1.0099
  758TIP3   OH2 2237   6.511   3.402   0.796  0.1227 -0.0581 -0.3300
  758TIP3    H1 2238   6.596   3.364   0.817 -0.2728 -0.9641 -0.3332
  758TIP3    H2 2239   6.451   3.328   0.792 -1.2425  0.7669  2.3241
  759TIP3   OH2 2240   1.920   3.595   0.856  0.2070 -0.1711  0.4679
  759TIP3    H1 2241   1.944   3.528   0.792 -1.5375 -1.0574  0.6889
  759TIP3    H2 2242   1.907   3.675   0.805 -2.2720 -1.1253 -0.5292
  760TIP3   OH2 2243   5.583   6.238   2.464  0.3386  0.1473 -0.0528
  760TIP3    H1 2244   5.570   6.257   2.557  0.5581 -0.6002  0.1410
  760TIP3    H2 2245   5.577   6.142   2.458  0.0688  0.2029 -0.8477
  761TIP3   OH2 2246   6.101   1.291   5.262 -0.2903  0.0062 -0.0674
  761TIP3    H1 2247   6.185   1.320   5.227 -0.2702 -0.2805 -0.2553
  761TIP3    H2 2248   6.115   1.201   5.289 -0.5784 -0.0923 -0.2366
  762TIP3   OH2 2249   6.152   5.478   4.505  0.3478  0.1417 -0.0798
  762TIP3    H1 2250   6.078   5.532   4.477 -0.0837 -0.2816  0.2449
  762TIP3    H2 2251   6.155   5.489   4.600  0.8729  0.3736 -0.1182
  763TIP3   OH2 2252   4.477   1.249   5.235 -0.2028 -0.6935  0.3772
  763TIP3    H1 2253   4.447   1.160   5.217  1.5695 -1.2560 -0.0073
  763TIP3    H2 2254   4.476   1.292   5.149  1.1266 -1.0844  0.1361
  764TIP3   OH2 2255   5.713   0.308   4.633  0.0878  0.3664 -0.1711
  764TIP3    H1 2256   5.719   0.258   4.552 -0.0313 -2.1303  1.2506
  764TIP3    H2 2257   5.758   0.391   4.614  1.4504 -0.7617 -2.2754
  765TIP3   OH2 2258   3.902   6.050   5.557  0.4599 -0.6506  0.0385
  765TIP3    H1 2259   3.919   6.030   5.465  0.5389 -2.5426  0.4211
  765TIP3    H2 2260   3.860   6.136   5.555  1.1620 -0.2992 -1.6917
  766TIP3   OH2 2261   1.147   1.973   1.249 -0.3333  0.0163  0.0042
  766TIP3    H1 2262   1.128   1.976   1.343 -0.7279  0.9626 -0.1022
  766TIP3    H2 2263   1.209   2.045   1.235  1.2486 -1.3093 -0.1394
  767TIP3   OH2 2264   0.039   3.053   1.609  0.1949 -0.3276  0.0210
  767TIP3    H1 2265  -0.024   3.072   1.539 -0.0441 -0.6980  0.1355
  767TIP3    H2 2266   0.122   3.085   1.575  0.0804 -0.5066 -0.4346
  768TIP3   OH2 2267   0.910   6.238   5.370 -0.1741  0.1227 -0.0522
  768TIP3    H1 2268   0.919   6.333   5.384 -0.0763  0.0430  0.4453
  768TIP3    H2 2269   0.875   6.205   5.452 -0.4402 -0.2420 -0.3113
  769TIP3   OH2 2270   0.978   3.628   2.263  0.2994  0.2601 -0.1734
  769TIP3    H1 2271   0.918   3.684   2.312  0.0398 -0.4930  0.3928
  769TIP3    H2 2272   1.031   3.585   2.330  2.1002  1.5595 -0.6904
  770TIP3   OH2 2273   4.308   3.230   0.624 -0.3379  0.2124  0.3916
  770TIP3    H1 2274   4.375   3.281   0.669 -0.1062  0.8190 -0.5972
  770TIP3    H2 2275   4.252   3.195   0.694  1.5730 -1.1679  1.3202
  771TIP3   OH2 2276   6.247   4.757   4.614 -0.0762 -0.3411 -0.1634
  771TIP3    H1 2277   6.276   4.672   4.582 -0.7029 -0.4768 -0.3810
  771TIP3    H2 2278   6.280   4.820   4.549 -2.1846 -0.6975 -1.7012
  772TIP3   OH2 2279   3.958   3.951   1.438  0.1477 -0.2064  0.2169
  772TIP3    H1 2280   4.050   3.976   1.426  0.2030 -1.1296 -1.5882
  772TIP3    H2 2281   3.940   3.892   1.365 -2.2617  0.9462 -0.1920
  773TIP3   OH2 2282   2.022   3.866   3.066  0.2986 -0.6945  0.2737
  773TIP3    H1 2283   2.058   3.949   3.099  0.6930 -0.9813  0.5815
  773TIP3    H2 2284   2.037   3.804   3.138 -0.8402 -0.8180  0.4196
  774TIP3   OH2 2285   0.826   2.680   5.351 -1.2789  0.3774  0.3915
  774TIP3    H1 2286   0.889   2.742   5.314  0.3336 -1.8731 -0.8523
  774TIP3    H2 2287   0.840   2.686   5.445  0.0351  0.7075  0.1995
  775TIP3   OH2 2288   3.969   2.753   5.061  0.1796  0.0381  0.3369
  775TIP3    H1 2289   3.897   2.814   5.043 -0.8600 -1.4575 -0.8479
  775TIP3    H2 2290   3.943   2.709   5.142  0.1574  0.0787  0.3518
  776TIP3   OH2 2291   6.138   6.794   5.863 -0.5378 -0.0762 -0.6921
  776TIP3    H1 2292   6.129   6.783   5.768  0.7756  0.5268 -0.9236
  776TIP3    H2 2293   6.218   6.745   5.885  1.5805  3.0703 -0.6570
  777TIP3   OH2 2294   5.147   6.456   2.557 -0.0205  0.3925 -0.2873
  777TIP3    H1 2295   5.080   6.523   2.565 -0.8631 -0.2785 -1.4483
  777TIP3    H2 2296   5.103   6.374   2.579  1.2057  0.2584  1.9805
  778TIP3   OH2 2297   0.201   1.621   2.492  0.0979 -0.7505  0.2305
  778TIP3    H1 2298   0.285   1.650   2.526  0.1484  0.9230 -1.1208
  778TIP3    H2 2299   0.223   1.563   2.419  0.1571  0.6518 -0.9100
  779TIP3   OH2 2300   0.802   1.826   2.740 -0.2475 -0.3826 -0.1619
  779TIP3    H1 2301   0.875   1.816   2.801  0.6522  1.5772 -0.8523
  779TIP3    H2 2302   0.785   1.737   2.709 -1.2064 -1.6066  3.3821
  780TIP3   OH2 2303   4.292   4.782   0.314  0.2096  0.0630 -0.2552
  780TIP3    H1 2304   4.200   4.807   0.323  0.2216 -0.0252  0.1358
  780TIP3    H2 2305   4.328   4.845   0.252 -0.6380 -1.2328 -2.1443
  781TIP3   OH2 2306   6.062   5.488   2.146 -0.5922  0.2371  0.0137
  781TIP3    H1 2307   6.059   5.393   2.133  0.0300  0.1274  0.5960
  781TIP3    H2 2308   6.119   5.520   2.076 -1.4010  0.2860 -0.6451
  782TIP3   OH2 2309   5.435   1.607   2.436 -0.6969  0.1891  0.0411
  782TIP3    H1 2310   5.438   1.532   2.496 -0.2658 -1.0924 -1.5205
  782TIP3    H2 2311   5.449   1.683   2.493  0.2929 -1.0066  1.4927
  783TIP3   OH2 2312   1.640   6.215   5.116 -0.6101 -0.6379  0.3897
  783TIP3    H1 2313   1.660   6.305   5.139 -0.8653 -1.1682  3.1105
  783TIP3    H2 2314   1.566   6.220   5.056  1.5355  0.9959 -2.3623
  784TIP3   OH2 2315   6.491   3.045   5.183  0.0037  0.5460  0.7280
  784TIP3    H1 2316   6.455   3.133   5.186  0.9205  0.9692  0.1532
  784TIP3    H2 2317   6.439   3.000   5.116  0.0863  0.9279  0.4017
  785TIP3   OH2 2318   3.100   5.788   3.130 -0.5461 -0.1251  0.5567
  785TIP3    H1 2319   3.166   5.804   3.197  1.3159 -2.1852 -0.6414
  785TIP3    H2 2320   3.125   5.844   3.057 -1.1866  0.3818  0.7170
  786TIP3   OH2 2321   1.114   5.990   2.424  0.0078  0.0517 -0.3281
  786TIP3    H1 2322   1.173   5.961   2.354  0.6152  1.3746 -0.4032
  786TIP3    H2 2323   1.054   6.051   2.382 -0.2078  0.1633  0.1307
  787TIP3   OH2 2324   2.163   2.974   1.701  0.1695  0.1723  0.5143
  787TIP3    H1 2325   2.076   3.005   1.677 -0.3994 -1.7667 -0.1590
  787TIP3    H2 2326   2.220   3.050   1.688 -1.2109  1.1144 -0.3527
  788TIP3   OH2 2327   1.251   0.501   3.800 -0.7930 -0.0241  1.0763
  788TIP3    H1 2328   1.314   0.567   3.771 -1.2771  0.4326  1.0398
  788TIP3    H2 2329   1.173   0.552   3.823 -1.9792 -0.7651 -1.0666
  789TIP3   OH2 2330   1.343   6.338   2.632  0.2027  0.1395  0.5878
  789TIP3    H1 2331   1.380   6.288   2.705  2.3007 -1.7809 -1.6355
  789TIP3    H2 2332   1.404   6.411   2.621 -0.6235  0.9537  1.2842
  790TIP3   OH2 2333   2.912   2.833   2.124  0.2824  0.5175 -0.2911
  790TIP3    H1 2334   2.936   2.741   2.126 -1.0284  0.1359  2.4638
  790TIP3    H2 2335   2.936   2.862   2.036 -0.4451 -2.7368 -1.7060
  791TIP3   OH2 2336   3.357   6.695   4.458 -0.2204 -0.2566  0.1813
  791TIP3    H1 2337   3.391   6.685   4.547 -0.3897  0.9318  0.3939
  791TIP3    H2 2338   3.434   6.689   4.401  0.0342  0.0863  0.4901
  792TIP3   OH2 2339   6.779   0.804   3.197  0.1291 -0.1401  0.4427
  792TIP3    H1 2340   6.730   0.883   3.174  0.2363 -0.8615 -2.6756
  792TIP3    H2 2341   6.868   0.821   3.167  0.1794 -1.3410 -0.1604
  793TIP3   OH2 2342   0.993   0.262   5.625 -0.3625  0.2822 -0.5277
  793TIP3    H1 2343   0.924   0.304   5.574  0.8021  0.7625 -1.7242
  793TIP3    H2 2344   1.046   0.334   5.659 -0.1986 -0.1030  0.0592
  794TIP3   OH2 2345   1.942   1.276   1.544  0.3669  0.2148  0.0992
  794TIP3    H1 2346   1.976   1.362   1.570  0.1387  0.2292  0.3523
  794TIP3    H2 2347   1.847   1.283   1.556  0.0130  0.8407 -2.5045
  795TIP3   OH2 2348   4.073   3.520   1.878  0.2495  0.0225  0.2809
  795TIP3    H1 2349   4.117   3.573   1.812 -1.2129  0.0279 -0.7311
  795TIP3    H2 2350   4.028   3.452   1.828  0.8167 -1.2649  1.4356
  796TIP3   OH2 2351   4.342   4.854   1.996  0.2699  0.0293  0.1982
  796TIP3    H1 2352   4.305   4.803   2.068 -0.9070 -0.4357 -0.7101
  796TIP3    H2 2353   4.307   4.814   1.917  3.4965 -1.0604 -0.8360
  797TIP3   OH2 2354   7.184   4.768   5.035 -0.2072 -0.3598  0.4308
  797TIP3    H1 2355   7.277   4.782   5.050  0.0734 -0.0171 -1.4341
  797TIP3    H2 2356   7.144   4.781   5.121  0.9859  3.6445  0.5611
  798TIP3   OH2 2357   5.738   1.756   1.433  0.3191  0.1934 -0.2276
  798TIP3    H1 2358   5.816   1.741   1.486  0.4135  0.0068 -0.4205
  798TIP3    H2 2359   5.675   1.795   1.494  0.5980  0.4439 -0.0994
  799TIP3   OH2 2360   2.793   6.645   4.419 -0.6505  0.4166  0.3065
  799TIP3    H1 2361   2.714   6.596   4.444 -0.8294  1.2641  1.4648
  799TIP3    H2 2362   2.856   6.626   4.489 -0.9826  2.4276  1.2106
  800TIP3   OH2 2363   6.545   5.179   4.512 -0.4024  0.0368  0.6524
  800TIP3    H1 2364   6.484   5.205   4.581  0.1312 -0.0673  1.1709
  800TIP3    H2 2365   6.577   5.093   4.539  0.6196  0.4614  0.8331
  801TIP3   OH2 2366   0.031   2.669   0.186  0.7477 -0.1549 -0.0343
  801TIP3    H1 2367   0.032   2.592   0.243 -2.3550  0.4299  0.9919
  801TIP3    H2 2368   0.032   2.632   0.097 -0.0908 -1.3792  0.4319
  802TIP3   OH2 2369   7.143   0.140   4.965  0.2305  0.3400 -0.6512
  802TIP3    H1 2370   7.104   0.200   4.902 -1.4247  1.5787  1.4279
  802TIP3    H2 2371   7.070   0.111   5.019  1.6325 -0.3060  0.9931
  803TIP3   OH2 2372   2.495   5.488   3.075 -0.1642  0.2986  0.3118
  803TIP3    H1 2373   2.539   5.406   3.099  0.1770 -0.1991 -1.8685
  803TIP3    H2 2374   2.411   5.461   3.038  0.5141  0.8044 -1.6886
  804TIP3   OH2 2375   6.991   5.185   1.810 -0.5427 -0.5393  0.1783
  804TIP3    H1 2376   7.076   5.203   1.771 -1.3364  1.4237 -0.7375
  804TIP3    H2 2377   6.955   5.113   1.758 -0.6460  0.5611 -1.3213
  805TIP3   OH2 2378   6.841   2.687   3.877  0.1837  0.1307  0.8911
  805TIP3    H1 2379   6.899   2.683   3.953  1.7884 -0.3926 -0.2864
  805TIP3    H2 2380   6.872   2.762   3.827 -0.8030  0.4293  0.7156
  806TIP3   OH2 2381   0.328   6.126   3.819  0.3316  0.0110  0.0812
  806TIP3    H1 2382   0.378   6.102   3.897 -0.9889 -1.1729  0.5995
  806TIP3    H2 2383   0.391   6.119   3.747  1.0568 -0.8872  0.7764
  807TIP3   OH2 2384   1.712   2.279   5.186  0.0865 -0.5182  0.1014
  807TIP3    H1 2385   1.758   2.215   5.131  0.7708  1.3690 -1.6164
  807TIP3    H2 2386   1.773   2.351   5.195 -1.0136  0.3106  1.2508
  808TIP3   OH2 2387   1.658   5.499   3.094 -0.4597  0.2073 -0.2308
  808TIP3    H1 2388   1.572   5.457   3.101  0.0574 -0.9223 -0.4697
  808TIP3    H2 2389   1.638   5.589   3.069 -1.6906  0.6479  2.0726
  809TIP3   OH2 2390   5.216   5.552   1.583  0.9229 -0.2512  0.0637
  809TIP3    H1 2391   5.278   5.550   1.656  1.0843  1.4808  0.0191
  809TIP3    H2 2392   5.130   5.553   1.625  0.9464 -1.2346  0.1591
  810TIP3   OH2 2393   3.922   0.729   2.096  0.0117  0.1742  0.1404
  810TIP3    H1 2394   4.007   0.686   2.086  0.0655  0.5052 -0.9962
  810TIP3    H2 2395   3.872   0.670   2.152  0.6470 -0.5290 -0.0053
  811TIP3   OH2 2396   0.123   1.660   4.800 -0.6217  0.2393  0.1292
  811TIP3    H1 2397   0.042   1.615   4.823 -0.7750  0.4931  0.0933
  811TIP3    H2 2398   0.185   1.590   4.780 -1.3205  0.0634 -1.5517
  812TIP3   OH2 2399   2.532   5.487   5.764  0.3061 -0.1063  0.1750
  812TIP3    H1 2400   2.586   5.564   5.781  0.7986 -0.4600  0.2485
  812TIP3    H2 2401   2.448   5.507   5.804  0.2624  0.6096 -0.2790
  813TIP3   OH2 2402   1.702   0.761   5.131 -0.3136 -0.3647 -0.2756
  813TIP3    H1 2403   1.618   0.802   5.155 -0.1029  0.1729 -0.4412
  813TIP3    H2 2404   1.681   0.668   5.120 -0.9952 -0.1570 -0.8157
  814TIP3   OH2 2405   5.794   5.310   5.187 -0.0441  0.6800  0.0160
  814TIP3    H1 2406   5.730   5.371   5.222 -0.4311 -0.2728  1.0059
  814TIP3    H2 2407   5.816   5.252   5.260  2.2463  1.2193 -0.1777
  815TIP3   OH2 2408   3.343   1.709   2.670  0.1209 -0.0948  0.0951
  815TIP3    H1 2409   3.391   1.627   2.687  1.6281  1.1435  2.3348
  815TIP3    H2 2410   3.402   1.760   2.616  0.1752  0.3620  0.5756
  816TIP3   OH2 2411   3.212   1.940   5.641 -0.0202 -0.2905 -0.3154
  816TIP3    H1 2412   3.267   1.889   5.701  0.2782 -1.3821 -1.4734
  816TIP3    H2 2413   3.268   2.011   5.610 -0.1973  0.3179  0.7273
  817TIP3   OH2 2414   0.654   2.394   2.871 -0.3670  0.2249  0.3699
  817TIP3    H1 2415   0.645   2.346   2.789  0.0142  0.7576  0.0137
  817TIP3    H2 2416   0.609   2.339   2.936  0.0342 -0.5975 -0.0349
  818TIP3   OH2 2417   0.193   0.261   4.996  0.0711  0.0082 -0.4244
  818TIP3    H1 2418   0.254   0.198   5.033  0.6860  1.3451  0.9620
  818TIP3    H2 2419   0.107   0.221   5.004  0.4282 -0.5661  0.6236
  819TIP3   OH2 2420   5.252   6.796   4.227 -0.3177 -0.1884 -0.3829
  819TIP3    H1 2421   5.250   6.746   4.308 -1.3962  0.3611 -0.0519
  819TIP3    H2 2422   5.337   6.775   4.188 -0.3315 -1.4776  0.2337
  820TIP3   OH2 2423   5.092   1.922   2.938 -0.2803 -0.0122 -0.5726
  820TIP3    H1 2424   5.175   1.968   2.946 -0.6244  0.4966  0.2439
  820TIP3    H2 2425   5.108   1.854   2.873  0.7859  0.0498 -0.3876
  821TIP3   OH2 2426   6.479   0.655   3.821 -0.1030  0.0794 -0.3546
  821TIP3    H1 2427   6.560   0.606   3.826  0.0343  0.3980  0.6941
  821TIP3    H2 2428   6.421   0.612   3.884 -1.1214 -0.7874 -1.8125
  822TIP3   OH2 2429   4.543   1.551   2.159  0.5576  0.2567 -0.2419
  822TIP3    H1 2430   4.516   1.505   2.238  1.3280 -0.7623 -0.5438
  822TIP3    H2 2431   4.462   1.566   2.110  0.3403 -1.4372 -0.4643
  823TIP3   OH2 2432   0.221   2.750   3.481  0.1247 -0.0392 -0.0647
  823TIP3    H1 2433   0.177   2.674   3.519 -1.7812  0.5112 -1.0622
  823TIP3    H2 2434   0.155   2.790   3.424  1.2331  2.0777  0.0498
  824TIP3   OH2 2435   0.325   4.876   4.110 -0.1297 -0.0341 -0.3012
  824TIP3    H1 2436   0.419   4.872   4.094 -0.1797 -2.5877 -0.3528
  824TIP3    H2 2437   0.315   4.857   4.203 -0.5574  1.2919 -0.0634
  825TIP3   OH2 2438   2.940   1.727   0.425  0.1241  0.1796 -1.2121
  825TIP3    H1 2439   2.930   1.780   0.505  2.0242 -1.9965  0.6169
  825TIP3    H2 2440   2.997   1.779   0.369  1.0804  0.5870  0.0750
  826TIP3   OH2 2441   6.668   6.661   4.670 -0.0088 -0.0962  0.0528
  826TIP3    H1 2442   6.602   6.676   4.603 -0.2767 -0.6025  0.1962
  826TIP3    H2 2443   6.653   6.731   4.734 -1.7803 -1.3793  1.1288
  827TIP3   OH2 2444   6.397   5.711   1.392 -0.8698  0.1556 -0.0102
  827TIP3    H1 2445   6.406   5.712   1.488 -1.9575  0.2915  0.0986
  827TIP3    H2 2446   6.486   5.697   1.360 -0.5449 -0.2369  1.0325
  828TIP3   OH2 2447   1.490   5.880   0.091  0.0764 -0.1942  0.2592
  828TIP3    H1 2448   1.540   5.957   0.066 -0.2782 -0.5003 -1.6085
  828TIP3    H2 2449   1.398   5.907   0.082 -0.1015 -0.1790  1.8417
  829TIP3   OH2 2450   3.946   5.192   1.380  0.1804 -0.1572  0.1142
  829TIP3    H1 2451   4.013   5.168   1.317  0.1318  0.9180 -0.3588
  829TIP3    H2 2452   3.905   5.271   1.344  0.7940  1.0545  1.9361
  830TIP3   OH2 2453   3.453   0.925   2.439  0.9692  0.5864  0.2617
  830TIP3    H1 2454   3.518   0.866   2.478  0.1909  0.8415  2.0469
  830TIP3    H2 2455   3.420   0.976   2.513 -0.5749  1.1318 -0.7613
  831TIP3   OH2 2456   1.765   3.546   1.070 -0.4670  0.0697 -0.0902
  831TIP3    H1 2457   1.824   3.543   0.995  0.3739 -0.5305  0.5855
  831TIP3    H2 2458   1.805   3.609   1.130 -1.6028  1.2408 -0.4945
  832TIP3   OH2 2459   3.557   4.581   2.358  0.0465  0.4674 -0.0067
  832TIP3    H1 2460   3.540   4.633   2.436  1.7895  0.4434  0.4259
  832TIP3    H2 2461   3.615   4.635   2.304  1.4678 -0.7507  0.2104
  833TIP3   OH2 2462   7.153   2.245   0.528  0.2064  0.0466 -0.7748
  833TIP3    H1 2463   7.215   2.236   0.601 -0.8382  0.3589  0.1836
  833TIP3    H2 2464   7.068   2.257   0.570 -0.4700 -0.0424 -2.0608
  834TIP3   OH2 2465   6.965   2.017   5.138 -0.0728  0.1032  1.0794
  834TIP3    H1 2466   6.890   1.971   5.175 -0.6264  1.8447  2.2585
  834TIP3    H2 2467   6.927   2.084   5.081  0.7124 -0.9031 -0.7089
  835TIP3   OH2 2468   0.825   2.968   4.305 -0.3937  0.5347  0.5325
  835TIP3    H1 2469   0.872   3.015   4.374 -0.6341 -0.4349  1.3821
  835TIP3    H2 2470   0.894   2.935   4.248 -0.0905 -0.0513  1.2279
  836TIP3   OH2 2471   0.637   5.755   1.617  0.4976 -0.0850  0.0916
  836TIP3    H1 2472   0.653   5.842   1.581  1.1744  0.2140  1.0810
  836TIP3    H2 2473   0.720   5.708   1.603  1.1477  0.3687  2.1360
  837TIP3   OH2 2474   0.437   3.903   3.403 -0.6080  0.3536 -0.9990
  837TIP3    H1 2475   0.414   3.993   3.424  0.9544  0.6415 -0.3476
  837TIP3    H2 2476   0.510   3.883   3.462 -2.0195 -1.9335  0.0785
  838TIP3   OH2 2477   5.060   4.640   4.961  0.1039  0.1574  0.3137
  838TIP3    H1 2478   5.133   4.588   4.996  0.0931 -0.5109 -0.6207
  838TIP3    H2 2479   5.054   4.716   5.020  2.1299  0.7054 -0.1270
  839TIP3   OH2 2480   4.583   6.338  -0.015 -0.5301  0.0230 -0.7075
  839TIP3    H1 2481   4.501   6.345   0.034 -0.1223 -0.7526  0.1106
  839TIP3    H2 2482   4.651   6.336   0.052  0.1263  0.1708 -1.3600
  840TIP3   OH2 2483   4.949   1.515   0.465 -0.1834  0.1100  0.2011
  840TIP3    H1 2484   4.935   1.556   0.550 -1.6288 -1.3063  0.6950
  840TIP3    H2 2485   4.931   1.422   0.480  0.0802 -0.2588 -1.5354
  841TIP3   OH2 2486   1.376   0.398   5.147 -0.1110  0.0012  0.7330
  841TIP3    H1 2487   1.459   0.361   5.176 -0.0801 -0.0573  0.5717
  841TIP3    H2 2488   1.396   0.489   5.128  0.3703 -0.4452 -1.1260
  842TIP3   OH2 2489   1.876   3.244   4.766  0.1069 -0.6577 -0.1074
  842TIP3    H1 2490   1.837   3.224   4.851 -0.3091 -0.6971 -0.3067
  842TIP3    H2 2491   1.962   3.280   4.788  0.3659 -1.4978  0.2933
  843TIP3   OH2 2492   6.164   2.702   5.173 -0.5243  0.3898  0.2070
  843TIP3    H1 2493   6.117   2.782   5.197 -0.2966  0.8894 -0.9263
  843TIP3    H2 2494   6.121   2.673   5.093  0.0131 -0.0887  0.0860
  844TIP3   OH2 2495   0.132   5.113   1.091 -0.0947 -0.2662  0.1199
  844TIP3    H1 2496   0.088   5.118   1.176 -0.7373  0.1946 -0.2278
  844TIP3    H2 2497   0.062   5.090   1.029 -0.1612  1.8070 -0.6563
  845TIP3   OH2 2498   2.439   6.757   5.303 -0.2262 -0.3053 -0.3481
  845TIP3    H1 2499   2.448   6.841   5.349 -0.9170  0.1935 -1.1009
  845TIP3    H2 2500   2.390   6.702   5.365 -1.4400  0.4680 -0.5877
  846TIP3   OH2 2501   5.023   1.825   0.533 -0.6085  0.4680  0.2323
  846TIP3    H1 2502   4.945   1.830   0.477 -1.3608 -0.2717  1.1804
  846TIP3    H2 2503   4.988   1.810   0.621  0.6494 -1.2796  0.4747
  847TIP3   OH2 2504   3.459   0.040   3.584  0.0030  0.1397 -0.0834
  847TIP3    H1 2505   3.396   0.102   3.548 -0.3726 -1.1240 -1.7505
  847TIP3    H2 2506   3.455  -0.035   3.525  1.6696 -0.7801  0.8875
  848TIP3   OH2 2507   1.619   1.346   3.220 -0.0454 -0.4479 -0.2637
  848TIP3    H1 2508   1.665   1.319   3.140 -1.1516 -1.8514 -0.4592
  848TIP3    H2 2509   1.584   1.265   3.256 -1.4375  0.4421  0.4554
  849TIP3   OH2 2510   3.333   1.411   2.049 -0.3298  0.3279 -0.0918
  849TIP3    H1 2511   3.250   1.434   2.008 -0.7856  1.1363  1.2236
  849TIP3    H2 2512   3.343   1.474   2.121  0.5573 -0.8551  0.8681
  850TIP3   OH2 2513   1.893   3.232   2.584 -0.1310  0.3271 -0.3148
  850TIP3    H1 2514   1.927   3.239   2.496  0.0532  3.0519 -0.1119
  850TIP3    H2 2515   1.947   3.291   2.636  0.7460 -2.3023  2.0152
  851TIP3   OH2 2516   6.310   4.691   0.156  0.8119 -0.0858  0.2862
  851TIP3    H1 2517   6.242   4.625   0.142 -2.0158  2.1570  2.1449
  851TIP3    H2 2518   6.324   4.691   0.251  0.0989  2.4172  0.4691
  852TIP3   OH2 2519   4.304   1.657   0.196  0.3413  0.3766 -0.3108
  852TIP3    H1 2520   4.307   1.580   0.252  1.7497  0.5540 -0.1058
  852TIP3    H2 2521   4.310   1.623   0.107  0.9815  0.2409 -0.2196
  853TIP3   OH2 2522   2.201   3.834   4.387 -0.1476 -0.1405 -0.3401
  853TIP3    H1 2523   2.274   3.871   4.437  0.3033  0.9090 -1.7443
  853TIP3    H2 2524   2.242   3.793   4.311 -1.0786  1.4976 -1.7814
  854TIP3   OH2 2525   1.662   4.416   3.577  0.5947 -0.0637  0.2980
  854TIP3    H1 2526   1.728   4.485   3.586  2.4562 -1.3981 -1.9569
  854TIP3    H2 2527   1.632   4.400   3.667 -1.0347  4.5292  0.8326
  855TIP3   OH2 2528   4.366   4.702   5.240  0.1781 -0.3340  0.1622
  855TIP3    H1 2529   4.377   4.742   5.326  0.9398 -1.1589  0.4600
  855TIP3    H2 2530   4.388   4.610   5.254 -0.0510 -0.5487 -0.8421
  856TIP3   OH2 2531   3.866   3.169   2.670  0.3245 -0.6854 -0.1858
  856TIP3    H1 2532   3.892   3.083   2.635  0.5047 -0.5087 -0.4937
  856TIP3    H2 2533   3.879   3.162   2.764  2.2823 -0.3456 -0.3915
  857TIP3   OH2 2534   1.897   4.201   5.083 -0.1535 -0.0663  0.3085
  857TIP3    H1 2535   1.989   4.179   5.067 -0.6751 -1.2413 -1.2538
  857TIP3    H2 2536   1.900   4.293   5.110  1.5453 -0.3326  1.2484
  858TIP3   OH2 2537   5.011   6.158   0.208  0.3735  0.3249  0.1041
  858TIP3    H1 2538   4.940   6.094   0.209  1.1966 -0.6227  0.1491
  858TIP3    H2 2539   5.055   6.144   0.125  1.9274 -0.7727  1.0496
  859TIP3   OH2 2540   3.146   1.239   3.513  0.3945  0.0113 -0.9896
  859TIP3    H1 2541   3.119   1.329   3.531 -0.2207 -0.1440 -1.1030
  859TIP3    H2 2542   3.079   1.185   3.555  1.3680 -0.4290  0.0684
  860TIP3   OH2 2543   2.519   3.636   3.794 -0.2029 -0.1827  0.1329
  860TIP3    H1 2544   2.504   3.713   3.739 -0.2603  1.3034  2.1231
  860TIP3    H2 2545   2.434   3.592   3.796 -0.1609 -0.3375 -1.0615
  861TIP3   OH2 2546   5.021   0.630   4.572 -0.0867  0.0011  0.3183
  861TIP3    H1 2547   5.077   0.707   4.570  0.3742 -0.3319 -1.4655
  861TIP3    H2 2548   4.934   0.663   4.590  0.1794  0.8787  0.0111
  862TIP3   OH2 2549   2.402   5.914   2.782 -0.2602 -0.3641 -0.0567
  862TIP3    H1 2550   2.354   5.832   2.772  1.4382 -1.5279  0.9604
  862TIP3    H2 2551   2.481   5.903   2.729  0.6568  0.0510  1.1814
  863TIP3   OH2 2552   0.480   2.529   0.105 -0.1190 -0.4117 -0.4661
  863TIP3    H1 2553   0.534   2.604   0.080 -2.0013  0.7689 -1.2025
  863TIP3    H2 2554   0.522   2.494   0.183  1.4104  0.7473 -0.7227
  864TIP3   OH2 2555   5.021   5.098   5.499 -0.8106 -0.0288  0.2187
  864TIP3    H1 2556   4.961   5.052   5.557 -0.9214 -2.1317 -1.4656
  864TIP3    H2 2557   4.970   5.116   5.420  0.1025  0.3102 -0.3133
  865TIP3   OH2 2558   3.778   5.061   0.536 -0.2415  0.0599  0.3270
  865TIP3    H1 2559   3.792   5.105   0.620  0.7267  1.4146 -0.4949
  865TIP3    H2 2560   3.863   5.024   0.513 -0.2547  0.4758 -0.4559
  866TIP3   OH2 2561   2.459   5.255   3.546  0.1036 -0.7003 -0.1911
  866TIP3    H1 2562   2.470   5.349   3.540  0.8053 -0.8126 -0.7253
  866TIP3    H2 2563   2.482   5.234   3.636 -1.0388 -0.2443  0.2295
  867TIP3   OH2 2564   1.263   3.633   1.739  0.3067 -0.2178 -1.1345
  867TIP3    H1 2565   1.237   3.655   1.828 -0.8057 -2.4790 -0.8151
  867TIP3    H2 2566   1.347   3.677   1.726 -0.2278  1.3437  0.4767
  868TIP3   OH2 2567   7.113   1.757   1.158 -0.0355  0.1851  1.0161
  868TIP3    H1 2568   7.078   1.774   1.071 -0.1114  0.7198  1.1520
  868TIP3    H2 2569   7.192   1.811   1.164  0.1064 -0.0356  1.1922
  869TIP3   OH2 2570   0.550   1.950   5.897 -0.0037 -0.3490  0.1563
  869TIP3    H1 2571   0.606   1.872   5.897  1.4591  0.6302  1.2231
  869TIP3    H2 2572   0.593   2.010   5.837  0.2114  0.4999  1.1468
  870TIP3   OH2 2573   0.038   2.051   1.950  0.0140  0.1512 -0.1298
  870TIP3    H1 2574   0.120   2.025   1.994  1.1383  1.1924 -1.5048
  870TIP3    H2 2575   0.061   2.131   1.903 -1.5799 -0.0182 -1.2646
  871TIP3   OH2 2576   1.646   4.408   0.133  0.0856 -0.0773 -0.2460
  871TIP3    H1 2577   1.652   4.501   0.111 -1.3652 -0.3568 -2.1553
  871TIP3    H2 2578   1.707   4.396   0.206  1.4241  2.0650 -0.9098
  872TIP3   OH2 2579   4.490   4.957   1.695 -0.0410  0.0226  0.4353
  872TIP3    H1 2580   4.448   4.872   1.706  1.6013 -0.7332  1.1521
  872TIP3    H2 2581   4.553   4.944   1.625  0.8336  0.3963  1.1373
  873TIP3   OH2 2582   6.049   4.542   2.993  0.5892  0.0686 -0.0780
  873TIP3    H1 2583   6.129   4.579   3.031  0.2690  0.6207  0.0735
  873TIP3    H2 2584   6.012   4.488   3.062  1.1052 -0.6145 -0.3291
  874TIP3   OH2 2585   4.519   1.464   4.291  0.2675 -0.6508 -0.6104
  874TIP3    H1 2586   4.585   1.501   4.232 -0.0069  1.1034  0.1398
  874TIP3    H2 2587   4.448   1.437   4.233 -0.7125  2.5230 -1.0905
  875TIP3   OH2 2588   7.213   5.436   2.760 -0.4721  0.3931  0.1326
  875TIP3    H1 2589   7.169   5.363   2.802 -0.5425  0.5436  0.3233
  875TIP3    H2 2590   7.184   5.513   2.809 -0.1541  0.5153  0.1286
  876TIP3   OH2 2591   4.868   1.001   0.115  0.3533  0.2016  0.3852
  876TIP3    H1 2592   4.935   1.045   0.168  1.5542 -1.3764  0.2522
  876TIP3    H2 2593   4.876   1.042   0.029  0.5604  0.6241  0.6014
  877TIP3   OH2 2594   0.377   6.381   1.992 -0.5578 -0.1795  0.6851
  877TIP3    H1 2595   0.327   6.300   1.981 -0.0820 -0.3314 -0.4133
  877TIP3    H2 2596   0.335   6.444   1.933  0.7446 -0.4127 -0.5381
  878TIP3   OH2 2597   0.831   3.651   0.176 -0.2934  0.0982  0.1023
  878TIP3    H1 2598   0.762   3.711   0.203 -1.6254 -1.3887  0.1524
  878TIP3    H2 2599   0.809   3.568   0.219 -0.0310 -1.1600 -2.0261
  879TIP3   OH2 2600   3.657   3.522   1.017  0.3204  0.1554  0.1845
  879TIP3    H1 2601   3.720   3.451   1.023 -0.3547 -0.3648  1.9260
  879TIP3    H2 2602   3.584   3.485   0.967  0.5976  0.1242 -0.1976
  880TIP3   OH2 2603   6.154   0.934   2.808 -0.0806 -0.3909 -0.3545
  880TIP3    H1 2604   6.248   0.919   2.793  0.0608  1.6831 -2.1546
  880TIP3    H2 2605   6.144   1.029   2.799 -2.2782 -0.4922  0.4710
  881TIP3   OH2 2606   6.033   4.723   1.754 -0.5588 -0.6154  0.3138
  881TIP3    H1 2607   5.955   4.713   1.700 -0.5675 -1.4176  0.4529
  881TIP3    H2 2608   6.096   4.661   1.716  0.8708  1.6525 -1.2607
  882TIP3   OH2 2609   5.037   6.781   5.163 -0.4125 -0.2380 -0.3180
  882TIP3    H1 2610   5.056   6.718   5.233  0.4997 -0.5190 -0.8015
  882TIP3    H2 2611   4.950   6.815   5.184 -0.5623 -1.0408  0.4117
  883TIP3   OH2 2612   1.623   4.856   3.651 -0.2755 -0.3053 -0.6005
  883TIP3    H1 2613   1.542   4.884   3.693  0.0172  0.0715 -0.2689
  883TIP3    H2 2614   1.692   4.889   3.710  0.1254 -0.2500 -1.0977
  884TIP3   OH2 2615   4.619   2.292   3.924  0.2308  0.1555 -0.3661
  884TIP3    H1 2616   4.689   2.321   3.866 -0.5429  0.1540 -1.3349
  884TIP3    H2 2617   4.558   2.367   3.925 -0.5426 -0.4493 -0.8589
  885TIP3   OH2 2618   0.458   1.034   1.199 -0.2508 -0.7166  0.0912
  885TIP3    H1 2619   0.429   1.124   1.184  1.1585  0.0297  1.4509
  885TIP3    H2 2620   0.455   1.024   1.294  0.9339 -1.6191  0.0573
  886TIP3   OH2 2621   6.068   0.803   5.779 -0.5812 -0.3717  0.0741
  886TIP3    H1 2622   6.097   0.782   5.690  2.6181  1.9657  0.3719
  886TIP3    H2 2623   6.133   0.867   5.811 -2.8954  0.6524  3.2637
  887TIP3   OH2 2624   2.819   2.353   0.178  0.1703 -0.1347  0.4078
  887TIP3    H1 2625   2.882   2.408   0.224  0.1697 -1.0465  1.5232
  887TIP3    H2 2626   2.798   2.283   0.239 -1.1023 -0.4589 -0.3594
  888TIP3   OH2 2627   0.071   3.095   1.882 -0.1428 -0.4470  0.3002
  888TIP3    H1 2628   0.036   3.068   1.797 -0.0376  0.4465 -0.0365
  888TIP3    H2 2629   0.022   3.174   1.903 -0.9043 -1.2323  1.5699
  889TIP3   OH2 2630   6.846   1.663   5.127 -0.3218  0.3743  0.0720
  889TIP3    H1 2631   6.751   1.664   5.111 -0.4136 -0.4827  0.4706
  889TIP3    H2 2632   6.854   1.640   5.220  0.2865 -2.3433 -0.5756
  890TIP3   OH2 2633   1.464   1.617   3.057  0.4981  0.4618 -0.1938
  890TIP3    H1 2634   1.523   1.650   3.124 -0.7224  0.9860  0.6525
  890TIP3    H2 2635   1.522   1.585   2.988  1.7768  0.2331  0.9425
  891TIP3   OH2 2636   0.145   3.486   3.610  0.0402  0.0539 -0.6469
  891TIP3    H1 2637   0.103   3.515   3.691 -0.4190 -2.1401 -0.0294
  891TIP3    H2 2638   0.204   3.558   3.586 -0.2945  1.0322  1.2639
  892TIP3   OH2 2639   3.640   0.984   2.028  0.1725  0.0294 -0.2817
  892TIP3    H1 2640   3.578   0.978   2.101 -1.7217 -0.9098 -1.8907
  892TIP3    H2 2641   3.688   0.902   2.030  0.5716  0.2672  0.2565
  893TIP3   OH2 2642   5.567   0.623   3.324  0.0545  0.3751  0.1819
  893TIP3    H1 2643   5.616   0.702   3.346 -1.3695  1.2777  0.2131
  893TIP3    H2 2644   5.594   0.559   3.390  2.1953  0.3750 -0.5941
  894TIP3   OH2 2645   2.900   6.801   3.945  0.2360 -0.3188 -0.2250
  894TIP3    H1 2646   2.941   6.787   3.860 -1.7537  1.5103 -1.5993
  894TIP3    H2 2647   2.973   6.813   4.006  1.7052 -0.7382 -1.8436
  895TIP3   OH2 2648   3.443   1.050   4.935  0.1870 -0.4556 -0.0204
  895TIP3    H1 2649   3.442   1.145   4.918 -0.6251 -0.6155 -0.9377
  895TIP3    H2 2650   3.375   1.037   5.001 -0.4352 -0.5241 -0.6653
  896TIP3   OH2 2651   3.904   5.558   4.140 -0.4018  0.7443  0.2791
  896TIP3    H1 2652   3.973   5.624   4.148 -0.5026  0.8410  0.3693
  896TIP3    H2 2653   3.825   5.603   4.171 -0.3384  0.3686  1.0193
  897TIP3   OH2 2654   5.161   2.793   4.489 -0.1195 -0.0676  0.3705
  897TIP3    H1 2655   5.231   2.807   4.426  0.6312  1.1684  1.4508
  897TIP3    H2 2656   5.206   2.772   4.570 -1.0602 -0.9462  0.6830
  898TIP3   OH2 2657   0.129   2.480   3.516 -0.3520  0.0151 -0.6614
  898TIP3    H1 2658   0.100   2.425   3.589 -0.5619 -0.1978 -0.8985
  898TIP3    H2 2659   0.130   2.420   3.441  0.2251  0.1434 -0.7557
  899TIP3   OH2 2660   5.303   1.147   0.771  0.1688 -0.5273 -0.2526
  899TIP3    H1 2661   5.320   1.110   0.857  0.1188  0.2378  0.0964
  899TIP3    H2 2662   5.388   1.151   0.728  0.1286 -1.3390 -0.4262
  900TIP3   OH2 2663   4.645   2.418   2.232 -0.6843 -0.2265  0.0350
  900TIP3    H1 2664   4.578   2.398   2.298 -1.8932  0.8741 -0.7952
  900TIP3    H2 2665   4.605   2.392   2.149  1.2706 -2.7105 -0.2477
  901TIP3   OH2 2666   3.918   2.391   1.289 -0.9017  0.3616 -0.4654
  901TIP3    H1 2667   3.991   2.362   1.344  0.1451  2.3978 -0.6854
  901TIP3    H2 2668   3.944   2.367   1.200 -2.9755 -3.7198 -0.2202
  902TIP3   OH2 2669   3.054   2.429   0.820  0.1237  0.5568  0.0668
  902TIP3    H1 2670   2.982   2.376   0.785 -0.0012 -0.7669  2.1507
  902TIP3    H2 2671   3.127   2.414   0.760 -0.7867  0.4067 -1.0208
  903TIP3   OH2 2672   5.550   3.003   2.593  0.1202  0.5353  0.2158
  903TIP3    H1 2673   5.581   2.983   2.504 -0.9515 -1.4297  0.2198
  903TIP3    H2 2674   5.560   3.098   2.601  0.5874  0.7131 -1.8726
  904TIP3   OH2 2675   4.059   2.026   5.365  0.4635 -0.1086  0.2633
  904TIP3    H1 2676   4.107   2.086   5.307  0.2052  1.0289  1.1726
  904TIP3    H2 2677   4.040   1.950   5.311  0.5261  0.7701 -1.0574
  905TIP3   OH2 2678   0.231   3.558   4.771  0.1999  0.3367 -0.1184
  905TIP3    H1 2679   0.176   3.601   4.837 -1.8391 -0.8686 -0.9629
  905TIP3    H2 2680   0.194   3.586   4.687  0.2561 -1.2594 -0.6955
  906TIP3   OH2 2681   2.022   4.788   0.198  0.3575  0.1880 -0.6607
  906TIP3    H1 2682   1.931   4.791   0.227 -0.3645 -0.5482 -2.6888
  906TIP3    H2 2683   2.050   4.880   0.199 -1.6260  0.9615 -3.4091
  907TIP3   OH2 2684   3.584   3.220   1.452  0.5493  0.0715  0.1637
  907TIP3    H1 2685   3.528   3.221   1.530 -0.6055 -0.6052 -0.6133
  907TIP3    H2 2686   3.592   3.312   1.426 -2.2585  0.0876 -1.0557
  908TIP3   OH2 2687   6.183   1.283   1.327 -0.1702 -0.0724 -0.1037
  908TIP3    H1 2688   6.124   1.212   1.299  0.2480 -0.0350 -1.1198
  908TIP3    H2 2689   6.213   1.322   1.245 -1.6915  2.3883  0.4064
  909TIP3   OH2 2690   4.001   2.902   4.574  0.4343 -0.0164 -0.9406
  909TIP3    H1 2691   3.968   2.985   4.539  1.1529  0.5369 -0.3422
  909TIP3    H2 2692   4.032   2.924   4.662  0.7023 -0.9084 -0.8044
  910TIP3   OH2 2693   3.656   0.666   5.340  0.1041  0.6603  0.2900
  910TIP3    H1 2694   3.653   0.746   5.287  0.4080  1.4355  1.3935
  910TIP3    H2 2695   3.623   0.598   5.283  1.3743  1.2587 -1.2217
  911TIP3   OH2 2696   3.520   0.172   4.321  0.5033  0.2911  0.0428
  911TIP3    H1 2697   3.605   0.132   4.299 -1.1639 -3.8372  0.2156
  911TIP3    H2 2698   3.531   0.203   4.411  1.9787  0.3919 -0.1467
  912TIP3   OH2 2699   2.381   4.330   3.360  0.1464  0.2527 -0.3906
  912TIP3    H1 2700   2.408   4.379   3.282  0.7805 -1.2041 -1.1285
  912TIP3    H2 2701   2.364   4.397   3.426  3.9879  1.4536 -0.3605
  913TIP3   OH2 2702   5.302   4.101   0.626  0.1992  0.0565  0.3047
  913TIP3    H1 2703   5.374   4.158   0.599  0.2886  0.0982  0.6299
  913TIP3    H2 2704   5.275   4.135   0.712  0.4113 -0.5414  0.6129
  914TIP3   OH2 2705   0.043   6.454   3.716 -0.2367 -0.5701 -0.3055
  914TIP3    H1 2706  -0.031   6.401   3.684  0.1356 -0.3479 -1.5944
  914TIP3    H2 2707   0.112   6.440   3.651 -0.2522  1.7671 -0.9130
  915TIP3   OH2 2708   6.178   1.369   1.064  0.1471  0.1632 -0.0285
  915TIP3    H1 2709   6.266   1.354   1.032  1.1682  1.2367  2.0627
  915TIP3    H2 2710   6.158   1.460   1.041 -0.4311 -0.0841 -0.5251
  916TIP3   OH2 2711   2.428   5.151   0.510  0.2582  0.1265  0.2581
  916TIP3    H1 2712   2.415   5.218   0.443 -0.4024  0.2809  0.5378
  916TIP3    H2 2713   2.392   5.071   0.472 -1.6084  0.5465  1.0186
  917TIP3   OH2 2714   2.566   5.130   4.928  0.2763 -0.1886  0.0421
  917TIP3    H1 2715   2.626   5.146   4.855  0.4009  2.2079  0.6004
  917TIP3    H2 2716   2.480   5.153   4.894  0.1568 -0.3195  0.2532
  918TIP3   OH2 2717   6.457   6.191   0.657  0.1340 -0.3887 -1.2882
  918TIP3    H1 2718   6.373   6.233   0.679  0.5139 -0.0141 -0.5143
  918TIP3    H2 2719   6.462   6.197   0.561 -0.9266 -0.8197 -1.3910
  919TIP3   OH2 2720   6.035   4.388   0.728  0.4985  0.1617  0.5893
  919TIP3    H1 2721   5.956   4.407   0.779  0.7649  1.3851  0.5777
  919TIP3    H2 2722   6.018   4.303   0.689 -0.7160  0.2897  0.7977
  920TIP3   OH2 2723   4.148   0.214   3.079 -0.3738  0.4667 -0.1182
  920TIP3    H1 2724   4.218   0.239   3.138 -0.1345  0.0343 -0.2164
  920TIP3    H2 2725   4.178   0.242   2.993 -0.3513  0.3492 -0.1493
  921TIP3   OH2 2726   6.757   0.656   3.574  0.8798 -0.2733 -0.1203
  921TIP3    H1 2727   6.728   0.576   3.531  1.3153 -0.5535  0.1002
  921TIP3    H2 2728   6.755   0.722   3.505  0.4318 -0.4534 -0.2812
  922TIP3   OH2 2729   1.866   4.592   2.173  0.5316  0.2215  0.5353
  922TIP3    H1 2730   1.905   4.506   2.184 -2.3548 -1.4826 -1.1402
  922TIP3    H2 2731   1.843   4.597   2.080  1.8719  3.4864  0.2143
  923TIP3   OH2 2732   1.171   6.573   4.483 -0.1296 -0.0631  0.1553
  923TIP3    H1 2733   1.112   6.556   4.409  0.0432 -1.3248  0.2894
  923TIP3    H2 2734   1.254   6.532   4.458 -0.4474 -1.6483  1.5823
  924TIP3   OH2 2735   1.274   4.900   4.242  0.1382  0.6231 -0.7756
  924TIP3    H1 2736   1.304   4.822   4.289 -2.0828 -1.3604 -2.4321
  924TIP3    H2 2737   1.348   4.960   4.247  1.3140 -0.8568  2.0701
  925TIP3   OH2 2738   4.788   5.033   4.478  0.3616  0.5430 -0.1106
  925TIP3    H1 2739   4.843   4.964   4.442  1.5222  1.4876 -0.2001
  925TIP3    H2 2740   4.715   4.987   4.518  0.6673 -0.6876 -0.9195
  926TIP3   OH2 2741   5.689   3.625   0.921 -0.2912  0.2585  0.2816
  926TIP3    H1 2742   5.670   3.565   0.993  2.5624 -0.6382  0.3943
  926TIP3    H2 2743   5.774   3.662   0.942  1.7101 -1.6123 -3.5372
  927TIP3   OH2 2744   0.913   0.771   1.513  0.1401  0.2019  0.2900
  927TIP3    H1 2745   0.904   0.742   1.422  1.9569  2.1696 -0.6214
  927TIP3    H2 2746   1.005   0.758   1.534 -0.2615 -0.2687  1.9141
  928TIP3   OH2 2747   6.495   1.353   1.253  0.3036  0.4422  0.1372
  928TIP3    H1 2748   6.569   1.413   1.263  0.0083  0.9948 -0.7898
  928TIP3    H2 2749   6.472   1.360   1.160  0.5557 -1.4814 -0.1105
  929TIP3   OH2 2750   1.272   1.523   0.324  0.2341  0.6587 -0.0052
  929TIP3    H1 2751   1.317   1.501   0.243  0.6770  1.3996  0.0311
  929TIP3    H2 2752   1.237   1.439   0.355  1.7318  0.0046  0.0537
  930TIP3   OH2 2753   6.316   6.674   1.552  0.3754 -0.1635 -0.0747
  930TIP3    H1 2754   6.246   6.733   1.581  0.1756 -0.1607 -0.5470
  930TIP3    H2 2755   6.328   6.613   1.625 -0.0216 -0.0745  0.0678
  931TIP3   OH2 2756   1.789   4.676   2.868 -0.2237 -0.4390 -0.0280
  931TIP3    H1 2757   1.796   4.649   2.776  0.7558  0.1432 -0.1410
  931TIP3    H2 2758   1.841   4.611   2.916  1.8154  0.9490 -0.2563
  932TIP3   OH2 2759   0.880   2.685   1.531  0.5130  0.1897  0.4456
  932TIP3    H1 2760   0.934   2.720   1.601  2.4324  0.4997 -1.0906
  932TIP3    H2 2761   0.924   2.603   1.505 -0.0923  0.1285 -0.4413
  933TIP3   OH2 2762   6.115   6.560   0.650 -0.1238 -0.0757  0.0307
  933TIP3    H1 2763   6.186   6.623   0.636 -0.2118 -0.3990 -2.2687
  933TIP3    H2 2764   6.035   6.612   0.640 -0.2238 -0.6150 -3.0731
  934TIP3   OH2 2765   3.489   2.890   5.009  0.2380 -0.2735  0.5581
  934TIP3    H1 2766   3.583   2.896   4.989  0.3484  1.9788  1.4703
  934TIP3    H2 2767   3.450   2.852   4.930  1.6464  0.8281 -0.7234
  935TIP3   OH2 2768   4.751   3.606   5.016  0.6206 -0.2372  0.7860
  935TIP3    H1 2769   4.699   3.525   5.015 -1.2615  0.8953  1.8025
  935TIP3    H2 2770   4.796   3.606   4.932 -1.1712 -1.2017 -0.2414
  936TIP3   OH2 2771   1.194   2.201   3.143  0.1007  0.6395  0.0885
  936TIP3    H1 2772   1.146   2.281   3.119  0.4888  0.7834 -0.2105
  936TIP3    H2 2773   1.144   2.164   3.216  0.3980  1.6192  0.8059
  937TIP3   OH2 2774   5.676   4.786   1.782  0.7293  0.8753  0.2424
  937TIP3    H1 2775   5.711   4.752   1.699 -1.0879  0.9748 -0.6052
  937TIP3    H2 2776   5.649   4.708   1.830 -0.2564  0.9088 -0.2305
  938TIP3   OH2 2777   2.027   0.941   5.281 -0.2972  0.0341  0.3776
  938TIP3    H1 2778   2.005   1.032   5.301  0.6129  0.4783 -0.5440
  938TIP3    H2 2779   1.956   0.890   5.321  0.0175  1.0119  2.3224
  939TIP3   OH2 2780   6.625   0.189   3.059 -0.0828  0.5362 -0.1396
  939TIP3    H1 2781   6.685   0.116   3.075 -1.4070 -0.7389 -0.7230
  939TIP3    H2 2782   6.666   0.238   2.987  0.3017 -0.2689 -0.4836
  940TIP3   OH2 2783   4.994   6.447   5.124 -0.1771 -0.2338 -0.1914
  940TIP3    H1 2784   4.944   6.460   5.205 -1.0471  1.2718 -0.9236
  940TIP3    H2 2785   4.930   6.464   5.055  0.3982 -2.0609 -1.2234
  941TIP3   OH2 2786   6.459   3.243   2.750 -0.5923 -0.8531 -0.2369
  941TIP3    H1 2787   6.522   3.250   2.822 -1.6977  2.0173  0.5989
  941TIP3    H2 2788   6.404   3.168   2.775 -0.4547 -0.4251  1.5111
  942TIP3   OH2 2789   2.661   3.244   0.296 -0.0718  0.0958 -0.2882
  942TIP3    H1 2790   2.576   3.287   0.301 -0.6895 -0.9681 -1.1660
  942TIP3    H2 2791   2.714   3.288   0.363 -1.5085  0.3098  0.7567
  943TIP3   OH2 2792   1.567   4.874   5.302 -0.1758  0.1925 -0.0124
  943TIP3    H1 2793   1.592   4.944   5.363  0.6815  0.9728 -1.2223
  943TIP3    H2 2794   1.472   4.881   5.294 -0.4670 -0.6537  2.0798
  944TIP3   OH2 2795   2.795   4.059   2.605  0.3918  0.5166  0.1695
  944TIP3    H1 2796   2.731   4.092   2.668 -0.5313  0.6791 -0.8173
  944TIP3    H2 2797   2.880   4.070   2.648 -0.2467  0.1535  1.5710
  945TIP3   OH2 2798   0.068   4.970   0.323  0.1311 -0.2374  0.1509
  945TIP3    H1 2799   0.032   5.045   0.370 -3.5389 -2.0515  0.6035
  945TIP3    H2 2800   0.035   4.979   0.234 -0.9840 -1.5619  0.3820
  946TIP3   OH2 2801   1.133   0.382   0.482 -0.2399 -0.6695 -0.0926
  946TIP3    H1 2802   1.049   0.340   0.498 -1.4536  1.7331  0.2246
  946TIP3    H2 2803   1.118   0.440   0.407  0.7250  0.7784  0.7660
  947TIP3   OH2 2804   1.746   5.829   5.208  0.1901 -0.0337  0.2860
  947TIP3    H1 2805   1.793   5.795   5.132  0.1215  2.3898 -0.9340
  947TIP3    H2 2806   1.728   5.752   5.262 -3.2811 -2.6061 -3.9325
  948TIP3   OH2 2807   1.384   1.435   0.081  0.6320 -0.9937  0.6824
  948TIP3    H1 2808   1.456   1.392   0.034  0.4494 -2.0949  1.3716
  948TIP3    H2 2809   1.323   1.463   0.012  1.3706 -0.6869  0.1436
  949TIP3   OH2 2810   1.269   6.054   2.984  0.6965  0.5345 -0.1480
  949TIP3    H1 2811   1.294   6.060   3.076 -0.3287 -0.1632  0.1821
  949TIP3    H2 2812   1.245   5.963   2.971  1.6599  0.4221 -1.3425
  950TIP3   OH2 2813   7.225   4.124   2.328 -0.5403  0.1271  0.1556
  950TIP3    H1 2814   7.216   4.029   2.321  1.3950 -0.0093 -1.4256
  950TIP3    H2 2815   7.177   4.159   2.253 -0.9710  0.3921  0.5479
  951TIP3   OH2 2816   4.500   5.397   0.422  0.3399  0.3894 -0.3679
  951TIP3    H1 2817   4.499   5.485   0.387 -0.3411  0.4151 -0.3023
  951TIP3    H2 2818   4.540   5.343   0.354  0.4027  0.6847 -0.5617
  952TIP3   OH2 2819   6.811   3.083   4.711 -0.2605  0.1192 -0.4692
  952TIP3    H1 2820   6.773   3.019   4.651 -1.2760 -0.3810  0.6797
  952TIP3    H2 2821   6.834   3.033   4.789 -1.7222  1.2413  0.7364
  953TIP3   OH2 2822   3.285   0.053   1.426  0.1722 -0.3847 -0.2471
  953TIP3    H1 2823   3.348   0.049   1.354 -0.3717 -2.3569 -0.6686
  953TIP3    H2 2824   3.216  -0.008   1.400 -0.5198 -0.3917  1.5182
  954TIP3   OH2 2825   2.195   6.178   3.644 -0.1383 -0.6937  0.5373
  954TIP3    H1 2826   2.231   6.091   3.664  0.5734 -0.5325 -0.0028
  954TIP3    H2 2827   2.180   6.176   3.550 -2.0572 -0.9264  0.8138
  955TIP3   OH2 2828   4.829   3.595   4.269  0.4899  0.7246 -0.4366
  955TIP3    H1 2829   4.761   3.568   4.330 -1.5073  1.9276 -1.9956
  955TIP3    H2 2830   4.882   3.516   4.256  0.6304  0.2590  2.2682
  956TIP3   OH2 2831   6.424   4.073   4.004  0.0287 -0.1277  0.3204
  956TIP3    H1 2832   6.400   4.093   3.914 -0.1930  1.2949  0.6682
  956TIP3    H2 2833   6.377   3.992   4.025  0.3619 -0.6670 -0.9336
  957TIP3   OH2 2834   3.042   3.802   2.835  0.1087  0.0751  0.0033
  957TIP3    H1 2835   3.002   3.888   2.822 -1.3399 -0.4661  0.7258
  957TIP3    H2 2836   3.063   3.772   2.747 -0.5850  0.6071 -0.3569
  958TIP3   OH2 2837   1.634   5.724   3.372  0.5130 -0.1049 -0.2193
  958TIP3    H1 2838   1.571   5.660   3.338  0.7427 -0.5082  0.1066
  958TIP3    H2 2839   1.596   5.809   3.350  0.6271 -0.3460 -1.4559
  959TIP3   OH2 2840   2.509   4.052   1.444  0.0536 -0.3048 -0.4110
  959TIP3    H1 2841   2.490   3.959   1.455  0.7072 -0.5191 -1.0821
  959TIP3    H2 2842   2.560   4.057   1.363  1.4326  0.4492  0.4764
  960TIP3   OH2 2843   3.071   4.361   1.649  0.0494  0.3356  0.6456
  960TIP3    H1 2844   3.148   4.366   1.593 -0.8052  0.7196 -0.5165
  960TIP3    H2 2845   3.041   4.451   1.657 -0.2182  0.2041  1.1990
  961TIP3   OH2 2846   2.704   6.446   1.259  0.2394  0.0742  0.4387
  961TIP3    H1 2847   2.711   6.525   1.206  0.0848 -0.2909 -0.1307
  961TIP3    H2 2848   2.794   6.430   1.290  0.1319  0.9241  1.2325
  962TIP3   OH2 2849   1.336   0.731   3.311  0.6132  0.4488 -0.2360
  962TIP3    H1 2850   1.424   0.698   3.331  0.2371 -0.7907 -0.5153
  962TIP3    H2 2851   1.344   0.766   3.222  0.2089 -2.2981 -1.4533
  963TIP3   OH2 2852   5.266   6.045   5.744  0.3871  0.0935  0.4598
  963TIP3    H1 2853   5.223   5.996   5.814 -0.0075  1.9474  1.6040
  963TIP3    H2 2854   5.247   6.137   5.765 -0.9414  0.7039 -2.8652
  964TIP3   OH2 2855   6.253   0.016   2.086  0.0504 -0.3609 -0.3096
  964TIP3    H1 2856   6.325   0.039   2.145  0.4927  1.0781 -1.3585
  964TIP3    H2 2857   6.179   0.067   2.119 -0.0099 -0.4466 -0.3133
  965TIP3   OH2 2858   6.707   5.651   4.004 -0.1459  0.2693  0.8036
  965TIP3    H1 2859   6.647   5.720   3.974 -1.5813 -1.1486  0.3078
  965TIP3    H2 2860   6.681   5.634   4.094  0.3867  0.5435  1.0127
  966TIP3   OH2 2861   6.806   4.600   3.688 -0.0039 -0.5464  0.3237
  966TIP3    H1 2862   6.725   4.595   3.739  0.0089  3.3036  1.0901
  966TIP3    H2 2863   6.867   4.541   3.732 -0.9015  0.4289  3.0727
  967TIP3   OH2 2864   3.802   4.314   2.636 -0.1985  0.1730 -0.6629
  967TIP3    H1 2865   3.732   4.267   2.680  1.4243 -2.1700 -0.4230
  967TIP3    H2 2866   3.780   4.310   2.543 -1.3700  1.2603 -0.4598
  968TIP3   OH2 2867   6.620   5.563   0.015 -0.0102 -0.2496 -0.0486
  968TIP3    H1 2868   6.615   5.501   0.087 -1.8118 -0.9978 -0.7344
  968TIP3    H2 2869   6.572   5.639   0.046  1.2593  0.3879  0.3908
  969TIP3   OH2 2870   6.882   2.252   5.479  0.5245 -0.1100 -0.0487
  969TIP3    H1 2871   6.934   2.171   5.474 -0.4195 -0.8802  1.6536
  969TIP3    H2 2872   6.941   2.316   5.519  0.8900 -0.3248 -0.2398
  970TIP3   OH2 2873   3.881   1.219   3.440 -0.3952  0.0277  0.0454
  970TIP3    H1 2874   3.885   1.123   3.445 -0.5981  0.0597  1.1712
  970TIP3    H2 2875   3.948   1.242   3.376  0.0490 -0.8426  0.1692
  971TIP3   OH2 2876   6.885   4.104   1.651  0.4834  0.3373  0.2854
  971TIP3    H1 2877   6.797   4.119   1.615  0.4341 -0.1162  0.2076
  971TIP3    H2 2878   6.902   4.011   1.633  0.3853  0.0520  1.5761
  972TIP3   OH2 2879   0.032   2.570   1.312  0.2122  0.6659  0.2419
  972TIP3    H1 2880   0.091   2.612   1.374 -0.0582  0.5967  0.5517
  972TIP3    H2 2881   0.058   2.478   1.311 -0.4717  0.4493  1.0772
  973TIP3   OH2 2882   4.828   2.387   2.819 -0.2851 -0.4604  0.1272
  973TIP3    H1 2883   4.842   2.448   2.747  0.1695  0.6698  1.1270
  973TIP3    H2 2884   4.783   2.439   2.886 -1.8294 -1.8032  0.2088
  974TIP3   OH2 2885   5.207   3.056   1.322 -0.5293 -0.0576 -0.1716
  974TIP3    H1 2886   5.259   2.976   1.328 -0.8658 -0.3449 -0.9447
  974TIP3    H2 2887   5.259   3.114   1.266  0.8030  1.1645  2.1767
  975TIP3   OH2 2888   2.768   2.255   5.695 -0.2721 -0.5120 -0.6953
  975TIP3    H1 2889   2.711   2.188   5.656  0.1837 -0.1113 -2.1151
  975TIP3    H2 2890   2.848   2.208   5.718 -0.0500 -0.5184 -1.4563
  976TIP3   OH2 2891   0.922   3.637   1.113  0.2700  0.0363  0.4567
  976TIP3    H1 2892   0.916   3.542   1.117 -0.4508  0.1091  1.6437
  976TIP3    H2 2893   0.989   3.659   1.178 -0.7453  0.4301  1.3863
  977TIP3   OH2 2894   0.041   2.012   4.082  0.0531 -0.6301 -0.0172
  977TIP3    H1 2895  -0.045   1.977   4.061  0.4062 -0.1594 -2.5428
  977TIP3    H2 2896   0.077   1.951   4.147 -2.3294 -0.5266  1.5337
  978TIP3   OH2 2897   6.903   4.334   3.537  0.1013  0.0607 -0.3730
  978TIP3    H1 2898   6.876   4.402   3.475 -0.9265 -0.2550 -0.2892
  978TIP3    H2 2899   6.995   4.319   3.518 -0.1939 -0.0288 -1.8205
  979TIP3   OH2 2900   2.081   3.468   0.677  0.1465 -0.3319 -0.3503
  979TIP3    H1 2901   2.170   3.470   0.642 -0.2510 -1.0623 -1.4633
  979TIP3    H2 2902   2.050   3.380   0.655 -0.7002 -0.2270  0.4056
  980TIP3   OH2 2903   1.952   1.641   1.405 -0.3256  0.1150 -0.4562
  980TIP3    H1 2904   1.955   1.720   1.459  1.2594 -0.1054 -0.1745
  980TIP3    H2 2905   2.001   1.576   1.456 -3.1847 -1.6642  0.2078
  981TIP3   OH2 2906   2.904   1.636   5.023 -0.4327  0.0445 -0.0527
  981TIP3    H1 2907   2.973   1.675   5.078 -0.9115 -0.1662  0.7152
  981TIP3    H2 2908   2.931   1.544   5.014  0.5346  0.4473 -1.6072
  982TIP3   OH2 2909   0.668   1.724   5.632  0.1085  0.5283 -0.1721
  982TIP3    H1 2910   0.607   1.670   5.583 -0.9390  0.7455  0.8570
  982TIP3    H2 2911   0.694   1.670   5.707  0.6915  0.6711 -0.2637
  983TIP3   OH2 2912   0.389   2.723   3.969 -0.2316 -1.0480 -0.1040
  983TIP3    H1 2913   0.316   2.694   4.023 -1.8315 -0.1009 -1.6781
  983TIP3    H2 2914   0.398   2.816   3.989 -0.2366 -0.8981 -0.7969
  984TIP3   OH2 2915   0.188   1.489   0.061  0.2271 -0.3834 -0.2746
  984TIP3    H1 2916   0.098   1.510   0.038  0.0765  0.0393  0.6687
  984TIP3    H2 2917   0.205   1.537   0.142  1.8037  0.7657 -1.2342
  985TIP3   OH2 2918   5.587   1.833   3.440  0.1818  0.7167 -0.0159
  985TIP3    H1 2919   5.614   1.795   3.356 -0.8443  1.1251 -0.5466
  985TIP3    H2 2920   5.662   1.886   3.467  1.2091 -0.7776  0.2005
  986TIP3   OH2 2921   5.194   4.696   2.185 -0.4274  0.2632 -0.2113
  986TIP3    H1 2922   5.245   4.686   2.105  1.9833 -1.5438  1.4128
  986TIP3    H2 2923   5.150   4.612   2.197 -0.5409  0.4193  0.5029
  987TIP3   OH2 2924   6.881   5.638   3.289  0.3808 -0.4766 -0.4085
  987TIP3    H1 2925   6.900   5.684   3.207 -0.2106 -1.0319 -0.8644
  987TIP3    H2 2926   6.925   5.553   3.279  1.4982 -0.0228  0.4426
  988TIP3   OH2 2927   2.515   3.222   2.287  0.0216 -0.0359 -0.2295
  988TIP3    H1 2928   2.443   3.281   2.265  0.8582  0.9927 -0.3161
  988TIP3    H2 2929   2.564   3.213   2.206  0.5866  0.1388  0.0889
  989TIP3   OH2 2930   2.804   5.170   2.134 -0.2362  0.8896 -0.0587
  989TIP3    H1 2931   2.775   5.102   2.073 -0.4818  0.8190  0.1366
  989TIP3    H2 2932   2.815   5.124   2.217 -0.6002  1.1337  0.1228
  990TIP3   OH2 2933   3.293   0.225   5.433  0.3403  0.0901  0.1732
  990TIP3    H1 2934   3.366   0.216   5.372 -0.1846 -1.8481 -0.2509
  990TIP3    H2 2935   3.332   0.213   5.519  0.7674  0.6941  0.0651
  991TIP3   OH2 2936   5.037   0.937   2.240 -0.5242  0.2594 -0.0674
  991TIP3    H1 2937   5.006   0.971   2.156 -0.1020  0.0017 -0.3304
  991TIP3    H2 2938   5.116   0.888   2.218 -0.6736 -0.2053  0.4179
  992TIP3   OH2 2939   4.790   1.877   0.372 -0.0314  0.2207 -0.1822
  992TIP3    H1 2940   4.861   1.892   0.310  0.9931 -0.7242  0.7229
  992TIP3    H2 2941   4.775   1.963   0.412  0.2830  0.5257 -0.7056
  993TIP3   OH2 2942   2.226   3.948   1.269 -0.6794  0.1110 -0.2721
  993TIP3    H1 2943   2.144   3.899   1.270 -0.0530 -1.0139 -0.9240
  993TIP3    H2 2944   2.212   4.021   1.329 -2.5573  0.6337 -1.2527
  994TIP3   OH2 2945   1.558   3.308   3.631 -1.1199  0.0831 -0.8159
  994TIP3    H1 2946   1.643   3.290   3.671 -0.2478  1.5686 -1.9343
  994TIP3    H2 2947   1.503   3.338   3.704 -0.3570  0.1838 -0.2719
  995TIP3   OH2 2948   3.989   1.545   1.138  0.5829 -0.4339 -0.4519
  995TIP3    H1 2949   4.069   1.595   1.156 -0.1987  0.5331  0.4362
  995TIP3    H2 2950   3.999   1.517   1.047  0.7821  1.8734 -1.1938
  996TIP3   OH2 2951   1.667   3.441   4.994  0.3375 -0.4160  0.3226
  996TIP3    H1 2952   1.602   3.372   5.008  2.0645 -2.4368 -0.9349
  996TIP3    H2 2953   1.751   3.396   5.005  1.5455  1.8432  0.7951
  997TIP3   OH2 2954   1.320   2.623   2.845  0.3154 -0.1130  0.1111
  997TIP3    H1 2955   1.375   2.616   2.923  1.0548 -0.7716 -0.4572
  997TIP3    H2 2956   1.231   2.633   2.880  0.4498 -1.8788  1.0689
  998TIP3   OH2 2957   2.629   6.697   0.791 -0.3883 -0.4236 -1.0932
  998TIP3    H1 2958   2.539   6.729   0.795 -0.1926  0.0797 -0.4971
  998TIP3    H2 2959   2.653   6.681   0.882  0.7094  1.1676 -1.0524
  999TIP3   OH2 2960   5.064   6.676   1.596 -0.4565 -0.1481  0.0435
  999TIP3    H1 2961   5.028   6.600   1.551  3.1179 -0.5400 -2.5877
  999TIP3    H2 2962   5.101   6.730   1.526 -0.5700  2.7598  2.0558
 1000TIP3   OH2 2963   0.241   0.104   1.798 -0.1783 -0.2473  0.3582
 1000TIP3    H1 2964   0.160   0.150   1.821  0.1920 -0.2358  1.7445
 1000TIP3    H2 2965   0.213   0.031   1.743 -0.9208  0.8310 -0.7281
 1001TIP3   OH2 2966   0.810   4.662   5.320  0.4305  0.1890  0.0785
 1001TIP3    H1 2967   0.795   4.590   5.260 -0.8130  0.7681 -0.3332
 1001TIP3    H2 2968   0.900   4.648   5.352  0.2542 -1.4744 -0.0450
 1002TIP3   OH2 2969   7.033   1.896   1.976 -0.3007  0.0609 -0.1795
 1002TIP3    H1 2970   7.122   1.932   1.972 -1.3406  2.8293 -0.9679
 1002TIP3    H2 2971   7.005   1.891   1.885 -0.9844 -0.8055  0.0602
 1003TIP3   OH2 2972   2.137   3.672   1.690  0.3336  0.0817 -1.0930
 1003TIP3    H1 2973   2.103   3.619   1.619 -0.0401  1.3421 -1.8749
 1003TIP3    H2 2974   2.228   3.689   1.666  0.1334  0.7285 -1.4232
 1004TIP3   OH2 2975   6.494   3.177   1.892  0.3142 -0.0751 -0.0918
 1004TIP3    H1 2976   6.537   3.145   1.971  1.2974 -0.8797 -0.9223
 1004TIP3    H2 2977   6.533   3.262   1.876  1.9607 -0.9740 -1.0663
 1005TIP3   OH2 2978   5.591   4.468   4.548  0.3038 -0.1883 -0.2084
 1005TIP3    H1 2979   5.650   4.525   4.598 -0.1287 -0.4327  0.5984
 1005TIP3    H2 2980   5.517   4.452   4.607  0.0624 -0.9685 -0.7073
 1006TIP3   OH2 2981   6.124   3.515   4.759  0.5012 -0.2062 -0.3143
 1006TIP3    H1 2982   6.143   3.544   4.670  0.0206 -1.4751 -0.8490
 1006TIP3    H2 2983   6.202   3.465   4.784  0.6135  0.1052 -0.0286
 1007TIP3   OH2 2984   0.499   1.391   5.697 -0.4947 -0.4569  0.3107
 1007TIP3    H1 2985   0.545   1.449   5.637  0.8278 -0.9629  0.7934
 1007TIP3    H2 2986   0.459   1.325   5.641 -0.7157  0.0527 -0.1321
 1008TIP3   OH2 2987   4.463   4.462   5.331 -0.0939 -0.5891  0.2723
 1008TIP3    H1 2988   4.476   4.401   5.258  0.2073  0.2182 -0.3738
 1008TIP3    H2 2989   4.438   4.407   5.405  0.9157 -1.5734 -0.0893
 1009TIP3   OH2 2990   6.494   5.111   3.588  0.2780 -0.4782 -0.3777
 1009TIP3    H1 2991   6.400   5.109   3.570 -0.1638  1.6563  1.3086
 1009TIP3    H2 2992   6.534   5.124   3.502 -1.1413  0.8775 -0.8947
 1010TIP3   OH2 2993   3.228   3.134   2.529  0.3969  0.2514 -0.9471
 1010TIP3    H1 2994   3.269   3.058   2.571  1.4396  1.1961 -0.2276
 1010TIP3    H2 2995   3.218   3.107   2.437 -0.0760 -1.0797 -0.5342
 1011TIP3   OH2 2996   4.600   0.712   0.751  0.3664 -0.1090  0.4469
 1011TIP3    H1 2997   4.613   0.724   0.657 -0.4074 -2.2841 -0.0012
 1011TIP3    H2 2998   4.506   0.723   0.764  0.5546  0.9312  1.1452
 1012TIP3   OH2 2999   0.481   5.354   4.993 -0.6655 -0.2639  0.3374
 1012TIP3    H1 3000   0.427   5.359   5.071  0.5764  2.4011  1.1253
 1012TIP3    H2 3001   0.562   5.311   5.022 -0.2249  0.6794  0.5326
 1013TIP3   OH2 3002   3.535   4.816   3.740 -0.2792  0.0864  0.5222
 1013TIP3    H1 3003   3.587   4.762   3.681  1.5142  2.1766  0.0793
 1013TIP3    H2 3004   3.480   4.869   3.681 -0.3684  0.3332  0.8226
 1014TIP3   OH2 3005   2.618   6.735   2.521 -0.2517 -0.0955 -0.0733
 1014TIP3    H1 3006   2.628   6.673   2.594  0.6700  0.6928  0.5074
 1014TIP3    H2 3007   2.650   6.687   2.445 -2.1912 -1.2894 -0.1853
 1015TIP3   OH2 3008   5.712   2.723   2.908  0.3549  0.3583  0.3803
 1015TIP3    H1 3009   5.640   2.752   2.853 -0.3057  1.7618  1.8995
 1015TIP3    H2 3010   5.780   2.790   2.897  0.7738 -0.0841  0.2198
 1016TIP3   OH2 3011   1.833   5.634   2.721  0.1623 -0.5408 -0.0970
 1016TIP3    H1 3012   1.808   5.566   2.659  0.4055 -0.6172 -0.1154
 1016TIP3    H2 3013   1.889   5.589   2.784 -1.0693 -0.7395  0.8969
 1017TIP3   OH2 3014   2.911   1.819   3.463  0.0992  0.1220 -0.0478
 1017TIP3    H1 3015   2.829   1.824   3.414  0.7234  0.8019 -1.0484
 1017TIP3    H2 3016   2.918   1.905   3.506  0.9943  0.6366 -1.1619
 1018TIP3   OH2 3017   0.608   6.111   3.017 -0.3777 -0.2343  0.5948
 1018TIP3    H1 3018   0.607   6.053   2.942  4.3446  0.2753 -0.1681
 1018TIP3    H2 3019   0.590   6.198   2.981 -0.1565 -0.2658  0.4062
 1019TIP3   OH2 3020   1.604   0.396   4.086  0.4484  0.1897 -0.0404
 1019TIP3    H1 3021   1.543   0.386   4.012 -0.8204 -0.0824  1.0030
 1019TIP3    H2 3022   1.550   0.383   4.164  2.1047 -1.5202  0.9159
 1020TIP3   OH2 3023   5.573   4.006   0.951 -0.0960  0.2147 -0.4318
 1020TIP3    H1 3024   5.554   3.925   0.904 -0.3501 -0.5013  0.8654
 1020TIP3    H2 3025   5.494   4.059   0.940  0.0519  0.2946 -1.2386
 1021TIP3   OH2 3026   3.964   0.652   5.295  0.2176  0.6085 -0.2010
 1021TIP3    H1 3027   3.955   0.731   5.349  0.9319  0.7416 -0.2683
 1021TIP3    H2 3028   3.876   0.613   5.295  0.3397  0.2276  1.6383
 1022TIP3   OH2 3029   1.012   0.819   1.812 -0.0250 -0.0756 -0.2106
 1022TIP3    H1 3030   1.057   0.772   1.742 -0.1769  0.8962 -0.9723
 1022TIP3    H2 3031   1.042   0.909   1.804  0.6035 -0.0908  1.5171
 1023TIP3   OH2 3032   5.220   6.647   4.462  0.1550  0.0546  0.8417
 1023TIP3    H1 3033   5.135   6.655   4.504 -0.9945  0.4662 -1.3739
 1023TIP3    H2 3034   5.224   6.556   4.434  0.3690  0.0763  0.7982
 1024TIP3   OH2 3035   2.354   3.598   0.074  0.2192  0.6584 -0.0772
 1024TIP3    H1 3036   2.417   3.589   0.002  1.2176  1.7577  0.6307
 1024TIP3    H2 3037   2.393   3.663   0.132 -0.1093 -0.8285  1.9422
 1025TIP3   OH2 3038   0.026   0.510   2.081  0.3654 -0.2694  0.1942
 1025TIP3    H1 3039   0.055   0.595   2.048 -2.4586 -0.1370 -2.4083
 1025TIP3    H2 3040  -0.069   0.515   2.078  0.0561 -2.5058  2.9757
 1026TIP3   OH2 3041   6.799   4.079   2.312  0.1256 -0.1918  0.3832
 1026TIP3    H1 3042   6.824   3.994   2.348 -0.4969 -0.2653  0.6461
 1026TIP3    H2 3043   6.815   4.070   2.218  0.6998 -0.3688  0.4904
 1027TIP3   OH2 3044   6.223   3.744   2.063  0.5689  0.0980 -0.2582
 1027TIP3    H1 3045   6.186   3.721   1.977  1.3453 -2.4588  0.0101
 1027TIP3    H2 3046   6.146   3.766   2.116 -0.1806 -0.8058 -0.9209
 1028TIP3   OH2 3047   2.269   3.977   0.919  0.1599 -0.0287 -0.4262
 1028TIP3    H1 3048   2.322   3.972   0.999  0.3086  0.1483 -0.5133
 1028TIP3    H2 3049   2.214   3.899   0.922 -0.1889  0.2327  0.0968
 1029TIP3   OH2 3050   3.708   5.328   3.961 -0.3071 -0.1766  0.4521
 1029TIP3    H1 3051   3.753   5.333   3.876 -0.0359  0.6373  0.6379
 1029TIP3    H2 3052   3.773   5.357   4.024 -1.4433  2.2797  0.5970
 1030TIP3   OH2 3053   0.706   3.752   3.792  0.0694 -0.3208  0.2482
 1030TIP3    H1 3054   0.647   3.827   3.784 -0.6543 -0.8162  0.9137
 1030TIP3    H2 3055   0.684   3.713   3.876 -0.2343 -1.8619 -0.5246
 1031TIP3   OH2 3056   5.695   1.514   2.913  0.0452  0.1534 -0.0397
 1031TIP3    H1 3057   5.609   1.531   2.952 -0.5466  0.2979 -1.3661
 1031TIP3    H2 3058   5.714   1.423   2.936  0.2372  0.5516  1.5181
 1032TIP3   OH2 3059   2.941   4.512   4.363 -0.1158 -0.0789  0.4358
 1032TIP3    H1 3060   2.962   4.423   4.336  1.8933  0.1314  1.2119
 1032TIP3    H2 3061   2.868   4.537   4.306 -2.0729 -2.8655  1.5090
 1033TIP3   OH2 3062   2.035   5.486   0.632 -0.6458  0.1760  0.8777
 1033TIP3    H1 3063   2.092   5.417   0.666  0.3454  1.0888  1.1092
 1033TIP3    H2 3064   2.080   5.519   0.555 -2.2101 -0.9236 -0.5647
 1034TIP3   OH2 3065   5.237   1.123   4.759 -0.1404 -0.1985  0.2816
 1034TIP3    H1 3066   5.150   1.160   4.746 -0.3926 -0.3148  1.4947
 1034TIP3    H2 3067   5.295   1.180   4.708 -0.7048  1.0049  0.9296
 1035TIP3   OH2 3068   5.986   5.962   3.811  0.1491 -0.8495  0.1157
 1035TIP3    H1 3069   6.033   6.044   3.801 -0.5397 -0.3027  1.1908
 1035TIP3    H2 3070   5.911   5.969   3.752 -0.1578 -0.4983  0.5364
 1036TIP3   OH2 3071   3.859   4.227   1.447  0.4531 -0.1296 -0.7932
 1036TIP3    H1 3072   3.810   4.268   1.519  0.3900 -1.4816 -0.0273
 1036TIP3    H2 3073   3.875   4.138   1.477  1.4929 -0.3646 -1.9670
 1037TIP3   OH2 3074   5.221   5.314   1.436 -0.6311 -0.8116  0.1741
 1037TIP3    H1 3075   5.136   5.348   1.411 -0.1744  0.4354  0.2399
 1037TIP3    H2 3076   5.242   5.359   1.518  1.2598  0.9803 -1.1925
 1038TIP3   OH2 3077   6.098   0.884   4.269 -0.2609 -0.2511  0.5474
 1038TIP3    H1 3078   6.087   0.872   4.363  0.5421  1.0198  0.8436
 1038TIP3    H2 3079   6.092   0.796   4.232 -0.5873 -0.7708  1.7798
 1039TIP3   OH2 3080   4.585   2.928   2.823 -0.8371  0.2907 -0.5312
 1039TIP3    H1 3081   4.536   2.975   2.756  0.1690 -0.1937 -1.6375
 1039TIP3    H2 3082   4.647   2.992   2.857 -2.2321  0.9326  0.9383
 1040TIP3   OH2 3083   6.344   0.007   2.687 -0.5986 -0.0183  0.2034
 1040TIP3    H1 3084   6.433   0.009   2.723 -0.3140  0.1497 -0.4761
 1040TIP3    H2 3085   6.292   0.058   2.749 -0.0454  0.6068  0.1799
 1041TIP3   OH2 3086   1.989   4.439   1.280 -0.0391 -0.0507  0.2859
 1041TIP3    H1 3087   1.905   4.460   1.239  0.1508 -0.2038 -0.1847
 1041TIP3    H2 3088   2.055   4.474   1.219  0.2495 -0.4517  0.3652
 1042TIP3   OH2 3089   0.922   0.874   4.096  0.4623 -0.5114  0.1440
 1042TIP3    H1 3090   0.956   0.892   4.184  1.2294  0.3545 -0.3139
 1042TIP3    H2 3091   0.845   0.929   4.088 -0.4640 -1.6712  0.7878
 1043TIP3   OH2 3092   4.337   1.258   1.918  0.2681 -0.3105  0.1779
 1043TIP3    H1 3093   4.353   1.253   1.824  0.8822  0.0493  0.2561
 1043TIP3    H2 3094   4.361   1.348   1.942  1.3074 -0.7571  0.8885
 1044TIP3   OH2 3095   1.012   1.869   2.944  0.2404  0.1402  0.3451
 1044TIP3    H1 3096   1.029   1.963   2.941  2.2050 -0.1755 -2.4518
 1044TIP3    H2 3097   1.095   1.831   2.975  1.0682 -0.8221 -2.7177
 1045TIP3   OH2 3098   6.295   3.975   3.529 -0.2281 -0.0634 -0.3923
 1045TIP3    H1 3099   6.210   3.933   3.511  0.1838 -1.1342  0.1335
 1045TIP3    H2 3100   6.351   3.945   3.458  0.1173 -0.5661  0.0862
 1046TIP3   OH2 3101   0.568   5.644   5.376 -0.0170  0.5892  0.3829
 1046TIP3    H1 3102   0.576   5.549   5.367  2.0650  0.6489  1.0777
 1046TIP3    H2 3103   0.649   5.679   5.338  0.5624  1.8837  2.6461
 1047TIP3   OH2 3104   3.003   1.898   1.288 -0.6965 -0.0039 -0.4313
 1047TIP3    H1 3105   3.033   1.842   1.359 -0.4814  1.7630  0.9423
 1047TIP3    H2 3106   2.908   1.888   1.288 -0.6660 -0.3007 -0.1535
 1048TIP3   OH2 3107   0.246   6.731   4.034  0.4097 -0.0121 -0.3392
 1048TIP3    H1 3108   0.268   6.696   3.947 -0.4862  1.5814 -1.2604
 1048TIP3    H2 3109   0.265   6.824   4.028 -3.0363  0.8402 -0.0851
 1049TIP3   OH2 3110   1.649   2.633   2.813  0.2389 -0.1671 -0.1508
 1049TIP3    H1 3111   1.726   2.576   2.812  0.1875 -0.2319 -0.5393
 1049TIP3    H2 3112   1.648   2.670   2.901  1.1086  0.3666 -0.3535
 1050TIP3   OH2 3113   0.170   0.484   1.491 -0.7198 -0.1697  0.1104
 1050TIP3    H1 3114   0.165   0.574   1.458 -0.2162  0.0119  0.5057
 1050TIP3    H2 3115   0.192   0.432   1.414  0.5670  0.2651  0.1594
 1051TIP3   OH2 3116   7.008   2.915   0.934 -0.0462 -0.1737  0.1256
 1051TIP3    H1 3117   7.023   3.007   0.914 -0.1722 -0.2101 -0.1472
 1051TIP3    H2 3118   6.928   2.914   0.986  0.6806 -0.0105  1.2814
 1052TIP3   OH2 3119   0.355   5.327   5.245  0.3160 -0.4794 -0.0018
 1052TIP3    H1 3120   0.305   5.385   5.302 -0.1374  1.6506 -2.3511
 1052TIP3    H2 3121   0.444   5.329   5.280 -0.2751 -0.5819  1.5549
 1053TIP3   OH2 3122   3.292   4.342   1.461 -0.2943 -0.0935  0.7231
 1053TIP3    H1 3123   3.311   4.422   1.412  0.1460  0.3918  1.6586
 1053TIP3    H2 3124   3.370   4.326   1.513  0.0076 -1.7053 -0.1721
 1054TIP3   OH2 3125   4.425   4.413   3.282  0.5771  0.4565 -0.1201
 1054TIP3    H1 3126   4.401   4.396   3.191 -0.5533  1.2531 -0.0033
 1054TIP3    H2 3127   4.392   4.337   3.330 -1.4056  1.3054 -0.0347
 1055TIP3   OH2 3128   2.612   1.692   2.590  0.1207 -0.4593  0.0449
 1055TIP3    H1 3129   2.520   1.675   2.571  0.0317  0.0006  0.0450
 1055TIP3    H2 3130   2.611   1.763   2.654  0.4934  0.7024 -1.1674
 1056TIP3   OH2 3131   4.470   4.128   5.767  0.2709 -0.8049  0.1431
 1056TIP3    H1 3132   4.422   4.080   5.834 -1.9964  1.0351 -0.0483
 1056TIP3    H2 3133   4.521   4.193   5.816 -0.8330  0.0670  0.1792
 1057TIP3   OH2 3134   6.693   1.271   1.809  0.1160 -0.4535  0.2092
 1057TIP3    H1 3135   6.771   1.268   1.866  0.6230 -0.0796 -0.4472
 1057TIP3    H2 3136   6.722   1.232   1.727 -0.4120 -0.3487 -0.0292
 1058TIP3   OH2 3137   5.454   6.062   1.441  0.3480  0.4900  0.1977
 1058TIP3    H1 3138   5.441   6.060   1.536 -0.6490 -3.4229  0.1689
 1058TIP3    H2 3139   5.525   5.999   1.426 -0.5603 -0.1405 -1.7002
 1059TIP3   OH2 3140   1.412   4.716   4.399  0.1946  0.1723  0.3970
 1059TIP3    H1 3141   1.369   4.631   4.386  1.9677 -0.7090 -0.0868
 1059TIP3    H2 3142   1.381   4.747   4.484 -0.5321 -0.9449  0.5529
 1060TIP3   OH2 3143   6.458   6.734   3.494 -0.9730 -0.4239 -0.4686
 1060TIP3    H1 3144   6.403   6.694   3.562  1.0641 -0.5233  1.2306
 1060TIP3    H2 3145   6.405   6.804   3.458 -2.5064 -1.0273  0.5071
 1061TIP3   OH2 3146   4.809   2.648   0.075  0.0713 -0.2106 -0.5723
 1061TIP3    H1 3147   4.791   2.735   0.110  1.0183  0.5989 -1.9989
 1061TIP3    H2 3148   4.742   2.634   0.008  0.9390  0.1887 -1.5570
 1062TIP3   OH2 3149   0.872   5.722   1.884  0.0488  0.4732 -0.1777
 1062TIP3    H1 3150   0.886   5.798   1.827 -2.8145  0.8734 -0.4851
 1062TIP3    H2 3151   0.869   5.760   1.972  0.4487  0.4277 -0.1409
 1063TIP3   OH2 3152  -0.003   5.475   3.803  0.8015  0.1343 -0.1747
 1063TIP3    H1 3153  -0.044   5.560   3.821 -0.3555 -0.6402  0.9217
 1063TIP3    H2 3154   0.082   5.498   3.765 -0.0850  1.7801 -1.3057
 1064TIP3   OH2 3155   6.565   6.078   3.878  0.3330 -0.1700 -0.6246
 1064TIP3    H1 3156   6.648   6.121   3.861  0.3744 -0.5631 -1.4948
 1064TIP3    H2 3157   6.519   6.079   3.794 -0.1908 -0.6843 -0.3594
 1065TIP3   OH2 3158   1.047   5.022   5.424  0.1014  0.0185 -0.7005
 1065TIP3    H1 3159   0.973   4.997   5.367 -0.5774  0.0302  0.1496
 1065TIP3    H2 3160   1.020   5.106   5.462  0.5202 -0.0211 -0.3178
 1066TIP3   OH2 3161   6.575   1.562   5.457  0.5654  0.3305 -0.0600
 1066TIP3    H1 3162   6.552   1.611   5.536 -1.7951  1.5180 -1.3627
 1066TIP3    H2 3163   6.659   1.599   5.429  1.2948  0.0864  1.6803
 1067TIP3   OH2 3164   6.363   5.394   2.132 -0.3172  0.0170 -0.1648
 1067TIP3    H1 3165   6.287   5.339   2.151  0.0147 -0.6128 -0.6364
 1067TIP3    H2 3166   6.340   5.440   2.051 -0.2068 -0.1642 -0.3008
 1068TIP3   OH2 3167   4.938   2.080   5.425  0.2932  0.0273 -0.6218
 1068TIP3    H1 3168   4.945   2.165   5.467 -0.8307  0.8590 -2.0386
 1068TIP3    H2 3169   5.008   2.028   5.465  2.8460  2.4086 -1.6342
 1069TIP3   OH2 3170   5.445   0.160   3.626 -0.3609 -0.8353 -0.5122
 1069TIP3    H1 3171   5.370   0.195   3.675  0.1472  0.3788 -0.5840
 1069TIP3    H2 3172   5.405   0.112   3.553 -1.0862 -1.1341  0.0640
 1070TIP3   OH2 3173   4.890   5.912   4.726  0.2125 -0.2150  0.0523
 1070TIP3    H1 3174   4.910   5.983   4.787 -1.2492 -1.4412  2.0948
 1070TIP3    H2 3175   4.794   5.914   4.719  0.2168 -1.4000 -0.5508
 1071TIP3   OH2 3176   4.953   0.508   3.286  0.8431  0.0975 -0.2529
 1071TIP3    H1 3177   5.029   0.480   3.338  0.4409 -0.8181 -0.1399
 1071TIP3    H2 3178   4.975   0.485   3.196  1.2185  0.9888 -0.4018
 1072TIP3   OH2 3179   1.651   0.643   3.996  0.0019 -0.5981 -0.7414
 1072TIP3    H1 3180   1.620   0.572   4.052  0.9955 -0.0817  0.5260
 1072TIP3    H2 3181   1.729   0.676   4.040  0.2936  0.4517 -1.9669
 1073TIP3   OH2 3182   1.273   0.301   0.187 -0.3100  0.2461 -0.6269
 1073TIP3    H1 3183   1.266   0.222   0.242 -1.9897  0.2706 -0.7533
 1073TIP3    H2 3184   1.199   0.295   0.127 -0.7401  2.1470 -0.3458
 1074TIP3   OH2 3185   5.439   1.691   3.616  0.2717 -0.6279  0.0553
 1074TIP3    H1 3186   5.476   1.706   3.703 -1.2237 -0.2710  0.6725
 1074TIP3    H2 3187   5.496   1.740   3.557  0.6405  0.1011  0.9884
 1075TIP3   OH2 3188   7.097   1.578   4.178 -0.1206  0.1322  0.1695
 1075TIP3    H1 3189   7.029   1.555   4.115 -0.1010 -0.5220  0.3856
 1075TIP3    H2 3190   7.163   1.625   4.126 -0.8734  1.0609  0.0162
 1076TIP3   OH2 3191   5.440   1.169   4.309 -0.3760 -0.4899 -0.2756
 1076TIP3    H1 3192   5.491   1.250   4.301 -1.5284  0.4650  1.5451
 1076TIP3    H2 3193   5.359   1.187   4.261 -0.6352 -0.5668  0.1379
 1077TIP3   OH2 3194   0.566   4.729   3.632  0.3807  0.4223  0.0127
 1077TIP3    H1 3195   0.640   4.719   3.693 -0.6235 -0.0656  1.2115
 1077TIP3    H2 3196   0.489   4.733   3.689 -0.5161  0.9981 -1.2037
 1078TIP3   OH2 3197   6.152   0.227   5.243  0.1596  0.2788  0.2646
 1078TIP3    H1 3198   6.182   0.315   5.266  0.9078  0.5506 -1.5602
 1078TIP3    H2 3199   6.062   0.223   5.276  0.1379  1.6902  0.4486
 1079TIP3   OH2 3200   0.967   0.609   1.274 -0.2526 -0.1241  0.5389
 1079TIP3    H1 3201   1.062   0.603   1.285 -0.3724  0.2099  1.9115
 1079TIP3    H2 3202   0.956   0.669   1.200  0.6142  1.6599  1.7725
 1080TIP3   OH2 3203   0.274   0.591   4.290  0.6677 -0.0109  0.3883
 1080TIP3    H1 3204   0.335   0.574   4.361  1.8404  3.0604  0.2692
 1080TIP3    H2 3205   0.291   0.522   4.226  0.0417 -2.4487  2.6684
 1081TIP3   OH2 3206   3.801   2.712   0.765  0.1146  0.5811 -0.0586
 1081TIP3    H1 3207   3.786   2.797   0.805 -1.9100  1.0669 -1.7002
 1081TIP3    H2 3208   3.893   2.715   0.737 -0.0244  2.4277 -0.4632
 1082TIP3   OH2 3209   2.810   1.419   3.369  0.0170  0.5178 -0.6793
 1082TIP3    H1 3210   2.855   1.495   3.406  1.0831  0.8252 -2.4945
 1082TIP3    H2 3211   2.726   1.416   3.415  1.0996  1.0711  1.4371
 1083TIP3   OH2 3212   5.317   0.554   5.512 -0.7067  0.3955  0.5314
 1083TIP3    H1 3213   5.320   0.648   5.494 -1.3884  0.7094  1.9246
 1083TIP3    H2 3214   5.249   0.545   5.578 -0.7165 -1.1032  0.3393
 1084TIP3   OH2 3215   1.001   2.088   4.219  0.6699  0.2122  0.8775
 1084TIP3    H1 3216   1.021   2.019   4.282  0.9267 -2.9482 -2.3200
 1084TIP3    H2 3217   0.905   2.092   4.217  0.6655  0.9258  1.9904
 1085TIP3   OH2 3218   7.185   2.765   2.175 -0.1989  0.0194 -0.1321
 1085TIP3    H1 3219   7.123   2.824   2.219  0.7087  0.3458  0.7645
 1085TIP3    H2 3220   7.252   2.824   2.140  0.3062 -0.4130  0.0899
 1086TIP3   OH2 3221   5.343   5.241   2.036  0.3222  0.5176 -0.5442
 1086TIP3    H1 3222   5.418   5.248   1.977 -0.1714  1.1167 -1.1233
 1086TIP3    H2 3223   5.379   5.257   2.123  1.3012 -1.6852 -0.4809
 1087TIP3   OH2 3224   2.876   1.160   3.904  0.4907  0.3363 -0.5328
 1087TIP3    H1 3225   2.913   1.158   3.992 -0.5485 -0.2714 -0.0885
 1087TIP3    H2 3226   2.783   1.140   3.916  0.5153 -0.7839 -1.8591
 1088TIP3   OH2 3227   5.972   1.341   5.012  0.0871 -0.0788 -0.1558
 1088TIP3    H1 3228   6.038   1.399   4.975  0.4629 -1.0917 -1.1274
 1088TIP3    H2 3229   6.019   1.288   5.076  0.2859 -0.8905 -0.9410
 1089TIP3   OH2 3230   6.643   5.697   3.630 -0.3071 -0.2169  0.1832
 1089TIP3    H1 3231   6.587   5.735   3.563 -0.0225 -0.2656 -0.0867
 1089TIP3    H2 3232   6.689   5.771   3.669 -1.3755 -0.0462  1.1850
 1090TIP3   OH2 3233   0.778   4.998   3.825  0.2326 -0.1916 -0.3452
 1090TIP3    H1 3234   0.814   5.087   3.824 -0.6647  0.1779 -0.9510
 1090TIP3    H2 3235   0.767   4.978   3.918  0.0778  0.4803 -0.2113
 1091TIP3   OH2 3236   5.619   0.277   3.308  0.1403  0.6952  0.4461
 1091TIP3    H1 3237   5.608   0.217   3.234 -0.2139  1.8288 -0.4452
 1091TIP3    H2 3238   5.688   0.337   3.281 -0.6297  1.7036  0.6185
 1092TIP3   OH2 3239   5.930   3.944   4.865  0.1471  0.1572  0.0447
 1092TIP3    H1 3240   5.850   3.893   4.851 -1.0181  1.2419  2.2042
 1092TIP3    H2 3241   5.989   3.885   4.911 -0.7284  0.3178  1.4342
 1093TIP3   OH2 3242   0.611   4.624   5.095  0.0257 -0.2482 -0.5156
 1093TIP3    H1 3243   0.529   4.578   5.079 -0.0414  0.0648 -1.0981
 1093TIP3    H2 3244   0.671   4.591   5.028 -0.4250  1.4787 -1.8468
 1094TIP3   OH2 3245   0.506   6.048   1.115 -0.5434 -0.0793 -0.3031
 1094TIP3    H1 3246   0.440   6.109   1.082 -0.8695  0.3037  0.9716
 1094TIP3    H2 3247   0.458   5.967   1.132 -0.4691 -0.1401 -0.3846
 1095TIP3   OH2 3248   5.444   1.081   2.887  0.1957 -0.3166 -0.2326
 1095TIP3    H1 3249   5.385   1.089   2.963 -0.7318 -0.3397 -0.9333
 1095TIP3    H2 3250   5.503   1.009   2.910  1.1674  0.8854  1.2599
 1096TIP3   OH2 3251   5.513   2.323   0.431  0.1651  0.1876  0.5132
 1096TIP3    H1 3252   5.509   2.229   0.412  1.1484 -0.2112  2.1518
 1096TIP3    H2 3253   5.437   2.359   0.385 -1.0430 -1.6074  0.9946
 1097TIP3   OH2 3254   0.375   6.631   5.616  0.1418 -0.3775  0.3631
 1097TIP3    H1 3255   0.403   6.688   5.545 -0.3688  0.4323  0.7995
 1097TIP3    H2 3256   0.391   6.542   5.583 -0.6866 -0.0462 -1.0332
 1098TIP3   OH2 3257   6.356   3.762   3.818 -0.3058 -0.0521 -1.0365
 1098TIP3    H1 3258   6.318   3.833   3.767  0.0978 -1.0389 -2.8347
 1098TIP3    H2 3259   6.451   3.777   3.812 -0.2486 -0.2961 -0.7551
 1099TIP3   OH2 3260   2.187   1.637   3.990  0.9142 -0.3207  0.0893
 1099TIP3    H1 3261   2.266   1.691   3.984  1.3811 -1.0531 -0.4999
 1099TIP3    H2 3262   2.190   1.598   4.077  1.5172 -0.8121 -0.1456
 1100TIP3   OH2 3263   6.934   0.886   5.634 -0.1859  0.0211  0.6523
 1100TIP3    H1 3264   6.878   0.891   5.557  2.1559  0.1313 -1.1441
 1100TIP3    H2 3265   6.874   0.891   5.708 -2.4560  0.7223 -1.1457
 1101TIP3   OH2 3266   2.201   1.911   3.507 -0.8371 -0.4679 -0.2774
 1101TIP3    H1 3267   2.128   1.851   3.523 -0.7760 -0.1740  1.2418
 1101TIP3    H2 3268   2.221   1.948   3.593  1.6045 -1.0852 -0.5088
 1102TIP3   OH2 3269   3.855   1.379   4.234  0.1582  0.3523 -0.4996
 1102TIP3    H1 3270   3.777   1.328   4.213  0.3507  0.3841 -1.3309
 1102TIP3    H2 3271   3.906   1.379   4.153  1.0415  0.3005  0.0414
 1103TIP3   OH2 3272   1.057   3.888   1.985  0.3036 -0.0162 -0.0575
 1103TIP3    H1 3273   1.031   3.921   2.071  1.2908 -0.7958  0.5577
 1103TIP3    H2 3274   1.100   3.805   2.003 -0.2392 -0.6146 -1.3901
 1104TIP3   OH2 3275   5.641   2.008   4.974 -0.7169  0.2725 -0.1683
 1104TIP3    H1 3276   5.560   2.014   4.923 -1.2640 -1.1756  0.4923
 1104TIP3    H2 3277   5.709   1.990   4.909 -1.1904 -0.1474 -0.5584
 1105TIP3   OH2 3278   6.922   1.445   3.647  0.0966  0.0668  0.5277
 1105TIP3    H1 3279   6.879   1.440   3.561 -1.2059  0.0201  1.1628
 1105TIP3    H2 3280   6.856   1.415   3.709  1.2106 -0.4398  1.5027
 1106TIP3   OH2 3281   4.074   0.280   4.264  0.0084 -0.7823 -0.5496
 1106TIP3    H1 3282   3.993   0.324   4.239  0.1725 -0.1186  0.0726
 1106TIP3    H2 3283   4.046   0.197   4.302 -0.2990 -1.2827 -1.7991
 1107TIP3   OH2 3284   2.160   0.003   5.091  0.4008  0.0890  0.1374
 1107TIP3    H1 3285   2.171   0.058   5.169 -0.3462 -1.7660  1.6483
 1107TIP3    H2 3286   2.244  -0.041   5.080  0.7724  0.9551 -0.6494
 1108TIP3   OH2 3287   0.802   6.200   5.619 -0.1569  0.0201  0.0295
 1108TIP3    H1 3288   0.734   6.238   5.675  0.4550  0.7244  0.2964
 1108TIP3    H2 3289   0.869   6.169   5.680 -0.1291 -0.4762 -0.2457
 1109TIP3   OH2 3290   1.092   2.099   0.085  0.2973 -0.6686 -0.1838
 1109TIP3    H1 3291   1.026   2.057   0.030 -0.7018  0.9380 -0.2911
 1109TIP3    H2 3292   1.118   2.178   0.037  0.9027 -0.2912  0.7202
 1110TIP3   OH2 3293   6.825   2.549   2.185 -0.0315 -0.0100 -0.0002
 1110TIP3    H1 3294   6.918   2.528   2.193  0.2845  0.9643 -0.8940
 1110TIP3    H2 3295   6.808   2.546   2.091 -0.8501  0.0781  0.1385
 1111TIP3   OH2 3296   5.125   4.866   3.257  0.8871 -0.8453  0.1118
 1111TIP3    H1 3297   5.131   4.840   3.349  0.8193  0.3918  0.4842
 1111TIP3    H2 3298   5.215   4.889   3.232  0.7030  0.1606  0.3040
 1112TIP3   OH2 3299   2.344   5.632   2.425  0.1620 -0.7554  0.1307
 1112TIP3    H1 3300   2.364   5.658   2.335 -0.5102 -1.7759 -0.3367
 1112TIP3    H2 3301   2.427   5.600   2.461 -0.0750 -2.9075 -1.0546
 1113TIP3   OH2 3302   7.048   4.210   2.114  0.6235 -0.6718 -0.2097
 1113TIP3    H1 3303   7.046   4.243   2.024 -0.2242 -0.8923 -0.2783
 1113TIP3    H2 3304   6.980   4.143   2.116 -0.7497  0.6859  1.1194
 1114TIP3   OH2 3305   1.013   5.699   2.526 -0.1818 -0.2978 -0.3385
 1114TIP3    H1 3306   1.052   5.785   2.509 -1.5743  0.6973  1.1906
 1114TIP3    H2 3307   0.927   5.718   2.563 -0.5928 -2.3603 -0.1040
 1115TIP3   OH2 3308   5.048   4.771   5.702  0.0984 -0.1206  0.4106
 1115TIP3    H1 3309   5.084   4.746   5.787  0.3651 -0.6517  0.1443
 1115TIP3    H2 3310   5.090   4.712   5.640  1.6496  1.7572 -0.4168
 1116TIP3   OH2 3311   5.071   2.642   0.950  0.1523  0.0326 -0.6169
 1116TIP3    H1 3312   5.007   2.616   0.884  1.4517  0.7277 -2.2156
 1116TIP3    H2 3313   5.148   2.668   0.900  1.5330 -0.3205  1.2280
 1117TIP3   OH2 3314   5.039   6.409   3.284  0.0108  0.2817 -0.2335
 1117TIP3    H1 3315   5.017   6.501   3.298 -0.9106  0.2941 -1.6536
 1117TIP3    H2 3316   5.071   6.405   3.194 -0.0728 -0.8130 -0.2260
 1118TIP3   OH2 3317   6.041   4.189   0.175  0.4317  0.1050 -0.1154
 1118TIP3    H1 3318   5.955   4.230   0.186  0.7554  0.8943 -0.4259
 1118TIP3    H2 3319   6.092   4.218   0.251  0.1596 -1.0831  0.5329
 1119TIP3   OH2 3320   2.706   3.199   2.779 -0.2615  0.0822 -0.5406
 1119TIP3    H1 3321   2.670   3.249   2.705 -2.5252  0.6939  0.8725
 1119TIP3    H2 3322   2.713   3.263   2.850  1.7538 -0.5233 -0.1190
 1120TIP3   OH2 3323   2.717   1.733   0.130 -0.0863  0.4457  0.1869
 1120TIP3    H1 3324   2.747   1.782   0.054  4.1267 -1.2566  0.4400
 1120TIP3    H2 3325   2.732   1.792   0.204  0.7747  0.3767  0.0882
 1121TIP3   OH2 3326   5.121   5.817   5.453  0.1047 -0.1607  0.4109
 1121TIP3    H1 3327   5.128   5.828   5.358  1.4224 -0.1389  0.4913
 1121TIP3    H2 3328   5.185   5.749   5.474 -0.6022 -0.6010  1.2220
 1122TIP3   OH2 3329   5.510   0.020   4.127  0.2921  0.1711  0.0163
 1122TIP3    H1 3330   5.514  -0.036   4.204 -1.8899  0.9126  0.7244
 1122TIP3    H2 3331   5.525   0.108   4.160  0.2484  0.3958 -0.5428
 1123TIP3   OH2 3332   4.925   1.272   1.519  0.0289 -0.0387 -0.2559
 1123TIP3    H1 3333   4.914   1.362   1.549 -0.7090 -0.0854 -0.3633
 1123TIP3    H2 3334   5.018   1.255   1.527  0.1429  0.6671 -0.0342
 1124TIP3   OH2 3335   3.539   6.031   4.112  0.0760 -0.0446 -0.2331
 1124TIP3    H1 3336   3.555   6.042   4.205  2.1874 -0.3667 -0.5248
 1124TIP3    H2 3337   3.470   5.965   4.107 -0.8793  0.8138  1.0927
 1125TIP3   OH2 3338   3.479   0.304   5.623  0.0838 -0.0119 -0.2995
 1125TIP3    H1 3339   3.397   0.304   5.672  0.3744 -0.3870  0.1872
 1125TIP3    H2 3340   3.484   0.392   5.586 -0.2652  0.1945  0.1342
 1126TIP3   OH2 3341   1.995   6.168   2.819 -0.2058  0.2761 -0.2736
 1126TIP3    H1 3342   1.908   6.168   2.861  0.7032 -1.2677  1.8072
 1126TIP3    H2 3343   1.993   6.092   2.761  0.3976 -1.1586  1.4640
 1127TIP3   OH2 3344   4.286   3.432   2.035 -0.0495  0.1694  0.4496
 1127TIP3    H1 3345   4.260   3.417   2.126 -0.6038 -1.3147  0.0819
 1127TIP3    H2 3346   4.206   3.460   1.991  0.3023  1.2606  0.4817
 1128TIP3   OH2 3347   5.368   1.005   3.316  0.4121  0.3789  0.1356
 1128TIP3    H1 3348   5.401   1.042   3.398  0.0030  0.7116  0.1511
 1128TIP3    H2 3349   5.315   0.931   3.343 -1.2455  1.5767  0.3088
 1129TIP3   OH2 3350   1.928   2.730   4.165 -0.1062 -0.7553  1.2874
 1129TIP3    H1 3351   1.882   2.806   4.129  1.3844 -0.4637 -0.0966
 1129TIP3    H2 3352   1.876   2.655   4.136  1.1057 -0.5545 -1.7881
 1130TIP3   OH2 3353   0.821   2.136   1.657  1.0722  0.1058 -0.1705
 1130TIP3    H1 3354   0.779   2.216   1.627 -0.2842 -0.8159 -0.8939
 1130TIP3    H2 3355   0.913   2.159   1.669  0.6985  1.7669 -0.2907
 1131TIP3   OH2 3356   3.522   4.368   5.072  0.0473  0.2531  0.3285
 1131TIP3    H1 3357   3.593   4.405   5.125 -0.2704  0.0867  0.8693
 1131TIP3    H2 3358   3.501   4.285   5.114  1.6319 -1.2289 -1.6057
 1132TIP3   OH2 3359   6.984   1.804   4.335  0.1263  0.0439  0.3669
 1132TIP3    H1 3360   7.047   1.831   4.401  1.9740 -0.4277 -1.0980
 1132TIP3    H2 3361   7.026   1.729   4.292 -1.5177 -0.3741 -0.5743
 1133TIP3   OH2 3362   3.454   5.279   3.848  0.5443 -0.7531  0.0533
 1133TIP3    H1 3363   3.414   5.193   3.864 -0.6425 -0.1920  0.2642
 1133TIP3    H2 3364   3.543   5.271   3.880  0.0366 -1.4996  1.3541
 1134TIP3   OH2 3365   6.398   0.169   4.443  0.1262  0.9745 -0.0725
 1134TIP3    H1 3366   6.336   0.097   4.454  0.6143  0.7263  1.2097
 1134TIP3    H2 3367   6.399   0.186   4.349  0.4516 -1.0847 -0.4898
 1135TIP3   OH2 3368   4.825   1.088   3.685  0.2455  0.5279  0.7148
 1135TIP3    H1 3369   4.735   1.079   3.653  0.3225  3.4493 -0.6100
 1135TIP3    H2 3370   4.832   1.022   3.753 -2.9166  0.1979  0.8950
 1136TIP3   OH2 3371   3.323   0.486   5.271  0.1036  0.3761 -0.0498
 1136TIP3    H1 3372   3.250   0.537   5.236  0.3803  0.7564 -0.0883
 1136TIP3    H2 3373   3.282   0.414   5.319 -0.3226  1.1260  0.7404
 1137TIP3   OH2 3374   0.148   2.966   2.110 -0.0431  0.7240 -0.2102
 1137TIP3    H1 3375   0.201   2.899   2.068 -1.2553 -0.7249  0.4580
 1137TIP3    H2 3376   0.110   3.016   2.038 -1.2175 -1.0113 -0.8447
 1138TIP3   OH2 3377   3.894   6.473   2.508  0.1775  0.1246 -0.1258
 1138TIP3    H1 3378   3.961   6.421   2.552  0.0144 -0.2745 -0.3485
 1138TIP3    H2 3379   3.942   6.549   2.474  0.1005  1.1105  1.8282
 1139TIP3   OH2 3380   4.742   4.371   2.078  0.0615  0.2322  0.4929
 1139TIP3    H1 3381   4.694   4.357   1.996 -2.4952  0.2843  1.8725
 1139TIP3    H2 3382   4.787   4.288   2.093 -1.5622 -0.7367  0.3016
 1140TIP3   OH2 3383   2.207   1.552   4.587 -0.0320  0.1204  0.1942
 1140TIP3    H1 3384   2.235   1.537   4.677  0.3623 -0.1652  0.0242
 1140TIP3    H2 3385   2.149   1.479   4.567  2.1862 -1.4911 -0.7616
 1141TIP3   OH2 3386   5.532   3.512   2.906  0.3982  0.2225  0.3886
 1141TIP3    H1 3387   5.510   3.446   2.840  0.7000 -0.8300  1.3008
 1141TIP3    H2 3388   5.624   3.532   2.890  0.6146 -0.4095  0.7805
 1142TIP3   OH2 3389   5.515   2.716   2.107  0.1770  0.0441 -0.6801
 1142TIP3    H1 3390   5.430   2.760   2.109  0.7601  1.2300 -1.1772
 1142TIP3    H2 3391   5.534   2.697   2.199  0.8510  2.7838 -0.1462
 1143TIP3   OH2 3392   1.378   3.095   3.583 -0.0759 -0.3958 -0.6802
 1143TIP3    H1 3393   1.408   3.061   3.498  1.0498 -0.5115 -0.2404
 1143TIP3    H2 3394   1.426   3.177   3.594  0.0769 -0.5798  0.0289
 1144TIP3   OH2 3395   0.699   5.036   2.725  0.0657 -0.2119  0.6547
 1144TIP3    H1 3396   0.657   5.056   2.641 -1.8393  1.3541  1.9125
 1144TIP3    H2 3397   0.680   5.111   2.780  0.0910 -1.7898  2.9417
 1145TIP3   OH2 3398   4.748   2.869   0.233  0.3796 -0.5953  0.0240
 1145TIP3    H1 3399   4.812   2.930   0.270  0.8217 -0.7717 -0.4376
 1145TIP3    H2 3400   4.681   2.861   0.301 -0.1226  1.0407 -0.2372
 1146TIP3   OH2 3401   6.569   0.642   0.623 -0.5367  0.5184  0.0521
 1146TIP3    H1 3402   6.638   0.613   0.682 -0.7237  0.0002  0.0278
 1146TIP3    H2 3403   6.551   0.733   0.648  0.4960  0.8162 -0.2729
 1147TIP3   OH2 3404   2.623   2.636   2.747  0.5707  0.6261  0.1537
 1147TIP3    H1 3405   2.582   2.606   2.828 -0.9644  2.1173 -0.0161
 1147TIP3    H2 3406   2.699   2.686   2.775  0.2004  0.9080  0.6634
 1148TIP3   OH2 3407   7.209   1.512   1.045  0.2654 -0.3601  0.2391
 1148TIP3    H1 3408   7.246   1.448   1.106  0.2470 -0.4527  0.1538
 1148TIP3    H2 3409   7.173   1.581   1.101  1.5207  0.2668  0.3028
 1149TIP3   OH2 3410   0.210   5.587   5.013  0.3402  0.2815 -0.5553
 1149TIP3    H1 3411   0.197   5.651   4.943 -1.3292 -1.2502 -1.7319
 1149TIP3    H2 3412   0.302   5.563   5.007  1.5341  3.7359  1.0583
 1150TIP3   OH2 3413   0.636   0.670   2.200 -0.2340 -0.2645  0.2370
 1150TIP3    H1 3414   0.571   0.714   2.146  1.0377  2.3797  0.6690
 1150TIP3    H2 3415   0.717   0.674   2.148  0.2524 -0.7672  0.9342
 1151TIP3   OH2 3416   2.179   3.328   5.502 -0.1591 -0.3826  0.5235
 1151TIP3    H1 3417   2.218   3.293   5.422 -0.4532 -1.1094  0.6830
 1151TIP3    H2 3418   2.143   3.412   5.477  0.1052 -0.4242 -0.0103
 1152TIP3   OH2 3419   2.674   2.284   4.071  0.1219 -0.1811 -0.5175
 1152TIP3    H1 3420   2.756   2.324   4.043  1.1599 -2.2651 -0.7003
 1152TIP3    H2 3421   2.636   2.347   4.131  2.5201  0.3468  0.5835
 1153TIP3   OH2 3422   1.281   4.143   4.165 -0.5571 -0.0066 -0.2657
 1153TIP3    H1 3423   1.218   4.171   4.232 -1.2878 -0.4196 -0.7622
 1153TIP3    H2 3424   1.295   4.050   4.185 -0.9946 -0.2025 -0.8422
 1154TIP3   OH2 3425   0.590   3.230   2.709 -0.1056 -0.2400 -0.0803
 1154TIP3    H1 3426   0.596   3.152   2.763 -2.0282 -1.9472 -2.1589
 1154TIP3    H2 3427   0.522   3.284   2.751  0.3733 -0.2309  0.6929
 1155TIP3   OH2 3428   0.511   6.049   4.018 -0.3277  0.7883 -0.0432
 1155TIP3    H1 3429   0.468   6.020   4.099 -2.0007 -1.6903 -1.6603
 1155TIP3    H2 3430   0.587   5.992   4.010 -0.4586  0.6650 -0.4408
 1156TIP3   OH2 3431   1.898   1.829   4.744 -0.4024 -0.1902  0.1258
 1156TIP3    H1 3432   1.872   1.786   4.663 -2.1063  0.1891  0.4194
 1156TIP3    H2 3433   1.979   1.785   4.770  0.3749 -0.0740 -1.9381
 1157TIP3   OH2 3434   4.336   1.434   5.718 -0.0598  0.4510  0.1779
 1157TIP3    H1 3435   4.369   1.521   5.738  1.4492 -0.6908  3.2097
 1157TIP3    H2 3436   4.379   1.376   5.782 -2.4779 -2.2415 -0.4278
 1158TIP3   OH2 3437   5.801   1.013   2.493  0.5032  0.2695  0.4121
 1158TIP3    H1 3438   5.737   1.079   2.467  0.3577 -0.5038 -1.3513
 1158TIP3    H2 3439   5.774   0.933   2.447  1.5812 -0.6120  1.2266
 1159TIP3   OH2 3440   3.532   4.819   5.802  0.1000  0.1362 -0.1078
 1159TIP3    H1 3441   3.476   4.831   5.879  0.3028 -0.0659  0.0723
 1159TIP3    H2 3442   3.532   4.904   5.759 -0.4659  0.0984 -0.1919
 1160TIP3   OH2 3443   3.943   1.940   5.605  0.3087 -0.6910  0.3673
 1160TIP3    H1 3444   3.914   1.859   5.565  1.8830 -0.8666 -0.5240
 1160TIP3    H2 3445   3.988   1.913   5.685  1.6261 -0.8301 -0.3813
 1161TIP3   OH2 3446   6.608   0.300   1.261  0.6342 -0.0631  0.1792
 1161TIP3    H1 3447   6.524   0.337   1.290  0.4753 -0.9929  0.9688
 1161TIP3    H2 3448   6.669   0.374   1.265 -0.2384  0.7561 -0.9100
 1162TIP3   OH2 3449   2.477   2.210   3.804  0.0772  0.0086 -0.3423
 1162TIP3    H1 3450   2.497   2.133   3.857 -1.7191  0.3381  0.9180
 1162TIP3    H2 3451   2.562   2.243   3.776  0.9291 -1.9425 -0.2334
 1163TIP3   OH2 3452   5.828   4.618   1.602  0.0210 -0.5903  0.1355
 1163TIP3    H1 3453   5.771   4.630   1.527  0.5430 -1.5127 -0.4326
 1163TIP3    H2 3454   5.892   4.553   1.573  1.3919  0.4482  0.7252
 1164TIP3   OH2 3455   6.518   1.998   5.258 -0.1054 -0.1431  0.3221
 1164TIP3    H1 3456   6.549   2.002   5.348 -0.1462  0.3825  0.3173
 1164TIP3    H2 3457   6.482   1.910   5.249 -1.0656  0.1471  1.1358
 1165TIP3   OH2 3458   1.282   1.022   5.350  0.6545 -0.3469 -0.1759
 1165TIP3    H1 3459   1.253   1.028   5.441 -0.7871 -0.3325 -0.6134
 1165TIP3    H2 3460   1.206   0.988   5.303  1.2395  0.0573 -1.4503
 1166TIP3   OH2 3461   2.009   0.191   2.839 -0.2324 -0.5781  0.0093
 1166TIP3    H1 3462   1.967   0.228   2.917 -0.3954 -0.9892  0.1162
 1166TIP3    H2 3463   1.959   0.112   2.820  0.8882 -1.4228  0.5089
 1167TIP3   OH2 3464   2.035   0.738   5.704 -0.1788  0.1099  0.1902
 1167TIP3    H1 3465   2.084   0.771   5.629 -1.2973 -0.4381 -0.8034
 1167TIP3    H2 3466   2.068   0.649   5.716 -0.0369  0.1799  0.3355
 1168TIP3   OH2 3467   4.299   2.330   0.073  0.0430  0.6164  0.2034
 1168TIP3    H1 3468   4.250   2.372   0.144  1.6472  1.4659  0.8652
 1168TIP3    H2 3469   4.390   2.336   0.100  0.6061 -0.0868 -1.4075
 1169TIP3   OH2 3470   7.183   4.820   0.683 -0.9865 -0.2621 -0.4612
 1169TIP3    H1 3471   7.113   4.786   0.627  0.0450 -0.8894 -1.3963
 1169TIP3    H2 3472   7.245   4.748   0.690  0.1283  0.6607 -0.5956
 1170TIP3   OH2 3473   1.507   1.219   4.432  0.2393  0.3583 -0.5264
 1170TIP3    H1 3474   1.560   1.292   4.401 -1.1211  1.2961 -0.7317
 1170TIP3    H2 3475   1.494   1.165   4.354  2.7279 -1.1448 -0.0253
 1171TIP3   OH2 3476   0.231   0.834   4.156 -1.0026 -0.1967  0.2177
 1171TIP3    H1 3477   0.260   0.746   4.178  2.7883  1.0727  1.0067
 1171TIP3    H2 3478   0.185   0.865   4.234 -1.4584 -1.0749  0.3099
 1172TIP3   OH2 3479   2.448   0.478   2.838  0.4636 -0.0482 -0.4006
 1172TIP3    H1 3480   2.485   0.556   2.879 -0.5778 -0.2660  0.9923
 1172TIP3    H2 3481   2.387   0.443   2.902 -0.9259 -0.6456 -1.9865
 1173TIP3   OH2 3482   1.042   5.926   3.613  0.2690 -0.0048 -0.2687
 1173TIP3    H1 3483   1.005   5.840   3.635  2.1366 -0.9162 -0.4889
 1173TIP3    H2 3484   1.086   5.954   3.693  1.2783 -0.1478 -0.7635
 1174TIP3   OH2 3485   2.224   5.555   5.445  0.4238  0.0109  0.0451
 1174TIP3    H1 3486   2.158   5.531   5.380  0.5393  0.6654 -0.3261
 1174TIP3    H2 3487   2.303   5.510   5.417 -0.4071 -2.9100  1.9123
 1175TIP3   OH2 3488   5.402   5.361   4.175  0.7757 -0.2732 -0.0510
 1175TIP3    H1 3489   5.453   5.441   4.165 -0.7138  0.7106 -0.0395
 1175TIP3    H2 3490   5.355   5.352   4.092  1.0274 -1.2214 -0.1021
 1176TIP3   OH2 3491   1.719   5.647   0.403  0.5044  0.8220  0.3540
 1176TIP3    H1 3492   1.811   5.658   0.428  0.5368 -0.7676  1.0737
 1176TIP3    H2 3493   1.718   5.566   0.351 -0.5721  0.4526  0.9141
 1177TIP3   OH2 3494   3.238   1.735   1.692 -0.6819  0.3657 -0.4012
 1177TIP3    H1 3495   3.156   1.686   1.703  0.4569 -1.6684 -0.5663
 1177TIP3    H2 3496   3.211   1.817   1.651 -2.8911  0.7329  1.5548
 1178TIP3   OH2 3497   3.923   3.225   3.664  0.3930  0.7676  0.1807
 1178TIP3    H1 3498   3.900   3.160   3.598  0.4068  2.8287 -2.0219
 1178TIP3    H2 3499   4.013   3.202   3.690  0.7966  0.4869 -1.3412
 1179TIP3   OH2 3500   1.935   3.549   2.882  0.1998  0.3620 -0.2287
 1179TIP3    H1 3501   2.008   3.568   2.824 -0.5196  0.5714 -1.0874
 1179TIP3    H2 3502   1.887   3.632   2.887 -0.3785  0.0306 -0.2605
 1180TIP3   OH2 3503   4.295   6.408   5.451  0.2487 -0.1901 -0.0058
 1180TIP3    H1 3504   4.285   6.396   5.546  0.1319  0.5588  0.0794
 1180TIP3    H2 3505   4.207   6.396   5.416  0.5817 -2.3014 -0.2437
 1181TIP3   OH2 3506   3.608   2.110   5.623 -0.6182  0.5545  0.0705
 1181TIP3    H1 3507   3.515   2.131   5.622 -0.5709  0.8230  0.5995
 1181TIP3    H2 3508   3.636   2.133   5.711 -0.0694  0.3907 -0.0588
 1182TIP3   OH2 3509   2.190   0.383   4.894 -0.3357  0.0363  0.1337
 1182TIP3    H1 3510   2.148   0.468   4.887  0.2258  0.2819 -0.3306
 1182TIP3    H2 3511   2.254   0.394   4.965 -0.5359 -0.1147  0.3377
 1183TIP3   OH2 3512   4.248   4.282   4.284 -0.0334  0.1005  0.6861
 1183TIP3    H1 3513   4.330   4.305   4.240  0.4462  0.7324  1.8646
 1183TIP3    H2 3514   4.241   4.187   4.272  0.6344  0.1001  0.1927
 1184TIP3   OH2 3515   0.250   4.728   0.453 -0.2942  0.6607 -0.5860
 1184TIP3    H1 3516   0.340   4.748   0.426  0.1246  0.6583  0.7218
 1184TIP3    H2 3517   0.196   4.794   0.408  0.6541  2.3959  0.6889
 1185TIP3   OH2 3518   6.172   2.653   4.125 -0.0195 -0.1198  0.0701
 1185TIP3    H1 3519   6.118   2.699   4.060  0.4727  0.1476 -0.1512
 1185TIP3    H2 3520   6.246   2.620   4.075 -0.5651 -1.5306  0.1392
 1186TIP3   OH2 3521   4.979   4.709   4.699 -0.0272 -0.4890  0.0248
 1186TIP3    H1 3522   5.034   4.673   4.768 -0.7463 -0.5651  0.5685
 1186TIP3    H2 3523   4.929   4.634   4.667 -0.8301 -0.1637  0.4976
 1187TIP3   OH2 3524   6.542   0.459   4.968  0.1231  0.2214  0.0279
 1187TIP3    H1 3525   6.525   0.387   4.907  3.0339 -0.5323 -0.0688
 1187TIP3    H2 3526   6.460   0.470   5.016 -1.5320 -0.7402 -2.3800
 1188TIP3   OH2 3527   5.250   0.191   2.471  0.0327 -0.5800  0.8772
 1188TIP3    H1 3528   5.268   0.186   2.377 -0.8136  1.2302  0.5770
 1188TIP3    H2 3529   5.191   0.266   2.480 -1.2765 -1.7487  2.6619
 1189TIP3   OH2 3530   5.514   3.001   0.519 -0.0861  0.6722 -0.0959
 1189TIP3    H1 3531   5.550   2.929   0.572  1.7038  1.1321 -0.6299
 1189TIP3    H2 3532   5.420   2.997   0.535  0.1124 -0.9604  0.9209
 1190TIP3   OH2 3533   5.759   0.194   3.549 -0.5683  0.2839  0.1117
 1190TIP3    H1 3534   5.841   0.243   3.548 -0.7035  0.5129  0.2008
 1190TIP3    H2 3535   5.703   0.239   3.485 -1.3396  1.3814  1.4872
 1191TIP3   OH2 3536   7.075   2.590   4.637  0.5851  0.1536 -0.0056
 1191TIP3    H1 3537   7.158   2.549   4.663  1.1174  1.2800  0.1582
 1191TIP3    H2 3538   7.052   2.646   4.711  0.6682  1.2847 -0.8044
 1192TIP3   OH2 3539   4.154   2.308   0.701 -0.0813 -0.0805 -0.1828
 1192TIP3    H1 3540   4.240   2.275   0.676  0.7254  1.9084 -0.2326
 1192TIP3    H2 3541   4.138   2.270   0.787  1.1573  0.0313  0.1131
 1193TIP3   OH2 3542  -0.016   6.408   0.173 -0.0774 -0.6656  0.0645
 1193TIP3    H1 3543   0.008   6.422   0.264  0.3981  0.8180 -0.2440
 1193TIP3    H2 3544   0.053   6.351   0.138  0.1751 -0.5926  0.4398
 1194TIP3   OH2 3545   3.101   6.111   1.297 -0.3583 -0.3772  0.3938
 1194TIP3    H1 3546   3.081   6.205   1.301 -0.1819 -0.2980 -0.3009
 1194TIP3    H2 3547   3.134   6.098   1.208  0.2978 -0.9670  0.7123
 1195TIP3   OH2 3548   6.851   0.839   2.041 -0.4221 -0.3293  0.2965
 1195TIP3    H1 3549   6.859   0.926   2.004 -0.1270 -0.1939  0.6768
 1195TIP3    H2 3550   6.757   0.821   2.040 -0.6997  0.8085  2.0556
 1196TIP3   OH2 3551   6.531   6.202   4.112 -0.4012  0.1236  0.2720
 1196TIP3    H1 3552   6.531   6.155   4.029 -1.3221 -0.7184  0.7265
 1196TIP3    H2 3553   6.463   6.268   4.102 -1.0300 -0.4683  0.6171
 1197TIP3   OH2 3554   6.895   4.397   2.257  0.3944 -0.2897  0.6896
 1197TIP3    H1 3555   6.962   4.454   2.220 -0.9353 -0.9864 -3.4283
 1197TIP3    H2 3556   6.928   4.308   2.241 -0.0476 -0.6566  1.7320
 1198TIP3   OH2 3557   1.745   6.124   1.176  0.2535  0.5355 -0.3127
 1198TIP3    H1 3558   1.686   6.094   1.245  0.9084  2.1786  1.0429
 1198TIP3    H2 3559   1.728   6.066   1.103 -1.6750 -0.2279  0.6693
 1199TIP3   OH2 3560   0.594   2.010   4.756 -0.0811 -0.1699 -0.6744
 1199TIP3    H1 3561   0.508   1.979   4.782 -0.6750  0.0238 -2.2813
 1199TIP3    H2 3562   0.639   1.931   4.725 -0.0895 -0.1037 -0.8593
 1200TIP3   OH2 3563   7.177   0.960   4.651  0.8384 -0.1739  0.2668
 1200TIP3    H1 3564   7.251   0.921   4.603 -0.3753 -0.1167 -1.7925
 1200TIP3    H2 3565   7.158   0.898   4.721  2.3120 -0.6043  0.3142
 1201TIP3   OH2 3566   3.865   4.735   2.464  0.0014 -0.4110  0.8113
 1201TIP3    H1 3567   3.814   4.703   2.538  0.8231 -0.1556  1.5010
 1201TIP3    H2 3568   3.803   4.785   2.411 -0.6337 -0.7595  1.2282
 1202TIP3   OH2 3569   6.501   5.651   0.615 -0.3748  0.2037  0.2834
 1202TIP3    H1 3570   6.511   5.746   0.618  0.9522  0.1542 -1.1848
 1202TIP3    H2 3571   6.465   5.633   0.528 -1.2775 -0.6010  0.8032
 1203TIP3   OH2 3572   4.392   4.680   4.026  0.0411  0.2310  0.4195
 1203TIP3    H1 3573   4.382   4.762   3.978  0.1726  0.1522  0.2589
 1203TIP3    H2 3574   4.315   4.628   4.001  0.0781  0.2140  0.3410
 1204TIP3   OH2 3575   2.100   5.144   1.223  0.3443 -1.1029  0.0144
 1204TIP3    H1 3576   2.176   5.153   1.166 -0.6510  1.3896 -1.0785
 1204TIP3    H2 3577   2.027   5.180   1.172 -1.1217 -1.2325  1.8880
 1205TIP3   OH2 3578   4.880   4.296   1.575 -0.2731  0.0069  0.0155
 1205TIP3    H1 3579   4.918   4.354   1.641  2.4074 -0.4382 -0.9780
 1205TIP3    H2 3580   4.806   4.254   1.619 -1.2946  2.8675  1.2873
 1206TIP3   OH2 3581   5.196   4.347   4.811  0.2213 -0.1149 -0.4887
 1206TIP3    H1 3582   5.262   4.397   4.859 -0.6333  0.5394  0.0180
 1206TIP3    H2 3583   5.247   4.288   4.755  1.2538 -0.9382  1.2388
 1207TIP3   OH2 3584   2.277   6.765   3.194  0.3094  0.1897 -0.5358
 1207TIP3    H1 3585   2.370   6.752   3.214  0.1184 -1.3590 -0.5482
 1207TIP3    H2 3586   2.275   6.785   3.100  0.4860 -2.1018 -1.0822
 1208TIP3   OH2 3587   3.492   4.210   0.331  0.2738  0.1098 -0.1543
 1208TIP3    H1 3588   3.443   4.163   0.398 -0.4248  0.3298 -0.5002
 1208TIP3    H2 3589   3.473   4.302   0.347 -0.8543  0.1241 -1.3462
 1209TIP3   OH2 3590   0.171   3.988   2.561  0.2903  1.0166 -0.3689
 1209TIP3    H1 3591   0.229   3.922   2.524  0.4346  0.5591  0.6489
 1209TIP3    H2 3592   0.190   3.987   2.655 -0.4950  1.7193 -0.1933
 1210TIP3   OH2 3593   3.712   2.497   0.623  0.2734  0.3506 -0.0129
 1210TIP3    H1 3594   3.772   2.422   0.631  0.1425  0.3989  1.8323
 1210TIP3    H2 3595   3.756   2.569   0.667 -0.2190  0.9858 -0.5306
 1211TIP3   OH2 3596   6.274   5.083   4.818  0.1548  0.3832  0.2090
 1211TIP3    H1 3597   6.365   5.051   4.822  0.3180  0.9484  1.4365
 1211TIP3    H2 3598   6.283   5.177   4.806 -0.2528  0.5068  0.8420
 1212TIP3   OH2 3599   6.971   3.537   5.522 -0.3072 -0.0946  0.0455
 1212TIP3    H1 3600   7.046   3.576   5.567  1.3575 -1.0948 -1.7113
 1212TIP3    H2 3601   6.929   3.611   5.476 -1.0876  0.6478  1.8476
 1213TIP3   OH2 3602   6.836   0.323   2.919  0.1181 -0.0193  0.2177
 1213TIP3    H1 3603   6.897   0.321   2.844  0.1433  1.8284  0.1512
 1213TIP3    H2 3604   6.890   0.299   2.994 -0.0495 -2.5853 -0.3703
 1214TIP3   OH2 3605   5.558   1.449   3.856  0.0798  0.2139 -0.0679
 1214TIP3    H1 3606   5.632   1.471   3.913 -1.0335  0.9475  1.1517
 1214TIP3    H2 3607   5.598   1.404   3.782  1.7723  0.7813  0.4426
 1215TIP3   OH2 3608   2.445   6.727   1.631  0.1988 -0.2723  0.4060
 1215TIP3    H1 3609   2.437   6.670   1.555 -1.8963 -0.6572  0.8457
 1215TIP3    H2 3610   2.461   6.814   1.594  1.0141 -0.7413 -0.3772
 1216TIP3   OH2 3611   0.576   5.503   2.406 -0.1972  0.1804 -1.0668
 1216TIP3    H1 3612   0.540   5.591   2.412 -0.7504  0.0400 -2.1151
 1216TIP3    H2 3613   0.625   5.503   2.323 -1.0559 -0.7906 -1.5969
 1217TIP3   OH2 3614   1.620   4.958   3.998 -0.1097 -0.0768  0.1817
 1217TIP3    H1 3615   1.662   4.872   4.009  2.0976  0.4840 -2.6517
 1217TIP3    H2 3616   1.620   4.996   4.085  1.6441 -1.7701  0.9947
 1218TIP3   OH2 3617   5.973   2.285   5.099 -0.4447  0.5535  0.7417
 1218TIP3    H1 3618   5.952   2.230   5.174 -1.1456  0.2655  0.3336
 1218TIP3    H2 3619   5.978   2.224   5.025 -0.4740  0.9349  0.4245
 1219TIP3   OH2 3620   1.734   0.289   3.551 -0.2150  0.2103 -0.3334
 1219TIP3    H1 3621   1.815   0.255   3.590 -0.6170  1.4059  1.7083
 1219TIP3    H2 3622   1.763   0.360   3.494  0.2083  0.5483  0.2826
 1220TIP3   OH2 3623   3.431   6.357   1.630  0.7517 -0.4342  0.1527
 1220TIP3    H1 3624   3.491   6.300   1.678  3.1355  2.2978  0.6712
 1220TIP3    H2 3625   3.370   6.389   1.696 -0.1807 -1.8177 -0.0144
 1221TIP3   OH2 3626   2.913   2.827   0.936 -0.2042 -0.1223 -0.1022
 1221TIP3    H1 3627   2.889   2.755   0.994 -0.7770 -0.2812 -0.5301
 1221TIP3    H2 3628   3.005   2.844   0.956 -0.1899 -0.6686  0.3230
 1222TIP3   OH2 3629   0.568   1.146   3.084 -0.3237 -0.2159 -0.1075
 1222TIP3    H1 3630   0.544   1.059   3.116 -0.4657 -0.5310 -1.0524
 1222TIP3    H2 3631   0.498   1.169   3.022  0.6220 -0.1903 -1.1940
 1223TIP3   OH2 3632   3.073   6.181   2.415  0.0282  0.0102  0.1714
 1223TIP3    H1 3633   3.074   6.240   2.490 -0.6676  1.7972 -1.1591
 1223TIP3    H2 3634   3.155   6.200   2.369  1.1233 -2.0531  1.1265
 1224TIP3   OH2 3635   0.587   1.877   1.579 -0.3086  0.4227 -0.7342
 1224TIP3    H1 3636   0.527   1.905   1.510 -0.1213  0.0453 -1.0520
 1224TIP3    H2 3637   0.599   1.956   1.633 -0.1215  0.8417 -1.3694
 1225TIP3   OH2 3638   1.090   5.227   2.791 -0.2136 -0.0339  0.1167
 1225TIP3    H1 3639   1.183   5.217   2.771  0.0834  0.5161  1.1356
 1225TIP3    H2 3640   1.069   5.150   2.844 -0.9315 -1.3502 -1.9468
 1226TIP3   OH2 3641   0.948   5.422   5.630  0.3140 -0.3876  0.0472
 1226TIP3    H1 3642   0.859   5.448   5.653  0.5439 -0.9886  1.7279
 1226TIP3    H2 3643   0.940   5.384   5.542 -1.2956 -1.4695  0.6196
 1227TIP3   OH2 3644   5.890   2.548   5.643 -0.0054 -0.2104 -0.0721
 1227TIP3    H1 3645   5.894   2.599   5.724 -0.6513  2.4623 -1.5688
 1227TIP3    H2 3646   5.903   2.613   5.574  0.3814 -2.3491 -2.1481
 1228TIP3   OH2 3647   2.909   3.682   0.347  0.3376  0.2698  0.3706
 1228TIP3    H1 3648   2.991   3.706   0.389  0.4747  0.5474 -0.0526
 1228TIP3    H2 3649   2.846   3.748   0.378  0.0301 -0.5062  1.4666
 1229TIP3   OH2 3650   5.666  -0.022   5.030 -0.0462  0.4251  0.2439
 1229TIP3    H1 3651   5.680   0.061   4.985 -1.1168 -0.1013 -1.1123
 1229TIP3    H2 3652   5.592  -0.006   5.088  0.6921  0.8164  1.0999
 1230TIP3   OH2 3653   2.009   5.300   4.873  0.2633  0.0262 -0.1125
 1230TIP3    H1 3654   1.922   5.304   4.832  0.9169  0.3701 -1.5155
 1230TIP3    H2 3655   2.042   5.389   4.867  0.0888  0.2781  1.9193
 1231TIP3   OH2 3656   4.301   3.029   4.573 -0.3580 -0.0537  0.1087
 1231TIP3    H1 3657   4.333   2.939   4.579 -1.2932 -0.3553  0.7187
 1231TIP3    H2 3658   4.248   3.031   4.493 -0.2350 -0.0040  0.0276
 1232TIP3   OH2 3659   4.154   0.199   2.253 -0.1425  0.0988 -0.5179
 1232TIP3    H1 3660   4.185   0.114   2.222 -1.0646 -0.2529 -0.4860
 1232TIP3    H2 3661   4.070   0.181   2.294  1.2398  0.4409  2.7975
 1233TIP3   OH2 3662   0.948   1.518   2.885  0.5495  0.0911 -0.3254
 1233TIP3    H1 3663   0.865   1.496   2.843 -0.1327 -0.6695  1.3256
 1233TIP3    H2 3664   0.925   1.536   2.976  2.1989 -0.1599  0.1851
 1234TIP3   OH2 3665   3.401   2.595   2.418  0.7365  0.3298 -0.1341
 1234TIP3    H1 3666   3.429   2.574   2.329  0.5635  0.8301 -0.3100
 1234TIP3    H2 3667   3.340   2.667   2.408 -0.0383 -0.2496  0.3151
 1235TIP3   OH2 3668   2.993   2.873   0.485 -0.5286 -0.5040 -0.5932
 1235TIP3    H1 3669   3.062   2.870   0.418  0.3356 -2.4978  0.2994
 1235TIP3    H2 3670   3.029   2.823   0.558 -1.3534  1.7406  1.5004
 1236TIP3   OH2 3671   4.822   2.330   3.175  0.4420  0.2208 -0.2701
 1236TIP3    H1 3672   4.805   2.419   3.145  0.3042  0.5007  0.5996
 1236TIP3    H2 3673   4.782   2.274   3.109  0.6196  0.8011 -0.8772
 1237TIP3   OH2 3674   4.393   4.504   1.915 -0.1953  0.0430 -0.1793
 1237TIP3    H1 3675   4.440   4.421   1.902 -1.6933 -0.6464 -1.6303
 1237TIP3    H2 3676   4.332   4.486   1.986  0.5049  0.3898  0.5200
 1238TIP3   OH2 3677   4.905   4.916   2.564  0.4054  0.1323  0.3059
 1238TIP3    H1 3678   4.954   4.875   2.493  1.0086  0.2573  0.6461
 1238TIP3    H2 3679   4.813   4.911   2.536  0.2389 -3.0456  1.1296
 1239TIP3   OH2 3680   5.658   5.333   1.668 -0.8084  0.1919  0.0847
 1239TIP3    H1 3681   5.654   5.306   1.760  0.0066  0.5862  0.2547
 1239TIP3    H2 3682   5.733   5.394   1.665 -1.2570  0.7224 -0.6996
 1240TIP3   OH2 3683   3.514   5.672   3.183  0.2378  0.2235 -0.7540
 1240TIP3    H1 3684   3.495   5.614   3.110  1.9172 -1.7599  0.2640
 1240TIP3    H2 3685   3.568   5.742   3.146  0.9628 -0.6912 -1.4751
 1241TIP3   OH2 3686   1.059   6.481   3.990 -0.0380  0.0168 -0.5470
 1241TIP3    H1 3687   1.136   6.521   4.031  0.3853  0.0321 -1.3412
 1241TIP3    H2 3688   1.095   6.427   3.920 -0.6644 -1.0568 -0.0594
 1242TIP3   OH2 3689   1.415   3.103   4.768  0.4113 -0.3408 -0.4325
 1242TIP3    H1 3690   1.469   3.037   4.724 -0.4503 -1.2384 -0.1717
 1242TIP3    H2 3691   1.425   3.083   4.861  2.5065  1.7623 -0.1116
 1243TIP3   OH2 3692   5.711   4.641   5.409  0.0534  0.0952 -0.0445
 1243TIP3    H1 3693   5.712   4.598   5.495  0.9110  1.8145  0.8533
 1243TIP3    H2 3694   5.737   4.572   5.348  1.9887 -0.5726  1.4068
 1244TIP3   OH2 3695   2.465   5.790   4.177 -0.3223 -0.3641 -0.7794
 1244TIP3    H1 3696   2.477   5.872   4.225  0.0433 -0.2958 -0.9861
 1244TIP3    H2 3697   2.492   5.722   4.240  2.7666 -0.1523 -1.7055
 1245TIP3   OH2 3698   2.697   1.279   2.071  0.0609  0.6031 -1.0407
 1245TIP3    H1 3699   2.655   1.323   2.145  1.6349  0.3584  0.0349
 1245TIP3    H2 3700   2.629   1.277   2.003 -1.3815  0.9442  0.3316
 1246TIP3   OH2 3701   1.303   2.763   4.515  0.3172  0.4843  0.3590
 1246TIP3    H1 3702   1.277   2.828   4.450  0.6305 -2.0269 -2.5318
 1246TIP3    H2 3703   1.387   2.795   4.549  0.9502  1.2062 -1.7077
 1247TIP3   OH2 3704   6.566   3.439   1.917  0.1441  0.6914  0.0169
 1247TIP3    H1 3705   6.525   3.516   1.877  1.0427  1.2942  0.2424
 1247TIP3    H2 3706   6.532   3.437   2.006 -1.9006 -0.6812 -0.7167
 1248TIP3   OH2 3707   3.628   5.462   5.669  0.3274 -0.9460 -0.6626
 1248TIP3    H1 3708   3.573   5.394   5.708 -0.0452 -1.2204 -1.6330
 1248TIP3    H2 3709   3.626   5.534   5.732 -2.5054 -0.2862 -1.3477
 1249TIP3   OH2 3710   0.764   5.634   2.870 -0.2249 -0.1731 -1.0141
 1249TIP3    H1 3711   0.834   5.570   2.868 -0.9108 -1.1389  1.6331
 1249TIP3    H2 3712   0.808   5.719   2.868  0.8910 -0.7423 -1.1464
 1250TIP3   OH2 3713   6.209   6.570   4.456  0.4096  0.3820 -0.0400
 1250TIP3    H1 3714   6.220   6.506   4.386 -0.2873  0.5444 -0.3040
 1250TIP3    H2 3715   6.127   6.546   4.499  0.3174  0.8878  0.0826
 1251TIP3   OH2 3716   2.948   6.010   3.025 -0.1366  0.0353  0.9609
 1251TIP3    H1 3717   2.894   5.943   3.065 -0.7606  0.4485  0.8262
 1251TIP3    H2 3718   2.966   5.978   2.936  0.5339 -0.4825  1.2755
 1252TIP3   OH2 3719   5.569   3.897   2.794 -0.4953  0.4887 -0.4469
 1252TIP3    H1 3720   5.584   3.949   2.715  1.9324 -1.0933 -1.1646
 1252TIP3    H2 3721   5.652   3.900   2.841 -0.9227 -1.0574  0.4985
 1253TIP3   OH2 3722   4.744   5.079   3.655 -0.2840 -0.2622 -0.8224
 1253TIP3    H1 3723   4.703   5.163   3.678  2.6879  1.2890 -0.7235
 1253TIP3    H2 3724   4.726   5.022   3.730 -0.0089  1.2116  0.4109
 1254TIP3   OH2 3725   4.074   5.251   3.442  0.0089 -0.2039  0.4409
 1254TIP3    H1 3726   4.121   5.307   3.503  0.3337 -0.2811  0.2628
 1254TIP3    H2 3727   4.142   5.214   3.386 -0.2123 -0.6777  0.4765
 1255TIP3   OH2 3728   4.802   2.414   4.651 -0.9820 -0.2269  0.2380
 1255TIP3    H1 3729   4.814   2.354   4.577 -1.9310  0.1768 -0.2660
 1255TIP3    H2 3730   4.862   2.486   4.633  0.2492 -1.0687  0.9073
 1256TIP3   OH2 3731   7.188   4.189   1.390  0.1723 -0.5653  0.0473
 1256TIP3    H1 3732   7.222   4.123   1.330 -0.4436 -0.5600 -0.3099
 1256TIP3    H2 3733   7.096   4.199   1.366 -0.2737 -1.0991  1.4682
 1257TIP3   OH2 3734   5.492   3.318   0.272 -0.3349 -0.5171 -0.2387
 1257TIP3    H1 3735   5.553   3.251   0.302 -0.5173 -0.3907  0.4231
 1257TIP3    H2 3736   5.547   3.379   0.222  0.1246 -0.3026  0.5141
 1258TIP3   OH2 3737   1.589   1.985   0.373 -0.3447 -0.5848 -0.4940
 1258TIP3    H1 3738   1.624   2.034   0.447 -3.3472 -1.1033  1.4544
 1258TIP3    H2 3739   1.584   2.049   0.302  0.4187  0.5651  0.4427
 1259TIP3   OH2 3740   4.477   6.654   0.929 -1.2614 -0.1019 -0.3811
 1259TIP3    H1 3741   4.479   6.640   0.835 -1.8618 -0.5351 -0.3345
 1259TIP3    H2 3742   4.537   6.588   0.965  1.2147  1.8536 -0.6315
 1260TIP3   OH2 3743   1.813   3.336   5.616 -0.4401  0.5655 -0.3694
 1260TIP3    H1 3744   1.738   3.361   5.670 -0.7620  0.4497 -0.7600
 1260TIP3    H2 3745   1.849   3.259   5.659  0.9321  1.9839  1.2049
 1261TIP3   OH2 3746   2.474   3.937   3.028  0.1310  0.3654  0.2093
 1261TIP3    H1 3747   2.461   4.001   3.097  0.0633 -0.2988  0.8215
 1261TIP3    H2 3748   2.405   3.873   3.041 -0.2289  0.5283 -0.8266
 1262TIP3   OH2 3749   7.164   0.834   0.941  0.0228 -0.4217  0.6914
 1262TIP3    H1 3750   7.094   0.884   0.900 -0.7335 -1.4870  0.6575
 1262TIP3    H2 3751   7.132   0.744   0.942  1.8319 -1.1204 -0.3131
 1263TIP3   OH2 3752   5.995   4.660   1.032  0.0102  0.1414 -0.2125
 1263TIP3    H1 3753   6.022   4.666   0.940 -0.3944  0.5136 -0.3148
 1263TIP3    H2 3754   5.935   4.734   1.043 -1.3934 -0.9580 -0.1411
 1264TIP3   OH2 3755   6.581   3.677   0.863  0.3356  0.0243  0.2648
 1264TIP3    H1 3756   6.551   3.587   0.850  0.9119 -0.2044  0.5211
 1264TIP3    H2 3757   6.672   3.669   0.890  0.2113  0.6499  0.9198
 1265TIP3   OH2 3758   2.869   1.398   1.878  0.2465 -0.0957 -0.2913
 1265TIP3    H1 3759   2.807   1.400   1.806 -1.1801  0.1627  0.9029
 1265TIP3    H2 3760   2.831   1.338   1.941  1.6727 -0.6413  0.0918
 1266TIP3   OH2 3761   1.364   1.184   3.855  0.1146  0.3622  0.0403
 1266TIP3    H1 3762   1.407   1.133   3.924  1.7870  2.5192  0.6993
 1266TIP3    H2 3763   1.270   1.173   3.873  0.4445 -1.1232  1.1174
 1267TIP3   OH2 3764   1.639   0.511   2.908 -0.2985  0.7617  0.5694
 1267TIP3    H1 3765   1.548   0.530   2.929 -0.6467 -0.9321  0.6922
 1267TIP3    H2 3766   1.644   0.516   2.813 -0.8425 -0.3816  0.4646
 1268TIP3   OH2 3767   6.746   2.140   3.941  0.2947  0.3283  0.0809
 1268TIP3    H1 3768   6.754   2.074   3.873  0.7112  1.1025 -0.6480
 1268TIP3    H2 3769   6.702   2.096   4.014 -0.2415 -0.4860 -0.7263
 1269TIP3   OH2 3770   4.043   3.520   4.412  0.0823 -0.3363  0.9555
 1269TIP3    H1 3771   4.022   3.614   4.406 -1.6206 -0.5704  2.4544
 1269TIP3    H2 3772   3.958   3.477   4.423  0.3438 -2.5368 -3.5005
 1270TIP3   OH2 3773   0.918   4.615   0.493  0.4784 -0.3261  0.3192
 1270TIP3    H1 3774   0.899   4.522   0.507  0.5784 -0.3310  0.4267
 1270TIP3    H2 3775   0.964   4.642   0.572 -0.5056  0.0911  0.7698
 1271TIP3   OH2 3776   4.741   3.329   3.368 -0.7837 -0.5595 -0.0826
 1271TIP3    H1 3777   4.774   3.252   3.413 -0.4222 -0.5953 -0.4067
 1271TIP3    H2 3778   4.818   3.372   3.333 -0.8515  0.6225  1.1233
 1272TIP3   OH2 3779   5.378   2.304   0.711  1.1135  0.3491 -0.1445
 1272TIP3    H1 3780   5.286   2.328   0.695  1.0879  1.4637  1.5307
 1272TIP3    H2 3781   5.413   2.286   0.623 -0.2378  1.6215 -0.9902
 1273TIP3   OH2 3782   4.446   2.555   3.223  0.0100  0.2395 -0.1331
 1273TIP3    H1 3783   4.439   2.532   3.316 -0.6850  1.0334  0.0216
 1273TIP3    H2 3784   4.360   2.589   3.200  0.0933 -0.1918 -1.1470
 1274TIP3   OH2 3785   0.257   2.781   2.480 -0.2745 -0.1954 -0.3437
 1274TIP3    H1 3786   0.295   2.842   2.417 -2.3824  1.0911 -0.4471
 1274TIP3    H2 3787   0.164   2.777   2.457 -0.3730 -2.8399  0.1831
 1275TIP3   OH2 3788   2.132   5.369   3.612 -0.3116 -0.7064 -0.6847
 1275TIP3    H1 3789   2.075   5.402   3.682 -1.3106 -1.6668 -1.0119
 1275TIP3    H2 3790   2.220   5.394   3.639 -0.9129  1.4162 -0.4840
 1276TIP3   OH2 3791   1.018   5.337   5.090  0.2580 -0.0840 -0.3136
 1276TIP3    H1 3792   0.992   5.392   5.015 -0.0788 -1.9805 -1.6809
 1276TIP3    H2 3793   1.066   5.395   5.148 -0.9281  1.8663 -1.1967
 1277TIP3   OH2 3794   1.703   2.973   1.399 -0.1700  0.0247  0.4095
 1277TIP3    H1 3795   1.653   2.912   1.454 -0.8980 -0.1263 -0.4016
 1277TIP3    H2 3796   1.725   2.922   1.321  0.1879  0.4723  0.2130
 1278TIP3   OH2 3797   4.409   1.910   2.219  0.4155  0.1483 -0.0458
 1278TIP3    H1 3798   4.389   1.953   2.136 -0.1239 -0.7718 -0.4004
 1278TIP3    H2 3799   4.498   1.938   2.240  0.2476  1.0617 -0.4991
 1279TIP3   OH2 3800   1.183   0.953   1.257  0.4869  0.3938  0.1039
 1279TIP3    H1 3801   1.174   0.906   1.175  0.5037 -2.4676  1.5926
 1279TIP3    H2 3802   1.276   0.975   1.262  0.3477  1.2617 -0.9486
 1280TIP3   OH2 3803   2.167   0.156   0.012 -0.3204  0.0791 -0.2025
 1280TIP3    H1 3804   2.140   0.088   0.073 -1.1633  0.2973 -0.3200
 1280TIP3    H2 3805   2.097   0.220   0.015  0.7398  1.2563  0.3527
 1281TIP3   OH2 3806   7.114   0.282   5.618  0.4851 -0.4063  0.0035
 1281TIP3    H1 3807   7.118   0.188   5.637  0.9984 -0.8062 -1.9043
 1281TIP3    H2 3808   7.185   0.297   5.556  0.7427  1.3703  0.6643
 1282TIP3   OH2 3809   1.616   0.832   0.088  0.3047 -0.6757 -0.1197
 1282TIP3    H1 3810   1.649   0.760   0.034  1.3238 -1.6158  1.6338
 1282TIP3    H2 3811   1.521   0.822   0.087  0.3231 -0.8315 -1.4773
 1283TIP3   OH2 3812   2.150   3.273   1.682 -0.1097  0.1310 -0.8862
 1283TIP3    H1 3813   2.062   3.260   1.717  0.1672 -0.0384 -0.2386
 1283TIP3    H2 3814   2.195   3.327   1.747  0.9121 -1.4981 -0.1642
 1284TIP3   OH2 3815   1.104   6.057   1.967 -0.1989 -0.2222  0.6519
 1284TIP3    H1 3816   1.159   6.128   1.935  0.0046 -0.8495 -0.4667
 1284TIP3    H2 3817   1.020   6.098   1.986  0.4991  0.6712  1.9808
 1285TIP3   OH2 3818   1.249   6.757   1.336 -0.2785 -0.0815  0.2175
 1285TIP3    H1 3819   1.165   6.782   1.298 -0.0232  1.5152  0.5912
 1285TIP3    H2 3820   1.248   6.795   1.424  0.4662 -0.8250  0.5573
 1286TIP3   OH2 3821   3.142   2.109   0.271 -0.5644 -0.2958 -0.2467
 1286TIP3    H1 3822   3.176   2.186   0.226  0.6471 -0.2877  0.6297
 1286TIP3    H2 3823   3.099   2.144   0.349  0.0101 -0.4970  0.1653
 1287TIP3   OH2 3824   1.396   2.049   5.559 -0.2486  0.8488 -0.2239
 1287TIP3    H1 3825   1.324   2.001   5.600  0.4713 -0.7181 -0.7218
 1287TIP3    H2 3826   1.365   2.069   5.471  0.4243 -1.0781 -0.9256
 1288TIP3   OH2 3827   3.621   0.618   3.944  0.1378 -0.2056 -0.2184
 1288TIP3    H1 3828   3.535   0.581   3.966 -0.5353  0.5601 -1.4769
 1288TIP3    H2 3829   3.652   0.564   3.871 -0.9164  1.6970 -2.1743
 1289TIP3   OH2 3830   3.432   2.516   4.206 -0.0828  0.0585  0.1523
 1289TIP3    H1 3831   3.458   2.447   4.144 -2.4210 -2.2703  1.5924
 1289TIP3    H2 3832   3.455   2.480   4.292 -0.1595  1.6924  0.8766
 1290TIP3   OH2 3833   3.045   6.350   2.632  0.3683 -0.7266  0.1334
 1290TIP3    H1 3834   3.008   6.438   2.647 -0.3073 -0.7862 -1.0942
 1290TIP3    H2 3835   3.106   6.338   2.704  0.3638  0.7017  0.4089
 1291TIP3   OH2 3836   5.513   3.394   2.340 -0.5646 -0.1262 -0.0069
 1291TIP3    H1 3837   5.601   3.378   2.304 -0.8828  0.2152 -0.9587
 1291TIP3    H2 3838   5.453   3.355   2.276 -1.1032 -1.2763  1.1353
 1292TIP3   OH2 3839   4.341   1.862   2.670 -0.6018  0.3022  0.3455
 1292TIP3    H1 3840   4.367   1.953   2.656  3.7219 -0.7027  0.5395
 1292TIP3    H2 3841   4.278   1.844   2.600 -1.8442  3.4303  0.4760
 1293TIP3   OH2 3842   0.565   1.735   2.132 -0.1187  0.0284 -0.4166
 1293TIP3    H1 3843   0.475   1.720   2.105 -0.8365  1.9757  0.7246
 1293TIP3    H2 3844   0.597   1.804   2.073 -0.8223  2.3736  1.7799
 1294TIP3   OH2 3845   0.912   1.828   3.976 -0.1251  0.0250  0.0743
 1294TIP3    H1 3846   0.935   1.916   3.947  0.7132  0.1121  0.9774
 1294TIP3    H2 3847   0.820   1.835   4.002 -0.1728  0.5364 -0.2253
 1295TIP3   OH2 3848   5.115   6.375   2.223  0.7267  0.1660 -0.2719
 1295TIP3    H1 3849   5.153   6.317   2.289  0.1277 -0.4525 -0.4568
 1295TIP3    H2 3850   5.184   6.438   2.203  0.3641  1.4991  2.2551
 1296TIP3   OH2 3851   5.712   1.392   4.680  0.0787  0.0656 -0.2315
 1296TIP3    H1 3852   5.742   1.444   4.754 -0.4673  0.1068 -0.0316
 1296TIP3    H2 3853   5.708   1.454   4.607  0.1525  0.1334 -0.1775
 1297TIP3   OH2 3854   1.256   3.884   4.357  0.2517 -0.7598  0.0783
 1297TIP3    H1 3855   1.207   3.904   4.437 -1.4817  1.2726 -1.3662
 1297TIP3    H2 3856   1.189   3.861   4.293  1.3872 -0.2829 -1.3321
 1298TIP3   OH2 3857   3.105   5.926   1.511 -0.4854  0.0493 -0.3650
 1298TIP3    H1 3858   3.100   6.007   1.461  0.3685  0.2871 -0.0852
 1298TIP3    H2 3859   3.024   5.879   1.489 -0.7230  0.7181 -0.9616
 1299TIP3   OH2 3860   7.154   3.640   3.253  0.5596  0.4238 -0.0498
 1299TIP3    H1 3861   7.178   3.628   3.161  1.8842 -0.3316  0.3766
 1299TIP3    H2 3862   7.232   3.675   3.295 -0.6399  2.7167  0.4505
 1300TIP3   OH2 3863   6.170   1.253   1.726  0.1879 -0.1421  0.1682
 1300TIP3    H1 3864   6.197   1.238   1.816 -0.7715  0.1528  0.5169
 1300TIP3    H2 3865   6.074   1.247   1.728  0.2073 -3.4957 -1.4235
 1301TIP3   OH2 3866   0.940   3.888   1.729  0.5156  0.0047  0.0346
 1301TIP3    H1 3867   0.928   3.794   1.713  2.6724 -0.5191  1.1343
 1301TIP3    H2 3868   0.952   3.895   1.824  0.0382  1.4488  0.0090
 1302TIP3   OH2 3869   5.827   1.094   2.751  0.1803  0.3870 -0.6329
 1302TIP3    H1 3870   5.828   1.091   2.656  1.1080 -1.6452 -0.6253
 1302TIP3    H2 3871   5.917   1.116   2.775 -0.3032  1.9846 -0.2079
 1303TIP3   OH2 3872   5.747   3.671   1.632  0.2279 -0.4276  0.2911
 1303TIP3    H1 3873   5.697   3.603   1.588  0.4260 -0.4963  0.1679
 1303TIP3    H2 3874   5.767   3.735   1.562 -0.8125  0.2662  0.6059
 1304TIP3   OH2 3875   3.640   2.585   4.476 -0.0288 -0.4172  0.5657
 1304TIP3    H1 3876   3.582   2.661   4.472 -0.3111 -0.6823 -2.5910
 1304TIP3    H2 3877   3.696   2.602   4.552 -1.5222  1.8262  1.2704
 1305TIP3   OH2 3878   2.529   3.437   5.055  0.0056  0.0068 -0.1773
 1305TIP3    H1 3879   2.577   3.413   5.135  1.0703  1.0990 -0.4535
 1305TIP3    H2 3880   2.541   3.531   5.048 -2.6536  0.4240 -0.0126
 1306TIP3   OH2 3881   3.756   6.702   5.334  0.0391  0.0411  0.2590
 1306TIP3    H1 3882   3.694   6.723   5.404  1.1356  0.3196  1.1809
 1306TIP3    H2 3883   3.723   6.749   5.258 -0.4808  0.7736  0.9153
 1307TIP3   OH2 3884   0.319   1.755   2.081  0.3412  0.8434  0.1344
 1307TIP3    H1 3885   0.264   1.748   2.159  1.9462  1.3816  1.3532
 1307TIP3    H2 3886   0.257   1.763   2.009 -1.4397 -4.0767  0.7093
 1308TIP3   OH2 3887   2.271   1.302   0.486 -0.0635 -0.1217 -0.2635
 1308TIP3    H1 3888   2.260   1.228   0.426 -1.1891 -0.1489 -0.0515
 1308TIP3    H2 3889   2.351   1.345   0.456  0.3344 -1.1286 -0.7070
 1309TIP3   OH2 3890   1.840   4.941   0.655 -0.4051  0.0305 -0.4544
 1309TIP3    H1 3891   1.789   4.950   0.574 -2.2957  3.9520  0.8895
 1309TIP3    H2 3892   1.911   5.004   0.645  0.2237 -0.5251  0.3786
 1310TIP3   OH2 3893   4.057   5.056   3.046  0.4508  0.3562  0.1475
 1310TIP3    H1 3894   4.111   5.121   3.092  0.3492  0.7489 -0.2838
 1310TIP3    H2 3895   4.100   4.973   3.065  1.0841  0.6393  0.0054
 1311TIP3   OH2 3896   1.316   3.311   1.117 -0.1710  0.4860 -0.8823
 1311TIP3    H1 3897   1.271   3.350   1.042  0.4352  1.3518 -0.8101
 1311TIP3    H2 3898   1.268   3.342   1.193  0.1686  0.9079 -0.8370
 1312TIP3   OH2 3899   4.182   6.557   3.812 -0.1862 -0.3454  0.1758
 1312TIP3    H1 3900   4.186   6.594   3.900 -0.2679 -0.7079  0.3360
 1312TIP3    H2 3901   4.135   6.622   3.760 -2.1371 -1.0680  0.9127
 1313TIP3   OH2 3902   5.796   4.011   3.346  0.3646 -0.4669 -0.1494
 1313TIP3    H1 3903   5.778   4.048   3.432 -0.3318  2.0609 -1.3104
 1313TIP3    H2 3904   5.800   4.086   3.288  1.6091 -2.0458 -2.2256
 1314TIP3   OH2 3905   4.718   3.105   5.106  0.3725 -0.4269  0.3049
 1314TIP3    H1 3906   4.718   3.075   5.015 -0.7316  1.2140 -0.2859
 1314TIP3    H2 3907   4.641   3.064   5.145 -1.0685  1.3761 -0.4703
 1315TIP3   OH2 3908   2.399   3.397   3.648  0.2432  0.3263  0.6459
 1315TIP3    H1 3909   2.454   3.416   3.572  0.7437  0.6414  1.0776
 1315TIP3    H2 3910   2.424   3.309   3.676  1.1206  0.7755  1.3257
 1316TIP3   OH2 3911   4.480   2.072   4.837 -0.1671  0.6626  0.5150
 1316TIP3    H1 3912   4.474   2.153   4.787 -2.1133  0.0849 -0.2877
 1316TIP3    H2 3913   4.481   2.100   4.928 -2.5936  1.5985  0.3237
 1317TIP3   OH2 3914   2.936   1.483   0.993  0.0398  0.0270 -0.2269
 1317TIP3    H1 3915   2.910   1.511   1.081  4.5415  1.0680  1.0263
 1317TIP3    H2 3916   2.946   1.388   1.001 -1.1373 -0.0999 -0.1329
 1318TIP3   OH2 3917   1.131   1.806   1.025  0.5395 -0.4819 -0.2104
 1318TIP3    H1 3918   1.115   1.862   1.101  1.7567 -1.1575  0.5748
 1318TIP3    H2 3919   1.066   1.835   0.961  0.3705  1.0298  0.5817
 1319TIP3   OH2 3920   0.164   6.459   1.137  0.4640 -0.1700  0.0032
 1319TIP3    H1 3921   0.177   6.365   1.154  0.2900 -0.2732 -0.4232
 1319TIP3    H2 3922   0.161   6.465   1.041  0.5383  0.2816  0.0302
 1320TIP3   OH2 3923   6.422   2.283   5.707  0.3123 -0.1816 -0.2177
 1320TIP3    H1 3924   6.348   2.318   5.756 -0.6578 -2.5861  0.1907
 1320TIP3    H2 3925   6.390   2.272   5.618  0.3780 -0.6344 -0.1888
 1321TIP3   OH2 3926   2.455   4.865   5.491  0.4457  0.0806  0.7007
 1321TIP3    H1 3927   2.452   4.813   5.411 -0.3038  1.7340 -0.4081
 1321TIP3    H2 3928   2.377   4.838   5.540 -0.7605  1.1368 -0.5542
 1322TIP3   OH2 3929   5.587   6.593   3.367  0.3249 -0.0830 -0.0793
 1322TIP3    H1 3930   5.529   6.605   3.292  1.7778 -1.0999 -1.4336
 1322TIP3    H2 3931   5.675   6.589   3.329  1.2359  0.6164  1.8184
 1323TIP3   OH2 3932   6.728   4.181   0.809  0.0972 -0.2276 -0.2312
 1323TIP3    H1 3933   6.674   4.102   0.818  1.3001 -0.8642  2.7355
 1323TIP3    H2 3934   6.693   4.242   0.874  1.0079  0.5450 -0.4400
 1324TIP3   OH2 3935   6.440   2.232   5.407 -0.0491  0.3793 -0.1241
 1324TIP3    H1 3936   6.470   2.158   5.355 -1.5453 -0.0993 -0.3651
 1324TIP3    H2 3937   6.515   2.290   5.413  0.7436 -0.5166 -1.0997
 1325TIP3   OH2 3938   0.519   4.433   5.373  0.1910  0.2513  0.2914
 1325TIP3    H1 3939   0.478   4.497   5.315 -1.5295  0.3245  1.4965
 1325TIP3    H2 3940   0.582   4.483   5.424 -1.3535  1.1231  1.4348
 1326TIP3   OH2 3941   4.486   5.050   2.695  0.3436  0.2752 -0.3857
 1326TIP3    H1 3942   4.416   5.115   2.684 -1.4796 -1.2027  1.5628
 1326TIP3    H2 3943   4.475   4.990   2.621 -1.5923 -0.8353  0.7215
 1327TIP3   OH2 3944   0.886   6.120   3.111 -0.0377  0.0713 -0.5470
 1327TIP3    H1 3945   0.797   6.096   3.084  0.5597  0.1149 -2.7694
 1327TIP3    H2 3946   0.928   6.151   3.031  1.7256  0.8971  0.6273
 1328TIP3   OH2 3947   0.408   1.283   4.409  0.3283  0.0725  0.0061
 1328TIP3    H1 3948   0.348   1.209   4.410 -0.8924  1.0314  1.0930
 1328TIP3    H2 3949   0.429   1.296   4.316  0.5913 -1.6238 -0.1984
 1329TIP3   OH2 3950   6.348   6.433   0.948 -0.0899 -0.3431  0.1701
 1329TIP3    H1 3951   6.254   6.437   0.967 -0.4967 -0.3961 -1.6308
 1329TIP3    H2 3952   6.352   6.403   0.857  1.6774 -0.3829  0.2440
 1330TIP3   OH2 3953   5.896   6.666   1.400 -0.6673  0.0310 -0.0122
 1330TIP3    H1 3954   5.830   6.603   1.428 -0.3541  0.1007  0.8977
 1330TIP3    H2 3955   5.975   6.642   1.447  0.2677 -0.6583 -1.8206
 1331TIP3   OH2 3956   2.768   0.544   2.293 -0.1206 -0.3588  0.0048
 1331TIP3    H1 3957   2.746   0.517   2.382 -0.1446 -0.4632 -0.0323
 1331TIP3    H2 3958   2.840   0.487   2.268 -0.3289 -0.5490 -0.1604
 1332TIP3   OH2 3959   1.087   3.799   3.548  0.1148  0.0627  0.5169
 1332TIP3    H1 3960   1.125   3.830   3.465  0.5022  1.2333  1.1117
 1332TIP3    H2 3961   1.041   3.875   3.584 -3.1012 -1.3444 -0.2633
 1333TIP3   OH2 3962   2.939   1.537   2.129  0.0354 -0.2053 -0.3343
 1333TIP3    H1 3963   2.863   1.554   2.185  0.7985  0.3224  0.5566
 1333TIP3    H2 3964   2.902   1.530   2.041 -0.8913  1.5518 -0.1268
 1334TIP3   OH2 3965   3.124   1.654  -0.014  0.1237  0.0179 -0.2953
 1334TIP3    H1 3966   3.089   1.592   0.050 -2.3251  0.7479 -0.8414
 1334TIP3    H2 3967   3.081   1.737   0.006  1.1125  0.8451 -1.4304
 1335TIP3   OH2 3968   1.056   4.251   5.590  0.5803  0.1217 -0.3854
 1335TIP3    H1 3969   1.035   4.192   5.661  1.0838  1.3115  0.7883
 1335TIP3    H2 3970   1.144   4.226   5.561  0.7579  0.2492  0.0493
 1336TIP3   OH2 3971   3.091   3.456   3.029  0.0172 -0.0892 -0.4630
 1336TIP3    H1 3972   2.999   3.478   3.012 -0.0111 -0.0362 -0.2388
 1336TIP3    H2 3973   3.108   3.381   2.972 -0.8261 -1.6118  1.1852
 1337TIP3   OH2 3974   1.216   5.502   3.918 -0.1091  0.1917  0.0014
 1337TIP3    H1 3975   1.216   5.597   3.907 -0.2655  0.2549  0.5174
 1337TIP3    H2 3976   1.256   5.489   4.004 -0.9285 -0.1620  0.3328
 1338TIP3   OH2 3977   4.711   5.796   1.422  0.2386  0.5305  0.5024
 1338TIP3    H1 3978   4.737   5.778   1.512 -1.6373  0.5748  1.1122
 1338TIP3    H2 3979   4.670   5.882   1.425  1.1798  1.0442 -0.6458
 1339TIP3   OH2 3980   2.250   2.280   0.369 -0.6038  0.5382 -0.1446
 1339TIP3    H1 3981   2.229   2.371   0.392  0.1182  0.7458 -0.2684
 1339TIP3    H2 3982   2.181   2.228   0.410 -0.1266  1.0114  1.3408
 1340TIP3   OH2 3983   1.117   3.105   4.832 -0.4308  0.3586 -0.3879
 1340TIP3    H1 3984   1.021   3.105   4.823 -0.3891 -1.2461 -1.2654
 1340TIP3    H2 3985   1.149   3.129   4.746 -0.0661 -2.1015 -1.0063
 1341TIP3   OH2 3986   1.100   0.621   0.239 -1.4078  0.1722  0.6490
 1341TIP3    H1 3987   1.113   0.711   0.269 -0.9949 -0.0240  1.0835
 1341TIP3    H2 3988   1.025   0.589   0.289 -2.5565  0.7641 -0.6353
 1342TIP3   OH2 3989   0.714   6.231   1.125  0.3492  0.7369 -0.1204
 1342TIP3    H1 3990   0.667   6.179   1.191 -0.4640  0.3688 -0.9590
 1342TIP3    H2 3991   0.649   6.244   1.055  1.5877 -0.0299 -1.4555
 1343TIP3   OH2 3992   1.776   4.768   2.343 -0.1139  0.6207 -0.0195
 1343TIP3    H1 3993   1.702   4.727   2.388 -1.4788  1.2055 -1.6003
 1343TIP3    H2 3994   1.810   4.699   2.287 -1.7652  1.2356 -1.9157
 1344TIP3   OH2 3995   2.955   1.226   0.400  0.5584  0.1012 -0.1118
 1344TIP3    H1 3996   2.971   1.312   0.440  0.4143 -1.0068  2.5166
 1344TIP3    H2 3997   3.041   1.184   0.399  0.6176  0.2263 -1.3474
 1345TIP3   OH2 3998   2.517   5.327   4.079 -0.4004 -0.3526  0.1660
 1345TIP3    H1 3999   2.503   5.306   4.172  1.3265 -2.5994  0.0110
 1345TIP3    H2 4000   2.442   5.289   4.034 -0.0168 -1.5146  0.4575
 1346TIP3   OH2 4001   2.500   2.968   3.050 -0.1451  0.6141  0.3198
 1346TIP3    H1 4002   2.472   2.945   3.138 -0.4739 -0.3008 -0.0214
 1346TIP3    H2 4003   2.452   3.049   3.030 -1.5983 -0.2342  0.2324
 1347TIP3   OH2 4004   0.162   3.511   5.661  0.5133  0.2056  0.2294
 1347TIP3    H1 4005   0.212   3.579   5.707 -0.9971 -0.4026  3.0171
 1347TIP3    H2 4006   0.072   3.543   5.662  0.2972 -0.2162 -1.7501
 1348TIP3   OH2 4007   1.190   2.032   0.567  0.3108 -0.3342 -0.0378
 1348TIP3    H1 4008   1.145   2.109   0.602 -0.4902 -1.2582  1.0566
 1348TIP3    H2 4009   1.279   2.038   0.603  0.3170  0.1760 -0.1280
 1349TIP3   OH2 4010   4.799   0.706   1.006 -0.4388  0.2292 -0.2553
 1349TIP3    H1 4011   4.894   0.701   0.993 -0.5318 -1.1653 -0.5386
 1349TIP3    H2 4012   4.762   0.696   0.918 -0.8619 -0.3496 -0.0219
 1350TIP3   OH2 4013   7.122   4.092   0.417 -0.3889  0.0938 -0.1161
 1350TIP3    H1 4014   7.196   4.118   0.362 -0.2705  1.9283  0.8318
 1350TIP3    H2 4015   7.094   4.173   0.459 -1.8752 -0.8722  0.8391
 1351TIP3   OH2 4016   4.214   4.234   3.149  0.5862  0.3163 -0.3915
 1351TIP3    H1 4017   4.186   4.216   3.238  0.9616 -0.9981 -0.5214
 1351TIP3    H2 4018   4.140   4.208   3.094  1.3034 -1.3775 -0.6102
 1352TIP3   OH2 4019   0.727   2.435   1.701  0.1530 -0.1813 -0.4937
 1352TIP3    H1 4020   0.795   2.448   1.766  0.4418 -1.0882 -0.6049
 1352TIP3    H2 4021   0.649   2.477   1.739  0.4442 -0.2655  0.2051
 1353TIP3   OH2 4022   0.552   3.268   2.980  0.0987 -0.3963  0.6715
 1353TIP3    H1 4023   0.508   3.191   3.017 -1.8359  0.2870 -0.0582
 1353TIP3    H2 4024   0.607   3.301   3.051 -0.4714 -1.3812  1.6019
 1354TIP3   OH2 4025   5.195   2.634   3.801  0.0119  0.0378 -0.0888
 1354TIP3    H1 4026   5.116   2.584   3.780  0.5273 -1.3820  1.2085
 1354TIP3    H2 4027   5.175   2.677   3.884  1.0814 -1.5129  1.0155
 1355TIP3   OH2 4028   1.361   0.341   4.831  0.4578  0.1529 -0.4545
 1355TIP3    H1 4029   1.442   0.325   4.879 -0.0035  1.0713  0.6794
 1355TIP3    H2 4030   1.349   0.264   4.776  4.2352  1.5620 -3.7934
 1356TIP3   OH2 4031   2.909   0.751   4.315  0.5546 -0.2860 -0.2462
 1356TIP3    H1 4032   2.988   0.699   4.301 -0.7370 -1.9442 -1.8295
 1356TIP3    H2 4033   2.893   0.744   4.409  0.8431 -2.2153 -0.2861
 1357TIP3   OH2 4034   5.495   1.674   2.191  0.2110 -0.1917  0.1119
 1357TIP3    H1 4035   5.452   1.658   2.275 -2.7239  1.0807 -1.0117
 1357TIP3    H2 4036   5.584   1.700   2.215  0.3045 -2.3886  2.6274
 1358TIP3   OH2 4037   2.066   5.841   2.185 -0.2052 -0.3938  0.0207
 1358TIP3    H1 4038   1.985   5.804   2.220 -0.0560  0.1418  0.9778
 1358TIP3    H2 4039   2.047   5.935   2.176  0.2594 -0.2919  0.0893
 1359TIP3   OH2 4040   3.212   2.118   4.099  0.2591 -0.4232 -0.2617
 1359TIP3    H1 4041   3.145   2.069   4.051 -0.4035  0.2816 -0.0886
 1359TIP3    H2 4042   3.234   2.191   4.042  0.4764 -0.3421 -0.0762
 1360TIP3   OH2 4043   1.691   3.302   0.032 -0.5030 -0.0821  0.2095
 1360TIP3    H1 4044   1.776   3.346   0.032 -1.3388  1.6064  0.9752
 1360TIP3    H2 4045   1.633   3.360  -0.017 -1.8138  0.0458  1.8176
 1361TIP3   OH2 4046   4.687   0.611   5.510  0.3405 -0.4817 -0.0176
 1361TIP3    H1 4047   4.680   0.674   5.583  0.8126  0.4065 -0.7181
 1361TIP3    H2 4048   4.605   0.622   5.462  0.3064 -0.6056  0.0129
 1362TIP3   OH2 4049   5.585   4.067   5.687 -0.2021  0.3528 -0.1797
 1362TIP3    H1 4050   5.499   4.039   5.657 -0.4260  1.9240 -1.1446
 1362TIP3    H2 4051   5.568   4.125   5.761 -0.0266  1.0964 -0.7091
 1363TIP3   OH2 4052   4.631   0.426   4.755  0.2807  0.1469 -0.1941
 1363TIP3    H1 4053   4.721   0.429   4.786 -0.5817  0.5334  2.5865
 1363TIP3    H2 4054   4.597   0.513   4.771 -0.8712 -0.2748 -0.2468
 1364TIP3   OH2 4055   1.053   0.694   2.252 -1.0651  0.4153 -0.1215
 1364TIP3    H1 4056   0.990   0.715   2.183 -0.5959 -1.0734 -1.0380
 1364TIP3    H2 4057   1.030   0.753   2.324 -2.1043  1.4075 -1.2286
 1365TIP3   OH2 4058   1.408   1.527   1.019  0.1267 -0.0547  0.0948
 1365TIP3    H1 4059   1.432   1.603   1.071  0.2177  1.2146 -1.7140
 1365TIP3    H2 4060   1.320   1.504   1.048  0.6117 -0.1381  1.5942
 1366TIP3   OH2 4061   0.342   1.805   4.187 -0.1016  0.0109 -0.5768
 1366TIP3    H1 4062   0.370   1.885   4.143  0.8043  0.3652  0.5798
 1366TIP3    H2 4063   0.270   1.831   4.244 -0.4730 -0.2013 -0.9458
 1367TIP3   OH2 4064   2.629   2.117   1.308  0.3718  0.1869  0.2323
 1367TIP3    H1 4065   2.664   2.206   1.305 -2.2187  1.3105  0.4381
 1367TIP3    H2 4066   2.634   2.086   1.218  0.1035  1.0713 -0.0983
 1368TIP3   OH2 4067   5.505   4.598   5.152  0.8484  0.0792  0.1242
 1368TIP3    H1 4068   5.558   4.647   5.089 -0.0036  0.3476 -0.4064
 1368TIP3    H2 4069   5.509   4.650   5.232 -1.2208  1.8747 -0.8287
 1369TIP3   OH2 4070   6.950   6.707   2.382 -0.2451 -0.2994  0.2367
 1369TIP3    H1 4071   7.016   6.656   2.429  0.3036 -0.3577 -0.5599
 1369TIP3    H2 4072   6.961   6.681   2.290 -0.5316  0.6216 -0.0712
 1370TIP3   OH2 4073   4.784   0.891   2.886 -0.2376  0.6861 -0.4664
 1370TIP3    H1 4074   4.720   0.908   2.817 -2.3131 -0.2847  1.0780
 1370TIP3    H2 4075   4.765   0.957   2.953  1.1899  1.1110 -0.4566
 1371TIP3   OH2 4076   3.598   2.337   4.047  0.4135 -0.3234  0.6493
 1371TIP3    H1 4077   3.640   2.299   4.123 -0.0517  0.4465  1.3063
 1371TIP3    H2 4078   3.660   2.324   3.976  1.8506  0.9122  1.6246
 1372TIP3   OH2 4079   3.628   4.675   4.796 -0.0439  0.3626  0.2665
 1372TIP3    H1 4080   3.707   4.622   4.804 -0.1473  0.1321 -0.1856
 1372TIP3    H2 4081   3.611   4.678   4.701 -0.8593 -0.0129  0.3906
 1373TIP3   OH2 4082   5.342   2.447   4.453 -0.4000  0.0660 -0.2992
 1373TIP3    H1 4083   5.324   2.471   4.544  0.4691 -0.7326  0.1048
 1373TIP3    H2 4084   5.311   2.357   4.446 -2.5434  0.8507 -1.4520
 1374TIP3   OH2 4085   0.449   2.075   5.087  0.0375 -0.0235 -0.2391
 1374TIP3    H1 4086   0.379   2.087   5.152 -0.5978 -0.3194 -0.8510
 1374TIP3    H2 4087   0.529   2.098   5.133 -0.5167  0.7797  0.3388
 1375TIP3   OH2 4088   4.676   2.677   0.965  0.2676 -0.5704 -0.4930
 1375TIP3    H1 4089   4.593   2.709   0.930 -0.0278 -0.5115  0.2481
 1375TIP3    H2 4090   4.721   2.756   0.994 -0.6732 -0.8101  1.8032
 1376TIP3   OH2 4091   3.608   3.463   0.368  0.2138 -0.2370  0.4949
 1376TIP3    H1 4092   3.562   3.500   0.443  0.4394  0.8305  0.1310
 1376TIP3    H2 4093   3.663   3.535   0.336 -0.7221 -0.2836 -1.3816
 1377TIP3   OH2 4094   5.292   4.047   2.811  0.1924  0.4688 -0.2981
 1377TIP3    H1 4095   5.320   4.017   2.897  2.0712  0.9780 -0.6730
 1377TIP3    H2 4096   5.330   3.984   2.750 -1.6169 -0.2336 -0.7644
 1378TIP3   OH2 4097   4.971   3.750   0.382  0.5108  0.6843  0.0748
 1378TIP3    H1 4098   5.018   3.722   0.304  3.0928  0.3518  1.6493
 1378TIP3    H2 4099   5.037   3.792   0.437 -0.9821  0.1090  2.4683
 1379TIP3   OH2 4100   0.682   2.581   3.479  0.1188 -0.6328  0.4289
 1379TIP3    H1 4101   0.587   2.570   3.491  0.3135 -2.5754  0.3577
 1379TIP3    H2 4102   0.722   2.518   3.539  1.4394  1.1288  1.5018
 1380TIP3   OH2 4103   4.137   3.692   1.683 -0.2264 -0.3523 -0.5311
 1380TIP3    H1 4104   4.125   3.781   1.716 -2.2550 -1.2425  1.4539
 1380TIP3    H2 4105   4.201   3.700   1.613 -0.4442  2.6682 -0.5000
 1381TIP3   OH2 4106   1.510   2.166   4.369  0.5822 -0.1951  0.2547
 1381TIP3    H1 4107   1.469   2.093   4.322 -0.7969 -0.0427  1.1880
 1381TIP3    H2 4108   1.488   2.151   4.461  2.3522  0.0980  0.7579
 1382TIP3   OH2 4109   4.346   0.933   0.935  0.1487  0.5282 -0.1301
 1382TIP3    H1 4110   4.270   0.989   0.950 -1.1894 -1.3235  0.2396
 1382TIP3    H2 4111   4.389   0.972   0.859 -0.3973  2.3652  0.4330
 1383TIP3   OH2 4112   4.045   0.856   3.560  0.2465 -0.1256 -0.0094
 1383TIP3    H1 4113   4.040   0.768   3.522 -0.1728 -0.5492  0.9880
 1383TIP3    H2 4114   3.962   0.897   3.539  0.2103 -0.1830  0.0217
 1384TIP3   OH2 4115   7.052   3.541   0.870  0.0675  0.9414 -0.7013
 1384TIP3    H1 4116   7.001   3.622   0.872  0.5648  1.2427  0.7644
 1384TIP3    H2 4117   7.058   3.519   0.777 -2.1608  1.2482 -0.9920
 1385TIP3   OH2 4118   1.531   3.202   5.050  0.3733  0.1311 -0.0822
 1385TIP3    H1 4119   1.598   3.164   5.106  1.0601  1.7710  0.2564
 1385TIP3    H2 4120   1.454   3.146   5.063  1.3555 -1.1742  0.3012
 1386TIP3   OH2 4121   7.002   5.862   3.126  0.3965  0.2278  0.6499
 1386TIP3    H1 4122   6.959   5.928   3.072 -1.8733 -1.4356  0.2676
 1386TIP3    H2 4123   7.084   5.902   3.153 -0.5570  2.8915 -0.1492
 1387TIP3   OH2 4124   5.584   3.049   1.432  0.1937  0.1584  0.2279
 1387TIP3    H1 4125   5.542   2.985   1.375 -0.6943 -1.2176  2.2859
 1387TIP3    H2 4126   5.677   3.042   1.412  0.1182 -1.8133  0.3679
 1388TIP3   OH2 4127   7.199   0.556   0.752  0.3941  0.8822  0.0213
 1388TIP3    H1 4128   7.136   0.571   0.822 -0.0639 -1.2759  0.1368
 1388TIP3    H2 4129   7.278   0.525   0.796  0.3037  0.0923 -0.3563
 1389TIP3   OH2 4130   0.128   4.793   4.607 -0.5989  0.2136 -0.1723
 1389TIP3    H1 4131   0.087   4.872   4.643 -4.2124 -1.4487 -0.1972
 1389TIP3    H2 4132   0.103   4.723   4.668  1.3425 -1.1978 -0.8676
 1390TIP3   OH2 4133   5.540   4.229   0.604  0.1132  0.2986  0.7936
 1390TIP3    H1 4134   5.559   4.236   0.510 -2.0473 -2.8508 -0.0228
 1390TIP3    H2 4135   5.618   4.189   0.641 -0.2994 -1.6972 -0.3664
 1391TIP3   OH2 4136   4.392   4.852   1.402  0.1052 -0.6810  0.0307
 1391TIP3    H1 4137   4.394   4.855   1.307 -1.3456 -2.6916 -0.1285
 1391TIP3    H2 4138   4.414   4.941   1.430  0.6794 -0.0949 -2.1571
 1392TIP3   OH2 4139   6.244   0.478   5.346  0.2949 -0.2326 -0.3888
 1392TIP3    H1 4140   6.172   0.479   5.409  1.1870 -0.1753  0.6659
 1392TIP3    H2 4141   6.256   0.569   5.320  0.2827 -0.1806 -0.2107
 1393TIP3   OH2 4142   0.931   4.767   3.185  0.6834  0.2777 -0.5071
 1393TIP3    H1 4143   0.846   4.807   3.169  0.4318 -0.4834 -1.1282
 1393TIP3    H2 4144   0.993   4.840   3.180 -0.0898  1.2132  1.9764
 1394TIP3   OH2 4145   1.636   3.804   1.224  0.5379  0.6364  0.4533
 1394TIP3    H1 4146   1.680   3.732   1.270 -0.7496 -1.0994 -0.8997
 1394TIP3    H2 4147   1.578   3.842   1.290  1.1350  0.3558  1.1587
 1395TIP3   OH2 4148   2.983   3.161   5.237  0.2715 -0.0038 -0.0769
 1395TIP3    H1 4149   3.054   3.113   5.279 -0.8824 -1.4399  0.3223
 1395TIP3    H2 4150   2.988   3.135   5.145 -0.3282 -0.8841  0.1322
 1396TIP3   OH2 4151   1.311   2.571   5.231 -0.2187  0.1726  0.6273
 1396TIP3    H1 4152   1.327   2.490   5.181  1.1294  1.5707 -1.3575
 1396TIP3    H2 4153   1.382   2.574   5.295 -1.2956 -1.0417  1.9674
 1397TIP3   OH2 4154   7.155   3.707   5.657 -0.4265 -0.3145  0.3008
 1397TIP3    H1 4155   7.202   3.777   5.611 -3.1881  1.8783  0.5272
 1397TIP3    H2 4156   7.155   3.735   5.749 -1.8391 -0.4060  0.3467
 1398TIP3   OH2 4157   3.283   3.510   5.053  0.3959 -1.1494  0.5365
 1398TIP3    H1 4158   3.280   3.436   5.114 -0.8570 -1.7554 -0.2223
 1398TIP3    H2 4159   3.191   3.524   5.028  0.6494  0.4402  0.3853
 1399TIP3   OH2 4160   4.620   5.627   4.004 -0.0366 -1.0718  0.4872
 1399TIP3    H1 4161   4.614   5.690   3.933 -2.0233 -0.6555  0.9661
 1399TIP3    H2 4162   4.660   5.550   3.965  0.3202 -0.3224 -0.6770
 1400TIP3   OH2 4163   3.224   3.089   4.653  0.3934 -0.0476  0.3829
 1400TIP3    H1 4164   3.209   2.999   4.681 -0.2460 -0.2573 -0.5898
 1400TIP3    H2 4165   3.290   3.122   4.714  0.1868 -0.9726  1.1314
 1401TIP3   OH2 4166   2.198   1.757   5.115 -0.0484 -0.2012 -0.3015
 1401TIP3    H1 4167   2.238   1.799   5.191 -1.4470 -1.7197  1.3906
 1401TIP3    H2 4168   2.204   1.663   5.134 -3.2142 -0.5558 -0.4959
 1402TIP3   OH2 4169   6.380   0.091   5.190  0.1625  0.7236 -0.2542
 1402TIP3    H1 4170   6.401   0.033   5.264 -0.9103  1.0359  0.3117
 1402TIP3    H2 4171   6.313   0.150   5.224  0.1857  1.3547 -1.2668
 1403TIP3   OH2 4172   3.316   4.916   3.573  0.5488 -0.1858  0.2440
 1403TIP3    H1 4173   3.367   4.958   3.504  0.8198 -0.3002  0.3742
 1403TIP3    H2 4174   3.293   4.830   3.537 -0.7624  0.3873 -0.3793
 1404TIP3   OH2 4175   2.668   5.693   0.835  0.0648  0.3938  0.4458
 1404TIP3    H1 4176   2.748   5.745   0.837 -0.3878  1.0708  1.4984
 1404TIP3    H2 4177   2.608   5.744   0.780 -0.1414  0.6382  0.8946
 1405TIP3   OH2 4178   3.290   1.293   0.139 -0.1163 -0.3003 -0.0142
 1405TIP3    H1 4179   3.380   1.314   0.163  0.0400 -1.1913  0.2050
 1405TIP3    H2 4180   3.240   1.372   0.162  0.2272 -0.6435  2.0684
 1406TIP3   OH2 4181   1.558   2.920   0.494  0.1027  0.1407  0.2689
 1406TIP3    H1 4182   1.593   2.918   0.583  0.4145 -2.3437  0.1728
 1406TIP3    H2 4183   1.472   2.878   0.501 -0.4742  1.1622 -0.4081
 1407TIP3   OH2 4184   6.811   3.349   4.844 -0.2759  0.4031 -0.0929
 1407TIP3    H1 4185   6.853   3.314   4.922  2.7761  0.7907 -1.4127
 1407TIP3    H2 4186   6.794   3.271   4.790  1.3281  0.4322 -0.6784
 1408TIP3   OH2 4187   1.131   1.542   1.062  0.3465  0.4994 -0.3346
 1408TIP3    H1 4188   1.043   1.506   1.068  1.2758 -1.6633  2.7833
 1408TIP3    H2 4189   1.119   1.636   1.050 -2.3770  0.3152  0.3973
 1409TIP3   OH2 4190   1.852   0.485   1.735  0.0730  0.4823  0.1215
 1409TIP3    H1 4191   1.868   0.477   1.641  2.9794  0.9810  0.4692
 1409TIP3    H2 4192   1.880   0.401   1.771  1.3473  1.1346  0.7329
 1410TIP3   OH2 4193   4.459   2.018   5.392  0.3336 -0.3044  0.0420
 1410TIP3    H1 4194   4.391   1.950   5.398  0.2239 -0.1959  0.0179
 1410TIP3    H2 4195   4.486   2.033   5.482  1.7027 -1.7452 -0.0873
 1411TIP3   OH2 4196   3.388   1.863   0.598 -0.1134  0.3793  0.8061
 1411TIP3    H1 4197   3.328   1.790   0.579 -0.7581  1.2681 -0.8585
 1411TIP3    H2 4198   3.469   1.840   0.552 -0.2946  0.6581  0.3364
 1412TIP3   OH2 4199   0.516   2.815   2.003  0.2959  0.0648  0.3162
 1412TIP3    H1 4200   0.438   2.768   2.031  0.2179 -0.0382 -0.0724
 1412TIP3    H2 4201   0.502   2.905   2.033  0.2708 -0.0712  0.7142
 1413TIP3   OH2 4202   5.402   4.205   0.910  0.0368  0.0693 -0.3867
 1413TIP3    H1 4203   5.343   4.226   0.982  0.6055 -0.7849  0.3602
 1413TIP3    H2 4204   5.440   4.289   0.884 -1.3682  0.6010 -0.7706
 1414TIP3   OH2 4205   0.746   1.494   1.268  0.3167 -0.2568  0.3980
 1414TIP3    H1 4206   0.713   1.542   1.343 -1.2446 -2.2516  1.0893
 1414TIP3    H2 4207   0.819   1.442   1.303  1.0250  0.4515  0.0024
 1415TIP3   OH2 4208   7.109   0.932   1.204  0.5155 -0.4352 -0.3888
 1415TIP3    H1 4209   7.050   0.871   1.248 -1.3556  0.5324 -1.4094
 1415TIP3    H2 4210   7.118   0.898   1.116 -1.4042  1.2081 -1.3015
 1416TIP3   OH2 4211   2.099   1.448   0.865 -0.3455  0.0464  0.0746
 1416TIP3    H1 4212   2.091   1.415   0.955 -0.3244  0.0135  0.0645
 1416TIP3    H2 4213   2.155   1.384   0.821  1.2999  1.0943  0.5656
 1417TIP3   OH2 4214   5.668   1.716   3.203 -0.5707  0.1976  0.8687
 1417TIP3    H1 4215   5.763   1.723   3.206 -0.5717  0.6425 -0.0139
 1417TIP3    H2 4216   5.650   1.624   3.223  0.2299 -0.6819 -2.0434
 1418TIP3   OH2 4217   3.586   3.573   3.233  0.4484  0.2743  0.2166
 1418TIP3    H1 4218   3.575   3.632   3.307 -2.9402 -0.6909  0.6776
 1418TIP3    H2 4219   3.600   3.487   3.273 -0.1275 -0.0549 -0.2691
 1419TIP3   OH2 4220   5.013   3.271   0.187  0.7096 -0.5474 -0.3948
 1419TIP3    H1 4221   5.045   3.309   0.105 -0.1201  2.0365  0.3748
 1419TIP3    H2 4222   5.091   3.265   0.243  0.9232 -0.2403 -0.6554
 1420TIP3   OH2 4223   5.267   5.714   2.611  0.2359 -0.0426 -0.0530
 1420TIP3    H1 4224   5.185   5.680   2.648  0.6838 -1.1952 -0.0781
 1420TIP3    H2 4225   5.242   5.748   2.526 -0.7869  2.5109  1.1697
 1421TIP3   OH2 4226   3.719   4.142   4.433  0.3272 -0.8215 -0.3447
 1421TIP3    H1 4227   3.770   4.096   4.500  3.3219  2.1347 -0.3352
 1421TIP3    H2 4228   3.679   4.216   4.479 -0.7303 -0.8857 -1.1254
 1422TIP3   OH2 4229   1.627   0.655   3.425  0.2418  0.2184 -0.3146
 1422TIP3    H1 4230   1.664   0.726   3.373 -1.1527  0.0449 -1.6115
 1422TIP3    H2 4231   1.561   0.697   3.480  0.0746  0.0610 -0.3950
 1423TIP3   OH2 4232   5.290   5.278   2.439  0.7934 -0.1142  0.6008
 1423TIP3    H1 4233   5.262   5.291   2.530  0.4844 -0.7000  0.5910
 1423TIP3    H2 4234   5.365   5.220   2.445  0.2006 -0.9078  0.4197
 1424TIP3   OH2 4235   5.830   0.886   4.193 -0.0223 -0.1016 -0.3785
 1424TIP3    H1 4236   5.924   0.906   4.188  0.0882 -0.4025  0.3453
 1424TIP3    H2 4237   5.810   0.843   4.110  0.2575  0.8651 -0.9648
 1425TIP3   OH2 4238   3.693   1.851   1.821  0.4155  0.6258 -0.3498
 1425TIP3    H1 4239   3.732   1.894   1.745 -0.5007 -0.6353 -1.5806
 1425TIP3    H2 4240   3.748   1.774   1.836  1.4476  1.6247  1.2058
 1426TIP3   OH2 4241   4.785   6.758   4.557 -0.0206 -0.2504 -0.3502
 1426TIP3    H1 4242   4.872   6.740   4.520  0.5818  1.9467 -0.1515
 1426TIP3    H2 4243   4.759   6.841   4.518 -0.2791  1.1150  2.4499
 1427TIP3   OH2 4244   1.229   3.202   5.511 -0.1488 -0.1250  0.4101
 1427TIP3    H1 4245   1.174   3.172   5.438 -1.7520  1.7280  0.7603
 1427TIP3    H2 4246   1.213   3.139   5.581  1.0177 -1.6397 -0.6371
 1428TIP3   OH2 4247   1.031   6.404   4.675  0.1282 -0.2877 -0.5136
 1428TIP3    H1 4248   1.074   6.460   4.610  0.3519  0.6096  0.3728
 1428TIP3    H2 4249   0.938   6.418   4.661  0.1739 -0.2072 -0.7399
 1429TIP3   OH2 4250   6.932   6.083   0.581  0.2478 -0.1452  0.3454
 1429TIP3    H1 4251   6.952   6.106   0.672 -0.2772  2.3464 -0.0775
 1429TIP3    H2 4252   6.923   6.168   0.537 -0.2430 -1.2803 -1.8726
 1430TIP3   OH2 4253   1.351   0.929   1.838 -0.2820  0.0447  0.2722
 1430TIP3    H1 4254   1.349   0.887   1.924 -2.0443  0.8927  0.6811
 1430TIP3    H2 4255   1.324   1.019   1.855 -2.4720 -0.2148 -1.3734
 1431TIP3   OH2 4256   5.413   1.667   5.444 -0.1775 -0.1561 -0.0110
 1431TIP3    H1 4257   5.501   1.689   5.411 -0.2076 -1.2872 -0.9035
 1431TIP3    H2 4258   5.428   1.593   5.503 -0.4428  0.2390  0.5676
 1432TIP3   OH2 4259   5.449   4.136   1.633  0.4170  0.1419 -0.2584
 1432TIP3    H1 4260   5.508   4.207   1.656  0.2889  0.4796 -0.9562
 1432TIP3    H2 4261   5.417   4.158   1.546 -1.8012  0.6690  0.6059
 1433TIP3   OH2 4262   1.711   1.728   4.090  0.3840  0.5894  0.2087
 1433TIP3    H1 4263   1.672   1.717   4.004 -2.5171  1.0968  1.3232
 1433TIP3    H2 4264   1.730   1.822   4.096  0.9897  0.4823 -0.0317
 1434TIP3   OH2 4265   3.957   3.341   2.483  0.2838  0.0488  0.0748
 1434TIP3    H1 4266   4.045   3.306   2.496  0.1252 -0.5217 -0.3463
 1434TIP3    H2 4267   3.903   3.296   2.548  0.1697 -0.1369 -0.1473
 1435TIP3   OH2 4268   4.621   3.614   2.402  0.0409  0.6213 -0.0744
 1435TIP3    H1 4269   4.583   3.528   2.420 -0.8758  0.4958 -2.2775
 1435TIP3    H2 4270   4.715   3.599   2.401 -0.1257 -0.6015 -1.2897
 1436TIP3   OH2 4271   3.614   6.203   2.075 -0.0034  0.2691 -0.0923
 1436TIP3    H1 4272   3.578   6.146   2.143  0.4668 -0.3513 -0.3589
 1436TIP3    H2 4273   3.556   6.279   2.075 -0.1132  0.1999  0.8812
 1437TIP3   OH2 4274   3.558   4.149   3.461 -0.0736  0.1122 -0.1108
 1437TIP3    H1 4275   3.528   4.064   3.428  0.1096 -0.0471  0.1374
 1437TIP3    H2 4276   3.480   4.204   3.456 -0.3690 -0.2543  0.3649
 1438TIP3   OH2 4277   5.700   3.673   2.345  0.1385  0.3564 -0.1330
 1438TIP3    H1 4278   5.654   3.756   2.350  0.9426  0.7581  1.1332
 1438TIP3    H2 4279   5.681   3.630   2.429  1.3015  0.1349  0.0331
 1439TIP3   OH2 4280   4.572   6.583   0.633 -0.3706  0.4528  0.0955
 1439TIP3    H1 4281   4.650   6.614   0.587  0.7885  2.9331  3.3211
 1439TIP3    H2 4282   4.606   6.527   0.703 -1.5851  0.6117  0.8384
 1440TIP3   OH2 4283   4.124   4.812   3.126  0.1197  0.1164  0.2446
 1440TIP3    H1 4284   4.043   4.836   3.172 -1.4355 -1.4685 -1.4950
 1440TIP3    H2 4285   4.159   4.738   3.176 -0.9829 -0.9047 -0.4391
 1441TIP3   OH2 4286   1.256   4.237   1.671  0.4523  0.3726 -0.0124
 1441TIP3    H1 4287   1.319   4.200   1.733  0.3553 -0.7812 -0.5894
 1441TIP3    H2 4288   1.295   4.322   1.646  0.5363  0.8105  1.5193
 1442TIP3   OH2 4289   6.075   5.861   4.352  0.0874 -0.7674  0.3155
 1442TIP3    H1 4290   6.053   5.770   4.367  2.6829 -1.4439  0.4118
 1442TIP3    H2 4291   6.169   5.868   4.371 -0.0057  1.9091  0.2826
 1443TIP3   OH2 4292   5.984   2.368   4.670 -0.1794 -0.3399 -0.1617
 1443TIP3    H1 4293   5.919   2.324   4.615 -1.1810 -0.6222  1.1918
 1443TIP3    H2 4294   5.967   2.461   4.659  0.3920 -0.3393 -1.1959
 1444TIP3   OH2 4295   5.021   4.518   1.912 -0.2401  0.5356  0.1930
 1444TIP3    H1 4296   5.113   4.491   1.911 -0.7042 -1.1675 -0.5371
 1444TIP3    H2 4297   5.005   4.546   2.002  0.7897  0.0568  0.5395
 1445TIP3   OH2 4298   6.096   1.182   5.552 -0.5972  0.2268  0.3434
 1445TIP3    H1 4299   6.116   1.245   5.482 -2.2455  0.5385  0.1099
 1445TIP3    H2 4300   6.181   1.144   5.574  0.6926  3.3347  1.3047
 1446TIP3   OH2 4301   2.479   6.018   2.321 -0.5580 -0.7202  0.2141
 1446TIP3    H1 4302   2.463   6.009   2.227  0.1575 -0.8370  0.1038
 1446TIP3    H2 4303   2.564   5.978   2.335  0.3990  1.3363  0.5563
 1447TIP3   OH2 4304   2.379   1.822   3.916 -0.0658 -0.3293  0.5321
 1447TIP3    H1 4305   2.463   1.866   3.930 -0.8865  1.1065  1.2080
 1447TIP3    H2 4306   2.327   1.884   3.865 -1.0073 -0.8141  0.8710
 1448TIP3   OH2 4307   3.085   2.146   2.911  0.7611  0.1602 -0.0393
 1448TIP3    H1 4308   3.117   2.227   2.952  1.5062 -0.1789  0.0805
 1448TIP3    H2 4309   2.992   2.144   2.930  0.5306  1.4851 -0.8823
 1449TIP3   OH2 4310   4.761   4.157   5.279 -0.6597 -0.0818  0.0821
 1449TIP3    H1 4311   4.850   4.127   5.260  0.2956  1.1357  2.2899
 1449TIP3    H2 4312   4.725   4.088   5.336 -1.3521 -0.8077 -1.1871
 1450TIP3   OH2 4313   6.651   3.702   2.292  0.1167 -0.4690 -0.3719
 1450TIP3    H1 4314   6.668   3.661   2.377  0.0385 -0.9081 -0.5627
 1450TIP3    H2 4315   6.733   3.745   2.269  0.8212 -2.0717 -1.0090
 1451TIP3   OH2 4316   3.496   2.309   0.766  0.2963 -0.0019  0.4274
 1451TIP3    H1 4317   3.548   2.307   0.686  1.2267 -0.2783  1.0241
 1451TIP3    H2 4318   3.405   2.319   0.736  0.6173 -0.2700 -0.6594
 1452TIP3   OH2 4319   0.061   2.281   3.345 -0.0286 -0.0057  0.8591
 1452TIP3    H1 4320  -0.005   2.213   3.326  0.4306 -0.8144  2.0149
 1452TIP3    H2 4321   0.099   2.301   3.260 -2.7253  1.5573 -0.1084
 1453TIP3   OH2 4322   3.462   3.116   0.448 -0.0117 -0.1560  0.2421
 1453TIP3    H1 4323   3.513   3.127   0.368  0.2139  0.1511  0.4251
 1453TIP3    H2 4324   3.464   3.022   0.466 -0.0350 -0.2226 -0.0912
 1454TIP3   OH2 4325   4.843   3.068   2.746 -0.1858  0.6359  0.2704
 1454TIP3    H1 4326   4.769   3.091   2.690  0.2899  0.8044 -0.3060
 1454TIP3    H2 4327   4.813   3.085   2.835 -0.6327  1.2737  0.0044
 1455TIP3   OH2 4328   6.896   6.125   2.996  0.5197  0.2262 -0.0097
 1455TIP3    H1 4329   6.902   6.212   3.036  2.9113 -0.0420  0.4027
 1455TIP3    H2 4330   6.969   6.123   2.934  0.9343 -1.6840  0.4753
 1456TIP3   OH2 4331   1.614   6.680   2.007 -0.1573 -0.1323  0.1967
 1456TIP3    H1 4332   1.659   6.665   2.090  1.0460 -2.3677 -0.7726
 1456TIP3    H2 4333   1.627   6.773   1.990 -0.0579  0.2885  2.2642
 1457TIP3   OH2 4334   1.737   5.059   0.110  0.3702  0.5812  0.0919
 1457TIP3    H1 4335   1.681   5.014   0.174 -1.2867  2.2719 -0.1023
 1457TIP3    H2 4336   1.789   5.120   0.162  3.3106 -2.0071  0.4804
 1458TIP3   OH2 4337   5.474   4.474   0.712  0.1359 -0.1636  0.7293
 1458TIP3    H1 4338   5.398   4.507   0.664  1.2024 -0.0384 -0.9632
 1458TIP3    H2 4339   5.498   4.393   0.667  1.8816  0.5665  0.2586
 1459TIP3   OH2 4340   1.631   1.228   1.919  0.1041  0.8292 -0.6556
 1459TIP3    H1 4341   1.573   1.187   1.984  0.1162 -0.6119 -1.5065
 1459TIP3    H2 4342   1.575   1.291   1.874 -0.5088  0.2374 -0.7334
 1460TIP3   OH2 4343   4.030   5.249   1.694  0.5446  0.1119 -0.3256
 1460TIP3    H1 4344   4.088   5.324   1.685  2.3127 -0.9672  1.4121
 1460TIP3    H2 4345   4.082   5.174   1.664 -0.5485 -0.6798 -0.3204
 1461TIP3   OH2 4346   2.459   3.812   5.509 -0.6576  0.1710  0.4353
 1461TIP3    H1 4347   2.519   3.865   5.456 -0.3549  1.8778  2.3734
 1461TIP3    H2 4348   2.392   3.783   5.447  1.0561 -0.1341 -1.3856
 1462TIP3   OH2 4349   2.915   0.150   0.789 -0.0887 -0.2576  0.2773
 1462TIP3    H1 4350   2.941   0.193   0.871 -1.2142  0.8205  0.1069
 1462TIP3    H2 4351   2.965   0.196   0.721 -1.8698  1.4271  0.0099
 1463TIP3   OH2 4352   7.048   1.068   0.074  0.1584 -0.5907 -0.3778
 1463TIP3    H1 4353   6.974   1.100   0.023  0.0291  0.8595  0.6431
 1463TIP3    H2 4354   7.093   1.148   0.104 -1.0930 -1.1487  3.6374
 1464TIP3   OH2 4355   1.109   0.468   4.202  0.0529 -0.0489 -0.0900
 1464TIP3    H1 4356   1.083   0.547   4.248  2.0414 -0.0455  1.1463
 1464TIP3    H2 4357   1.109   0.400   4.270 -0.1844 -0.7793 -0.8096
 1465TIP3   OH2 4358   0.351   6.540   3.859 -0.5346 -0.3892 -0.7652
 1465TIP3    H1 4359   0.357   6.491   3.778  2.6078 -1.5964  0.0672
 1465TIP3    H2 4360   0.389   6.482   3.926 -0.4634  1.6049  1.0461
 1466TIP3   OH2 4361   0.967   6.263   5.847 -0.0448 -0.5060  0.2294
 1466TIP3    H1 4362   0.997   6.172   5.844  1.1904 -0.1928  1.7742
 1466TIP3    H2 4363   0.913   6.267   5.926 -0.9860 -0.1305 -0.4184
 1467TIP3   OH2 4364   3.937   0.339   1.256 -0.2317 -0.6978 -0.3844
 1467TIP3    H1 4365   3.918   0.335   1.349 -0.0989 -0.8025 -0.3626
 1467TIP3    H2 4366   3.877   0.277   1.216  0.4346 -1.4393 -0.2582
 1468TIP3   OH2 4367   6.676   2.314   1.381  0.3338 -0.4573  0.2487
 1468TIP3    H1 4368   6.712   2.232   1.416  0.8380 -1.1933 -1.8337
 1468TIP3    H2 4369   6.624   2.350   1.453  1.3699 -1.7999  1.7424
 1469TIP3   OH2 4370   3.567   2.520   1.251 -0.4659  0.0525 -0.7358
 1469TIP3    H1 4371   3.580   2.431   1.219  0.1038 -0.0645 -0.1872
 1469TIP3    H2 4372   3.498   2.555   1.195  1.0304  0.1252 -2.6806
 1470TIP3   OH2 4373   6.490   5.720   5.801 -0.6883 -0.4990 -0.3629
 1470TIP3    H1 4374   6.450   5.800   5.835 -1.9584 -1.5961  0.8539
 1470TIP3    H2 4375   6.576   5.716   5.843 -1.1218 -0.4025  0.5452
 1471TIP3   OH2 4376   3.230   5.165   4.874 -0.0409  0.5192  0.0957
 1471TIP3    H1 4377   3.312   5.214   4.871  0.3145 -0.0727  0.0033
 1471TIP3    H2 4378   3.245   5.090   4.817 -1.5112  1.7124 -1.9956
 1472TIP3   OH2 4379   5.160   3.703   2.921  0.3084 -0.2677  0.3045
 1472TIP3    H1 4380   5.139   3.713   2.828  0.7882  1.3448  0.3237
 1472TIP3    H2 4381   5.253   3.724   2.926  0.3505 -0.6404  1.1107
 1473TIP3   OH2 4382   4.418   3.488   0.447  0.6918  0.8985  0.2022
 1473TIP3    H1 4383   4.451   3.490   0.536  1.8160  0.0867 -0.1713
 1473TIP3    H2 4384   4.455   3.409   0.409 -0.6635  0.6378 -0.6627
 1474TIP3   OH2 4385   3.500   4.693   1.637  0.0840 -0.3435 -0.2455
 1474TIP3    H1 4386   3.558   4.756   1.681  1.1798 -1.0738 -0.5897
 1474TIP3    H2 4387   3.457   4.646   1.709 -0.0469  0.1809  0.0213
 1475TIP3   OH2 4388   4.642   5.794   3.796  0.1512 -0.2374  0.0527
 1475TIP3    H1 4389   4.699   5.780   3.720 -1.2157 -1.2533 -0.8411
 1475TIP3    H2 4390   4.642   5.889   3.809  0.4900 -0.0535 -1.1614
 1476TIP3   OH2 4391   1.698   5.004   2.848  0.5502 -0.1970 -0.4989
 1476TIP3    H1 4392   1.721   5.040   2.762  0.4418 -1.0917 -0.9142
 1476TIP3    H2 4393   1.686   5.081   2.904 -1.9100  0.5795 -1.9154
 1477TIP3   OH2 4394   1.113   6.072   3.869 -0.5638 -0.0340  0.4550
 1477TIP3    H1 4395   1.149   6.156   3.839 -0.4338  0.5042  2.0361
 1477TIP3    H2 4396   1.040   6.097   3.926 -2.3486 -1.0748 -1.2520
 1478TIP3   OH2 4397   0.612   4.706   2.563  0.3850  0.1215 -0.5632
 1478TIP3    H1 4398   0.537   4.658   2.598  1.2129 -1.5894 -1.0192
 1478TIP3    H2 4399   0.675   4.707   2.635  0.5726  0.0550 -0.7260
 1479TIP3   OH2 4400   5.117   2.710   4.040 -0.1627 -0.4034 -0.1832
 1479TIP3    H1 4401   5.074   2.627   4.061  0.7950 -0.7583  0.4869
 1479TIP3    H2 4402   5.105   2.763   4.119  1.5142 -0.9081  0.4557
 1480TIP3   OH2 4403   4.910   0.213   5.666  0.1578 -0.7285  0.5175
 1480TIP3    H1 4404   4.958   0.168   5.736  1.3991 -1.1920 -0.5693
 1480TIP3    H2 4405   4.904   0.304   5.695 -1.5895 -1.3532  2.3422
 1481TIP3   OH2 4406   0.570   4.001   3.916 -0.0263  0.3994 -0.4190
 1481TIP3    H1 4407   0.553   3.927   3.975  0.7583  0.4655 -0.1028
 1481TIP3    H2 4408   0.492   4.005   3.860 -0.0062 -0.7815 -0.5625
 1482TIP3   OH2 4409   6.702   2.886   4.558  0.1608  0.5394 -0.1592
 1482TIP3    H1 4410   6.617   2.922   4.532 -0.3923 -0.8753 -0.4079
 1482TIP3    H2 4411   6.681   2.821   4.625  1.2829  1.8172  1.5024
 1483TIP3   OH2 4412   4.010   0.473   0.036  0.4665  0.3956  0.2236
 1483TIP3    H1 4413   4.036   0.458  -0.054 -0.0426 -2.0650  0.4105
 1483TIP3    H2 4414   4.073   0.537   0.070  0.1266  2.0477 -2.0719
 1484TIP3   OH2 4415   1.264   4.098   5.509  0.1403  0.4859 -0.1757
 1484TIP3    H1 4416   1.326   4.145   5.452 -0.3798 -0.9978 -2.0726
 1484TIP3    H2 4417   1.307   4.015   5.528 -0.0440  0.6411  0.9648
 1485TIP3   OH2 4418   1.731   2.026   4.612  0.1493 -0.5754  0.4064
 1485TIP3    H1 4419   1.690   1.953   4.565 -1.4755 -1.9723  3.6865
 1485TIP3    H2 4420   1.814   1.990   4.645  0.0208 -0.4971  0.8233
 1486TIP3   OH2 4421   5.287   5.886   0.076  0.0965 -0.5630  0.9786
 1486TIP3    H1 4422   5.338   5.815   0.038  0.1946 -0.1461  0.2943
 1486TIP3    H2 4423   5.326   5.966   0.039 -1.9028 -0.2691 -0.7099
 1487TIP3   OH2 4424   2.935   6.651   0.589 -0.5509  0.2800  0.5027
 1487TIP3    H1 4425   2.983   6.732   0.605 -0.4956  0.0375  1.7342
 1487TIP3    H2 4426   2.934   6.607   0.675 -0.6817 -0.9582 -0.1105
 1488TIP3   OH2 4427   5.676   1.096   4.082 -0.3607 -0.3761  0.0452
 1488TIP3    H1 4428   5.663   1.167   4.145 -0.0656 -0.8047  0.5949
 1488TIP3    H2 4429   5.745   1.042   4.120 -1.9901 -2.1335  0.6513
 1489TIP3   OH2 4430   2.603   3.740   0.828  0.4147  0.0931  0.3440
 1489TIP3    H1 4431   2.696   3.723   0.810  0.3049  0.5875 -0.7766
 1489TIP3    H2 4432   2.599   3.834   0.846  0.0686  0.1695 -0.1103
 1490TIP3   OH2 4433   6.757   2.886   5.162 -0.0990  0.3368 -0.7535
 1490TIP3    H1 4434   6.671   2.919   5.189  0.0827  0.2077  0.0091
 1490TIP3    H2 4435   6.815   2.907   5.235  0.8019  1.5291 -1.7800
 1491TIP3   OH2 4436   6.530   1.903   1.243 -0.1949 -0.5393 -0.1926
 1491TIP3    H1 4437   6.584   1.874   1.316  0.4107 -3.2970 -1.5808
 1491TIP3    H2 4438   6.444   1.923   1.282  0.5373 -0.4173  1.4322
 1492TIP3   OH2 4439   5.412   5.492   0.253 -0.0556  0.3190 -0.9953
 1492TIP3    H1 4440   5.440   5.413   0.299 -1.1990  0.2859 -0.3120
 1492TIP3    H2 4441   5.453   5.486   0.167  1.2036 -0.1974 -0.3948
 1493TIP3   OH2 4442   2.947   3.473   2.664  0.0785  0.0959  0.8453
 1493TIP3    H1 4443   3.021   3.532   2.647  1.2627 -1.7427 -0.7743
 1493TIP3    H2 4444   2.881   3.498   2.599  0.4149 -0.0598  0.4348
 1494TIP3   OH2 4445   4.160   5.991   1.022  0.3247 -0.3879 -0.1483
 1494TIP3    H1 4446   4.205   6.070   1.051 -0.2398 -0.8566  2.1934
 1494TIP3    H2 4447   4.067   6.010   1.034  0.1237 -1.0423 -0.5842
 1495TIP3   OH2 4448   4.234   4.740   4.312 -0.0745 -0.0802  0.1538
 1495TIP3    H1 4449   4.192   4.655   4.331  0.6292 -0.6002 -0.5732
 1495TIP3    H2 4450   4.324   4.730   4.343 -0.7254  1.4949  2.9657
 1496TIP3   OH2 4451   4.388   6.800   2.966  0.2168  0.5815 -0.4931
 1496TIP3    H1 4452   4.407   6.729   3.028  1.7731  1.9459  0.6858
 1496TIP3    H2 4453   4.459   6.794   2.902 -0.2089  0.4693 -0.9539
 1497TIP3   OH2 4454   1.972   1.670   0.977 -0.5825  0.0048 -0.3846
 1497TIP3    H1 4455   1.999   1.582   0.952 -0.5382 -0.4327  1.1628
 1497TIP3    H2 4456   1.900   1.691   0.917 -1.3933 -1.5599 -0.0054
 1498TIP3   OH2 4457   0.525   3.097   2.000  0.4083  0.4746 -0.3866
 1498TIP3    H1 4458   0.514   3.190   2.018 -0.2166  0.0477  1.7317
 1498TIP3    H2 4459   0.605   3.073   2.047 -1.7708 -0.8869  3.0555
 1499TIP3   OH2 4460   5.984   5.677   3.589 -0.1444  0.0661  0.1327
 1499TIP3    H1 4461   5.995   5.590   3.553 -1.6738 -0.1203  0.0522
 1499TIP3    H2 4462   6.020   5.736   3.523  2.2446 -0.5301  0.8146
 1500TIP3   OH2 4463   4.269   5.407   1.716  0.3155  0.9184 -0.0413
 1500TIP3    H1 4464   4.309   5.322   1.734  0.3230  1.0215  0.4205
 1500TIP3    H2 4465   4.342   5.463   1.691  0.3492  0.8742 -0.0412
 1501TIP3   OH2 4466   6.519   6.809   1.784  0.3492 -0.4331 -0.2647
 1501TIP3    H1 4467   6.525   6.722   1.745  0.5648 -0.2615 -0.6148
 1501TIP3    H2 4468   6.441   6.805   1.840 -2.4853  0.4778 -3.7202
 1502TIP3   OH2 4469   5.671   4.708   2.458  0.0615 -0.4089 -0.0995
 1502TIP3    H1 4470   5.696   4.760   2.534  0.3861  1.1553 -1.2230
 1502TIP3    H2 4471   5.629   4.771   2.399 -3.5920 -2.2257  0.2571
 1503TIP3   OH2 4472   6.716   3.251   1.554 -0.2801 -0.5529  0.0476
 1503TIP3    H1 4473   6.640   3.233   1.498 -0.2331 -0.8319  0.0735
 1503TIP3    H2 4474   6.706   3.343   1.578 -0.3366 -0.4486 -0.3667
 1504TIP3   OH2 4475   2.573   6.502   2.697 -0.4697  0.0540 -0.1710
 1504TIP3    H1 4476   2.569   6.408   2.678 -0.3093  0.4080 -2.2442
 1504TIP3    H2 4477   2.482   6.531   2.694 -0.4930  0.0119  0.1579
 1505TIP3   OH2 4478   4.584   0.687   2.473 -0.0188 -0.2177 -0.0663
 1505TIP3    H1 4479   4.621   0.759   2.421 -1.8713  0.9499  0.1269
 1505TIP3    H2 4480   4.505   0.663   2.426  0.4124 -1.9701  0.0488
 1506TIP3   OH2 4481   4.223   1.865   4.392  0.1501  0.1412 -0.0385
 1506TIP3    H1 4482   4.184   1.822   4.317 -0.5915  0.8431 -0.0652
 1506TIP3    H2 4483   4.313   1.832   4.394  0.3586  0.5504 -1.5794
 1507TIP3   OH2 4484   6.374   1.740   4.739 -0.5706  0.2885  0.1101
 1507TIP3    H1 4485   6.432   1.807   4.774 -0.8720  1.6176 -1.7673
 1507TIP3    H2 4486   6.359   1.680   4.812  0.7523  1.5460  1.4763
 1508TIP3   OH2 4487   7.182   0.808   1.740 -0.3580  0.9304  1.1398
 1508TIP3    H1 4488   7.111   0.754   1.776 -0.0392 -1.0910 -1.0219
 1508TIP3    H2 4489   7.167   0.895   1.776 -1.5589 -0.3169  3.9395
 1509TIP3   OH2 4490   2.447   6.547   0.064  0.1595  0.1160 -0.5581
 1509TIP3    H1 4491   2.430   6.534  -0.029  0.0179  1.4474 -0.7353
 1509TIP3    H2 4492   2.470   6.639   0.072 -2.4557  0.7475  1.0896
 1510TIP3   OH2 4493   4.787   6.671   3.121  0.1193 -0.0982  0.1056
 1510TIP3    H1 4494   4.843   6.664   3.044 -0.3304  1.6055 -0.4211
 1510TIP3    H2 4495   4.846   6.662   3.195  0.7390 -0.5923 -0.4405
 1511TIP3   OH2 4496   0.751   1.231   4.567  0.1723  0.5408  0.0330
 1511TIP3    H1 4497   0.736   1.169   4.638 -0.5984  0.9245  0.2257
 1511TIP3    H2 4498   0.728   1.183   4.487  2.4142 -0.3567 -0.1289
 1512TIP3   OH2 4499   5.276   4.401   0.054 -0.5884  0.0295 -0.2244
 1512TIP3    H1 4500   5.180   4.404   0.061 -0.6364 -0.2265 -0.7076
 1512TIP3    H2 4501   5.296   4.445  -0.028 -0.2411  0.6191  0.1682
 1513TIP3   OH2 4502   2.717   5.488   2.709  0.3345 -0.2215 -0.2030
 1513TIP3    H1 4503   2.704   5.531   2.793 -0.4394  0.7267 -0.7907
 1513TIP3    H2 4504   2.773   5.412   2.729 -1.7254 -1.3696  1.5507
 1514TIP3   OH2 4505   1.017   3.906   4.549  0.1600 -0.6604 -0.4314
 1514TIP3    H1 4506   1.005   3.959   4.471  0.1610 -0.7870 -0.5181
 1514TIP3    H2 4507   1.002   3.816   4.520  0.9553 -0.7903 -0.4711
 1515TIP3   OH2 4508   0.756   5.093   5.583 -0.3629  0.0866  0.2864
 1515TIP3    H1 4509   0.684   5.032   5.598 -1.1316  1.2231  1.4272
 1515TIP3    H2 4510   0.744   5.123   5.493 -1.3662  0.2994  0.4814
 1516TIP3   OH2 4511   3.897   6.058   1.024 -0.3009  0.0120 -0.0756
 1516TIP3    H1 4512   3.875   6.127   0.961  0.8576  0.1046 -0.4130
 1516TIP3    H2 4513   3.890   6.100   1.109 -0.7404  0.2179 -0.2101
 1517TIP3   OH2 4514   2.650   6.193   1.583 -0.1733 -0.3641  0.8266
 1517TIP3    H1 4515   2.621   6.171   1.494  1.3120 -0.8473  0.4339
 1517TIP3    H2 4516   2.603   6.273   1.604  0.4562  0.5528 -0.9645
 1518TIP3   OH2 4517   2.173   1.837   0.299  0.2460 -0.0982 -0.2396
 1518TIP3    H1 4518   2.145   1.904   0.362  1.8085  1.3373 -0.9674
 1518TIP3    H2 4519   2.190   1.760   0.352 -1.5596  0.0542  0.6417
 1519TIP3   OH2 4520   3.358   1.509   3.120 -0.2384  0.1040  0.3495
 1519TIP3    H1 4521   3.342   1.555   3.038 -0.6645 -0.7966 -0.0933
 1519TIP3    H2 4522   3.312   1.560   3.186 -1.0394  0.0938 -0.1908
 1520TIP3   OH2 4523   1.250   4.770   1.685 -0.1917  0.2861  0.0726
 1520TIP3    H1 4524   1.289   4.685   1.666 -0.7934 -0.1928  0.9388
 1520TIP3    H2 4525   1.166   4.768   1.639 -0.4470  0.1904  0.5362
 1521TIP3   OH2 4526   0.455   4.522   2.674 -0.1519 -0.0353 -0.3308
 1521TIP3    H1 4527   0.515   4.449   2.689 -0.7991 -1.2779 -3.1209
 1521TIP3    H2 4528   0.374   4.482   2.643 -0.2269  1.8034 -2.8997
 1522TIP3   OH2 4529   2.965   3.995   1.157 -0.7083  0.1157  0.1039
 1522TIP3    H1 4530   2.929   4.055   1.091 -0.7137  0.7418  0.6580
 1522TIP3    H2 4531   3.057   3.985   1.132 -0.5377  0.8975  0.3709
 1523TIP3   OH2 4532   6.010   6.125   4.651 -0.1002 -0.0548 -0.5984
 1523TIP3    H1 4533   5.952   6.051   4.671 -1.4291  1.5876  2.1878
 1523TIP3    H2 4534   5.991   6.145   4.559 -2.6760 -0.7310 -0.3016
 1524TIP3   OH2 4535   2.576   5.228   3.788 -1.1200 -0.3786  0.3070
 1524TIP3    H1 4536   2.510   5.163   3.811 -2.5101  1.2570  1.1979
 1524TIP3    H2 4537   2.611   5.257   3.872 -1.0757  0.5342 -0.0156
 1525TIP3   OH2 4538   3.526   5.052   1.656  0.1229 -0.0200 -0.2217
 1525TIP3    H1 4539   3.476   5.111   1.713  0.0331 -1.6235  1.4622
 1525TIP3    H2 4540   3.617   5.080   1.666  0.4715 -1.8442  2.8924
 1526TIP3   OH2 4541   4.033   2.493   4.576 -0.4812 -0.3324 -0.5725
 1526TIP3    H1 4542   4.081   2.543   4.510 -1.2020  0.0846 -0.7959
 1526TIP3    H2 4543   4.041   2.402   4.549 -0.4105 -0.2010 -1.0014
 1527TIP3   OH2 4544   5.687   0.839   3.088  0.2719 -0.3555  0.2101
 1527TIP3    H1 4545   5.721   0.844   2.999  0.6796 -0.3066  0.3666
 1527TIP3    H2 4546   5.605   0.790   3.080  0.0945  0.0116 -0.2508
 1528TIP3   OH2 4547   5.855   2.803   0.417 -0.1520  0.0732 -0.1964
 1528TIP3    H1 4548   5.762   2.782   0.413 -0.5464  1.6542 -0.2789
 1528TIP3    H2 4549   5.893   2.735   0.473 -1.2136 -1.0051 -0.7434
 1529TIP3   OH2 4550   4.923   5.121   3.390  0.0868  1.1156 -0.4108
 1529TIP3    H1 4551   4.918   5.049   3.454  0.3305  0.6965 -0.8603
 1529TIP3    H2 4552   4.847   5.108   3.334  0.9950  0.2421 -1.4861
 1530TIP3   OH2 4553   3.878   2.250   2.561  0.0972  0.2461  0.5151
 1530TIP3    H1 4554   3.789   2.240   2.526 -0.1236  1.3288  0.7201
 1530TIP3    H2 4555   3.935   2.216   2.492 -0.3632  1.7154 -0.6609
 1531TIP3   OH2 4556   4.385   5.986   0.777 -0.1292 -0.8266  0.5467
 1531TIP3    H1 4557   4.433   6.056   0.821  1.2176 -0.9574 -0.6382
 1531TIP3    H2 4558   4.353   6.027   0.696  0.1729 -1.4015  0.1228
 1532TIP3   OH2 4559   2.500   0.678   0.412  0.1527 -0.2367  1.1865
 1532TIP3    H1 4560   2.531   0.667   0.502  2.4167 -0.0869  0.4997
 1532TIP3    H2 4561   2.514   0.592   0.372 -1.0973 -0.3792  1.0233
 1533TIP3   OH2 4562   6.112   6.405   3.197 -0.3995  0.2123 -0.1549
 1533TIP3    H1 4563   6.127   6.495   3.225  1.6279 -0.7008  2.1209
 1533TIP3    H2 4564   6.173   6.391   3.125 -0.1489  0.4684  0.0052
 1534TIP3   OH2 4565   3.025   6.042   2.722 -0.2022 -0.0078 -0.0505
 1534TIP3    H1 4566   2.949   6.070   2.671  0.2912  0.9324 -0.2992
 1534TIP3    H2 4567   3.054   6.122   2.767 -0.5542 -0.7689  1.6249
 1535TIP3   OH2 4568   2.890   2.013   3.213  0.0114 -0.2871  0.1888
 1535TIP3    H1 4569   2.802   1.976   3.207 -0.2655  0.5019 -4.1764
 1535TIP3    H2 4570   2.946   1.950   3.167  1.0616  0.8427 -0.1437
 1536TIP3   OH2 4571   1.861   0.467   1.468  0.5206 -0.5291  0.1237
 1536TIP3    H1 4572   1.884   0.512   1.387  1.0890  0.5524  0.8559
 1536TIP3    H2 4573   1.814   0.389   1.440 -0.6007  0.5718 -1.1960
 1537TIP3   OH2 4574   5.928   3.324   5.552  0.3966  0.2575  0.4456
 1537TIP3    H1 4575   6.022   3.338   5.567  0.6187 -0.6885  0.0063
 1537TIP3    H2 4576   5.891   3.316   5.640  1.5542 -4.3990  0.8034
 1538TIP3   OH2 4577   1.778   3.025   3.563 -0.0128  0.1142 -0.5603
 1538TIP3    H1 4578   1.789   2.942   3.518  0.0563  0.4411 -1.1522
 1538TIP3    H2 4579   1.755   3.087   3.494 -1.1214  0.3713  0.0193
 1539TIP3   OH2 4580   6.783   4.931   2.297 -0.2736  0.9173 -0.2075
 1539TIP3    H1 4581   6.819   5.020   2.300 -0.4893  0.9787  1.9372
 1539TIP3    H2 4582   6.772   4.906   2.389 -0.9893 -1.0303 -0.7679
 1540TIP3   OH2 4583   3.004   6.391   2.062 -0.6362 -0.1843  0.0805
 1540TIP3    H1 4584   2.982   6.300   2.079 -0.9312 -0.2650 -0.6876
 1540TIP3    H2 4585   2.929   6.425   2.011  0.4185 -0.1259 -1.5221
 1541TIP3   OH2 4586   1.463   6.046   0.443 -1.2370 -0.4362 -0.5637
 1541TIP3    H1 4587   1.530   5.996   0.397 -0.3378 -0.2264  0.4784
 1541TIP3    H2 4588   1.445   6.121   0.387 -0.7481 -0.5951 -0.9384
 1542TIP3   OH2 4589   5.672   0.833   1.698 -0.2987 -0.5691  0.6191
 1542TIP3    H1 4590   5.680   0.928   1.686 -0.1855 -0.5504  0.8366
 1542TIP3    H2 4591   5.580   0.820   1.722 -0.1834 -0.4565  1.1221
 1543TIP3   OH2 4592   3.976   0.655   4.797  0.3044 -0.0412  0.5939
 1543TIP3    H1 4593   3.886   0.653   4.765  0.9096 -0.2182 -1.2531
 1543TIP3    H2 4594   3.973   0.609   4.880 -0.9776 -1.9720 -0.4424
 1544TIP3   OH2 4595   5.705   6.218   4.555  0.8464  0.7637  0.3061
 1544TIP3    H1 4596   5.624   6.174   4.529  1.5773 -0.7079  0.4371
 1544TIP3    H2 4597   5.775   6.166   4.515  1.8893 -0.0746  2.9826
 1545TIP3   OH2 4598   0.927   0.121   4.227 -0.5217  0.4410  0.2417
 1545TIP3    H1 4599   0.938   0.170   4.145  1.0088 -1.0460 -0.5043
 1545TIP3    H2 4600   0.842   0.078   4.218 -1.4237  2.0902  0.4777
 1546TIP3   OH2 4601   5.773   5.521   5.536  0.1167 -0.0445  0.4824
 1546TIP3    H1 4602   5.861   5.523   5.574  0.7196 -0.0506 -0.8783
 1546TIP3    H2 4603   5.761   5.608   5.498  0.2892 -0.6291 -0.9730
 1547TIP3   OH2 4604   4.914   5.477   1.846  0.6875  0.4899 -0.2133
 1547TIP3    H1 4605   4.964   5.548   1.884  2.6617 -0.2787 -1.2410
 1547TIP3    H2 4606   4.975   5.403   1.842 -0.9203 -0.9102 -0.3249
 1548TIP3   OH2 4607   0.390   4.959   0.186 -0.1834 -0.4922 -0.2120
 1548TIP3    H1 4608   0.417   4.907   0.263  1.5628 -0.7506 -0.9404
 1548TIP3    H2 4609   0.395   4.897   0.113  3.7411  0.9043 -1.4299
 1549TIP3   OH2 4610   3.765   6.211   0.125  0.3558  0.4442 -0.1591
 1549TIP3    H1 4611   3.844   6.190   0.076  1.7296 -0.4763  2.2574
 1549TIP3    H2 4612   3.787   6.289   0.176  0.0744 -0.3153  1.1972
 1550TIP3   OH2 4613   0.914   5.625   0.187  0.1834  0.5233  0.0857
 1550TIP3    H1 4614   1.005   5.641   0.162  0.3447  0.0575  0.3637
 1550TIP3    H2 4615   0.909   5.531   0.202  0.1396  0.7714  1.9095
 1551TIP3   OH2 4616   4.263   0.357   2.460 -0.1737 -0.8988 -0.2271
 1551TIP3    H1 4617   4.225   0.308   2.387  0.9343 -2.7551  0.3865
 1551TIP3    H2 4618   4.351   0.321   2.470  0.9806  1.6881 -0.1247
 1552TIP3   OH2 4619   4.261   2.457   1.071 -0.3741 -0.7846 -0.0498
 1552TIP3    H1 4620   4.224   2.373   1.044  0.7038 -1.5008  0.6198
 1552TIP3    H2 4621   4.344   2.434   1.113 -0.6554  0.5150  1.2791
 1553TIP3   OH2 4622   4.418   5.139   3.776  0.3252  0.2231  0.3088
 1553TIP3    H1 4623   4.395   5.058   3.729  0.1272  0.9817 -0.9454
 1553TIP3    H2 4624   4.334   5.184   3.788  0.6779  1.3891 -1.2362
 1554TIP3   OH2 4625   6.069   3.317   1.616  0.2842  0.6160  0.5565
 1554TIP3    H1 4626   6.061   3.379   1.543  0.2718  0.4514  0.4160
 1554TIP3    H2 4627   6.158   3.329   1.648 -0.4226  2.3526  2.0289
 1555TIP3   OH2 4628   2.359   3.553   1.361  0.4433 -0.8499 -0.2716
 1555TIP3    H1 4629   2.304   3.553   1.282 -0.2944 -0.4019  0.2280
 1555TIP3    H2 4630   2.406   3.636   1.358 -0.1039 -0.5211  0.1041
 1556TIP3   OH2 4631   6.671   6.348   2.813 -0.2149  0.2322 -0.3797
 1556TIP3    H1 4632   6.652   6.442   2.811 -0.2822  0.2353  0.2562
 1556TIP3    H2 4633   6.667   6.321   2.721  2.2261  1.3039 -0.8723
 1557TIP3   OH2 4634   4.093   5.610   1.798  0.2747  0.6313 -0.1049
 1557TIP3    H1 4635   4.015   5.566   1.762  0.4569  0.3788 -0.1975
 1557TIP3    H2 4636   4.164   5.548   1.781  0.3572  0.4939  0.7367
 1558TIP3   OH2 4637   0.830   2.815   3.505 -0.1356  0.2978 -0.4426
 1558TIP3    H1 4638   0.878   2.732   3.517  0.1200  0.1658 -2.1545
 1558TIP3    H2 4639   0.771   2.819   3.580  0.3973 -1.0635  0.0852
 1559TIP3   OH2 4640   3.273   4.606   1.871 -0.1529 -0.2175  0.1682
 1559TIP3    H1 4641   3.264   4.687   1.922 -1.6936 -0.8245  0.9429
 1559TIP3    H2 4642   3.344   4.559   1.914 -1.8602 -1.0228  2.3260
 1560TIP3   OH2 4643   3.453   4.891   0.989 -0.1404  0.0667  0.0314
 1560TIP3    H1 4644   3.388   4.862   0.924 -0.8656  0.2660  0.6553
 1560TIP3    H2 4645   3.500   4.962   0.945  1.6688 -1.9350 -1.5333
 1561TIP3   OH2 4646   4.087   0.723   0.888  0.6839  0.0408  0.1949
 1561TIP3    H1 4647   4.053   0.655   0.946 -1.6810 -1.1854 -2.4012
 1561TIP3    H2 4648   4.053   0.804   0.924  0.5353 -0.5194  1.3644
 1562TIP3   OH2 4649   6.143   3.370   5.872  0.0454  0.6105 -0.1040
 1562TIP3    H1 4650   6.172   3.398   5.785 -1.2769  1.4471 -0.3057
 1562TIP3    H2 4651   6.219   3.387   5.929  0.8001  0.3898 -1.0205
 1563TIP3   OH2 4652   0.988   4.276   3.319 -0.2265 -0.2455 -0.0142
 1563TIP3    H1 4653   0.957   4.365   3.335 -0.2860 -0.6955  2.8145
 1563TIP3    H2 4654   1.053   4.285   3.250  0.5196  2.1658  0.9141
 1564TIP3   OH2 4655   6.696   4.923   2.615  0.0071  0.2237 -0.1521
 1564TIP3    H1 4656   6.711   4.830   2.634 -0.5066  0.2217  0.2816
 1564TIP3    H2 4657   6.605   4.926   2.584  0.1324  0.5356 -0.4890
 1565TIP3   OH2 4658   4.646   6.397   3.500 -0.1282 -0.4153 -0.0592
 1565TIP3    H1 4659   4.582   6.447   3.551 -2.4203 -3.3452  0.2084
 1565TIP3    H2 4660   4.722   6.389   3.557 -1.2210 -0.4828  1.4601
 1566TIP3   OH2 4661   5.454   0.557   0.584  0.7207  0.7501  0.6616
 1566TIP3    H1 4662   5.464   0.641   0.540  0.3161  0.6129  0.3127
 1566TIP3    H2 4663   5.401   0.576   0.661 -0.7475  0.5327 -0.2686
 1567TIP3   OH2 4664   6.208   0.649   1.239  0.0249 -0.3105 -0.9737
 1567TIP3    H1 4665   6.156   0.694   1.305 -0.5648 -2.6771  0.3142
 1567TIP3    H2 4666   6.144   0.598   1.189  0.8087 -1.3672 -0.9484
 1568TIP3   OH2 4667   3.947   0.162   2.544  0.1887  0.2451  0.0179
 1568TIP3    H1 4668   3.883   0.217   2.589 -0.9419 -2.3221  1.7398
 1568TIP3    H2 4669   4.007   0.133   2.612  0.5368 -0.9413 -0.7530
 1569TIP3   OH2 4670   4.772   4.415   1.804 -0.1236  0.2388  0.0017
 1569TIP3    H1 4671   4.857   4.430   1.846  0.3803  0.9909 -1.2215
 1569TIP3    H2 4672   4.730   4.501   1.805  1.0155  0.9850 -3.3131
 1570TIP3   OH2 4673   3.327   1.187   3.909  0.3303  0.0530 -0.7304
 1570TIP3    H1 4674   3.361   1.266   3.868  0.7274 -0.9280 -2.4103
 1570TIP3    H2 4675   3.233   1.189   3.893 -0.1562  1.5848  1.8226
 1571TIP3   OH2 4676   0.884   5.990   4.894  0.4012 -0.0445 -0.0473
 1571TIP3    H1 4677   0.875   5.977   4.800 -1.1447 -0.1304  0.0872
 1571TIP3    H2 4678   0.943   6.065   4.902 -0.5374  0.8604 -1.1438
 1572TIP3   OH2 4679   1.285   4.840   0.982  0.1002 -0.0176 -0.7176
 1572TIP3    H1 4680   1.333   4.882   0.912  0.7267 -0.9582 -0.8758
 1572TIP3    H2 4681   1.216   4.902   1.006 -0.4376  0.1112 -2.4964
 1573TIP3   OH2 4682   5.051   6.284   0.455 -0.1251  0.1321 -0.0110
 1573TIP3    H1 4683   5.020   6.250   0.371  0.1482 -0.6729  0.2095
 1573TIP3    H2 4684   4.976   6.274   0.514  0.4221 -1.5051  0.4371
 1574TIP3   OH2 4685   4.872   5.021   0.328  0.4112  0.6298 -0.3990
 1574TIP3    H1 4686   4.955   4.993   0.367  0.6345  1.1728 -0.4754
 1574TIP3    H2 4687   4.882   5.004   0.235  0.1231 -0.0631 -0.3097
 1575TIP3   OH2 4688   5.561   2.514   3.018 -0.1581  0.0617  0.4757
 1575TIP3    H1 4689   5.629   2.532   3.084  0.7892 -1.4157 -0.0465
 1575TIP3    H2 4690   5.560   2.592   2.963  0.4850  0.4769  1.0309
 1576TIP3   OH2 4691   2.599   2.400   1.187 -0.1248 -0.3362 -0.5491
 1576TIP3    H1 4692   2.595   2.348   1.106 -0.8286 -0.6249 -0.3320
 1576TIP3    H2 4693   2.519   2.451   1.187 -1.1043 -1.7656  0.9060
 1577TIP3   OH2 4694   6.909   0.091   5.747 -0.4777  0.0085  0.0782
 1577TIP3    H1 4695   6.929   0.172   5.793 -0.3409  0.0775 -0.1003
 1577TIP3    H2 4696   6.852   0.042   5.806 -0.6047  0.2612  0.1635
 1578TIP3   OH2 4697   2.122   6.176   4.438  0.1469  0.2759  0.5914
 1578TIP3    H1 4698   2.208   6.219   4.446  0.6555 -0.8135  1.2167
 1578TIP3    H2 4699   2.094   6.163   4.529 -0.7304  0.6800  0.3909
 1579TIP3   OH2 4700   5.450   4.279   3.240 -0.3464 -0.5480  0.3115
 1579TIP3    H1 4701   5.452   4.230   3.322  0.3997 -1.2710 -0.1192
 1579TIP3    H2 4702   5.360   4.269   3.208 -0.7774  0.1393  1.2537
 1580TIP3   OH2 4703   3.663   1.421   2.319  0.6110  0.0504  0.0160
 1580TIP3    H1 4704   3.664   1.392   2.410  1.0654  1.6295  0.5357
 1580TIP3    H2 4705   3.585   1.380   2.281  1.0000 -1.4981  0.7948
 1581TIP3   OH2 4706   2.251   5.319   1.421  0.0038 -0.2065  0.7543
 1581TIP3    H1 4707   2.264   5.227   1.395  0.4203  0.7556 -3.0999
 1581TIP3    H2 4708   2.333   5.344   1.463 -0.2695 -1.6552  2.2451
 1582TIP3   OH2 4709   5.220   0.129   0.450  0.4048 -0.2273  0.5428
 1582TIP3    H1 4710   5.229   0.099   0.541 -1.6001 -0.0330  0.8572
 1582TIP3    H2 4711   5.214   0.225   0.457  1.5976 -0.1057  0.0561
 1583TIP3   OH2 4712   0.843   5.954   0.689  0.0250 -0.0075  0.7163
 1583TIP3    H1 4713   0.852   5.995   0.775  0.0681 -1.3875  1.3827
 1583TIP3    H2 4714   0.927   5.912   0.673 -0.2861 -0.5271  0.4130
 1584TIP3   OH2 4715   4.128   3.983   1.918  0.6834 -0.0715 -0.2342
 1584TIP3    H1 4716   4.050   3.984   1.863 -0.8436  0.2622  1.8225
 1584TIP3    H2 4717   4.117   4.058   1.977  2.5193 -0.0708  0.1676
 1585TIP3   OH2 4718   2.209   0.458   3.289 -0.1928 -0.0779 -0.0376
 1585TIP3    H1 4719   2.258   0.531   3.327 -2.3020  1.0687  0.6782
 1585TIP3    H2 4720   2.183   0.405   3.365 -0.8852 -0.0950 -0.2759
 1586TIP3   OH2 4721   5.831   6.435   3.393 -0.8749 -0.0627 -0.0040
 1586TIP3    H1 4722   5.767   6.368   3.369 -1.5021  0.9220 -1.1551
 1586TIP3    H2 4723   5.900   6.427   3.328 -0.5807 -0.0668  0.3026
 1587TIP3   OH2 4724   0.325   2.880   4.880  0.0679 -0.1819  0.4755
 1587TIP3    H1 4725   0.413   2.862   4.914  0.6302 -0.5144 -1.0598
 1587TIP3    H2 4726   0.322   2.833   4.796 -1.8778 -0.8551  0.8810
 1588TIP3   OH2 4727   5.342   3.436   5.876 -0.2744  0.4613  0.6523
 1588TIP3    H1 4728   5.374   3.347   5.885 -0.9966  0.2699  1.3907
 1588TIP3    H2 4729   5.415   3.491   5.905  0.3194  0.1396 -0.1945
 1589TIP3   OH2 4730   3.902   4.018   0.254 -0.1130 -0.0444 -0.6245
 1589TIP3    H1 4731   3.989   3.980   0.241  1.2152  1.8777  1.7480
 1589TIP3    H2 4732   3.848   3.945   0.284  0.8030 -1.1430 -1.5279
 1590TIP3   OH2 4733   3.428   4.884   1.464  0.2863  0.4334 -0.4598
 1590TIP3    H1 4734   3.467   4.941   1.530 -0.0965  1.2235 -0.8957
 1590TIP3    H2 4735   3.451   4.795   1.491 -0.7447  0.6637  1.3234
 1591TIP3   OH2 4736   6.142   5.392   2.965 -0.1520 -0.3437 -0.2086
 1591TIP3    H1 4737   6.078   5.345   2.912  0.3891 -0.8415 -0.4176
 1591TIP3    H2 4738   6.210   5.328   2.985 -0.1913 -0.0849  0.8310
 1592TIP3   OH2 4739   5.757   1.934   5.197  0.5284 -0.6499 -0.0366
 1592TIP3    H1 4740   5.712   1.949   5.114  1.0001 -2.3224 -0.6173
 1592TIP3    H2 4741   5.813   2.011   5.208  0.0311 -0.1398 -0.9659
 1593TIP3   OH2 4742   2.364   2.524   5.420  0.1616 -0.1204 -0.0225
 1593TIP3    H1 4743   2.417   2.585   5.471 -0.8803  0.9248 -0.1563
 1593TIP3    H2 4744   2.387   2.438   5.455  0.6685  0.4399  1.0830
 1594TIP3   OH2 4745   6.973   2.341   3.237 -0.3324 -0.3975  0.4554
 1594TIP3    H1 4746   7.043   2.277   3.230  0.3996  0.3788  0.4705
 1594TIP3    H2 4747   7.008   2.409   3.294 -0.5847  0.6483 -0.5778
 1595TIP3   OH2 4748   5.431   5.699   5.118  0.2814  0.0379 -0.6233
 1595TIP3    H1 4749   5.455   5.639   5.189  0.3204 -0.9883 -1.4794
 1595TIP3    H2 4750   5.514   5.733   5.086  0.1958  1.6943  0.7934
 1596TIP3   OH2 4751   3.831   1.738   5.477 -0.2888  0.0746 -0.0711
 1596TIP3    H1 4752   3.783   1.676   5.533 -0.3754 -0.3423 -0.6023
 1596TIP3    H2 4753   3.782   1.739   5.395  0.6070 -0.3487 -0.6220
 1597TIP3   OH2 4754   4.941   5.802   4.467 -0.0395 -0.4171  0.0894
 1597TIP3    H1 4755   4.898   5.809   4.552  1.2068 -1.6297  0.8606
 1597TIP3    H2 4756   5.035   5.805   4.487  0.2716  0.3385 -1.3607
 1598TIP3   OH2 4757   2.873   3.616   2.988 -0.7528 -0.0548 -0.0414
 1598TIP3    H1 4758   2.814   3.691   2.995 -0.6379  0.0081  0.2503
 1598TIP3    H2 4759   2.955   3.654   2.956 -0.8380 -0.1292 -0.3592
 1599TIP3   OH2 4760   7.067   6.095   4.765  0.4256 -0.2979  0.4136
 1599TIP3    H1 4761   7.161   6.080   4.773  0.4553  0.5331  2.0532
 1599TIP3    H2 4762   7.043   6.055   4.681  2.3618  0.1751 -0.4067
 1600TIP3   OH2 4763   4.193   3.679   3.282  0.5168  0.0690 -0.0983
 1600TIP3    H1 4764   4.199   3.773   3.270  0.1096  0.0862 -0.1882
 1600TIP3    H2 4765   4.163   3.646   3.197  0.7203 -0.1494 -0.0883
 1601TIP3   OH2 4766   0.069   0.357   3.147 -0.0853  0.0910 -0.5026
 1601TIP3    H1 4767   0.086   0.450   3.130  1.4116 -0.0205  0.2240
 1601TIP3    H2 4768   0.145   0.312   3.111 -0.8353 -0.8759 -0.9210
 1602TIP3   OH2 4769   6.915   6.720   2.648 -0.3183  0.0243  0.1074
 1602TIP3    H1 4770   7.008   6.732   2.667 -0.3016  1.8201 -0.9159
 1602TIP3    H2 4771   6.906   6.742   2.556 -1.8202  0.1794  0.2672
 1603TIP3   OH2 4772   1.878   1.380   0.454  0.9575 -0.2538  0.3911
 1603TIP3    H1 4773   1.786   1.353   0.444  0.8937  0.6744 -2.2333
 1603TIP3    H2 4774   1.925   1.330   0.387  2.1571  0.2680  0.8123
 1604TIP3   OH2 4775   2.206   4.244   0.937 -0.0705  0.1459  0.4812
 1604TIP3    H1 4776   2.229   4.165   0.890 -0.3780  1.7769 -2.6552
 1604TIP3    H2 4777   2.288   4.270   0.981  0.4060 -1.0897  0.3720
 1605TIP3   OH2 4778   1.658   6.558   0.905 -0.3403 -0.3782 -0.8185
 1605TIP3    H1 4779   1.666   6.491   0.837  0.6368 -1.5193  0.3624
 1605TIP3    H2 4780   1.598   6.520   0.969 -1.0764  0.5897 -0.9171
 1606TIP3   OH2 4781   0.938   2.400   2.565  0.0298 -0.1062  0.3234
 1606TIP3    H1 4782   0.892   2.327   2.608 -1.3338  0.9766  0.7680
 1606TIP3    H2 4783   0.951   2.370   2.475 -1.4656 -0.5011  0.2152
 1607TIP3   OH2 4784   6.290   1.249   0.464 -0.4205  0.2379  0.7751
 1607TIP3    H1 4785   6.246   1.210   0.539 -1.9734  1.3463  0.4786
 1607TIP3    H2 4786   6.223   1.302   0.421  0.7580  0.6059 -0.6984
 1608TIP3   OH2 4787   6.481   1.688   0.429  0.4536 -0.1857 -0.4347
 1608TIP3    H1 4788   6.549   1.748   0.400  1.0512 -0.4899  0.3025
 1608TIP3    H2 4789   6.526   1.603   0.436 -0.4406 -0.8227 -1.7810
 1609TIP3   OH2 4790   6.251   1.789   2.322 -0.1540 -0.3635 -0.1435
 1609TIP3    H1 4791   6.310   1.854   2.283  0.0962 -0.6040 -0.1634
 1609TIP3    H2 4792   6.264   1.800   2.416  0.9815 -1.3768 -0.1540
 1610TIP3   OH2 4793   6.432   0.106   2.289 -0.4077  0.0371  0.6742
 1610TIP3    H1 4794   6.402   0.132   2.376 -2.2471  0.5358 -0.0728
 1610TIP3    H2 4795   6.459   0.188   2.247 -1.1399  0.0353  0.1875
 1611TIP3   OH2 4796   1.356   6.672   2.101  0.0479 -0.2949 -0.2143
 1611TIP3    H1 4797   1.319   6.758   2.082 -0.6823 -0.3383  0.9525
 1611TIP3    H2 4798   1.445   6.676   2.064 -0.0027  0.9212 -0.2420
 1612TIP3   OH2 4799   4.895   1.815   0.906 -0.8001  0.2910 -0.5223
 1612TIP3    H1 4800   4.918   1.826   0.998 -0.6646  0.4963 -0.5795
 1612TIP3    H2 4801   4.972   1.773   0.866 -1.8112 -2.1930 -0.0365
 1613TIP3   OH2 4802   5.974   3.517   3.915 -0.0025  0.0810 -0.4699
 1613TIP3    H1 4803   6.056   3.515   3.866  0.6216  0.3011  0.5210
 1613TIP3    H2 4804   5.907   3.495   3.851  0.8967 -0.7026 -1.1720
 1614TIP3   OH2 4805   1.301   1.819   2.332  0.0353  0.5325  0.8314
 1614TIP3    H1 4806   1.306   1.726   2.354  1.0981  0.2897 -0.2781
 1614TIP3    H2 4807   1.340   1.824   2.245  0.6476  2.1171  1.1683
 1615TIP3   OH2 4808   2.976   5.292   1.747 -0.0254 -0.4240  0.2480
 1615TIP3    H1 4809   3.066   5.301   1.716  0.0620 -0.6566  0.4371
 1615TIP3    H2 4810   2.976   5.330   1.835 -0.2696  0.2120 -0.0142
 1616TIP3   OH2 4811   2.148   5.767   3.099  0.4846 -0.9012 -0.4888
 1616TIP3    H1 4812   2.148   5.837   3.034  0.5100 -1.3093 -0.9374
 1616TIP3    H2 4813   2.129   5.810   3.182  0.6378 -0.3458 -0.7398
 1617TIP3   OH2 4814   4.194   0.104   1.855 -0.1851  0.1207  0.0854
 1617TIP3    H1 4815   4.238   0.070   1.777  2.6173  1.9713  0.7092
 1617TIP3    H2 4816   4.249   0.076   1.928  0.0029  2.5092  0.9340
 1618TIP3   OH2 4817   4.042   3.605   3.072  0.3549 -0.1355 -0.3550
 1618TIP3    H1 4818   3.949   3.601   3.050 -0.2448 -0.9208  1.9802
 1618TIP3    H2 4819   4.083   3.536   3.020 -0.6424 -0.7697 -0.3203
 1619TIP3   OH2 4820   2.715   3.690   5.565  0.1959  0.0045 -0.1799
 1619TIP3    H1 4821   2.696   3.607   5.609  0.4295 -0.0679 -0.2152
 1619TIP3    H2 4822   2.629   3.731   5.553  0.0918 -0.1743 -0.0505
 1620TIP3   OH2 4823   3.370   4.560   3.585 -0.1094  0.1777 -0.4587
 1620TIP3    H1 4824   3.275   4.551   3.600 -0.0082 -1.2151 -0.5602
 1620TIP3    H2 4825   3.379   4.563   3.490 -0.0210 -0.0428 -0.4569
 1621TIP3   OH2 4826   2.527   4.197   4.747 -0.0798  0.1485 -0.2351
 1621TIP3    H1 4827   2.434   4.219   4.735 -0.2374  0.6838  1.5723
 1621TIP3    H2 4828   2.566   4.279   4.778  1.2323  0.1993 -1.9089
 1622TIP3   OH2 4829   2.347   1.509   3.073  0.3105 -0.0383  0.5601
 1622TIP3    H1 4830   2.302   1.581   3.115  0.1507 -0.7147  1.5760
 1622TIP3    H2 4831   2.374   1.544   2.988 -1.3812  0.6353  0.2633
 1623TIP3   OH2 4832   2.939   5.175   0.593  0.4494 -0.1100 -0.1565
 1623TIP3    H1 4833   2.963   5.260   0.628  0.2897 -0.8723  1.9269
 1623TIP3    H2 4834   2.861   5.192   0.539  1.2482  1.2381 -0.9396
 1624TIP3   OH2 4835   6.210   4.287   5.239 -0.1999  0.7559 -0.4532
 1624TIP3    H1 4836   6.124   4.326   5.224 -1.3837 -1.1655  0.8693
 1624TIP3    H2 4837   6.197   4.194   5.220  1.1758  0.1917  1.1403
 1625TIP3   OH2 4838   4.145   4.248   0.157  0.5620 -0.1721 -0.7218
 1625TIP3    H1 4839   4.130   4.193   0.234 -1.3752  0.8593 -0.3127
 1625TIP3    H2 4840   4.240   4.245   0.144  0.9122 -0.5888  1.5610
 1626TIP3   OH2 4841   6.136   2.345   2.124  0.1769 -0.2910  0.5506
 1626TIP3    H1 4842   6.167   2.433   2.101 -0.1339 -0.4405 -0.4633
 1626TIP3    H2 4843   6.212   2.289   2.114  0.5389 -0.0713  1.7843
 1627TIP3   OH2 4844   5.389   3.276   3.704  0.8260 -0.5470  0.5594
 1627TIP3    H1 4845   5.329   3.215   3.748  1.1484 -1.2546  0.0428
 1627TIP3    H2 4846   5.337   3.315   3.634  1.3471 -2.3256 -0.8980
 1628TIP3   OH2 4847   2.401   1.869   0.140  0.4179  0.0818 -0.8087
 1628TIP3    H1 4848   2.461   1.794   0.142 -0.7953 -0.9262 -0.7945
 1628TIP3    H2 4849   2.319   1.835   0.176 -0.1015  1.4886 -0.5895
 1629TIP3   OH2 4850   4.775   4.731   4.364 -0.1676  0.7117  0.1191
 1629TIP3    H1 4851   4.796   4.676   4.288 -1.8739  0.8767 -0.5192
 1629TIP3    H2 4852   4.813   4.684   4.438 -0.7342 -0.8407 -0.5179
 1630TIP3   OH2 4853   1.531   0.994   2.927 -0.3065 -0.1648  0.9475
 1630TIP3    H1 4854   1.599   0.951   2.875 -1.0012 -0.0192 -0.1211
 1630TIP3    H2 4855   1.484   1.050   2.864 -1.0784  0.1293  1.7606
 1631TIP3   OH2 4856   4.770   3.429   2.160 -0.0241  0.2776 -0.4206
 1631TIP3    H1 4857   4.801   3.443   2.249  0.0875 -0.6385 -0.3113
 1631TIP3    H2 4858   4.722   3.509   2.139  0.8550  0.9520  0.0626
 1632TIP3   OH2 4859   6.295   1.906   2.547  0.1926  0.1376  0.5922
 1632TIP3    H1 4860   6.270   1.901   2.639 -1.2409 -1.2663  0.1780
 1632TIP3    H2 4861   6.293   2.000   2.526  0.0254  0.4256  1.8515
 1633TIP3   OH2 4862   5.100   3.460   3.035  0.0765 -0.2871 -0.0161
 1633TIP3    H1 4863   5.140   3.380   3.001  1.3340 -0.6840  2.1854
 1633TIP3    H2 4864   5.115   3.526   2.967  0.6190 -1.4912 -1.0941
 1634TIP3   OH2 4865   7.143   4.601   4.374  0.0320 -0.4709  0.2003
 1634TIP3    H1 4866   7.139   4.695   4.359  2.8711 -0.5466 -1.8712
 1634TIP3    H2 4867   7.053   4.575   4.391 -0.8607  2.5579  0.5992
 1635TIP3   OH2 4868   4.715   6.494   2.887  0.0686  0.2238 -0.2297
 1635TIP3    H1 4869   4.733   6.408   2.851  0.2173  0.9548 -2.0168
 1635TIP3    H2 4870   4.626   6.489   2.921  0.3824 -0.8506  0.4800
 1636TIP3   OH2 4871   6.473   4.881   0.479  0.8468  0.4669 -0.1253
 1636TIP3    H1 4872   6.539   4.891   0.548 -0.8480 -0.1031  1.6935
 1636TIP3    H2 4873   6.463   4.786   0.469 -0.1171  0.5284  0.0987
 1637TIP3   OH2 4874   4.183   3.123   1.830  0.8915  0.4957  0.0196
 1637TIP3    H1 4875   4.239   3.197   1.810  0.9690  0.2177 -0.8315
 1637TIP3    H2 4876   4.146   3.097   1.746 -0.0516  0.2989  0.4793
 1638TIP3   OH2 4877   3.666   1.296   5.417 -0.1973 -0.0235 -0.0346
 1638TIP3    H1 4878   3.752   1.336   5.431 -1.3097  3.0188 -1.1061
 1638TIP3    H2 4879   3.631   1.285   5.505  0.5043  0.5828  0.3344
 1639TIP3   OH2 4880   0.236   6.566   2.598  1.0788  0.8275 -0.0195
 1639TIP3    H1 4881   0.287   6.549   2.677  2.7811  3.7654 -0.3349
 1639TIP3    H2 4882   0.236   6.482   2.551  0.6611 -0.7858  2.6703
 1640TIP3   OH2 4883   1.229   0.679   5.453 -0.2102 -0.6833 -0.1793
 1640TIP3    H1 4884   1.161   0.741   5.482 -0.6941 -1.6296  0.7732
 1640TIP3    H2 4885   1.180   0.603   5.421  0.3907 -0.9935 -0.3682
 1641TIP3   OH2 4886   5.387   3.425   2.681 -0.0934 -0.1934 -0.4274
 1641TIP3    H1 4887   5.333   3.414   2.602 -1.1911  0.5654  0.1836
 1641TIP3    H2 4888   5.336   3.485   2.736  2.3538  2.3435 -0.7251
 1642TIP3   OH2 4889   4.877   4.943   1.875 -0.5170 -0.6223  0.5422
 1642TIP3    H1 4890   4.784   4.919   1.867 -1.3636  2.7397 -3.7336
 1642TIP3    H2 4891   4.887   4.971   1.966 -3.9575 -0.3389  0.9867
 1643TIP3   OH2 4892   5.337   1.730   1.628  0.0758  0.0634  0.3024
 1643TIP3    H1 4893   5.372   1.784   1.698 -0.0665 -0.8771  1.1126
 1643TIP3    H2 4894   5.374   1.769   1.548  1.6701  0.0858  1.0052
 1644TIP3   OH2 4895   0.979   1.390   4.624 -0.2144 -0.0947  0.4087
 1644TIP3    H1 4896   0.970   1.482   4.648  0.1351 -0.4661  2.0377
 1644TIP3    H2 4897   0.891   1.362   4.601 -0.4819  0.3955  0.8276
 1645TIP3   OH2 4898   0.073   3.960   1.264 -0.0243 -0.3269 -0.4680
 1645TIP3    H1 4899   0.045   3.890   1.205 -0.0337 -0.6576 -0.0770
 1645TIP3    H2 4900   0.152   3.926   1.306 -0.6979 -0.6106  0.6206
 1646TIP3   OH2 4901   2.540   4.199  -0.003 -0.8634  0.0803 -0.6990
 1646TIP3    H1 4902   2.474   4.159   0.054 -0.2312  1.2157  0.8954
 1646TIP3    H2 4903   2.620   4.151   0.018 -0.4137  1.1675  0.1537
 1647TIP3   OH2 4904   6.705   1.176   2.422  0.2376  1.1162  0.4148
 1647TIP3    H1 4905   6.712   1.118   2.346  2.4857  0.0337  1.3431
 1647TIP3    H2 4906   6.643   1.132   2.480  0.2952  0.7611  0.2087
 1648TIP3   OH2 4907   5.764   3.997   5.486  0.4398 -0.0120 -0.2044
 1648TIP3    H1 4908   5.831   4.063   5.503  2.0967 -1.5599 -0.4318
 1648TIP3    H2 4909   5.695   4.016   5.550  0.8580  1.9008 -0.2593
 1649TIP3   OH2 4910   0.466   6.686   3.121  0.4000 -0.1380 -0.0589
 1649TIP3    H1 4911   0.500   6.774   3.102 -2.7791  0.9609 -1.2474
 1649TIP3    H2 4912   0.414   6.663   3.044 -0.3655 -2.2896  1.0232
 1650TIP3   OH2 4913   5.423   4.481   4.876 -0.6312 -0.3966  0.1078
 1650TIP3    H1 4914   5.415   4.568   4.838 -1.0847 -1.1244 -1.5624
 1650TIP3    H2 4915   5.515   4.474   4.900 -0.6789  0.6856  0.6726
 1651TIP3   OH2 4916   3.793   3.751   0.957 -0.1528 -0.4209 -0.0435
 1651TIP3    H1 4917   3.747   3.669   0.974  0.0935 -0.7484 -0.9325
 1651TIP3    H2 4918   3.749   3.789   0.881  1.4232 -1.0762 -1.3510
 1652TIP3   OH2 4919   2.405   0.650   5.293 -0.4017  0.2116  0.0428
 1652TIP3    H1 4920   2.490   0.683   5.264 -0.1796  0.0675  0.5172
 1652TIP3    H2 4921   2.345   0.724   5.282  0.2610  1.0770  1.8869
 1653TIP3   OH2 4922   0.622   0.957   0.772 -0.2469 -0.4455 -0.0504
 1653TIP3    H1 4923   0.713   0.938   0.749 -0.1106 -0.3609  0.4131
 1653TIP3    H2 4924   0.617   0.942   0.866 -0.9535 -1.3959 -0.2232
 1654TIP3   OH2 4925   5.226   4.935   1.830  0.0737  0.4738 -0.7967
 1654TIP3    H1 4926   5.183   4.966   1.909  0.1819  0.0146 -0.5576
 1654TIP3    H2 4927   5.159   4.940   1.762 -0.5711 -0.8712 -0.2926
 1655TIP3   OH2 4928   2.432   4.880   3.725 -0.6311 -0.1356  0.0135
 1655TIP3    H1 4929   2.402   4.789   3.731 -0.8208 -0.0709  0.0297
 1655TIP3    H2 4930   2.418   4.905   3.634 -0.0745 -0.2971 -0.1233
 1656TIP3   OH2 4931   1.068   2.322   4.816  0.0856  0.4385  0.2732
 1656TIP3    H1 4932   0.976   2.296   4.819 -0.1482  1.2380  0.1071
 1656TIP3    H2 4933   1.114   2.251   4.861 -0.6126  0.0471  0.3798
 1657TIP3   OH2 4934   1.760   3.021   2.772  0.2093 -0.1845  0.1154
 1657TIP3    H1 4935   1.845   3.065   2.780 -0.1060  0.5236 -0.3921
 1657TIP3    H2 4936   1.769   2.943   2.828  1.4764 -0.5569 -0.5573
 1658TIP3   OH2 4937   2.964   5.245   4.957 -0.5123 -0.0294 -0.1565
 1658TIP3    H1 4938   2.965   5.151   4.977 -1.6210 -0.5369 -2.1334
 1658TIP3    H2 4939   3.029   5.256   4.888 -1.4441  0.3176 -1.0242
 1659TIP3   OH2 4940   4.844   3.654   3.692 -0.2097  0.6097 -0.5590
 1659TIP3    H1 4941   4.865   3.721   3.756  1.9342  0.0413 -0.5928
 1659TIP3    H2 4942   4.759   3.619   3.720  0.2490  0.9807  1.4459
 1660TIP3   OH2 4943   2.028   6.663   3.678  0.3071  0.4168  0.6098
 1660TIP3    H1 4944   1.973   6.696   3.607  0.0430 -1.8047 -0.2809
 1660TIP3    H2 4945   1.994   6.706   3.756 -1.0772  0.9570 -0.2504
 1661TIP3   OH2 4946   3.292   3.785   4.086  0.3835  0.0410  0.3309
 1661TIP3    H1 4947   3.328   3.705   4.124  1.4289 -0.1375 -0.9678
 1661TIP3    H2 4948   3.198   3.768   4.080  0.5073 -0.8241  0.6649
 1662TIP3   OH2 4949   7.059   3.164   4.162 -0.2213  0.0891  0.3165
 1662TIP3    H1 4950   7.094   3.134   4.246 -0.8153  1.2399  1.0007
 1662TIP3    H2 4951   6.971   3.126   4.159 -0.1230 -0.1248  0.1083
 1663TIP3   OH2 4952   1.587   4.646   2.480 -0.5262 -0.3326 -0.0515
 1663TIP3    H1 4953   1.498   4.649   2.513 -0.3015  0.3352  0.5005
 1663TIP3    H2 4954   1.635   4.593   2.543 -0.6906 -1.3536 -0.7567
 1664TIP3   OH2 4955   3.079   3.215   0.331  0.1011  0.4956  0.0274
 1664TIP3    H1 4956   3.104   3.123   0.329  0.0392  0.2422  3.7475
 1664TIP3    H2 4957   3.146   3.260   0.279  1.4947 -1.3843  0.1138
 1665TIP3   OH2 4958   5.916   2.849   4.281 -0.0527  0.2964  0.5057
 1665TIP3    H1 4959   5.931   2.812   4.194  2.1837 -3.3572  2.2269
 1665TIP3    H2 4960   5.826   2.824   4.302 -0.4397  0.7718 -0.5003
 1666TIP3   OH2 4961   1.270   4.667   3.143 -0.1129 -0.6234 -0.1599
 1666TIP3    H1 4962   1.206   4.697   3.078  1.1826  0.2360 -1.0825
 1666TIP3    H2 4963   1.328   4.609   3.095  0.9499  0.1344  0.1620
 1667TIP3   OH2 4964   2.512   6.195   2.813  0.1923 -0.4249  0.1731
 1667TIP3    H1 4965   2.433   6.241   2.844  0.7880  0.6346  0.1641
 1667TIP3    H2 4966   2.500   6.105   2.844 -0.2154  0.1168  1.7003
 1668TIP3   OH2 4967   7.190   2.873   1.179  0.1521  0.0003  0.8389
 1668TIP3    H1 4968   7.134   2.899   1.106  1.1758  1.9702  0.6940
 1668TIP3    H2 4969   7.136   2.884   1.257  0.6485  3.2631  0.8430
 1669TIP3   OH2 4970   0.412   4.747   0.032  0.2410  0.2935 -0.3175
 1669TIP3    H1 4971   0.343   4.684   0.011  0.1936 -0.3862  1.6943
 1669TIP3    H2 4972   0.493   4.702   0.009  0.1050  0.7804 -1.9060
 1670TIP3   OH2 4973   2.454   2.365   4.452 -0.0878 -1.1110 -0.1639
 1670TIP3    H1 4974   2.361   2.386   4.463 -0.2587 -1.6232 -0.6021
 1670TIP3    H2 4975   2.475   2.309   4.526  0.0333 -0.4959  0.2758
 1671TIP3   OH2 4976   4.233   3.042   5.072  0.1262 -0.1049 -0.5581
 1671TIP3    H1 4977   4.289   3.118   5.056  1.7039 -0.6755  1.6143
 1671TIP3    H2 4978   4.283   2.967   5.038  0.4705 -0.5568  0.8592
 1672TIP3   OH2 4979   5.698   6.204   3.322 -0.0626  0.3395  0.0252
 1672TIP3    H1 4980   5.608   6.177   3.307 -0.0604 -0.3051  1.0583
 1672TIP3    H2 4981   5.737   6.208   3.235 -0.3925 -1.8449 -0.2661
 1673TIP3   OH2 4982   4.038   4.949   0.491  0.1238  0.3197 -0.3925
 1673TIP3    H1 4983   4.077   4.877   0.541 -2.2090 -0.2799  0.7043
 1673TIP3    H2 4984   4.039   4.917   0.400 -0.9460 -1.1858  0.0836
 1674TIP3   OH2 4985   4.477   6.213   4.676  0.0890  0.0217  0.1278
 1674TIP3    H1 4986   4.453   6.291   4.626  0.7931 -0.4977 -1.0548
 1674TIP3    H2 4987   4.394   6.168   4.692 -0.0671 -0.3322 -1.4976
 1675TIP3   OH2 4988   6.574   3.946   0.794 -0.1687 -0.3769  0.0512
 1675TIP3    H1 4989   6.573   3.935   0.699 -2.7409  0.5309 -0.1284
 1675TIP3    H2 4990   6.580   3.857   0.829  1.0333 -0.7004 -0.9242
 1676TIP3   OH2 4991   3.260   2.643   0.446 -0.2680  0.0200  0.0282
 1676TIP3    H1 4992   3.317   2.573   0.415  0.6790  1.5125 -1.8070
 1676TIP3    H2 4993   3.275   2.646   0.541  1.4953 -0.6735 -0.2007
 1677TIP3   OH2 4994   1.850   1.844   0.108 -0.3942 -0.1020 -0.4732
 1677TIP3    H1 4995   1.887   1.797   0.033  1.1134  0.1698  0.0667
 1677TIP3    H2 4996   1.833   1.776   0.172 -2.5206 -0.4569 -1.3289
 1678TIP3   OH2 4997   5.301   4.421   5.818  0.0549  0.1334 -0.0095
 1678TIP3    H1 4998   5.389   4.457   5.825  0.7461 -1.5976  0.7290
 1678TIP3    H2 4999   5.244   4.490   5.850  1.1581  1.1679 -0.1945
 1679TIP3   OH2 5000   1.970   1.896   2.895 -0.1034 -0.7991 -0.3162
 1679TIP3    H1 5001   2.055   1.852   2.895 -0.3295 -1.2430  0.2303
 1679TIP3    H2 5002   1.981   1.970   2.835  0.6374 -0.9114 -0.3220
 1680TIP3   OH2 5003   6.011   4.402   3.556 -0.3816 -0.1806 -0.4679
 1680TIP3    H1 5004   5.922   4.419   3.525 -0.0899  0.6638 -0.8665
 1680TIP3    H2 5005   6.007   4.314   3.594 -1.5035  0.0426 -0.0330
 1681TIP3   OH2 5006   1.859   4.317   4.601 -0.1715  0.2326 -0.3349
 1681TIP3    H1 5007   1.867   4.337   4.508 -0.9172 -0.0220 -0.4599
 1681TIP3    H2 5008   1.818   4.231   4.604 -2.9694  1.4663  0.2069
 1682TIP3   OH2 5009   4.664   1.450   4.520 -0.2422  0.0951 -0.0939
 1682TIP3    H1 5010   4.607   1.441   4.444 -1.6106 -0.2783  0.9431
 1682TIP3    H2 5011   4.655   1.367   4.567 -0.2666  0.7231  1.0410
 1683TIP3   OH2 5012   5.238   1.895   0.373  0.3473 -0.4480  0.4219
 1683TIP3    H1 5013   5.245   1.988   0.394  0.2647  0.4360 -2.9170
 1683TIP3    H2 5014   5.181   1.859   0.441  0.5876  1.8419  1.9377
 1684TIP3   OH2 5015   4.650   1.344   1.637  0.4261 -0.3938 -0.4378
 1684TIP3    H1 5016   4.623   1.360   1.546  1.3481  1.3503 -0.4380
 1684TIP3    H2 5017   4.594   1.400   1.689  1.4728  0.4147 -0.1430
 1685TIP3   OH2 5018   1.398   5.576   3.297 -0.5626  0.5029  0.3677
 1685TIP3    H1 5019   1.392   5.522   3.218 -0.4755  0.3900  0.4377
 1685TIP3    H2 5020   1.412   5.513   3.368  0.9306  0.7021  0.2837
 1686TIP3   OH2 5021   2.102   1.508   5.727  0.3162  0.0860 -0.4357
 1686TIP3    H1 5022   2.146   1.432   5.765  0.1289 -0.3125 -0.9986
 1686TIP3    H2 5023   2.028   1.470   5.679 -1.1705  0.7788  1.1932
 1687TIP3   OH2 5024   2.811   0.712   5.787 -0.1203 -0.1340  0.2960
 1687TIP3    H1 5025   2.889   0.767   5.778 -0.3353  0.5357  2.0078
 1687TIP3    H2 5026   2.744   0.756   5.736  0.2932 -0.0102 -0.1401
 1688TIP3   OH2 5027   0.858   5.056   4.202 -0.1308  0.7415 -0.0297
 1688TIP3    H1 5028   0.878   4.981   4.258  0.0595 -0.3095 -1.4554
 1688TIP3    H2 5029   0.921   5.123   4.228  1.3165 -0.4358 -0.3514
 1689TIP3   OH2 5030   5.834   4.188   2.965 -0.7553  0.0244  0.0551
 1689TIP3    H1 5031   5.769   4.208   2.898 -0.0911 -1.4862 -1.0867
 1689TIP3    H2 5032   5.917   4.187   2.919 -0.2154 -0.5606  1.0113
 1690TIP3   OH2 5033   1.863   0.687   5.374  0.0733  0.0841 -0.1969
 1690TIP3    H1 5034   1.818   0.684   5.458 -0.8555 -0.3097 -0.6967
 1690TIP3    H2 5035   1.794   0.698   5.309  0.6689 -0.6355 -0.9911
 1691TIP3   OH2 5036   4.084   0.552   2.905 -0.4505  0.2975 -0.3551
 1691TIP3    H1 5037   4.097   0.573   2.813  0.1462 -1.2510 -0.6588
 1691TIP3    H2 5038   3.999   0.508   2.908  0.3400 -1.3069 -0.4967
 1692TIP3   OH2 5039   2.078   2.450   5.842  0.2740 -0.2372 -0.3255
 1692TIP3    H1 5040   2.096   2.523   5.782  2.6285  2.4525  3.2439
 1692TIP3    H2 5041   2.156   2.395   5.837  0.0632 -0.5338 -0.3824
 1693TIP3   OH2 5042   3.692   4.716   5.186 -0.1625 -0.3089 -0.7198
 1693TIP3    H1 5043   3.713   4.626   5.210 -0.0966 -0.4878 -1.4308
 1693TIP3    H2 5044   3.596   4.719   5.188 -0.1788 -0.5184 -1.1292
 1694TIP3   OH2 5045   2.929   6.184   4.932  0.0416  0.5216  0.0692
 1694TIP3    H1 5046   2.923   6.140   4.847 -5.0401  0.3454  0.1752
 1694TIP3    H2 5047   2.926   6.114   4.996  0.4015  0.7539  0.3408
 1695TIP3   OH2 5048   3.216   3.293   3.940  0.2075 -0.2686  0.0338
 1695TIP3    H1 5049   3.310   3.296   3.924  0.4262 -1.8323  0.8192
 1695TIP3    H2 5050   3.199   3.370   3.993  1.2744 -0.5615  0.8458
 1696TIP3   OH2 5051   0.420   4.392   1.471 -0.3172 -0.4567  0.7534
 1696TIP3    H1 5052   0.349   4.328   1.485 -0.9180  0.1987  0.7748
 1696TIP3    H2 5053   0.374   4.475   1.455  0.4561  0.0986  1.3555
 1697TIP3   OH2 5054   0.758   2.064   0.538 -0.9202 -0.3932  0.3155
 1697TIP3    H1 5055   0.765   1.969   0.530  2.0014 -0.1965 -0.2496
 1697TIP3    H2 5056   0.825   2.088   0.601 -3.8443  1.0681  3.1620
 1698TIP3   OH2 5057   2.227   2.035   3.770  0.6752 -0.0629  0.2284
 1698TIP3    H1 5058   2.141   2.077   3.765  0.6429 -0.0355  0.8836
 1698TIP3    H2 5059   2.282   2.099   3.815  0.9900 -0.1577 -0.0233
 1699TIP3   OH2 5060   6.488   0.388   3.245  0.3667  0.2176  0.0199
 1699TIP3    H1 5061   6.563   0.337   3.215 -0.0785  0.0030 -0.7510
 1699TIP3    H2 5062   6.448   0.334   3.313  1.1178  0.5017  0.7084
 1700TIP3   OH2 5063   2.601   3.282   1.294 -0.1449  0.5012  0.3857
 1700TIP3    H1 5064   2.670   3.226   1.329 -0.1008 -0.0905 -0.6024
 1700TIP3    H2 5065   2.584   3.248   1.206 -0.8731  1.3735  0.1631
 1701TIP3   OH2 5066   0.996   5.364   0.279 -0.2740 -0.2191  0.3662
 1701TIP3    H1 5067   1.037   5.281   0.255  0.6130  0.2383  0.2591
 1701TIP3    H2 5068   0.983   5.358   0.374 -0.9232 -0.7763  0.2540
 1702TIP3   OH2 5069   0.310   5.880   5.046 -0.6349 -0.2132  0.0169
 1702TIP3    H1 5070   0.299   5.877   4.951 -0.0843  3.0266 -0.2704
 1702TIP3    H2 5071   0.395   5.840   5.061  1.7311  3.5766 -1.6306
 1703TIP3   OH2 5072   2.092   4.138   5.685  0.8027  0.1630 -0.0164
 1703TIP3    H1 5073   2.001   4.157   5.660  0.3815 -0.1766  1.1647
 1703TIP3    H2 5074   2.109   4.199   5.757  1.4960  0.1886 -0.2020
 1704TIP3   OH2 5075   2.300   5.048   5.318 -0.2991 -0.0350 -0.2628
 1704TIP3    H1 5076   2.346   5.097   5.250  0.7205  0.7757  0.9613
 1704TIP3    H2 5077   2.369   4.997   5.361 -0.3879  1.5084  1.8784
 1705TIP3   OH2 5078   6.448   2.277   3.372  0.3596 -0.5984  0.3331
 1705TIP3    H1 5079   6.530   2.308   3.334 -0.3108  0.2469 -0.4997
 1705TIP3    H2 5080   6.462   2.280   3.466  1.0720  0.1502  0.2130
 1706TIP3   OH2 5081   4.341   1.755   5.379 -0.1788  0.4802 -0.4575
 1706TIP3    H1 5082   4.266   1.735   5.435 -0.0061  1.8527  0.3205
 1706TIP3    H2 5083   4.382   1.670   5.362 -1.1073 -0.1273  0.2667
 1707TIP3   OH2 5084   5.202   1.462   2.210  0.4360  0.7172  0.5639
 1707TIP3    H1 5085   5.132   1.466   2.276  0.4176 -1.9714  0.7957
 1707TIP3    H2 5086   5.256   1.388   2.237  0.5394 -0.3760 -2.3490
 1708TIP3   OH2 5087   0.452   3.123   0.517  0.2456  0.2128 -0.1571
 1708TIP3    H1 5088   0.466   3.092   0.428  0.1819 -0.7889  0.1773
 1708TIP3    H2 5089   0.517   3.077   0.570 -0.0553  0.4054  0.3929
 1709TIP3   OH2 5090   5.464   0.682   2.844 -0.6711  0.1266 -0.0316
 1709TIP3    H1 5091   5.512   0.658   2.923 -0.9116 -0.0659  0.0597
 1709TIP3    H2 5092   5.372   0.672   2.869 -0.7966 -3.4573 -1.3682
 1710TIP3   OH2 5093   5.311   0.568   2.232 -0.3636 -0.0728 -0.5283
 1710TIP3    H1 5094   5.303   0.609   2.319  1.3500  0.8241 -0.7494
 1710TIP3    H2 5095   5.224   0.576   2.194 -1.2597 -0.8045  1.2345
 1711TIP3   OH2 5096   5.254   6.460   5.042 -0.3892 -0.0931  0.2405
 1711TIP3    H1 5097   5.161   6.463   5.067 -0.0946  1.6683  1.2666
 1711TIP3    H2 5098   5.253   6.473   4.947 -1.1510  0.8485  0.3692
 1712TIP3   OH2 5099   5.907   2.677   2.295 -0.7188  0.9609 -0.3739
 1712TIP3    H1 5100   6.001   2.680   2.308 -0.7096  1.6225 -0.5494
 1712TIP3    H2 5101   5.871   2.729   2.367 -0.8716  1.7442 -1.0106
 1713TIP3   OH2 5102   7.236   2.731   4.335 -0.2242 -0.4170  0.0852
 1713TIP3    H1 5103   7.227   2.779   4.417 -1.2987 -1.1017  0.3789
 1713TIP3    H2 5104   7.162   2.670   4.334 -0.1583 -0.4995 -1.3360
 1714TIP3   OH2 5105   5.819   1.409   1.700 -0.4048 -0.1317 -0.4667
 1714TIP3    H1 5106   5.792   1.346   1.633  0.4866  0.2796 -1.2263
 1714TIP3    H2 5107   5.848   1.485   1.650 -0.9737  0.6882  0.4287
 1715TIP3   OH2 5108   1.404   4.562   5.207 -0.2440 -0.8629  0.0980
 1715TIP3    H1 5109   1.402   4.544   5.301  2.2498 -2.5765 -0.0822
 1715TIP3    H2 5110   1.425   4.656   5.201 -1.9480 -0.3552  1.1663
 1716TIP3   OH2 5111   2.278   2.551   1.124  0.1270  0.1754 -0.5287
 1716TIP3    H1 5112   2.287   2.460   1.097  0.0969 -0.4205  1.3182
 1716TIP3    H2 5113   2.312   2.553   1.213 -1.3715  1.6255  0.0713
 1717TIP3   OH2 5114   3.242   2.792   5.658  0.1121  0.0037 -0.1852
 1717TIP3    H1 5115   3.223   2.791   5.564  0.0351 -0.5670 -0.1668
 1717TIP3    H2 5116   3.332   2.824   5.664 -0.0883  0.6092 -0.4153
 1718TIP3   OH2 5117   5.275   3.349   0.923 -0.7580 -0.0897 -0.5827
 1718TIP3    H1 5118   5.251   3.354   0.831 -3.1228 -1.0687 -0.0994
 1718TIP3    H2 5119   5.194   3.367   0.970 -0.2464 -2.1477  1.2645
 1719TIP3   OH2 5120   2.742   2.769   5.366 -0.1811 -0.2520 -0.6306
 1719TIP3    H1 5121   2.750   2.723   5.449  1.3488  0.1969 -0.4900
 1719TIP3    H2 5122   2.648   2.775   5.351 -0.4755 -3.1067 -0.5167
 1720TIP3   OH2 5123   6.118   2.236   1.632  0.3430  0.1778 -0.2424
 1720TIP3    H1 5124   6.061   2.180   1.580 -0.9995 -0.2273  1.5683
 1720TIP3    H2 5125   6.148   2.303   1.571 -0.5082 -0.7277 -1.7090
 1721TIP3   OH2 5126   2.919   1.556   5.351 -0.4668 -0.3429 -0.2733
 1721TIP3    H1 5127   2.965   1.497   5.290 -0.3520  0.6674 -1.1975
 1721TIP3    H2 5128   2.948   1.643   5.326  0.5435  0.0641  2.0507
 1722TIP3   OH2 5129   2.138   1.520   1.560 -0.6010  0.2855  0.0890
 1722TIP3    H1 5130   2.148   1.546   1.652 -0.7749 -0.2287  0.2616
 1722TIP3    H2 5131   2.213   1.462   1.543  0.5443  1.9248 -0.6922
 1723TIP3   OH2 5132   4.320   4.549   3.686  0.2188  0.1086  0.1540
 1723TIP3    H1 5133   4.231   4.565   3.655  0.0056 -1.1613  0.0211
 1723TIP3    H2 5134   4.372   4.621   3.652  0.0707 -1.2699 -3.4656
 1724TIP3   OH2 5135   5.743   0.361   0.027  0.2604  0.5737 -0.3621
 1724TIP3    H1 5136   5.711   0.434   0.079 -0.9619  0.3384 -0.7576
 1724TIP3    H2 5137   5.790   0.305   0.089  0.4350  1.2356  0.1077
 1725TIP3   OH2 5138   6.555   2.441   1.938  0.2451  0.1888 -1.0622
 1725TIP3    H1 5139   6.509   2.379   1.882  0.6530 -1.1742  0.0464
 1725TIP3    H2 5140   6.593   2.505   1.878 -1.5118  0.2935 -2.1342
 1726TIP3   OH2 5141   6.591   4.279   1.322  0.1370 -0.2730 -0.7326
 1726TIP3    H1 5142   6.659   4.334   1.360 -0.4901 -0.3199  0.5173
 1726TIP3    H2 5143   6.613   4.190   1.351 -1.4223 -0.0807  1.2997
 1727TIP3   OH2 5144   4.887   4.151   2.099 -0.3121  0.8861  0.0199
 1727TIP3    H1 5145   4.920   4.128   2.186  0.8030  1.8114 -0.1326
 1727TIP3    H2 5146   4.964   4.183   2.052 -0.7936 -0.0686 -1.4940
 1728TIP3   OH2 5147   4.131   6.477   5.004  0.1265 -0.1160  0.3622
 1728TIP3    H1 5148   4.109   6.503   4.915 -0.9369 -1.6568  0.1358
 1728TIP3    H2 5149   4.052   6.497   5.055  0.9582  1.3909  1.1364
 1729TIP3   OH2 5150   0.039   3.979   4.810 -0.2593 -0.5106 -0.5036
 1729TIP3    H1 5151   0.049   4.015   4.722  0.8845 -1.2683 -0.7067
 1729TIP3    H2 5152   0.049   3.885   4.799 -1.3662 -0.7449  0.2805
 1730TIP3   OH2 5153   0.836   6.262   1.598  0.4278  0.1659 -0.7638
 1730TIP3    H1 5154   0.868   6.352   1.585 -1.2678  0.6721 -1.7598
 1730TIP3    H2 5155   0.769   6.271   1.667  1.9308 -0.7834  0.9133
 1731TIP3   OH2 5156   5.660   1.015   1.189  0.9421 -0.1091  0.1040
 1731TIP3    H1 5157   5.614   0.992   1.270 -1.0035 -0.8501 -1.1287
 1731TIP3    H2 5158   5.704   0.935   1.163 -1.6512 -1.1575 -1.5169
 1732TIP3   OH2 5159   1.635   4.464   2.695  0.0341 -0.3384  0.2626
 1732TIP3    H1 5160   1.584   4.477   2.775 -1.6742  0.7334 -0.9404
 1732TIP3    H2 5161   1.706   4.405   2.722 -1.2572 -1.1221  2.2326
 1733TIP3   OH2 5162   0.807   3.164   3.631 -0.3619 -0.1684  0.2950
 1733TIP3    H1 5163   0.852   3.097   3.682 -0.5455 -0.2126  0.3964
 1733TIP3    H2 5164   0.774   3.226   3.696 -0.4094 -0.1116  0.2172
 1734TIP3   OH2 5165   4.336   2.747   5.645 -0.8302 -0.2496 -0.1917
 1734TIP3    H1 5166   4.355   2.840   5.634  0.3122 -0.5199 -0.6668
 1734TIP3    H2 5167   4.352   2.710   5.558  0.5319 -1.1727  0.4199
 1735TIP3   OH2 5168   5.560   1.155   0.702  0.0434  0.1311 -0.8126
 1735TIP3    H1 5169   5.562   1.188   0.792 -2.9757 -0.2081 -0.4998
 1735TIP3    H2 5170   5.620   1.080   0.703  0.0940  0.1453  0.9320
 1736TIP3   OH2 5171   2.521   5.177   1.118 -0.0243  0.2802 -0.3340
 1736TIP3    H1 5172   2.488   5.090   1.098  1.5036 -0.2840 -0.5536
 1736TIP3    H2 5173   2.537   5.176   1.213  0.9299 -0.0452 -0.4845
 1737TIP3   OH2 5174   0.847   3.252   4.795  0.0669 -0.4897 -0.6449
 1737TIP3    H1 5175   0.756   3.226   4.810 -0.2731  1.2750  0.6595
 1737TIP3    H2 5176   0.841   3.330   4.739  0.4259  1.9612  2.4340
 1738TIP3   OH2 5177   3.480   1.941   5.442 -0.8587  0.0456  0.4534
 1738TIP3    H1 5178   3.524   1.990   5.511 -0.3578 -1.0213  0.9080
 1738TIP3    H2 5179   3.538   1.948   5.367 -0.9572  0.4338  0.4123
 1739TIP3   OH2 5180   0.876   3.280   3.401  0.5594 -0.0119  0.3297
 1739TIP3    H1 5181   0.850   3.226   3.476  2.3223 -0.6606  0.5122
 1739TIP3    H2 5182   0.919   3.219   3.341 -1.3215  0.3631 -1.5564
 1740TIP3   OH2 5183   1.221   2.848   3.384  0.1474  0.1167  0.3447
 1740TIP3    H1 5184   1.302   2.894   3.404  0.4462 -0.2781  0.0510
 1740TIP3    H2 5185   1.162   2.917   3.353  0.3049  0.4334  0.7377
 1741TIP3   OH2 5186   4.492   4.798   1.115 -0.7396 -0.0165 -0.3520
 1741TIP3    H1 5187   4.526   4.734   1.052  0.4342  1.7375 -1.6004
 1741TIP3    H2 5188   4.405   4.820   1.082 -0.8254 -0.3720 -0.3694
 1742TIP3   OH2 5189   2.416   4.435   3.090 -0.4323 -0.4226  0.2139
 1742TIP3    H1 5190   2.450   4.457   3.003  0.8410  0.3334  0.8764
 1742TIP3    H2 5191   2.341   4.378   3.072 -0.1991 -0.2876 -1.3765
 1743TIP3   OH2 5192   1.943   6.151   4.754  0.7052 -0.1808 -0.1162
 1743TIP3    H1 5193   1.895   6.087   4.807  1.2645 -1.4563 -1.0943
 1743TIP3    H2 5194   2.005   6.191   4.815 -0.2897  0.1258  0.7246
 1744TIP3   OH2 5195   4.031   3.816   4.877 -0.2335 -0.0134  0.2433
 1744TIP3    H1 5196   4.009   3.860   4.959  1.1043  0.0883  0.5673
 1744TIP3    H2 5197   4.098   3.871   4.837  0.3270 -0.9337 -0.1104
 1745TIP3   OH2 5198   0.932   0.113   1.243  0.5991 -0.1305 -0.5767
 1745TIP3    H1 5199   0.890   0.171   1.308 -0.2601  0.1402 -1.3519
 1745TIP3    H2 5200   0.859   0.076   1.194  1.1714 -1.4945 -0.4396
 1746TIP3   OH2 5201   5.227   0.458   4.223 -0.2456  1.0642  0.1660
 1746TIP3    H1 5202   5.244   0.542   4.264 -2.7012  1.8029 -0.1301
 1746TIP3    H2 5203   5.179   0.480   4.143 -2.2957 -0.6227  0.8354
 1747TIP3   OH2 5204   4.023   1.760   1.856  0.1546 -0.4460 -0.5683
 1747TIP3    H1 5205   3.999   1.850   1.878  0.7279 -0.4705  0.2234
 1747TIP3    H2 5206   4.073   1.766   1.775  0.0475 -0.0724 -0.6051
 1748TIP3   OH2 5207   2.206   4.041   4.081 -0.6276  0.0652 -0.2966
 1748TIP3    H1 5208   2.144   4.071   4.147  0.9613 -0.5515  1.5757
 1748TIP3    H2 5209   2.246   4.121   4.048 -0.0429  0.3211  0.9637
 1749TIP3   OH2 5210   4.145   4.085   5.769 -0.1995 -0.4349 -0.1946
 1749TIP3    H1 5211   4.227   4.109   5.812 -0.6322 -0.6501  0.7937
 1749TIP3    H2 5212   4.166   4.008   5.717  0.4113  0.0159 -0.6260
 1750TIP3   OH2 5213   5.130   5.301   1.827 -0.1167  0.0851  0.1997
 1750TIP3    H1 5214   5.122   5.266   1.915 -2.4174 -2.4750 -0.8621
 1750TIP3    H2 5215   5.218   5.277   1.799  1.0446  1.8655  2.0566
 1751TIP3   OH2 5216   3.724   0.099   3.683 -0.4802 -0.2757 -0.0747
 1751TIP3    H1 5217   3.700   0.167   3.746  0.1127 -0.0271 -0.1145
 1751TIP3    H2 5218   3.640   0.066   3.650 -0.7720  0.3951 -0.0156
 1752TIP3   OH2 5219   1.337   5.972   0.692  0.0735  0.2357 -0.3599
 1752TIP3    H1 5220   1.390   5.964   0.771 -0.3153 -2.0033 -0.2657
 1752TIP3    H2 5221   1.401   5.987   0.622  0.7554 -1.1902 -0.0752
 1753TIP3   OH2 5222   4.822   0.549   2.438  0.7626 -0.6056 -0.6432
 1753TIP3    H1 5223   4.745   0.604   2.449  1.0307  0.0344 -1.7827
 1753TIP3    H2 5224   4.885   0.583   2.501  1.4133  1.3634 -2.2408
 1754TIP3   OH2 5225   5.914   6.414   3.757 -0.0739 -0.5330  0.3156
 1754TIP3    H1 5226   5.835   6.370   3.790 -0.4569 -0.7828 -0.8780
 1754TIP3    H2 5227   5.947   6.463   3.831 -0.8503 -1.1500  1.0895
 1755TIP3   OH2 5228   1.283   1.198   1.873 -0.2393  0.3263 -0.2155
 1755TIP3    H1 5229   1.300   1.284   1.836 -1.1487  0.7496  0.3302
 1755TIP3    H2 5230   1.273   1.213   1.967  1.3751 -0.6408  0.1529
 1756TIP3   OH2 5231   6.205   2.525   4.597  0.2497 -0.1804 -0.3435
 1756TIP3    H1 5232   6.225   2.565   4.512  0.1105 -0.9078 -0.7294
 1756TIP3    H2 5233   6.125   2.474   4.581  0.3405 -0.4937  0.1710
 1757TIP3   OH2 5234   6.342   2.622   0.021 -0.1248  0.2274  0.3283
 1757TIP3    H1 5235   6.256   2.659   0.042 -0.9889 -1.0642 -0.7492
 1757TIP3    H2 5236   6.403   2.695   0.033 -1.3386  1.1485  1.2356
 1758TIP3   OH2 5237   0.277   1.613   1.556 -0.2498 -0.2643  0.4200
 1758TIP3    H1 5238   0.352   1.562   1.586 -0.7642 -1.7329 -0.6798
 1758TIP3    H2 5239   0.293   1.701   1.590  2.1246 -0.4412 -0.0801
 1759TIP3   OH2 5240   1.916   5.692   0.766  0.4943 -0.1124 -0.1448
 1759TIP3    H1 5241   1.987   5.691   0.831 -1.3623  0.0586  2.0094
 1759TIP3    H2 5242   1.944   5.630   0.699  0.9134 -3.2783  2.6873
 1760TIP3   OH2 5243   6.046   3.040   3.935  0.9483 -0.1687  0.2211
 1760TIP3    H1 5244   6.051   3.034   3.840  2.4838 -2.8494  0.3910
 1760TIP3    H2 5245   6.129   3.081   3.961  1.0562 -0.5325  0.4602
 1761TIP3   OH2 5246   3.884   3.345   3.159 -0.1382  0.0206  0.2493
 1761TIP3    H1 5247   3.882   3.422   3.216 -0.3447  0.7306 -0.6901
 1761TIP3    H2 5248   3.957   3.293   3.191  1.1901  1.5175 -0.2392
 1762TIP3   OH2 5249   3.343   2.175   5.616 -0.2689  0.1241  0.1397
 1762TIP3    H1 5250   3.306   2.252   5.574 -2.9868  0.0151  2.0933
 1762TIP3    H2 5251   3.348   2.197   5.709  2.8113 -0.6637  0.2705
 1763TIP3   OH2 5252   6.139   5.242   2.005 -0.8396 -0.1639 -0.3229
 1763TIP3    H1 5253   6.218   5.226   1.954 -1.2672 -0.2671 -0.9785
 1763TIP3    H2 5254   6.086   5.163   1.992 -0.9458 -0.1957  0.3016
 1764TIP3   OH2 5255   3.663   5.071   2.057  0.0499  0.4025 -0.5288
 1764TIP3    H1 5256   3.716   5.073   1.977 -0.4070  0.4390 -0.8402
 1764TIP3    H2 5257   3.589   5.128   2.037 -0.4551 -0.1820 -0.3616
 1765TIP3   OH2 5258   7.113   1.055   0.502  0.3980  0.5809  0.2196
 1765TIP3    H1 5259   7.162   1.127   0.542 -0.2378  1.6445 -0.8547
 1765TIP3    H2 5260   7.023   1.068   0.532  0.3105  0.1130  0.1696
 1766TIP3   OH2 5261   2.506   1.775   0.476 -0.1725  0.1932  0.0580
 1766TIP3    H1 5262   2.503   1.738   0.388  0.7109  1.1962 -0.4176
 1766TIP3    H2 5263   2.564   1.717   0.525 -0.6189 -0.3341 -0.0339
 1767TIP3   OH2 5264   1.034   3.926   5.402 -0.3473 -0.5185  0.3325
 1767TIP3    H1 5265   1.038   3.898   5.494 -1.7396 -0.8566  0.3086
 1767TIP3    H2 5266   1.118   3.969   5.387 -0.6963  0.9834  2.2304
 1768TIP3   OH2 5267   6.018   0.820   2.468 -0.3159  0.0710  0.1146
 1768TIP3    H1 5268   5.931   0.789   2.493 -0.0452  0.2037  1.2779
 1768TIP3    H2 5269   6.069   0.815   2.549  0.9706 -0.7132 -0.7113
 1769TIP3   OH2 5270   5.588   3.412   4.634  0.1504 -0.0441  0.1402
 1769TIP3    H1 5271   5.563   3.360   4.558 -0.4932  0.5284 -0.0540
 1769TIP3    H2 5272   5.508   3.420   4.685  0.5107 -0.1810  0.7316
 1770TIP3   OH2 5273   6.823   2.222   3.601 -0.6169 -0.3681  0.2987
 1770TIP3    H1 5274   6.913   2.234   3.631 -0.1495 -0.9039 -0.8443
 1770TIP3    H2 5275   6.778   2.302   3.628  0.5597  0.5685 -0.3824
 1771TIP3   OH2 5276   5.463   2.228   1.913 -0.2410 -0.5171  0.0153
 1771TIP3    H1 5277   5.477   2.186   1.998 -2.1218 -0.3588  0.4547
 1771TIP3    H2 5278   5.438   2.156   1.855  3.5789 -1.0761 -1.2026
 1772TIP3   OH2 5279   5.985   3.238   2.130  0.2674 -0.3515  0.1847
 1772TIP3    H1 5280   5.987   3.331   2.109 -1.2255 -0.1709  0.7405
 1772TIP3    H2 5281   6.057   3.200   2.079  2.0537  1.3562  1.3431
 1773TIP3   OH2 5282   3.414   5.251   0.952  0.3396  0.3553 -0.1040
 1773TIP3    H1 5283   3.478   5.207   1.007  0.8545 -1.1557 -1.8097
 1773TIP3    H2 5284   3.464   5.280   0.875 -0.9025 -0.5271 -1.3007
 1774TIP3   OH2 5285   4.523   1.271   5.833 -0.1287  0.3096 -0.7036
 1774TIP3    H1 5286   4.571   1.333   5.888  0.4567 -1.7406  1.2812
 1774TIP3    H2 5287   4.582   1.197   5.823 -1.8531 -1.1601 -0.4762
 1775TIP3   OH2 5288   6.173   2.371   5.694  0.3954  0.3091  0.7325
 1775TIP3    H1 5289   6.188   2.450   5.642 -1.9200  1.6665  2.0039
 1775TIP3    H2 5290   6.082   2.347   5.677  0.8825 -1.8307  0.7876
 1776TIP3   OH2 5291   0.974   1.358   0.489 -0.1802 -0.6869 -0.3400
 1776TIP3    H1 5292   1.066   1.381   0.502 -0.2792 -1.2667  1.6952
 1776TIP3    H2 5293   0.951   1.398   0.405  1.5652  0.5414 -0.2830
 1777TIP3   OH2 5294   0.280   1.759   2.879  0.0288  0.4442  0.5482
 1777TIP3    H1 5295   0.264   1.741   2.972  0.9461  0.0256  0.6311
 1777TIP3    H2 5296   0.213   1.823   2.856  0.4909  1.4133  1.7888
 1778TIP3   OH2 5297   3.340   2.035   5.053  0.1069 -0.2172 -0.0802
 1778TIP3    H1 5298   3.344   2.068   4.964 -1.4957 -0.1573 -0.1450
 1778TIP3    H2 5299   3.253   2.057   5.084  0.0832 -1.6033  0.9667
 1779TIP3   OH2 5300   6.210   0.592   1.764  0.0122  0.0380  0.5073
 1779TIP3    H1 5301   6.267   0.669   1.771 -1.2569  1.1265 -0.4874
 1779TIP3    H2 5302   6.249   0.528   1.824  1.7055  1.0630  0.5920
 1780TIP3   OH2 5303   1.359   2.142   2.006 -0.1671 -0.1150 -0.0780
 1780TIP3    H1 5304   1.362   2.148   2.101 -0.1827 -1.1240  0.0024
 1780TIP3    H2 5305   1.280   2.091   1.988 -0.1077 -0.0203 -0.6281
 1781TIP3   OH2 5306   2.899   5.139   1.246  0.2919 -0.3505  0.3557
 1781TIP3    H1 5307   2.990   5.110   1.257  0.0964 -1.5502 -0.8535
 1781TIP3    H2 5308   2.906   5.223   1.200  0.7952 -1.0215 -0.8636
 1782TIP3   OH2 5309   2.656   5.908   1.247  0.5751  0.1383 -0.1601
 1782TIP3    H1 5310   2.624   5.989   1.289  1.4126 -0.1968  1.1670
 1782TIP3    H2 5311   2.576   5.858   1.230  0.1974  0.2152  1.2185
 1783TIP3   OH2 5312   5.228   4.738   4.217  0.0279 -0.3618 -0.0976
 1783TIP3    H1 5313   5.140   4.737   4.179 -0.0415 -0.7402  0.0665
 1783TIP3    H2 5314   5.284   4.702   4.149  0.1221  0.2656 -0.3554
 1784TIP3   OH2 5315   4.618   2.093   1.918  0.3483 -0.4118  0.9520
 1784TIP3    H1 5316   4.668   2.090   2.000 -0.9048  0.5742  1.7792
 1784TIP3    H2 5317   4.660   2.026   1.862  3.2471  1.0609  1.1847
 1785TIP3   OH2 5318   2.634   6.037   3.687 -0.4933 -0.0009  0.2572
 1785TIP3    H1 5319   2.622   6.029   3.593  0.0236  1.0338  0.0923
 1785TIP3    H2 5320   2.708   5.978   3.707 -0.4615 -0.0525 -0.0167
 1786TIP3   OH2 5321   5.489   3.717   3.398 -0.3564  0.3514  0.2774
 1786TIP3    H1 5322   5.506   3.682   3.486 -0.2614 -1.0367 -0.2545
 1786TIP3    H2 5323   5.565   3.688   3.347 -0.1899  1.5398 -0.1729
 1787TIP3   OH2 5324   7.094   5.717   0.268  0.2932  0.4063 -0.1580
 1787TIP3    H1 5325   7.079   5.639   0.322 -1.7680  1.2569  0.6072
 1787TIP3    H2 5326   7.057   5.694   0.182 -1.8134  1.0045  0.5143
 1788TIP3   OH2 5327   5.025   5.844   0.454  0.1892  0.4494  0.7388
 1788TIP3    H1 5328   5.014   5.751   0.439  1.8403  0.5955 -2.0810
 1788TIP3    H2 5329   4.950   5.885   0.412  0.7556  0.4837 -0.2590
 1789TIP3   OH2 5330   2.512   5.018   3.968  0.2333  0.6493 -0.2234
 1789TIP3    H1 5331   2.442   5.070   4.008  0.5196  0.2188  0.8631
 1789TIP3    H2 5332   2.466   4.961   3.906 -0.5432 -0.3705  1.2148
 1790TIP3   OH2 5333   3.334   0.344   3.983  0.1510  0.1329 -0.0634
 1790TIP3    H1 5334   3.353   0.252   3.966 -0.2894 -0.0932  0.6668
 1790TIP3    H2 5335   3.353   0.388   3.900  0.7192 -0.5578 -0.3041
 1791TIP3   OH2 5336   2.702   0.957   2.975  0.0693  0.5285 -0.1334
 1791TIP3    H1 5337   2.727   0.984   3.063 -1.3516 -0.2166  0.5210
 1791TIP3    H2 5338   2.627   0.900   2.987  0.0916  0.0813 -1.8108
 1792TIP3   OH2 5339   4.498   0.906   4.375 -0.0860 -0.0196 -0.0266
 1792TIP3    H1 5340   4.406   0.881   4.367  0.6737 -2.6381 -2.0752
 1792TIP3    H2 5341   4.518   0.952   4.294  0.8284 -1.1673 -0.4774
 1793TIP3   OH2 5342   2.253   6.129   5.751  0.0271  0.1183 -0.1185
 1793TIP3    H1 5343   2.181   6.104   5.693  0.5128 -0.7819 -0.3469
 1793TIP3    H2 5344   2.220   6.113   5.839  0.7143 -2.5152 -0.2785
 1794TIP3   OH2 5345   3.819   0.454   2.925 -0.5917 -0.5724  0.5733
 1794TIP3    H1 5346   3.777   0.410   2.850 -0.9095  0.8833 -0.1326
 1794TIP3    H2 5347   3.752   0.513   2.959 -0.2120 -0.7065  1.5832
 1795TIP3   OH2 5348   2.833   5.846   1.676 -0.2332  0.6244  0.1991
 1795TIP3    H1 5349   2.830   5.941   1.688 -0.7038  0.7679 -0.9538
 1795TIP3    H2 5350   2.883   5.814   1.751  1.9023  1.9922 -0.5385
 1796TIP3   OH2 5351   1.434   3.066   0.032  0.2468  0.3829  0.1152
 1796TIP3    H1 5352   1.432   3.161   0.037 -0.1221  0.4838 -1.4045
 1796TIP3    H2 5353   1.385   3.045  -0.048  1.4418 -0.9907 -0.3013
 1797TIP3   OH2 5354   5.449   6.380   0.029 -0.1340 -0.1904  0.2448
 1797TIP3    H1 5355   5.356   6.389   0.011 -0.2598  0.0878  1.0205
 1797TIP3    H2 5356   5.456   6.301   0.083 -0.0871  0.5348  1.3351
 1798TIP3   OH2 5357   6.588   5.289   0.925  0.0151  0.4435  0.9341
 1798TIP3    H1 5358   6.529   5.364   0.926 -1.5389 -0.7347  2.0371
 1798TIP3    H2 5359   6.592   5.259   1.016 -0.0737 -1.2848  0.4173
 1799TIP3   OH2 5360   5.801   6.356   0.907  0.8193  0.7098  0.6248
 1799TIP3    H1 5361   5.752   6.408   0.971 -0.2817  0.0459  0.3537
 1799TIP3    H2 5362   5.752   6.367   0.825  2.2779  1.6518 -0.1585
 1800TIP3   OH2 5363   1.315   4.540   2.583 -0.0648  0.1895  0.3884
 1800TIP3    H1 5364   1.263   4.467   2.550 -0.3205  0.4936  0.1115
 1800TIP3    H2 5365   1.356   4.506   2.663 -0.1166 -0.2801  0.2185
 1801TIP3   OH2 5366   4.706   6.309   5.232  0.2702 -0.0137  0.9829
 1801TIP3    H1 5367   4.706   6.370   5.305  1.4314  1.7584 -0.4131
 1801TIP3    H2 5368   4.747   6.229   5.267  1.9125  1.2024  1.9677
 1802TIP3   OH2 5369   4.171   3.914   1.002  0.1891  0.3520 -1.3391
 1802TIP3    H1 5370   4.145   3.888   0.914 -1.2440 -1.4104 -0.4759
 1802TIP3    H2 5371   4.156   4.008   1.005 -2.6899  0.0335 -2.1100
 1803TIP3   OH2 5372   4.502   3.360   4.280 -0.3297 -1.0501  0.4921
 1803TIP3    H1 5373   4.519   3.266   4.286 -0.2761 -1.0471  0.4007
 1803TIP3    H2 5374   4.414   3.371   4.315 -0.5637 -1.2119 -0.0317
 1804TIP3   OH2 5375   4.032   6.523   0.845 -0.2967 -0.0782  0.4706
 1804TIP3    H1 5376   3.992   6.609   0.840  0.6635  0.3582 -0.0558
 1804TIP3    H2 5377   4.039   6.504   0.938 -1.7845 -0.2155  0.5751
 1805TIP3   OH2 5378   4.877   2.280   3.758  0.4985  0.3316 -0.0508
 1805TIP3    H1 5379   4.870   2.227   3.679 -0.2233 -0.0551  0.2675
 1805TIP3    H2 5380   4.970   2.276   3.782  0.3953 -1.0626  0.1537
 1806TIP3   OH2 5381   0.158   5.877   3.747 -0.6900 -0.0596  0.5040
 1806TIP3    H1 5382   0.148   5.911   3.658 -0.9713 -0.3010  0.4422
 1806TIP3    H2 5383   0.249   5.896   3.770 -0.9417  1.0767  0.6112
 1807TIP3   OH2 5384   3.633   3.329   4.703 -0.5476 -0.1750  0.2925
 1807TIP3    H1 5385   3.618   3.416   4.740 -0.7999  0.6158 -1.5878
 1807TIP3    H2 5386   3.675   3.345   4.619 -0.2472 -1.9088  0.0666
 1808TIP3   OH2 5387   4.137   1.420   4.340 -0.2037  0.3732 -0.0538
 1808TIP3    H1 5388   4.126   1.452   4.430  0.1686 -0.3286  0.2549
 1808TIP3    H2 5389   4.050   1.389   4.315  0.0489 -1.1266  0.7647
 1809TIP3   OH2 5390   2.961   4.812   5.577  0.5071 -0.0943 -0.6543
 1809TIP3    H1 5391   2.876   4.847   5.604  0.3642 -0.2370 -0.9217
 1809TIP3    H2 5392   2.994   4.875   5.513  1.5593  1.0940  0.9763
 1810TIP3   OH2 5393   5.412   4.208   3.558 -0.2497  0.3649 -0.5687
 1810TIP3    H1 5394   5.332   4.248   3.522  0.4867  0.6354 -1.9959
 1810TIP3    H2 5395   5.396   4.114   3.553 -0.1299  0.3922 -1.7607
 1811TIP3   OH2 5396   0.219   4.465   2.540 -0.0468 -0.3600  0.0035
 1811TIP3    H1 5397   0.242   4.443   2.450  0.9301 -0.1487  0.1933
 1811TIP3    H2 5398   0.161   4.394   2.567  0.7117 -1.1371 -0.3634
 1812TIP3   OH2 5399   3.390   1.596   0.292 -0.1049 -0.1298  0.1483
 1812TIP3    H1 5400   3.355   1.668   0.239 -0.6607 -1.4103 -1.3088
 1812TIP3    H2 5401   3.352   1.610   0.379  0.5473  1.8331  0.1729
 1813TIP3   OH2 5402   4.623   1.251   3.445 -1.2885  0.2555 -0.0625
 1813TIP3    H1 5403   4.712   1.226   3.419 -1.6196  0.1362 -1.1239
 1813TIP3    H2 5404   4.607   1.335   3.401 -2.8121 -1.1927 -2.5299
 1814TIP3   OH2 5405   6.212   0.328   4.610  0.5270  0.1788  0.4799
 1814TIP3    H1 5406   6.306   0.330   4.594  0.4242  1.2464 -0.0886
 1814TIP3    H2 5407   6.194   0.408   4.659 -0.4345  1.3274 -1.6248
 1815TIP3   OH2 5408   3.025   0.869   1.776 -0.4622  0.2499 -0.2576
 1815TIP3    H1 5409   2.946   0.853   1.725 -1.1470  1.4456  0.3717
 1815TIP3    H2 5410   2.993   0.898   1.861  0.6648 -0.2408  0.3593
 1816TIP3   OH2 5411   5.343   2.083   2.583  0.3818 -0.0083  0.1171
 1816TIP3    H1 5412   5.281   2.070   2.511  0.4818 -0.0119  0.0310
 1816TIP3    H2 5413   5.402   2.152   2.551 -1.2704  2.0945  1.2692
 1817TIP3   OH2 5414   2.464   0.829   1.858 -0.2420 -0.0692  0.1459
 1817TIP3    H1 5415   2.389   0.835   1.798  0.2576 -0.9623 -0.5957
 1817TIP3    H2 5416   2.442   0.757   1.917  1.0400 -2.0077 -1.6110
 1818TIP3   OH2 5417   3.285   5.955   0.535 -0.3338  0.1206 -0.2478
 1818TIP3    H1 5418   3.236   5.986   0.458  0.0095 -0.6525 -0.7921
 1818TIP3    H2 5419   3.377   5.960   0.509 -0.2009  0.0625  0.1964
 1819TIP3   OH2 5420   4.181   4.936   4.492 -0.0122 -0.7674 -0.0109
 1819TIP3    H1 5421   4.195   4.870   4.424 -2.0609  0.1098 -1.3855
 1819TIP3    H2 5422   4.088   4.958   4.485  0.0756  0.5520  2.0243
 1820TIP3   OH2 5423   3.234   0.282   5.746  0.8576 -0.2082 -0.0097
 1820TIP3    H1 5424   3.199   0.369   5.763  0.1522 -0.2709 -1.0503
 1820TIP3    H2 5425   3.184   0.225   5.805  1.1349  0.0554  0.4810
 1821TIP3   OH2 5426   0.425   3.685   3.239  0.4651 -0.2959  0.2317
 1821TIP3    H1 5427   0.428   3.755   3.305  1.8713  0.3313 -0.4511
 1821TIP3    H2 5428   0.412   3.605   3.290  0.4043  0.2923  1.1676
 1822TIP3   OH2 5429   6.113   3.856   3.197 -0.3562 -0.5868  0.0995
 1822TIP3    H1 5430   6.018   3.855   3.184 -0.3648 -2.4954  0.0918
 1822TIP3    H2 5431   6.136   3.765   3.216  1.6436 -0.4094 -1.1830
 1823TIP3   OH2 5432   5.673   4.259   4.394  0.1692  0.2291  0.3734
 1823TIP3    H1 5433   5.624   4.265   4.311  1.8427 -0.7718 -0.7494
 1823TIP3    H2 5434   5.622   4.312   4.456 -1.3855  0.6288 -1.1652
 1824TIP3   OH2 5435   6.181   5.157   2.543 -0.1274 -0.2376 -0.3679
 1824TIP3    H1 5436   6.115   5.154   2.613  0.2655 -0.4466 -0.0025
 1824TIP3    H2 5437   6.244   5.089   2.566  0.4233  0.2150 -0.5131
 1825TIP3   OH2 5438   1.833   5.478   3.682 -0.5593 -0.4741  0.0956
 1825TIP3    H1 5439   1.831   5.573   3.695  0.5459 -0.2748 -0.9946
 1825TIP3    H2 5440   1.879   5.445   3.759  1.3846  0.1641 -0.7265
 1826TIP3   OH2 5441   6.234   6.116   0.265  0.7140 -0.1206  0.5335
 1826TIP3    H1 5442   6.146   6.109   0.228  1.4840 -0.5628 -1.3109
 1826TIP3    H2 5443   6.234   6.199   0.311 -0.3218  0.4358 -0.4230
 1827TIP3   OH2 5444   6.825   1.597   3.173 -0.0108  0.1339  0.1184
 1827TIP3    H1 5445   6.853   1.577   3.084 -0.4164  0.6889 -0.1403
 1827TIP3    H2 5446   6.778   1.680   3.165 -2.5405 -1.1769  0.3643
 1828TIP3   OH2 5447   2.818   2.706   3.012 -0.1470 -0.5329  0.1650
 1828TIP3    H1 5448   2.810   2.776   3.076 -1.7425 -2.3232  2.0998
 1828TIP3    H2 5449   2.892   2.731   2.957  1.4806  1.0476  2.8455
 1829TIP3   OH2 5450   1.858   6.345   1.457 -0.5375  0.3469 -0.2008
 1829TIP3    H1 5451   1.863   6.422   1.512  1.5543 -0.2025  0.4586
 1829TIP3    H2 5452   1.878   6.377   1.369 -0.5064  0.6905 -0.0698
 1830TIP3   OH2 5453   7.122   0.070   3.766  0.2484  0.2010  0.0642
 1830TIP3    H1 5454   7.094   0.145   3.819  1.6762  0.0097  1.1209
 1830TIP3    H2 5455   7.179   0.108   3.699 -0.6628  0.2945 -0.6855
 1831TIP3   OH2 5456   2.784   2.536   5.052  0.5861 -0.0134  0.2533
 1831TIP3    H1 5457   2.799   2.626   5.082  0.5388  0.3645 -0.8218
 1831TIP3    H2 5458   2.819   2.481   5.123  0.1958  0.8376  1.1321
 1832TIP3   OH2 5459   5.295   3.596   0.702 -0.0232 -0.3827  0.0522
 1832TIP3    H1 5460   5.383   3.564   0.723  0.5265  0.1084 -1.3822
 1832TIP3    H2 5461   5.294   3.686   0.735  0.3558 -0.0779 -0.7339
 1833TIP3   OH2 5462   1.999   5.450   2.248 -0.0758  0.5227  0.3503
 1833TIP3    H1 5463   2.023   5.459   2.340 -0.5729 -1.0367  0.6645
 1833TIP3    H2 5464   1.931   5.516   2.234 -1.6506 -0.7198  1.7576
 1834TIP3   OH2 5465   5.478   0.007   5.212  0.1464 -0.0892  0.0025
 1834TIP3    H1 5466   5.529   0.068   5.264  0.6072  0.3981 -1.0031
 1834TIP3    H2 5467   5.387   0.027   5.234  0.1586  2.4536 -1.8674
 1835TIP3   OH2 5468   5.200   1.621   1.253  0.1353 -0.1784 -0.0622
 1835TIP3    H1 5469   5.209   1.680   1.178  1.6352  0.8530  0.8723
 1835TIP3    H2 5470   5.135   1.663   1.309 -1.9224 -1.5635 -1.2651
 1836TIP3   OH2 5471   3.175   1.725   2.449  0.0891  0.8196 -0.1386
 1836TIP3    H1 5472   3.162   1.819   2.434  2.0991  1.1772  0.0808
 1836TIP3    H2 5473   3.221   1.720   2.533 -0.6006 -0.4206  0.1849
 1837TIP3   OH2 5474   3.457   4.137   4.031  0.2933 -0.6130  0.3960
 1837TIP3    H1 5475   3.502   4.168   3.952 -0.3648  0.5409  0.4509
 1837TIP3    H2 5476   3.514   4.069   4.066  1.2475 -0.2132 -0.3452
 1838TIP3   OH2 5477   2.795   2.121   1.928 -0.4113 -0.3943 -0.1692
 1838TIP3    H1 5478   2.885   2.145   1.907 -0.5795 -0.7873 -1.4755
 1838TIP3    H2 5479   2.764   2.190   1.986  0.7217 -0.2406  0.2707
 1839TIP3   OH2 5480   1.146   6.020   5.553  0.2390 -0.5522  0.5807
 1839TIP3    H1 5481   1.224   5.971   5.582  0.5545 -0.2837  0.1967
 1839TIP3    H2 5482   1.176   6.068   5.475 -0.2571 -0.2847  0.5552
 1840TIP3   OH2 5483   1.909   3.520   0.062  0.0427 -0.2606 -0.0163
 1840TIP3    H1 5484   1.987   3.553   0.106 -0.4361  2.2029 -0.8511
 1840TIP3    H2 5485   1.864   3.599   0.030 -2.3066 -1.6484 -0.3731
 1841TIP3   OH2 5486   2.741   1.343   0.661 -0.2515 -0.1815  0.3513
 1841TIP3    H1 5487   2.792   1.276   0.707 -1.0364 -0.1764  1.2685
 1841TIP3    H2 5488   2.650   1.314   0.671 -0.5056  0.3496 -0.3572
 1842TIP3   OH2 5489   3.829   4.470   3.376 -0.1940 -0.1504 -0.2617
 1842TIP3    H1 5490   3.910   4.420   3.390 -1.0953 -1.0191  2.5073
 1842TIP3    H2 5491   3.797   4.440   3.291  1.4171 -1.1910 -0.5525
 1843TIP3   OH2 5492   0.067   5.477   4.226  0.1329 -0.6211 -0.1850
 1843TIP3    H1 5493   0.019   5.496   4.145 -0.7267 -0.5283  0.3445
 1843TIP3    H2 5494   0.054   5.383   4.241 -0.8941 -0.3720  0.5922
 1844TIP3   OH2 5495   6.003   1.501   5.736 -0.0887  0.2329  0.5898
 1844TIP3    H1 5496   5.986   1.555   5.658 -2.1323 -1.0044  0.0903
 1844TIP3    H2 5497   6.096   1.480   5.730  0.4292  2.3878 -0.0172
 1845TIP3   OH2 5498   0.853   3.403   5.483  0.2437 -0.1668  0.4876
 1845TIP3    H1 5499   0.930   3.451   5.514 -1.5797  1.2506  3.2586
 1845TIP3    H2 5500   0.843   3.431   5.392  1.0950  2.3248  1.0701
 1846TIP3   OH2 5501   4.138   5.524   3.537  0.2075  0.0460  0.7424
 1846TIP3    H1 5502   4.178   5.576   3.466  0.1173 -1.0787 -0.1655
 1846TIP3    H2 5503   4.113   5.588   3.603 -2.1727  1.4905 -1.3860
 1847TIP3   OH2 5504   6.234   5.148   3.495  0.4113 -0.3161  0.3375
 1847TIP3    H1 5505   6.225   5.237   3.462  0.9214 -0.3825  0.0211
 1847TIP3    H2 5506   6.174   5.096   3.441  0.7813 -0.3176 -0.0771
 1848TIP3   OH2 5507   0.701   3.976   4.391  0.6962 -0.2614  0.3067
 1848TIP3    H1 5508   0.701   3.984   4.486  0.3591 -1.5216  0.4284
 1848TIP3    H2 5509   0.794   3.968   4.368  0.7322 -0.9320  0.6381
 1849TIP3   OH2 5510   0.243   5.832   0.049 -0.2616  0.0842 -0.6581
 1849TIP3    H1 5511   0.228   5.893  -0.023 -0.5379  1.1568  0.2761
 1849TIP3    H2 5512   0.334   5.804   0.038 -0.3293  0.1615 -1.4717
 1850TIP3   OH2 5513   6.273   6.690   2.901 -0.9589  0.0971  0.8931
 1850TIP3    H1 5514   6.256   6.605   2.861 -0.0275 -0.8674  2.4329
 1850TIP3    H2 5515   6.267   6.752   2.828 -1.1322 -1.3381 -0.3748
 1851TIP3   OH2 5516   5.822   5.097   4.283  0.5381  0.2974  0.1439
 1851TIP3    H1 5517   5.729   5.085   4.299  0.1087  1.0808 -1.5913
 1851TIP3    H2 5518   5.832   5.085   4.188  2.3090 -0.4261  0.3833
 1852TIP3   OH2 5519   1.480   4.361   3.392 -0.4453  0.0736 -0.0443
 1852TIP3    H1 5520   1.402   4.406   3.425 -1.2592 -0.0539 -1.6887
 1852TIP3    H2 5521   1.546   4.375   3.460 -1.5477  1.1958  0.8510
 1853TIP3   OH2 5522   6.762   1.122   1.118 -0.7343 -0.0397  0.9833
 1853TIP3    H1 5523   6.794   1.145   1.205 -0.9846 -3.3402  2.0684
 1853TIP3    H2 5524   6.674   1.087   1.132 -0.4210 -1.5193 -0.4370
 1854TIP3   OH2 5525   4.822   2.763   0.615  0.1515  0.2662 -0.0924
 1854TIP3    H1 5526   4.744   2.818   0.624  1.2563  1.9122 -0.0756
 1854TIP3    H2 5527   4.894   2.820   0.641  1.2842 -1.5130  0.8920
 1855TIP3   OH2 5528   2.726   0.375   5.443  0.0193 -0.1044  0.2353
 1855TIP3    H1 5529   2.675   0.316   5.498  0.7323 -1.5375 -0.5624
 1855TIP3    H2 5530   2.678   0.377   5.360  0.6092 -0.5118 -0.1226
 1856TIP3   OH2 5531   2.567   6.523   4.217  0.0021  0.5030  0.0440
 1856TIP3    H1 5532   2.655   6.518   4.253 -0.6150 -1.5354  1.4402
 1856TIP3    H2 5533   2.577   6.500   4.124  0.9720  0.6629  0.1070
 1857TIP3   OH2 5534   2.612   1.610   3.234  0.2130 -0.1892 -0.1073
 1857TIP3    H1 5535   2.551   1.543   3.203  0.3620 -0.2553 -0.2680
 1857TIP3    H2 5536   2.695   1.563   3.245 -0.1064 -0.4153  1.5140
 1858TIP3   OH2 5537   6.530   4.233   1.672  0.1527 -0.3932 -0.3454
 1858TIP3    H1 5538   6.558   4.190   1.754 -1.0924  0.8895  0.7958
 1858TIP3    H2 5539   6.589   4.308   1.664 -0.5866  0.2497  0.1218
 1859TIP3   OH2 5540   1.767   2.935   4.486  0.3116  0.0594 -0.3820
 1859TIP3    H1 5541   1.747   3.023   4.517 -0.8924  0.5994 -2.5229
 1859TIP3    H2 5542   1.725   2.929   4.400  1.0304 -2.3372 -0.6451
 1860TIP3   OH2 5543   3.997   0.510   5.062  0.8762  0.2348 -0.1712
 1860TIP3    H1 5544   4.020   0.424   5.099 -0.7656  0.8541  2.5407
 1860TIP3    H2 5545   4.014   0.572   5.133  0.2306  1.9312 -1.4321
 1861TIP3   OH2 5546   0.024   1.872   3.612 -0.3024 -0.2923 -0.4505
 1861TIP3    H1 5547   0.088   1.803   3.628 -1.9217 -1.7719 -0.1195
 1861TIP3    H2 5548   0.057   1.947   3.661  1.3056 -0.9210 -0.5225
 1862TIP3   OH2 5549   2.270   2.998   0.500  0.0885 -0.2843 -0.3441
 1862TIP3    H1 5550   2.337   2.929   0.500 -0.8011 -1.1910 -1.4863
 1862TIP3    H2 5551   2.307   3.065   0.442  0.6446 -0.1180  0.1935
 1863TIP3   OH2 5552   2.007   6.105   2.505  0.2162 -0.2228  0.3387
 1863TIP3    H1 5553   1.971   6.035   2.451  0.2038  0.3235 -0.3684
 1863TIP3    H2 5554   2.101   6.092   2.502  0.2389  0.0309 -0.1310
 1864TIP3   OH2 5555   2.245   0.490   5.146  0.2486 -0.1891  0.1019
 1864TIP3    H1 5556   2.289   0.490   5.231 -0.0329 -0.4583  0.2514
 1864TIP3    H2 5557   2.153   0.471   5.167  0.7333 -3.9608 -0.5396
 1865TIP3   OH2 5558   5.578   3.469   1.106 -0.4446 -1.2678  0.2744
 1865TIP3    H1 5559   5.528   3.496   1.183  0.2333 -1.3681  0.7583
 1865TIP3    H2 5560   5.629   3.394   1.135  2.8148  1.0029  0.9163
 1866TIP3   OH2 5561   1.932   1.981   3.818  0.8730 -0.8090  0.4637
 1866TIP3    H1 5562   1.975   1.904   3.782  0.3728 -1.3958  1.0829
 1866TIP3    H2 5563   1.963   1.986   3.908  1.3141  0.0357  0.2754
 1867TIP3   OH2 5564   3.216   4.664   2.764  0.1045 -0.2257  0.0980
 1867TIP3    H1 5565   3.273   4.730   2.803  0.2759 -0.7448  0.7439
 1867TIP3    H2 5566   3.276   4.593   2.739 -0.1370 -0.3386 -0.1680
 1868TIP3   OH2 5567   6.016   4.553   4.636 -0.3011 -0.3959 -0.0635
 1868TIP3    H1 5568   5.986   4.463   4.626 -1.6510 -0.0310  0.4920
 1868TIP3    H2 5569   6.073   4.568   4.561  1.9690 -2.4688  1.0903
 1869TIP3   OH2 5570   3.207   2.026   1.672  0.1043 -0.3507  0.3092
 1869TIP3    H1 5571   3.289   2.004   1.717  1.1504 -0.4840 -1.5330
 1869TIP3    H2 5572   3.235   2.079   1.597 -1.5040 -0.4395 -0.3850
 1870TIP3   OH2 5573   2.980   6.430   1.590 -0.0654 -0.1104 -0.0300
 1870TIP3    H1 5574   3.021   6.513   1.569  1.5412 -0.4576  1.5500
 1870TIP3    H2 5575   2.887   6.451   1.599  0.4707  1.8253  1.7052
 1871TIP3   OH2 5576   4.163   3.210   0.855  0.9496 -0.0177 -0.0497
 1871TIP3    H1 5577   4.088   3.264   0.832  0.2553 -1.0003 -0.1787
 1871TIP3    H2 5578   4.177   3.225   0.949  0.7531  0.3546 -0.0793
 1872TIP3   OH2 5579   1.881   5.097   4.597  0.9043  0.0867 -0.1374
 1872TIP3    H1 5580   1.967   5.136   4.583  1.4963 -1.1302 -0.0181
 1872TIP3    H2 5581   1.894   5.003   4.582 -0.1732 -0.2558  0.8612
 1873TIP3   OH2 5582   5.899   0.466   2.129 -0.4414 -0.1527 -0.0666
 1873TIP3    H1 5583   5.833   0.448   2.196  0.2973 -1.5759  0.3395
 1873TIP3    H2 5584   5.901   0.561   2.122 -2.9900 -0.0748 -0.6119
 1874TIP3   OH2 5585   6.164   5.177   4.535  0.4346  0.4458 -0.1394
 1874TIP3    H1 5586   6.254   5.146   4.545  0.0577 -0.1690  1.6197
 1874TIP3    H2 5587   6.163   5.262   4.577  0.7683  1.6773 -2.4516
 1875TIP3   OH2 5588   3.128   3.629   3.925  0.4843  0.0368  0.1116
 1875TIP3    H1 5589   3.143   3.613   3.832 -0.5676 -1.4435  0.1746
 1875TIP3    H2 5590   3.101   3.721   3.929  1.1738  0.2982 -0.9549
 1876TIP3   OH2 5591   6.968   2.753   4.107 -0.0143  0.4978  0.9435
 1876TIP3    H1 5592   7.005   2.722   4.190  1.0983 -0.2479  0.2021
 1876TIP3    H2 5593   7.006   2.839   4.094 -0.7086  0.9016  1.5143
 1877TIP3   OH2 5594   2.480   6.167   5.020 -0.0859 -0.4696 -0.3365
 1877TIP3    H1 5595   2.498   6.234   5.087 -0.0661  0.8027 -1.5701
 1877TIP3    H2 5596   2.386   6.150   5.029 -0.1532 -0.0508 -0.2145
 1878TIP3   OH2 5597   5.310   3.785   3.921 -0.3182  0.3119  0.4603
 1878TIP3    H1 5598   5.387   3.791   3.977 -0.1958  0.2420  0.3005
 1878TIP3    H2 5599   5.253   3.855   3.951 -0.4900 -0.0661  1.0317
 1879TIP3   OH2 5600   6.558   6.479   3.524 -0.3418  0.4982  0.1779
 1879TIP3    H1 5601   6.522   6.443   3.605  0.4476  0.1271  0.3789
 1879TIP3    H2 5602   6.518   6.566   3.516 -0.9045  0.2819  0.6353
 1880TIP3   OH2 5603   3.067   5.556   4.543 -0.3736 -0.1736  0.4187
 1880TIP3    H1 5604   3.160   5.572   4.553  0.1942 -2.3065 -0.7002
 1880TIP3    H2 5605   3.051   5.475   4.591 -1.1989 -0.9188 -1.0229
 1881TIP3   OH2 5606   0.279   1.439   4.764 -0.0143 -0.2416  0.0184
 1881TIP3    H1 5607   0.202   1.408   4.716  0.3007 -0.4436 -0.3574
 1881TIP3    H2 5608   0.345   1.371   4.751  0.5184  0.3478 -0.3939
 1882TIP3   OH2 5609   1.343   3.823   0.358 -0.5686 -0.7774 -0.4144
 1882TIP3    H1 5610   1.408   3.816   0.288 -0.2516  2.2004 -0.5694
 1882TIP3    H2 5611   1.394   3.838   0.437 -0.9604  1.4063 -0.5105
 1883TIP3   OH2 5612   5.308   5.486   3.519  0.1345 -0.3398 -0.0499
 1883TIP3    H1 5613   5.403   5.497   3.523 -0.0252  1.0044  1.9379
 1883TIP3    H2 5614   5.291   5.409   3.573  0.1207 -0.7556 -0.6502
 1884TIP3   OH2 5615   0.792   5.358   4.514  0.0297  0.1054  0.1977
 1884TIP3    H1 5616   0.747   5.282   4.553 -0.0729  0.7758  1.4369
 1884TIP3    H2 5617   0.862   5.319   4.461 -2.1236 -0.9873 -2.0571
 1885TIP3   OH2 5618   5.793   0.314   1.839 -0.0955  0.3449 -0.0845
 1885TIP3    H1 5619   5.821   0.315   1.931 -0.9671 -3.4962  0.4222
 1885TIP3    H2 5620   5.874   0.300   1.789  0.1745  0.7496  0.2310
 1886TIP3   OH2 5621   3.871   5.214   0.767 -0.2915  0.0522 -0.0257
 1886TIP3    H1 5622   3.880   5.164   0.847 -1.3311 -0.4972 -0.2443
 1886TIP3    H2 5623   3.946   5.274   0.768  0.2224 -0.5883  0.8820
 1887TIP3   OH2 5624   3.997   2.215   2.830 -0.2816  0.2551  0.0842
 1887TIP3    H1 5625   4.037   2.294   2.793 -0.4559  1.2000  1.7967
 1887TIP3    H2 5626   3.983   2.157   2.755  1.6440  1.0559 -0.9596
 1888TIP3   OH2 5627   0.550   0.176   2.503  1.2432  0.0567  0.3323
 1888TIP3    H1 5628   0.644   0.190   2.488  1.0124  0.3208 -0.9936
 1888TIP3    H2 5629   0.544   0.084   2.529  1.6797 -0.6154 -1.7414
 1889TIP3   OH2 5630   6.292   4.488   4.199 -0.2849  0.0438  0.2086
 1889TIP3    H1 5631   6.271   4.510   4.108  1.9803 -1.4407 -0.7838
 1889TIP3    H2 5632   6.266   4.396   4.208 -1.2668  0.4052  1.3728
 1890TIP3   OH2 5633   1.549   4.086   2.062  0.3060  0.3678 -0.2044
 1890TIP3    H1 5634   1.629   4.138   2.072  0.5990 -0.2386  0.7665
 1890TIP3    H2 5635   1.553   4.054   1.972  0.7289  1.0327 -0.4307
 1891TIP3   OH2 5636   0.600   4.411   3.407 -0.2020  0.4479 -0.2863
 1891TIP3    H1 5637   0.505   4.414   3.419  0.0914  1.0398  2.4120
 1891TIP3    H2 5638   0.625   4.502   3.392  0.0080  0.3217 -0.7422
 1892TIP3   OH2 5639   4.837   5.933   4.055 -0.2737 -0.1752 -0.0400
 1892TIP3    H1 5640   4.769   6.000   4.060  0.8570  1.2247 -1.8705
 1892TIP3    H2 5641   4.889   5.957   3.978 -0.0250 -3.4005 -1.0472
 1893TIP3   OH2 5642   5.111   6.422   4.558  0.1925 -0.2911 -0.4373
 1893TIP3    H1 5643   5.023   6.439   4.526 -0.2832 -0.9711  0.4470
 1893TIP3    H2 5644   5.135   6.337   4.520 -0.9723 -1.8512  2.0508
 1894TIP3   OH2 5645   4.331   4.707   1.739  0.2403  0.1300 -0.1944
 1894TIP3    H1 5646   4.280   4.684   1.661 -2.3237  0.8210  1.1787
 1894TIP3    H2 5647   4.359   4.623   1.775 -0.7525 -0.3408 -0.4951
 1895TIP3   OH2 5648   3.681   5.168   0.040  0.0824 -0.3207  0.7556
 1895TIP3    H1 5649   3.736   5.190   0.115  0.2954  0.0523  0.5000
 1895TIP3    H2 5650   3.600   5.217   0.054 -0.2612 -1.0088  1.2204
 1896TIP3   OH2 5651   4.618   6.181   3.087 -0.0524  0.5340  0.1122
 1896TIP3    H1 5652   4.703   6.155   3.123 -1.0079 -1.4028  1.1401
 1896TIP3    H2 5653   4.593   6.258   3.138  0.9662  0.9755 -0.0359
 1897TIP3   OH2 5654   6.474   0.531   2.800  0.0236  0.4394 -0.4231
 1897TIP3    H1 5655   6.390   0.574   2.783  0.9612  2.8231  0.6241
 1897TIP3    H2 5656   6.524   0.595   2.851  0.6563 -2.7464  3.4893
 1898TIP3   OH2 5657   4.334   4.587   4.676  0.5512 -0.1236 -0.2934
 1898TIP3    H1 5658   4.369   4.601   4.588  1.0083 -3.2292 -0.6890
 1898TIP3    H2 5659   4.282   4.508   4.669 -1.8950  1.1942  1.6241
 1899TIP3   OH2 5660   5.369   0.174   4.643  0.5290  0.8498 -0.1083
 1899TIP3    H1 5661   5.393   0.082   4.657  0.2218  0.7946  0.0605
 1899TIP3    H2 5662   5.343   0.178   4.551 -1.9010  0.1988  0.4680
 1900TIP3   OH2 5663   1.996   2.737   1.517  0.1809 -0.3161  0.3367
 1900TIP3    H1 5664   2.033   2.684   1.587  2.1309  0.8072  0.2584
 1900TIP3    H2 5665   1.994   2.826   1.553  1.0191  0.2454 -0.9209
 1901TIP3   OH2 5666   6.138   0.567   4.811  0.1896 -0.5202  0.2445
 1901TIP3    H1 5667   6.058   0.594   4.765  0.0523 -1.0123  0.1927
 1901TIP3    H2 5668   6.158   0.641   4.869 -0.9596 -0.8657  1.1234
 1902TIP3   OH2 5669   3.070   5.585   4.112  0.3507 -0.4931  0.4165
 1902TIP3    H1 5670   3.105   5.629   4.034 -1.5354 -1.1066 -0.8326
 1902TIP3    H2 5671   3.127   5.509   4.124 -1.0318 -2.0581 -2.2028
 1903TIP3   OH2 5672   2.785   5.059   3.162  0.4852  0.0010  0.0890
 1903TIP3    H1 5673   2.739   5.009   3.228  0.9540  0.8441  1.0863
 1903TIP3    H2 5674   2.826   5.131   3.210 -0.8270  1.8362 -1.3790
 1904TIP3   OH2 5675   6.678   1.663   2.023  0.0901 -0.5411  0.2959
 1904TIP3    H1 5676   6.674   1.574   2.057 -1.0475 -0.7506 -0.3556
 1904TIP3    H2 5677   6.754   1.663   1.965  1.4832 -0.4346  2.0027
 1905TIP3   OH2 5678   5.575   6.507   2.343 -0.0399  0.1901 -0.3866
 1905TIP3    H1 5679   5.580   6.420   2.382 -0.0533 -0.2390 -1.3306
 1905TIP3    H2 5680   5.666   6.531   2.325 -0.0718  0.1491 -0.6055
 1906TIP3   OH2 5681   4.403   6.145   5.221 -0.1670 -0.2932  0.7118
 1906TIP3    H1 5682   4.446   6.190   5.148 -1.1789 -0.9266 -0.3091
 1906TIP3    H2 5683   4.311   6.168   5.212 -0.8316 -3.0815 -0.2589
 1907TIP3   OH2 5684   0.992   4.404   5.239 -0.0935  0.3871  0.1457
 1907TIP3    H1 5685   0.981   4.408   5.144 -1.9698  1.6734  0.3727
 1907TIP3    H2 5686   0.947   4.324   5.265 -0.2560  0.4358  0.0188
 1908TIP3   OH2 5687   2.249   3.779   4.113 -0.2804  0.1049 -0.5857
 1908TIP3    H1 5688   2.242   3.867   4.075 -2.9749  0.2307 -0.0091
 1908TIP3    H2 5689   2.226   3.720   4.042 -0.1654 -0.0299 -0.5111
 1909TIP3   OH2 5690   6.986   1.660   0.616  0.6685  0.3309 -0.6506
 1909TIP3    H1 5691   6.915   1.613   0.659  0.4740  0.0611 -1.2559
 1909TIP3    H2 5692   7.023   1.597   0.555  1.2194  0.5753 -0.5741
 1910TIP3   OH2 5693   4.545   6.703   4.074 -0.3880  0.1433 -0.6498
 1910TIP3    H1 5694   4.543   6.622   4.125 -0.4432  1.1819  1.1038
 1910TIP3    H2 5695   4.638   6.726   4.068 -0.3887  0.0710 -0.9392
 1911TIP3   OH2 5696   2.421   0.267   2.672 -0.1594  0.4266 -0.0509
 1911TIP3    H1 5697   2.415   0.346   2.726  2.4540  1.2382 -0.8351
 1911TIP3    H2 5698   2.351   0.277   2.608 -1.1741  1.0523  1.0966
 1912TIP3   OH2 5699   3.253   6.427   1.829 -0.2654  0.1778 -0.9311
 1912TIP3    H1 5700   3.252   6.520   1.806 -1.9673  0.9597  1.8431
 1912TIP3    H2 5701   3.190   6.419   1.900  0.7066 -2.9073 -0.2556
 1913TIP3   OH2 5702   2.812   5.107   4.712 -0.4834  0.5621 -0.2210
 1913TIP3    H1 5703   2.870   5.071   4.779  0.0413  1.1775 -0.3359
 1913TIP3    H2 5704   2.779   5.031   4.664 -0.7111  0.1265  0.6064
 1914TIP3   OH2 5705   1.013   3.532   4.038 -0.1775  0.0961  0.3600
 1914TIP3    H1 5706   0.926   3.532   4.076 -0.0380  1.5131  0.7296
 1914TIP3    H2 5707   0.998   3.524   3.943 -0.5219 -3.3221  0.5646
 1915TIP3   OH2 5708   3.349   0.569   0.317  0.6435 -0.7761  0.0104
 1915TIP3    H1 5709   3.414   0.608   0.257  0.6944 -0.0212  0.5397
 1915TIP3    H2 5710   3.363   0.615   0.400 -0.7168 -0.4431  0.0785
 1916TIP3   OH2 5711   5.251   4.956   5.529  0.4143 -0.3637  0.0525
 1916TIP3    H1 5712   5.175   5.012   5.516 -0.1519 -0.5879  2.0761
 1916TIP3    H2 5713   5.315   5.012   5.574  0.1655 -1.0582  1.3187
 1917TIP3   OH2 5714   6.510   1.212   3.696 -0.0090 -0.1017 -0.0235
 1917TIP3    H1 5715   6.440   1.150   3.677 -0.6355  0.5110  0.2574
 1917TIP3    H2 5716   6.582   1.184   3.639 -0.6760 -0.3796 -0.7621
 1918TIP3   OH2 5717   3.647   4.388   1.255 -0.0899 -0.2762  0.4552
 1918TIP3    H1 5718   3.715   4.351   1.310  1.2982  0.1567 -0.9024
 1918TIP3    H2 5719   3.603   4.312   1.217  0.8596 -0.5735 -0.0818
 1919TIP3   OH2 5720   6.169   4.136   1.040 -0.1511  0.6302 -0.2558
 1919TIP3    H1 5721   6.249   4.094   1.007 -0.7316 -0.2285 -0.6179
 1919TIP3    H2 5722   6.185   4.229   1.029  1.4261  0.5750  1.1244
 1920TIP3   OH2 5723   4.843   0.577   0.725  0.1641 -0.1982 -0.2544
 1920TIP3    H1 5724   4.925   0.613   0.759  0.4081 -0.5804 -0.4280
 1920TIP3    H2 5725   4.784   0.652   0.719  0.9335  0.3327 -1.4436
 1921TIP3   OH2 5726   2.402   2.260   5.590 -0.2025  0.3484 -0.1328
 1921TIP3    H1 5727   2.349   2.248   5.669 -0.3032  0.7856 -0.1310
 1921TIP3    H2 5728   2.471   2.194   5.598 -1.3423 -0.9465 -0.6525
 1922TIP3   OH2 5729   2.204   0.317   0.958 -0.2585  0.4925 -0.4181
 1922TIP3    H1 5730   2.197   0.409   0.932  0.4008  0.6039 -0.2326
 1922TIP3    H2 5731   2.149   0.310   1.036  0.6384  1.0360  0.2925
 1923TIP3   OH2 5732   3.369   6.477   3.403  0.2252  0.2065  0.2803
 1923TIP3    H1 5733   3.298   6.425   3.438  0.4671  0.3042  0.9312
 1923TIP3    H2 5734   3.367   6.558   3.454 -0.1399  0.8356 -0.7129
 1924TIP3   OH2 5735   5.440   6.709   4.668 -0.1487 -0.2092 -0.2505
 1924TIP3    H1 5736   5.425   6.795   4.707  1.9511  0.2593 -0.3707
 1924TIP3    H2 5737   5.395   6.714   4.583  0.4108  0.9931 -0.4978
 1925TIP3   OH2 5738   5.166   1.917   4.936  0.1867  0.0719 -0.0708
 1925TIP3    H1 5739   5.175   2.000   4.983  2.4043  0.3235 -0.8447
 1925TIP3    H2 5740   5.130   1.942   4.851 -1.4130 -0.0808  0.5345
 1926TIP3   OH2 5741   5.199   1.714   5.119 -0.5152 -0.5006  0.2063
 1926TIP3    H1 5742   5.193   1.782   5.052  0.3572  0.8900  1.4693
 1926TIP3    H2 5743   5.113   1.673   5.120 -1.0951  0.6540 -0.5227
 1927TIP3   OH2 5744   1.898   6.114   3.655 -0.7433 -0.0686  0.1105
 1927TIP3    H1 5745   1.978   6.161   3.678  0.2291 -0.9400 -1.3098
 1927TIP3    H2 5746   1.893   6.042   3.718  0.1062 -0.5457 -0.3545
 1928TIP3   OH2 5747   4.200   2.392   2.652 -0.2380  0.1613 -0.3965
 1928TIP3    H1 5748   4.240   2.430   2.731  0.5572  0.5868 -0.9855
 1928TIP3    H2 5749   4.154   2.465   2.611 -0.7147 -0.0777 -0.2947
 1929TIP3   OH2 5750   4.866   5.508   2.578 -0.0275  0.8035  0.0682
 1929TIP3    H1 5751   4.781   5.479   2.544  0.1761  0.1443  0.1003
 1929TIP3    H2 5752   4.919   5.429   2.579  1.5649  1.6791 -2.7841
 1930TIP3   OH2 5753   5.248   1.664   5.821  0.4500 -0.1749 -0.1352
 1930TIP3    H1 5754   5.202   1.748   5.813 -2.1189 -1.5757 -1.3958
 1930TIP3    H2 5755   5.245   1.644   5.915 -1.1309  0.0311 -0.1153
 1931TIP3   OH2 5756   6.062   4.649   0.507 -0.6549 -0.4961  0.2420
 1931TIP3    H1 5757   6.008   4.626   0.582  0.4220  0.6157  1.4093
 1931TIP3    H2 5758   6.116   4.722   0.538 -1.1466  0.9345 -2.0158
 1932TIP3   OH2 5759   2.609   3.769   4.350  0.1384  0.0452  0.1693
 1932TIP3    H1 5760   2.544   3.808   4.408 -0.0871  0.2100 -0.1943
 1932TIP3    H2 5761   2.562   3.750   4.269  0.3219 -0.6818  0.2241
 1933TIP3   OH2 5762   5.959   4.368   3.179  0.2819 -0.1380  0.0260
 1933TIP3    H1 5763   5.869   4.345   3.156 -0.1369 -0.4678  1.8732
 1933TIP3    H2 5764   6.001   4.285   3.200  1.0260  0.0228 -0.7449
 1934TIP3   OH2 5765   5.957   6.578   3.982  0.2856  0.2185  0.1250
 1934TIP3    H1 5766   6.029   6.580   4.046 -0.4341 -0.5030  0.9967
 1934TIP3    H2 5767   5.950   6.668   3.951  2.7225 -0.0120 -1.3448
 1935TIP3   OH2 5768   0.327   1.308   2.410 -0.0325  0.1866  0.3433
 1935TIP3    H1 5769   0.359   1.394   2.383  1.7812 -0.4551  0.3041
 1935TIP3    H2 5770   0.300   1.266   2.328 -1.2150  0.7976  0.3966
 1936TIP3   OH2 5771   2.046   5.989   1.111 -0.1966 -0.6256 -0.1171
 1936TIP3    H1 5772   2.079   6.072   1.145  1.7165 -0.1547 -2.7862
 1936TIP3    H2 5773   1.977   6.013   1.051  2.9513 -0.3320 -4.0473
 1937TIP3   OH2 5774   4.607   5.949   4.714 -1.0835  0.0528 -0.7454
 1937TIP3    H1 5775   4.553   6.027   4.703 -3.1708 -1.2833 -0.5695
 1937TIP3    H2 5776   4.578   5.889   4.645 -0.8259 -1.2364  0.2068
 1938TIP3   OH2 5777   1.791   1.171   1.274 -0.3807 -0.3266 -0.1072
 1938TIP3    H1 5778   1.744   1.087   1.267 -1.3443  0.1576  0.3526
 1938TIP3    H2 5779   1.762   1.207   1.357  0.8955 -0.0382  0.2334
 1939TIP3   OH2 5780   1.118   1.035   4.544 -0.3564  0.1532 -0.3119
 1939TIP3    H1 5781   1.102   1.054   4.636  0.3817  1.1405 -0.3758
 1939TIP3    H2 5782   1.201   0.987   4.543  0.0125  0.7929 -0.5205
 1940TIP3   OH2 5783   1.154   2.225   5.400 -0.2724  0.5217 -0.1352
 1940TIP3    H1 5784   1.203   2.250   5.478  0.9190 -2.0168  0.0342
 1940TIP3    H2 5785   1.220   2.184   5.343 -1.5167  0.4193 -1.5597
 1941TIP3   OH2 5786   5.187   5.184   3.317 -0.2639 -0.1859  0.4956
 1941TIP3    H1 5787   5.239   5.105   3.301 -0.6047 -0.2647 -0.2687
 1941TIP3    H2 5788   5.100   5.151   3.338 -0.1242 -0.0403  1.3275
 1942TIP3   OH2 5789   3.487   6.354   5.604 -0.2726  0.8377 -0.5343
 1942TIP3    H1 5790   3.395   6.329   5.614 -0.3742  0.5596 -1.9781
 1942TIP3    H2 5791   3.488   6.448   5.623 -0.6389  0.6290  0.6098
 1943TIP3   OH2 5792   1.134   0.043   3.896  0.1360 -0.0835  0.4184
 1943TIP3    H1 5793   1.176   0.078   3.817 -0.1704 -0.1460  0.2248
 1943TIP3    H2 5794   1.159   0.103   3.966  0.1425  0.1530  0.2111
 1944TIP3   OH2 5795   2.948   1.844   0.673 -0.3631  0.1253  0.0036
 1944TIP3    H1 5796   2.972   1.926   0.714  0.6252 -0.0509 -0.1976
 1944TIP3    H2 5797   2.966   1.777   0.739  1.7196 -0.2109 -0.8241
 1945TIP3   OH2 5798   1.821   6.668   1.421  0.1068  0.2798  0.4610
 1945TIP3    H1 5799   1.886   6.709   1.477 -1.0684  1.1065  1.2825
 1945TIP3    H2 5800   1.767   6.741   1.390  0.4893 -0.2063 -1.4614
 1946TIP3   OH2 5801   0.769   2.682   2.357  0.0682  0.0233 -0.0024
 1946TIP3    H1 5802   0.814   2.767   2.362 -0.5904  0.4314 -0.7851
 1946TIP3    H2 5803   0.760   2.655   2.448  0.0285  0.9350  0.2784
 1947TIP3   OH2 5804   3.914   2.614   3.014  0.1306 -0.1534  0.0577
 1947TIP3    H1 5805   3.895   2.543   3.076 -0.7534  1.0640  1.2441
 1947TIP3    H2 5806   3.921   2.570   2.929 -0.5907 -1.6358  0.7199
 1948TIP3   OH2 5807   4.411   2.584   0.387  0.1555  0.0347 -0.4295
 1948TIP3    H1 5808   4.477   2.589   0.457 -0.5153 -1.8828  0.4195
 1948TIP3    H2 5809   4.327   2.594   0.432 -0.3002 -1.4589 -0.8922
 1949TIP3   OH2 5810   6.233   3.789   0.480 -0.9517  0.6056  0.2040
 1949TIP3    H1 5811   6.230   3.777   0.385 -0.7609  0.0820  0.2605
 1949TIP3    H2 5812   6.257   3.703   0.514  0.5547  1.1590  0.6160
 1950TIP3   OH2 5813   1.728   0.749   0.349 -0.4162  0.3770 -0.3468
 1950TIP3    H1 5814   1.637   0.726   0.366 -0.5392 -1.7791 -3.0975
 1950TIP3    H2 5815   1.726   0.792   0.263  1.3372 -2.4045 -1.9306
 1951TIP3   OH2 5816   3.778   0.800   2.391 -0.2978  0.6180 -0.1805
 1951TIP3    H1 5817   3.804   0.864   2.325  0.1474  0.4328 -0.1895
 1951TIP3    H2 5818   3.846   0.806   2.458 -0.0116 -0.1439 -0.3897
 1952TIP3   OH2 5819   4.552   2.272   0.788 -0.6512 -0.2894 -0.3159
 1952TIP3    H1 5820   4.647   2.273   0.799 -0.6324 -1.3361 -0.2316
 1952TIP3    H2 5821   4.538   2.218   0.710 -1.1846 -0.4207 -0.1304
 1953TIP3   OH2 5822   4.221   2.827   0.101 -0.0257  0.0477  0.0458
 1953TIP3    H1 5823   4.162   2.885   0.149 -2.6178 -2.4468  0.2182
 1953TIP3    H2 5824   4.230   2.750   0.158 -0.5830 -1.6356 -1.9923
 1954TIP3   OH2 5825   0.912   0.775   0.738  0.1311  0.7086 -0.3568
 1954TIP3    H1 5826   0.984   0.751   0.679  1.2036  0.2999  1.0543
 1954TIP3    H2 5827   0.836   0.730   0.702  0.5986  1.0051 -1.7927
 1955TIP3   OH2 5828   5.811   2.011   4.741 -0.1730 -0.1442 -0.2232
 1955TIP3    H1 5829   5.802   2.098   4.703 -1.6462  0.1273  0.6977
 1955TIP3    H2 5830   5.903   2.005   4.767  0.1112  0.8342 -0.9857
 1956TIP3   OH2 5831   1.152   0.812   5.181 -0.1177 -0.2499 -0.6417
 1956TIP3    H1 5832   1.098   0.735   5.201 -1.1681  0.6567  0.0866
 1956TIP3    H2 5833   1.092   0.875   5.143  0.2583  1.0197  0.7732
 1957TIP3   OH2 5834   0.310   1.202   3.763 -0.1012 -0.4077 -0.2128
 1957TIP3    H1 5835   0.234   1.256   3.783 -0.6035 -0.9910 -0.5257
 1957TIP3    H2 5836   0.274   1.125   3.719  0.6706 -0.6805 -0.3776
 1958TIP3   OH2 5837   6.680   6.081   1.419  0.4067 -0.3784 -0.0159
 1958TIP3    H1 5838   6.770   6.109   1.402  0.6149 -1.0623 -0.0581
 1958TIP3    H2 5839   6.687   6.020   1.493 -0.3072  1.4428  1.6626
 1959TIP3   OH2 5840   7.007   0.713   2.670 -0.2711 -0.3785 -0.1126
 1959TIP3    H1 5841   6.967   0.707   2.757  0.0010  0.3425  0.0716
 1959TIP3    H2 5842   7.101   0.702   2.686 -0.1955 -0.0166 -0.2747
 1960TIP3   OH2 5843   4.838   2.246   4.097 -0.2670 -0.6858  0.0571
 1960TIP3    H1 5844   4.762   2.216   4.046 -0.4417  0.0663 -0.1398
 1960TIP3    H2 5845   4.909   2.188   4.070 -0.6774 -1.1637 -0.0317
 1961TIP3   OH2 5846   7.023   2.786   2.544 -0.3189 -0.5333 -0.2181
 1961TIP3    H1 5847   7.006   2.743   2.628 -1.7179  0.0271 -0.1861
 1961TIP3    H2 5848   7.033   2.715   2.482 -0.5929 -0.9406  0.1961
 1962TIP3   OH2 5849   2.317   5.354   3.859  0.6602 -0.1800  0.8289
 1962TIP3    H1 5850   2.370   5.369   3.780 -0.5616 -1.9930 -0.4270
 1962TIP3    H2 5851   2.295   5.442   3.890 -0.1217  0.6495 -1.7821
 1963TIP3   OH2 5852   3.245   1.165   4.360  0.4228  0.0305  0.3488
 1963TIP3    H1 5853   3.191   1.179   4.438 -1.4133  1.4461 -1.0989
 1963TIP3    H2 5854   3.259   1.070   4.358 -0.4179 -0.1597  1.7823
 1964TIP3   OH2 5855   3.607   2.427   5.228  0.7124  0.6244  0.5353
 1964TIP3    H1 5856   3.699   2.425   5.254  0.5678  1.5294  1.1449
 1964TIP3    H2 5857   3.589   2.338   5.196  1.9101  0.5636 -0.0055
 1965TIP3   OH2 5858   3.595   6.177   4.837  0.2603  0.1031 -0.3439
 1965TIP3    H1 5859   3.630   6.210   4.754 -1.4444 -0.3231 -1.2968
 1965TIP3    H2 5860   3.515   6.228   4.851  1.3290  1.2588  1.8954
 1966TIP3   OH2 5861   1.130  -0.003   2.378  1.1688 -0.2119 -0.3859
 1966TIP3    H1 5862   1.154   0.034   2.463  1.8600  2.3173 -1.5914
 1966TIP3    H2 5863   1.213  -0.007   2.330  0.9353 -2.4114 -0.7145
 1967TIP3   OH2 5864   4.118   2.209   2.422  0.1788 -0.0363 -0.5385
 1967TIP3    H1 5865   4.200   2.196   2.375 -0.1768 -1.4879 -0.8289
 1967TIP3    H2 5866   4.143   2.253   2.503  1.2822 -0.6853 -0.5072
 1968TIP3   OH2 5867   0.236   6.591   1.881 -0.1079  0.6060  0.5404
 1968TIP3    H1 5868   0.281   6.602   1.797  1.7580 -2.8203  0.9082
 1968TIP3    H2 5869   0.289   6.640   1.944  0.9405 -0.2197  0.3275
 1969TIP3   OH2 5870   0.567   1.165   3.660 -0.1290  0.1647 -0.3185
 1969TIP3    H1 5871   0.480   1.189   3.692  0.0674  0.8330 -0.2842
 1969TIP3    H2 5872   0.623   1.239   3.682  1.0550 -1.3173  2.0535
 1970TIP3   OH2 5873   1.691   5.932   0.311  0.5884 -0.1158 -0.2260
 1970TIP3    H1 5874   1.707   5.848   0.355  0.2952  0.2856  0.6648
 1970TIP3    H2 5875   1.656   5.907   0.225 -0.2543 -0.8967  0.3271
 1971TIP3   OH2 5876   0.260   4.474   3.190 -0.1868  0.4724  0.3839
 1971TIP3    H1 5877   0.323   4.459   3.120  0.6790  0.4355  1.1455
 1971TIP3    H2 5878   0.311   4.464   3.271 -0.7792  2.1045  1.0061
 1972TIP3   OH2 5879   3.195   4.490   5.531  0.1606 -0.5338  0.6209
 1972TIP3    H1 5880   3.145   4.551   5.475 -0.7445 -1.7243  0.0795
 1972TIP3    H2 5881   3.265   4.544   5.568  2.4092 -0.1435 -3.5949
 1973TIP3   OH2 5882   4.348   2.697   3.670  0.2493 -0.1362  0.7425
 1973TIP3    H1 5883   4.357   2.642   3.592 -0.6645 -0.7632  1.0673
 1973TIP3    H2 5884   4.318   2.781   3.636 -0.0308 -0.3683  0.4070
 1974TIP3   OH2 5885   5.330   6.733   1.947 -0.2952  0.5487  1.2249
 1974TIP3    H1 5886   5.329   6.811   2.002 -0.3352  1.8378 -0.5530
 1974TIP3    H2 5887   5.417   6.695   1.960 -0.1255  1.1148  1.7661
 1975TIP3   OH2 5888   2.633   5.963   3.405 -0.0466  0.1189  0.2943
 1975TIP3    H1 5889   2.552   5.919   3.379  0.8540 -1.9614  0.7925
 1975TIP3    H2 5890   2.616   6.056   3.389 -2.2930 -0.3127 -0.1976
 1976TIP3   OH2 5891   4.481   5.658   4.736 -0.0062  0.0029  0.1434
 1976TIP3    H1 5892   4.562   5.629   4.692  0.3574 -0.0793  0.8591
 1976TIP3    H2 5893   4.453   5.734   4.685 -0.7209 -1.2951 -1.4949
 1977TIP3   OH2 5894   2.577   0.477   3.149  0.0205 -0.1006 -0.3947
 1977TIP3    H1 5895   2.628   0.461   3.069  0.7078  1.8963 -0.4245
 1977TIP3    H2 5896   2.558   0.390   3.183  2.0385 -0.9786 -1.3001
 1978TIP3   OH2 5897   1.722   4.887   5.853  0.3397  0.3986  0.4869
 1978TIP3    H1 5898   1.719   4.816   5.918  1.2400  1.0096  1.2389
 1978TIP3    H2 5899   1.811   4.882   5.817  0.9796  2.0926  1.7018
 1979TIP3   OH2 5900   0.054   4.462   5.720 -0.3283  0.1747  0.4259
 1979TIP3    H1 5901   0.107   4.522   5.668  1.0969 -0.3251  1.2579
 1979TIP3    H2 5902   0.090   4.375   5.703 -1.1244 -0.2246  0.7192
 1980TIP3   OH2 5903   2.502   4.666   1.872 -0.0195  0.5765 -0.3632
 1980TIP3    H1 5904   2.538   4.751   1.848  0.4650  0.2550 -0.7959
 1980TIP3    H2 5905   2.518   4.659   1.966 -0.0106  0.9347 -0.3363
 1981TIP3   OH2 5906   4.614   4.892   1.977 -0.2289 -0.5262  0.1012
 1981TIP3    H1 5907   4.609   4.987   1.986  1.8362 -0.5845  3.1228
 1981TIP3    H2 5908   4.524   4.862   1.990 -1.0801  0.9913 -1.8072
 1982TIP3   OH2 5909   2.949   3.142   0.558 -0.5107  0.5631  0.0405
 1982TIP3    H1 5910   2.977   3.190   0.480 -0.7434 -0.2676 -0.5726
 1982TIP3    H2 5911   2.951   3.050   0.531  2.6861 -0.1037  1.9804
 1983TIP3   OH2 5912   3.669   2.911   0.242 -0.6278 -0.2332  0.0358
 1983TIP3    H1 5913   3.646   3.003   0.233 -2.1132 -0.5596  0.1609
 1983TIP3    H2 5914   3.647   2.873   0.157  3.6052  0.1540 -1.4563
 1984TIP3   OH2 5915   1.089   6.671   5.707  0.2488 -0.3872  1.0641
 1984TIP3    H1 5916   1.044   6.587   5.698  0.8775 -0.5989 -0.6115
 1984TIP3    H2 5917   1.162   6.653   5.767  1.1394 -1.4272 -0.2567
 1985TIP3   OH2 5918   2.476   2.251   0.950 -0.1834 -0.7399 -0.0433
 1985TIP3    H1 5919   2.444   2.249   0.860  1.4496 -0.2726 -0.6795
 1985TIP3    H2 5920   2.534   2.175   0.957  0.7543 -0.0338  0.1618
 1986TIP3   OH2 5921   1.894   3.262   1.749 -0.5225  0.4157 -0.2566
 1986TIP3    H1 5922   1.857   3.208   1.819  1.7636 -0.7513  0.1676
 1986TIP3    H2 5923   1.894   3.351   1.784  0.0834 -0.0756  1.0449
 1987TIP3   OH2 5924   2.825   1.327   1.518  0.4494 -0.1825  0.1160
 1987TIP3    H1 5925   2.799   1.282   1.437  2.1187 -0.0126 -0.5642
 1987TIP3    H2 5926   2.743   1.361   1.554 -0.2618  0.3577 -1.8812
 1988TIP3   OH2 5927   5.115   3.218   3.753 -0.2514 -0.1353 -0.0220
 1988TIP3    H1 5928   5.112   3.264   3.669 -0.8798  1.5541  0.8823
 1988TIP3    H2 5929   5.048   3.261   3.807 -0.3839 -1.6739  1.1094
 1989TIP3   OH2 5930   6.394   4.624   0.408 -0.4146 -0.0940  0.3382
 1989TIP3    H1 5931   6.470   4.577   0.372  1.1949  2.4254  0.2133
 1989TIP3    H2 5932   6.347   4.558   0.458  1.8151 -1.7966  0.3497
 1990TIP3   OH2 5933   5.253   1.461   4.446 -0.2361  0.2103 -0.3234
 1990TIP3    H1 5934   5.241   1.483   4.538  0.1883 -1.5530  0.1976
 1990TIP3    H2 5935   5.164   1.447   4.413 -0.3248 -2.5604  0.7891
 1991TIP3   OH2 5936   5.643   4.778   4.992  0.0977  0.6957  0.1742
 1991TIP3    H1 5937   5.707   4.840   4.959  1.1820 -0.5522 -0.1468
 1991TIP3    H2 5938   5.576   4.774   4.924  0.4868  0.8263 -0.2227
 1992TIP3   OH2 5939   5.183   6.295   4.067 -0.6349 -0.0867  0.5120
 1992TIP3    H1 5940   5.183   6.226   4.133 -0.1994 -1.2985 -0.7112
 1992TIP3    H2 5941   5.272   6.331   4.069 -0.2687 -0.9223 -0.1978
 1993TIP3   OH2 5942   4.104   5.736   4.153 -0.4300 -0.6895 -0.2530
 1993TIP3    H1 5943   4.150   5.783   4.223 -0.8372  1.7263 -1.5059
 1993TIP3    H2 5944   4.162   5.663   4.131  0.9123 -0.0009  0.8416
 1994TIP3   OH2 5945   4.466   4.128   0.724 -0.2889 -0.4017  0.0832
 1994TIP3    H1 5946   4.486   4.049   0.774  0.2163 -1.3173 -1.5223
 1994TIP3    H2 5947   4.445   4.097   0.636  0.8985  1.3005 -0.8581
 1995TIP3   OH2 5948   1.657   1.098   3.784  0.4428  0.2387  0.6766
 1995TIP3    H1 5949   1.752   1.104   3.788  0.4792  0.2967 -0.1779
 1995TIP3    H2 5950   1.636   1.097   3.691 -0.4502  1.1554  0.8479
 1996TIP3   OH2 5951   6.942   6.642   5.871  0.4388  0.5888 -0.1068
 1996TIP3    H1 5952   6.902   6.717   5.913  0.3465  1.1530 -1.1524
 1996TIP3    H2 5953   6.913   6.647   5.780  1.1003 -0.2399 -0.3840
 1997TIP3   OH2 5954   4.622   2.822   1.527 -0.4027  0.0340 -0.0835
 1997TIP3    H1 5955   4.569   2.898   1.501  0.9967  0.9596 -0.3302
 1997TIP3    H2 5956   4.622   2.765   1.450  1.3274  1.4146 -1.2045
 1998TIP3   OH2 5957   1.149   0.672   1.611 -0.1753  0.7639  0.0352
 1998TIP3    H1 5958   1.224   0.726   1.586  1.0496 -0.2948  1.2886
 1998TIP3    H2 5959   1.166   0.587   1.569  1.7785 -0.9660  3.8303
 1999TIP3   OH2 5960   1.481   6.727   2.410 -0.2533 -0.5655  0.2129
 1999TIP3    H1 5961   1.483   6.812   2.455 -0.4879 -0.8924  0.8472
 1999TIP3    H2 5962   1.411   6.736   2.346  2.5527  1.2854 -2.9092
 2000TIP3   OH2 5963   2.437   1.257   2.570 -0.2624  0.5950 -0.2906
 2000TIP3    H1 5964   2.422   1.258   2.665  1.6543  0.1245  0.0559
 2000TIP3    H2 5965   2.440   1.164   2.548 -1.2010  0.6990 -0.9354
 2001TIP3   OH2 5966   1.494   3.364   4.771 -0.0481  0.2150 -0.8856
 2001TIP3    H1 5967   1.488   3.268   4.772  0.6883  0.1604 -0.1221
 2001TIP3    H2 5968   1.418   3.394   4.820  0.2711 -0.0246 -0.2355
 2002TIP3   OH2 5969   6.783   5.102   1.423 -0.0531 -0.8466  0.4666
 2002TIP3    H1 5970   6.840   5.163   1.377  0.1215 -1.6458 -0.3951
 2002TIP3    H2 5971   6.762   5.146   1.505  0.8589 -0.0500  0.2836
 2003TIP3   OH2 5972   3.604   4.238   2.977  0.2297  0.4263  0.2799
 2003TIP3    H1 5973   3.619   4.227   3.071  0.1753  1.2021  0.3835
 2003TIP3    H2 5974   3.637   4.157   2.938 -0.8128 -0.4262  1.0785
 2004TIP3   OH2 5975   6.223   2.726   3.548  0.0699 -0.2357  0.0340
 2004TIP3    H1 5976   6.169   2.804   3.541 -0.3383 -0.5065  0.1761
 2004TIP3    H2 5977   6.233   2.711   3.642  1.0906  0.2922  0.0265
 2005TIP3   OH2 5978   0.969   6.395   4.381 -0.6908 -0.2863 -0.0104
 2005TIP3    H1 5979   0.954   6.487   4.400 -0.4001 -0.4219  0.9678
 2005TIP3    H2 5980   0.894   6.350   4.419 -0.9743 -0.4345 -0.7345
 2006TIP3   OH2 5981   1.544   6.604   0.249  0.5895  0.0046 -0.2598
 2006TIP3    H1 5982   1.599   6.609   0.327  0.2660  0.8192 -0.0764
 2006TIP3    H2 5983   1.591   6.545   0.190  2.3308  1.6924 -0.6405
 2007TIP3   OH2 5984   4.735   6.033   5.752 -0.1931 -0.3332  0.0854
 2007TIP3    H1 5985   4.735   6.030   5.656 -0.0814 -0.8377  0.0930
 2007TIP3    H2 5986   4.827   6.018   5.776 -0.2339 -0.2902  0.2719
 2008TIP3   OH2 5987   3.858   0.475   5.783  0.6647 -0.2318 -0.1481
 2008TIP3    H1 5988   3.895   0.561   5.763 -0.0467  0.1493  0.1588
 2008TIP3    H2 5989   3.800   0.490   5.857 -0.2642 -0.7773 -0.7364
 2009TIP3   OH2 5990   0.467   2.556   5.058 -0.2681  0.3012 -0.6296
 2009TIP3    H1 5991   0.477   2.643   5.095 -1.0099  0.2307 -0.2536
 2009TIP3    H2 5992   0.542   2.506   5.092 -0.5029  0.4568  0.1337
 2010TIP3   OH2 5993   5.325   2.086   1.458  0.1466 -0.1857 -0.1128
 2010TIP3    H1 5994   5.308   2.159   1.518 -1.6121 -0.6046 -0.0458
 2010TIP3    H2 5995   5.319   2.125   1.371  1.2201  0.1241 -0.0645
 2011TIP3   OH2 5996   3.698   2.111   5.005  0.3916 -0.2976  0.6579
 2011TIP3    H1 5997   3.677   2.066   5.086 -1.2942 -0.6224  0.0897
 2011TIP3    H2 5998   3.627   2.175   4.994  0.2663 -0.6539 -0.8355
 2012TIP3   OH2 5999   3.988   6.536   1.901  0.1053  0.0896  0.4684
 2012TIP3    H1 6000   3.914   6.478   1.883 -0.9978  1.3285  0.8266
 2012TIP3    H2 6001   4.062   6.477   1.915 -0.4576 -1.1328 -1.3875
 2013TIP3   OH2 6002   5.186   5.494   0.074 -0.4784 -0.1817  0.0616
 2013TIP3    H1 6003   5.250   5.495   0.145  0.7983  2.4804 -0.9975
 2013TIP3    H2 6004   5.127   5.566   0.094 -3.2429 -2.5080  0.9509
 2014TIP3   OH2 6005   3.127   2.539   2.538 -0.3433  0.1630  0.0901
 2014TIP3    H1 6006   3.220   2.533   2.519 -0.1578  0.2960  0.9274
 2014TIP3    H2 6007   3.089   2.581   2.460 -0.1001 -2.0525 -1.3174
 2015TIP3   OH2 6008   7.194   5.726   3.893  0.1522 -0.3040 -0.0598
 2015TIP3    H1 6009   7.235   5.805   3.857  0.8905 -0.0287  1.2811
 2015TIP3    H2 6010   7.100   5.743   3.886  0.2969  0.5753 -0.0785
 2016TIP3   OH2 6011   3.359   1.770   5.808  0.2016  0.1814  0.3461
 2016TIP3    H1 6012   3.422   1.834   5.840  0.8772 -0.9208  1.2698
 2016TIP3    H2 6013   3.410   1.690   5.796  0.0978  0.5166 -3.8142
 2017TIP3   OH2 6014   4.251   0.728   3.316 -0.8257  0.0037 -0.4095
 2017TIP3    H1 6015   4.243   0.813   3.272 -1.6829 -0.3793 -1.0249
 2017TIP3    H2 6016   4.239   0.664   3.246  0.5978 -0.6416 -0.0814
 2018TIP3   OH2 6017   5.576   2.234   3.043  0.5367 -0.5995  0.0222
 2018TIP3    H1 6018   5.647   2.193   2.995  1.0447  0.6163 -0.2914
 2018TIP3    H2 6019   5.585   2.327   3.025  1.1719  0.0157  2.9878
 2019TIP3   OH2 6020   1.627   2.531   2.573  0.1646  0.1757 -0.4438
 2019TIP3    H1 6021   1.716   2.546   2.544 -0.2785  1.2077 -1.3143
 2019TIP3    H2 6022   1.623   2.571   2.660  0.0680  1.7614 -1.1488
 2020TIP3   OH2 6023   4.333   1.865   3.199 -0.9774 -0.2947  0.7996
 2020TIP3    H1 6024   4.353   1.937   3.140  1.9486 -0.5783  1.2747
 2020TIP3    H2 6025   4.304   1.794   3.142 -0.8038  0.2590  0.0048
 2021TIP3   OH2 6026   6.890   2.074   2.994  0.4355  0.3676 -0.5455
 2021TIP3    H1 6027   6.939   2.143   2.948  0.1669  0.1085 -1.2287
 2021TIP3    H2 6028   6.945   1.996   2.986 -1.5472 -0.8675 -4.3922
 2022TIP3   OH2 6029   0.600   0.136   0.462 -0.1785  0.5364 -0.5964
 2022TIP3    H1 6030   0.689   0.169   0.447  0.4933  0.1167  1.9044
 2022TIP3    H2 6031   0.598   0.051   0.419  0.2026  1.0486 -1.6753
 2023TIP3   OH2 6032   1.757   0.068   2.885 -0.5123 -0.3377  0.0272
 2023TIP3    H1 6033   1.741   0.118   2.965 -2.0449 -1.9226  0.7734
 2023TIP3    H2 6034   1.685   0.092   2.827 -0.6847 -0.9140 -0.0000
 2024TIP3   OH2 6035   0.382   6.637   2.179 -0.0828  0.2045  0.0400
 2024TIP3    H1 6036   0.454   6.574   2.175  0.1904  0.5590 -1.1685
 2024TIP3    H2 6037   0.330   6.609   2.254 -0.5229 -2.0890 -1.0073
 2025TIP3   OH2 6038   3.806   5.609   3.191 -0.8269 -0.3201  0.6733
 2025TIP3    H1 6039   3.831   5.517   3.186  0.8445  0.1645 -1.6965
 2025TIP3    H2 6040   3.782   5.632   3.101 -0.5389  1.7069  1.0612
 2026TIP3   OH2 6041   6.919   3.392   1.357  0.1883  0.3143 -0.6182
 2026TIP3    H1 6042   6.940   3.399   1.264 -0.4863  2.1117 -0.6813
 2026TIP3    H2 6043   6.827   3.366   1.359  0.0791  0.6978 -0.4800
 2027TIP3   OH2 6044   0.363   4.164   3.129  0.0553 -0.1336  0.1747
 2027TIP3    H1 6045   0.424   4.093   3.109 -1.3414 -1.1001 -0.8304
 2027TIP3    H2 6046   0.333   4.194   3.044  0.8008  1.8865  0.5662
 2028TIP3   OH2 6047   2.677   4.390   4.459  0.1941  0.2806 -0.0958
 2028TIP3    H1 6048   2.724   4.473   4.452  0.8672 -0.1229 -0.4422
 2028TIP3    H2 6049   2.723   4.342   4.529  0.1915 -0.0391 -0.3082
 2029TIP3   OH2 6050   5.784   0.377   1.242 -0.1718 -0.6084  1.3220
 2029TIP3    H1 6051   5.863   0.423   1.215 -0.7308 -0.7068 -0.6964
 2029TIP3    H2 6052   5.781   0.386   1.337  0.8041  1.7701  1.1935
 2030TIP3   OH2 6053   2.157   3.544   0.221 -0.2811  0.6820 -0.2950
 2030TIP3    H1 6054   2.189   3.582   0.303 -0.6965  1.8143 -0.6477
 2030TIP3    H2 6055   2.231   3.550   0.161  0.3140 -0.9461  0.2171
 2031TIP3   OH2 6056   1.516   0.237   5.343  0.1372  1.0856  0.2654
 2031TIP3    H1 6057   1.470   0.211   5.423  0.6348  0.6743  0.4237
 2031TIP3    H2 6058   1.609   0.239   5.368  0.5311 -0.9817 -0.7722
 2032TIP3   OH2 6059   1.897   2.734   1.273 -0.1540  0.4980  0.0093
 2032TIP3    H1 6060   1.815   2.685   1.270  0.9968 -1.4754 -0.9960
 2032TIP3    H2 6061   1.921   2.735   1.366  0.2847 -1.8150 -0.0142
 2033TIP3   OH2 6062   0.200   5.643   2.542  0.3683 -0.3210  0.4815
 2033TIP3    H1 6063   0.180   5.611   2.629  1.9102 -2.0872  0.2473
 2033TIP3    H2 6064   0.115   5.648   2.498 -0.3268 -0.2760  1.7942
 2034TIP3   OH2 6065   5.471   2.479   0.145  0.0329  0.4242 -0.5176
 2034TIP3    H1 6066   5.491   2.415   0.077  1.2360 -0.6676  0.7955
 2034TIP3    H2 6067   5.557   2.507   0.178 -0.5191  1.0365  0.4557
 2035TIP3   OH2 6068   3.502   6.473   3.174  0.5103 -0.3535  0.6764
 2035TIP3    H1 6069   3.463   6.481   3.261  1.1054  0.3811  0.8875
 2035TIP3    H2 6070   3.428   6.481   3.114 -0.3673 -3.7308  1.1051
 2036TIP3   OH2 6071   3.252   3.250   0.575  0.0320 -0.4401  0.1925
 2036TIP3    H1 6072   3.162   3.233   0.547  0.1761  0.0191 -0.5655
 2036TIP3    H2 6073   3.306   3.196   0.518  0.4312  1.7684 -1.6570
 2037TIP3   OH2 6074   5.161   4.909   4.593  0.3184 -0.0891 -0.2569
 2037TIP3    H1 6075   5.096   4.839   4.589 -0.4506  0.6653 -2.5120
 2037TIP3    H2 6076   5.181   4.918   4.687 -4.0884  0.7912  0.7934
 2038TIP3   OH2 6077   0.113   4.528   1.955 -0.8151  0.2084  0.2420
 2038TIP3    H1 6078   0.153   4.441   1.949  0.6306  0.8939 -0.5228
 2038TIP3    H2 6079   0.093   4.552   1.864  1.4371  1.8071  0.0704
 2039TIP3   OH2 6080   0.916   6.504   5.366 -0.3929  0.3713  0.1687
 2039TIP3    H1 6081   0.935   6.518   5.273  1.9078  0.0515  0.5405
 2039TIP3    H2 6082   0.920   6.592   5.405 -0.6640  0.4151  0.1052
 2040TIP3   OH2 6083   5.691   3.852   3.833 -0.2859 -0.1729 -0.3983
 2040TIP3    H1 6084   5.650   3.812   3.910 -0.7003  0.5725 -0.2211
 2040TIP3    H2 6085   5.775   3.885   3.865 -0.4205  0.0610 -0.2819
 2041TIP3   OH2 6086   5.860   5.826   0.925 -0.1032 -0.5306  0.3386
 2041TIP3    H1 6087   5.808   5.882   0.867  0.8676 -1.9887 -2.1073
 2041TIP3    H2 6088   5.946   5.866   0.927 -0.0068 -0.7364  0.3787
 2042TIP3   OH2 6089   6.493   3.099   4.461 -0.1765 -0.0355 -0.1483
 2042TIP3    H1 6090   6.492   3.133   4.372  0.3066  1.8451  0.5224
 2042TIP3    H2 6091   6.528   3.171   4.514 -0.2218 -1.1898  1.5277
 2043TIP3   OH2 6092   1.506   4.830   5.654 -0.2399 -0.4963 -0.3438
 2043TIP3    H1 6093   1.445   4.890   5.612 -1.2419 -0.3915  1.1830
 2043TIP3    H2 6094   1.565   4.887   5.704 -0.1916 -0.6973 -0.1713
 2044TIP3   OH2 6095   4.442   2.873   3.331  0.2622  0.8398 -0.1968
 2044TIP3    H1 6096   4.434   2.881   3.236 -1.8941  2.1789  0.0406
 2044TIP3    H2 6097   4.353   2.859   3.362  0.8836  0.7133  1.6575
 2045TIP3   OH2 6098   6.368   5.891   0.408 -0.3043  0.4597  0.2839
 2045TIP3    H1 6099   6.319   5.956   0.359  0.7342  0.8378 -0.2757
 2045TIP3    H2 6100   6.304   5.823   0.429 -1.0087  0.8451 -0.6038
 2046TIP3   OH2 6101   1.833   4.906   1.981 -0.3414  0.6910 -0.2668
 2046TIP3    H1 6102   1.926   4.908   2.003 -0.4302  1.7796  0.0845
 2046TIP3    H2 6103   1.818   4.819   1.946  0.2967 -0.3923  1.9617
 2047TIP3   OH2 6104   0.551   5.456   4.726  0.0704 -0.1052 -0.2921
 2047TIP3    H1 6105   0.606   5.386   4.692  2.4647  1.2909  0.4771
 2047TIP3    H2 6106   0.509   5.419   4.803  3.0652 -0.1818  1.4718
 2048TIP3   OH2 6107   4.688   1.044   5.731 -0.3368  0.1677  0.1709
 2048TIP3    H1 6108   4.762   1.095   5.700  0.7240 -1.1889  0.4000
 2048TIP3    H2 6109   4.632   1.034   5.655  0.9427 -0.9010 -0.6592
 2049TIP3   OH2 6110   6.311   3.885   4.667 -0.6068  1.0238 -0.3625
 2049TIP3    H1 6111   6.252   3.911   4.596  1.1222  1.8737 -1.5303
 2049TIP3    H2 6112   6.398   3.909   4.637  0.2752  0.6429  1.7183
 2050TIP3   OH2 6113   1.961   3.554   4.255 -0.2874  0.2246 -0.7596
 2050TIP3    H1 6114   2.042   3.505   4.266  0.5888  1.5351 -1.0818
 2050TIP3    H2 6115   1.952   3.563   4.160 -0.3222  0.8404 -0.7039
 2051TIP3   OH2 6116   1.555   4.432   2.266 -0.1692  0.5849  0.2683
 2051TIP3    H1 6117   1.476   4.408   2.314 -0.6533  1.7761  0.1027
 2051TIP3    H2 6118   1.594   4.502   2.319  1.1432 -0.4393  0.6935
 2052TIP3   OH2 6119   6.277   4.512   4.481  0.5536 -0.1197  0.1462
 2052TIP3    H1 6120   6.292   4.498   4.387 -1.4420 -1.4254 -0.0319
 2052TIP3    H2 6121   6.296   4.428   4.522 -0.1908 -0.0390  0.6800
 2053TIP3   OH2 6122   5.466   4.929   4.540 -0.2592  0.5854 -0.0714
 2053TIP3    H1 6123   5.376   4.903   4.560 -0.3756 -0.1210 -1.4026
 2053TIP3    H2 6124   5.473   5.020   4.571 -1.6632  0.9000 -0.6345
 2054TIP3   OH2 6125   4.431   4.028   2.811  0.0472  0.3809  0.6486
 2054TIP3    H1 6126   4.493   4.042   2.739 -1.3530  0.8155 -0.5118
 2054TIP3    H2 6127   4.481   4.048   2.890  1.2579  1.1499 -0.2814
 2055TIP3   OH2 6128   6.751   1.520   0.689  0.1335 -0.4202 -0.4302
 2055TIP3    H1 6129   6.707   1.439   0.711 -0.7826 -0.1548 -1.2200
 2055TIP3    H2 6130   6.689   1.567   0.632  0.6724  0.7860 -0.0674
 2056TIP3   OH2 6131   4.476   5.071   2.346  0.1840 -0.3279 -0.0751
 2056TIP3    H1 6132   4.413   5.086   2.275  1.2792  0.3583 -0.9317
 2056TIP3    H2 6133   4.425   5.027   2.413 -1.4277  0.8851 -0.4188
 2057TIP3   OH2 6134   1.633   1.145   0.211  0.8505 -0.4401 -0.3316
 2057TIP3    H1 6135   1.676   1.115   0.291  0.6092  1.2678  0.4839
 2057TIP3    H2 6136   1.699   1.198   0.166  0.2071  0.7285  0.0496
 2058TIP3   OH2 6137   4.571   5.182   1.994 -0.1827 -0.5155 -0.4969
 2058TIP3    H1 6138   4.589   5.259   1.940 -1.5160  1.8475  2.1830
 2058TIP3    H2 6139   4.622   5.197   2.073 -2.0301 -1.3617  0.9090
 2059TIP3   OH2 6140   3.993   1.122   4.125 -0.3841 -0.4661  0.7778
 2059TIP3    H1 6141   3.995   1.211   4.089  0.1836  0.2718  2.4825
 2059TIP3    H2 6142   4.072   1.080   4.093  0.8759  0.6686  2.2235
 2060TIP3   OH2 6143   4.930   2.507   4.080  0.0972  0.7203  0.2996
 2060TIP3    H1 6144   4.897   2.418   4.093  0.9973  0.5188  1.2947
 2060TIP3    H2 6145   4.894   2.557   4.153 -0.7334  1.2906 -0.4751
 2061TIP3   OH2 6146   6.566   0.996   2.222 -0.1266  0.2476 -0.1150
 2061TIP3    H1 6147   6.566   0.928   2.155 -0.8176  0.5877 -0.4686
 2061TIP3    H2 6148   6.527   1.072   2.179 -0.9171  0.3615  0.7832
 2062TIP3   OH2 6149   7.129   0.612   1.247  0.0690 -0.0379  0.5104
 2062TIP3    H1 6150   7.216   0.641   1.218  0.0149  0.7362  1.0902
 2062TIP3    H2 6151   7.133   0.517   1.245  0.7208 -0.0053 -0.0828
 2063TIP3   OH2 6152   4.267   0.702   5.876 -0.1501 -0.0713  0.2208
 2063TIP3    H1 6153   4.221   0.693   5.793 -0.9120  0.0767  0.6117
 2063TIP3    H2 6154   4.204   0.747   5.933  0.3512 -0.1899  0.8752
 2064TIP3   OH2 6155   5.610   2.974   0.849  0.1937 -0.3800 -0.2085
 2064TIP3    H1 6156   5.607   3.069   0.834  1.0787  0.2553  2.9070
 2064TIP3    H2 6157   5.536   2.957   0.907  0.1778 -1.5871 -0.5605
 2065TIP3   OH2 6158   1.200   2.595   0.737 -0.1792  0.1052  0.1888
 2065TIP3    H1 6159   1.279   2.558   0.698 -1.1680 -0.0639 -1.7556
 2065TIP3    H2 6160   1.204   2.689   0.716 -0.4321  0.1205  0.2060
 2066TIP3   OH2 6161   5.392   0.160   4.931 -0.8873 -0.2184  0.5214
 2066TIP3    H1 6162   5.348   0.076   4.947 -1.9618  0.4335  1.1005
 2066TIP3    H2 6163   5.379   0.176   4.837  0.3716 -1.2599  0.1419
 2067TIP3   OH2 6164   6.235   0.814   4.971  0.3019  0.5655 -0.2947
 2067TIP3    H1 6165   6.224   0.909   4.970  0.8862  0.6383  0.2674
 2067TIP3    H2 6166   6.234   0.789   4.878 -1.3604  0.9321 -0.4095
 2068TIP3   OH2 6167   1.607   1.782   4.521  0.1719 -0.0240 -0.1477
 2068TIP3    H1 6168   1.553   1.805   4.446  0.3151  1.3623  0.1549
 2068TIP3    H2 6169   1.669   1.717   4.487  0.5612  0.9557 -1.3546
 2069TIP3   OH2 6170   2.230   6.554   4.034 -0.2283 -0.1249 -0.7886
 2069TIP3    H1 6171   2.181   6.627   3.997  0.6462  0.6720 -0.3881
 2069TIP3    H2 6172   2.232   6.488   3.964 -0.3787  0.5276 -1.4117
 2070TIP3   OH2 6173   6.773   2.077   1.969  0.3141  0.2581 -0.1124
 2070TIP3    H1 6174   6.848   2.017   1.959 -0.1082 -0.8828  2.6715
 2070TIP3    H2 6175   6.697   2.023   1.947  0.1087  0.5391 -0.0895
 2071TIP3   OH2 6176   5.808   2.350   2.179 -0.4157  0.1026  0.5171
 2071TIP3    H1 6177   5.779   2.293   2.250  0.9856  0.4878  1.4509
 2071TIP3    H2 6178   5.901   2.365   2.197  0.1814 -0.3909 -1.8388
 2072TIP3   OH2 6179   6.433   1.759   1.020  0.1289  0.0864  0.4127
 2072TIP3    H1 6180   6.478   1.809   1.087  2.6806 -3.0883  1.2810
 2072TIP3    H2 6181   6.476   1.784   0.938  0.5069  0.2609  0.6624
 2073TIP3   OH2 6182   2.173   4.187   1.424 -0.6681  0.0165  0.5305
 2073TIP3    H1 6183   2.238   4.221   1.486 -0.4453  1.8288 -0.6534
 2073TIP3    H2 6184   2.097   4.244   1.434 -1.2427 -0.6919  0.2847
 2074TIP3   OH2 6185   5.195   6.257   1.474  0.0416 -0.8497  0.1656
 2074TIP3    H1 6186   5.249   6.199   1.420  1.1164 -0.2761  0.6095
 2074TIP3    H2 6187   5.253   6.329   1.498 -0.7841 -0.4611  1.0510
 2075TIP3   OH2 6188   0.990   5.557   4.912  0.2439  0.2788 -0.3392
 2075TIP3    H1 6189   0.940   5.597   4.842 -1.4392  0.4539  0.9054
 2075TIP3    H2 6190   1.058   5.621   4.934  0.0460  0.7161 -1.0023
 2076TIP3   OH2 6191   6.245   3.841   4.075 -0.0771  0.1436  0.4232
 2076TIP3    H1 6192   6.285   3.785   4.009  0.5393 -1.3365  1.9930
 2076TIP3    H2 6193   6.156   3.807   4.085 -0.2426  0.5081  0.2054
 2077TIP3   OH2 6194   3.518   0.720   0.157  0.1103 -0.4042  0.2545
 2077TIP3    H1 6195   3.586   0.764   0.208 -1.2745  0.5872  1.3513
 2077TIP3    H2 6196   3.564   0.680   0.084  1.7948  0.6569  0.6855
 2078TIP3   OH2 6197   5.205   6.410   0.226 -0.1763  0.0482 -0.5068
 2078TIP3    H1 6198   5.233   6.501   0.238  2.8983 -0.7988 -0.1903
 2078TIP3    H2 6199   5.176   6.382   0.313  1.0472  0.1459 -0.0374
 2079TIP3   OH2 6200   5.568   4.903   3.379  0.0526 -0.3554 -0.1560
 2079TIP3    H1 6201   5.525   4.958   3.445  0.5563  0.4532 -0.4951
 2079TIP3    H2 6202   5.558   4.814   3.413 -1.6372 -0.1796 -0.0706
 2080TIP3   OH2 6203   4.284   3.846   0.527  0.5501 -0.0811 -0.5437
 2080TIP3    H1 6204   4.231   3.821   0.451 -0.3046 -0.1154  0.0523
 2080TIP3    H2 6205   4.238   3.809   0.602  1.5181 -0.2562 -0.0204
 2081TIP3   OH2 6206   1.567   6.515   1.325 -0.3072  0.2293  0.2501
 2081TIP3    H1 6207   1.620   6.459   1.381  1.3701 -0.4863 -1.8784
 2081TIP3    H2 6208   1.620   6.594   1.312  0.3699 -0.5034 -1.9285
 2082TIP3   OH2 6209   6.143   4.745   4.279 -0.2963 -0.4327  0.4936
 2082TIP3    H1 6210   6.122   4.820   4.334 -0.9132  1.1934 -1.7834
 2082TIP3    H2 6211   6.238   4.748   4.270 -0.3748  0.6853 -0.2788
 2083TIP3   OH2 6212   1.810   1.246   4.616  0.1704 -0.7641  0.0961
 2083TIP3    H1 6213   1.796   1.297   4.696 -0.8514 -1.8994  0.6863
 2083TIP3    H2 6214   1.750   1.172   4.625  0.4024 -1.1710 -1.5093
 2084TIP3   OH2 6215   3.022   5.728   4.341  0.1852 -0.4976 -0.1536
 2084TIP3    H1 6216   3.030   5.657   4.406  0.3806  0.2444  0.6497
 2084TIP3    H2 6217   3.064   5.692   4.263 -0.9713 -1.8010 -0.2199
 2085TIP3   OH2 6218   4.709   0.613   3.387  0.2770 -0.1351 -0.0574
 2085TIP3    H1 6219   4.778   0.591   3.325 -1.1699 -0.2011 -1.7312
 2085TIP3    H2 6220   4.727   0.559   3.464  2.4399  0.3576 -0.1656
 2086TIP3   OH2 6221   2.614   6.038   4.835  0.4575 -0.2642  0.1408
 2086TIP3    H1 6222   2.654   5.956   4.863 -0.4240 -0.1828  1.7579
 2086TIP3    H2 6223   2.573   6.073   4.914  1.3163  2.0483 -0.3456
 2087TIP3   OH2 6224   3.879   1.567   0.646  0.7587  0.3122 -0.8899
 2087TIP3    H1 6225   3.849   1.658   0.654 -0.4112  0.0083 -1.5740
 2087TIP3    H2 6226   3.847   1.539   0.560 -1.1139 -1.5256  0.3161
 2088TIP3   OH2 6227   0.699   6.412   0.825  0.2119  0.6786  0.1428
 2088TIP3    H1 6228   0.721   6.466   0.901  2.6002 -0.5486  0.4333
 2088TIP3    H2 6229   0.752   6.333   0.836 -2.8445 -1.6511 -0.4231
 2089TIP3   OH2 6230   6.583   3.318   4.575 -0.2586 -0.6028 -0.5217
 2089TIP3    H1 6231   6.621   3.397   4.537  0.2636 -2.0757 -3.3587
 2089TIP3    H2 6232   6.511   3.350   4.629  1.3398  1.9034  0.2806
 2090TIP3   OH2 6233   4.169   2.078   0.473 -0.0693  0.0235 -0.4311
 2090TIP3    H1 6234   4.091   2.052   0.522  0.1836 -0.5169 -0.3099
 2090TIP3    H2 6235   4.170   2.020   0.397  0.4971 -0.3324 -0.1598
 2091TIP3   OH2 6236   5.187   4.635   1.278 -0.1466 -0.2454 -0.4711
 2091TIP3    H1 6237   5.237   4.605   1.202  1.2127 -0.7041  0.5817
 2091TIP3    H2 6238   5.154   4.555   1.319 -1.0313  0.0097 -0.6506
 2092TIP3   OH2 6239   2.735   5.499   5.575 -0.3074 -0.0378 -0.2841
 2092TIP3    H1 6240   2.760   5.437   5.506  1.4082 -0.5249  0.7018
 2092TIP3    H2 6241   2.686   5.447   5.638  2.3543 -0.8578  1.2622
 2093TIP3   OH2 6242   1.180   0.556   4.770  0.2795 -0.3885  0.0037
 2093TIP3    H1 6243   1.247   0.495   4.800  0.3058 -2.2194 -3.3099
 2093TIP3    H2 6244   1.226   0.617   4.713 -0.2324  1.1356  1.1412
 2094TIP3   OH2 6245   1.284   6.401   5.290 -0.1108 -0.6479 -0.1487
 2094TIP3    H1 6246   1.353   6.460   5.258 -0.4000 -0.2500 -0.0414
 2094TIP3    H2 6247   1.233   6.455   5.350  0.2941 -1.3144  0.8252
 2095TIP3   OH2 6248   4.218   0.231   4.027 -0.0722  0.3182  0.4344
 2095TIP3    H1 6249   4.169   0.228   4.109 -1.5978  0.0088 -0.4603
 2095TIP3    H2 6250   4.287   0.295   4.044 -0.7864  0.7900  1.7330
 2096TIP3   OH2 6251   2.042   3.712   1.215 -0.4068 -0.0298 -0.2433
 2096TIP3    H1 6252   2.094   3.731   1.137  0.4664 -0.1286  0.3010
 2096TIP3    H2 6253   1.981   3.785   1.222  0.3164  0.5933 -0.3480
 2097TIP3   OH2 6254   3.087   6.447   3.197 -0.5652  0.3603  0.1791
 2097TIP3    H1 6255   3.032   6.435   3.120  0.3966  2.2063 -0.8820
 2097TIP3    H2 6256   3.097   6.360   3.234 -1.9261 -0.4102 -1.1748
 2098TIP3   OH2 6257   1.511   2.567   0.863  0.2592  0.2391  0.0846
 2098TIP3    H1 6258   1.581   2.539   0.922 -0.3500  0.3592  0.8843
 2098TIP3    H2 6259   1.528   2.659   0.846  0.2511  0.2871  0.3387
 2099TIP3   OH2 6260   1.843   2.511   4.890 -0.4107 -0.3645 -0.0147
 2099TIP3    H1 6261   1.927   2.536   4.851 -0.3928 -0.9221 -0.3337
 2099TIP3    H2 6262   1.824   2.425   4.854 -0.6157 -0.6948  0.8523
 2100TIP3   OH2 6263   2.145   6.452   4.535 -0.0727 -0.0839 -0.1966
 2100TIP3    H1 6264   2.074   6.411   4.487 -0.0467  0.8125 -1.0269
 2100TIP3    H2 6265   2.202   6.490   4.468 -0.1747  1.4191  0.5154
 2101TIP3   OH2 6266   6.545   4.633   4.384  0.3837 -0.1529  0.1872
 2101TIP3    H1 6267   6.607   4.561   4.397  2.5452  1.4775 -0.4437
 2101TIP3    H2 6268   6.521   4.661   4.472 -0.6610 -1.7318  0.4427
 2102TIP3   OH2 6269   1.382   3.351   4.371  0.3603 -0.2638 -0.9276
 2102TIP3    H1 6270   1.424   3.272   4.337  0.3543 -0.6640 -0.0258
 2102TIP3    H2 6271   1.319   3.375   4.303 -0.6198 -1.8278 -0.6238
 2103TIP3   OH2 6272   5.902   3.508   2.243 -0.5297 -0.0702  0.1288
 2103TIP3    H1 6273   5.847   3.576   2.282 -0.8176 -0.5411  0.5563
 2103TIP3    H2 6274   5.938   3.461   2.317 -1.4929 -1.3121 -0.1419
 2104TIP3   OH2 6275   3.677   6.750   0.340 -0.3128 -0.4864 -0.1831
 2104TIP3    H1 6276   3.709   6.678   0.394  0.9667 -1.3161 -1.9327
 2104TIP3    H2 6277   3.751   6.811   0.337 -0.9529  0.3379  0.2861
 2105TIP3   OH2 6278   4.065   6.405   1.102  0.4945 -0.0568 -0.1474
 2105TIP3    H1 6279   4.043   6.465   1.172  1.8402  1.8136 -1.2153
 2105TIP3    H2 6280   4.149   6.366   1.128  0.3921 -0.2900 -0.1620
 2106TIP3   OH2 6281   5.739   5.690   4.587 -0.1092 -0.2111 -0.5208
 2106TIP3    H1 6282   5.698   5.666   4.505  0.7253 -0.5277 -0.8589
 2106TIP3    H2 6283   5.755   5.607   4.632 -2.3386  0.0309  0.8799
 2107TIP3   OH2 6284   5.611   0.616   2.622  0.0716 -1.1112  0.3840
 2107TIP3    H1 6285   5.620   0.522   2.607 -1.4096 -1.3370  0.7622
 2107TIP3    H2 6286   5.559   0.623   2.702 -1.5022 -0.0229 -0.6654
 2108TIP3   OH2 6287   2.373   5.455   5.024 -0.3845 -0.7132  0.0894
 2108TIP3    H1 6288   2.372   5.364   5.054  1.5554  0.0813  2.9851
 2108TIP3    H2 6289   2.447   5.495   5.070 -0.2192  1.9972 -2.2412
 2109TIP3   OH2 6290   3.765   3.013   0.610  0.0884 -0.9052 -0.0053
 2109TIP3    H1 6291   3.697   3.080   0.614  2.3663  1.6186 -0.8531
 2109TIP3    H2 6292   3.798   3.006   0.699  1.4103  0.9752 -0.2747
 2110TIP3   OH2 6293   1.298   0.817   3.022  0.5903 -0.0541  0.3734
 2110TIP3    H1 6294   1.274   0.775   2.940  0.1013 -1.0357  0.9959
 2110TIP3    H2 6295   1.359   0.886   2.997  0.4992 -0.3808 -0.8010
 2111TIP3   OH2 6296   0.259   5.029   3.535  0.4969 -0.3853  0.1853
 2111TIP3    H1 6297   0.342   5.029   3.582  0.9020 -1.1207 -0.5102
 2111TIP3    H2 6298   0.239   4.937   3.521 -0.8406 -0.2614  1.0118
 2112TIP3   OH2 6299   0.066   1.925   1.348 -0.1705  0.3256  0.5201
 2112TIP3    H1 6300   0.071   1.999   1.287  0.1058 -0.1896 -0.0944
 2112TIP3    H2 6301   0.124   1.859   1.309 -0.6855 -0.3429  0.8856
 2113TIP3   OH2 6302   4.845   5.314   4.975 -0.1866 -0.4496 -0.4099
 2113TIP3    H1 6303   4.831   5.403   5.006 -2.7518 -1.0875  0.4856
 2113TIP3    H2 6304   4.941   5.306   4.969  0.1504  1.9826  0.5371
 2114TIP3   OH2 6305   2.619   6.233   2.100  0.3801  0.0684  0.4015
 2114TIP3    H1 6306   2.615   6.294   2.174  2.3668  1.8426 -0.8096
 2114TIP3    H2 6307   2.709   6.201   2.100  0.7691  0.9283 -1.7667
 2115TIP3   OH2 6308   4.688   4.791   5.331  0.1408 -0.3958 -0.6480
 2115TIP3    H1 6309   4.720   4.712   5.286 -2.9846 -1.9941 -0.3682
 2115TIP3    H2 6310   4.699   4.772   5.424  0.9681  0.2763 -0.6010
 2116TIP3   OH2 6311   4.649   2.390   1.884 -0.1232 -0.0102 -0.1539
 2116TIP3    H1 6312   4.643   2.295   1.900 -4.2781 -0.1308 -1.3761
 2116TIP3    H2 6313   4.685   2.398   1.796  1.0733 -0.3516  0.2826
 2117TIP3   OH2 6314   3.394   5.082   1.954  0.1087 -0.1465  0.3063
 2117TIP3    H1 6315   3.387   5.157   2.013  0.5296 -0.7432  1.1282
 2117TIP3    H2 6316   3.335   5.017   1.991  0.2987 -0.4926  0.0083
 2118TIP3   OH2 6317   1.801   1.510   2.141 -0.2489 -1.2267 -0.3184
 2118TIP3    H1 6318   1.757   1.425   2.128 -3.0989  0.2293 -0.9777
 2118TIP3    H2 6319   1.803   1.548   2.053 -0.7554  0.1494  0.2486
 2119TIP3   OH2 6320   6.802   0.449   4.893  0.4785  0.4297  0.3269
 2119TIP3    H1 6321   6.712   0.458   4.923  0.0101 -0.8100 -0.6239
 2119TIP3    H2 6322   6.796   0.450   4.797  1.3936 -0.3511  0.2436
 2120TIP3   OH2 6323   4.053   6.462   0.078 -0.8795 -0.0362  0.3115
 2120TIP3    H1 6324   4.103   6.467   0.159 -0.6518 -0.7584  0.2245
 2120TIP3    H2 6325   3.967   6.432   0.105 -0.7135 -0.5752  0.2609
 2121TIP3   OH2 6326   3.597   5.454   3.353 -0.1960 -0.5129 -0.0906
 2121TIP3    H1 6327   3.633   5.488   3.435 -1.3695 -1.9460  1.0777
 2121TIP3    H2 6328   3.589   5.532   3.297  0.7479  0.4854  1.0847
 2122TIP3   OH2 6329   5.871   1.337   5.498  0.0915  0.1526  0.5640
 2122TIP3    H1 6330   5.859   1.285   5.418  0.9173  1.5709 -0.5347
 2122TIP3    H2 6331   5.913   1.278   5.560 -1.0128 -1.1259  0.1368
 2123TIP3   OH2 6332   6.330   0.357   0.311 -0.4291  0.6286 -0.6144
 2123TIP3    H1 6333   6.332   0.353   0.216  0.6199  1.0991 -0.6301
 2123TIP3    H2 6334   6.369   0.442   0.332 -0.4282  0.4291  0.2391
 2124TIP3   OH2 6335   7.097   5.656   1.357  0.1769 -0.2060  0.2407
 2124TIP3    H1 6336   7.169   5.606   1.320  0.3105  0.3179 -0.2316
 2124TIP3    H2 6337   7.052   5.595   1.415  1.4906 -0.3052  1.1856
 2125TIP3   OH2 6338   5.168   1.176   1.582  0.1201  0.0032  0.3761
 2125TIP3    H1 6339   5.156   1.091   1.626 -4.0370  0.5628  0.7042
 2125TIP3    H2 6340   5.215   1.229   1.646 -1.5174 -0.6518  2.2016
 2126TIP3   OH2 6341   5.258   2.561   1.832 -0.0026 -0.7363 -0.6137
 2126TIP3    H1 6342   5.178   2.536   1.879  0.1173 -1.8681 -0.9678
 2126TIP3    H2 6343   5.230   2.633   1.775 -0.1522  0.6510  1.1077
 2127TIP3   OH2 6344   1.884   1.515   4.714 -0.0419  0.0483 -0.0959
 2127TIP3    H1 6345   1.832   1.453   4.766  2.7459 -1.6389  0.9038
 2127TIP3    H2 6346   1.946   1.552   4.777  0.8279  0.9957 -1.4752
 2128TIP3   OH2 6347   4.061   6.822   1.843  0.0524  0.5980 -0.0004
 2128TIP3    H1 6348   4.047   6.737   1.885  1.0658  0.6415  0.4458
 2128TIP3    H2 6349   3.984   6.834   1.787 -0.4534 -0.2746  0.4886
 2129TIP3   OH2 6350   1.433   2.265   0.525 -0.0351 -0.7825 -0.4603
 2129TIP3    H1 6351   1.397   2.201   0.586 -1.2026  0.1103 -0.1764
 2129TIP3    H2 6352   1.419   2.349   0.568 -0.4877 -0.1681 -1.7752
 2130TIP3   OH2 6353   1.513   0.352   0.745  0.1701 -0.3054  0.1516
 2130TIP3    H1 6354   1.599   0.324   0.776  0.1693  0.3818  0.7855
 2130TIP3    H2 6355   1.479   0.409   0.814 -0.5532 -0.1110 -0.3490
 2131TIP3   OH2 6356   5.603   5.300   5.429 -0.5890  0.0786 -0.5099
 2131TIP3    H1 6357   5.630   5.366   5.492  2.3309 -1.2171 -0.2454
 2131TIP3    H2 6358   5.533   5.341   5.379 -0.1780  2.6381  0.8716
 2132TIP3   OH2 6359   2.198   1.732   5.815  0.4225 -0.1113  0.0461
 2132TIP3    H1 6360   2.175   1.640   5.799  1.1351 -0.0865 -1.3056
 2132TIP3    H2 6361   2.277   1.746   5.763 -0.5176  1.6863 -0.9853
 2133TIP3   OH2 6362   0.107   1.400   2.240  0.3972  0.2108  0.1721
 2133TIP3    H1 6363   0.062   1.444   2.168 -2.1580 -1.7678  0.4341
 2133TIP3    H2 6364   0.171   1.343   2.197 -0.5100 -0.3149 -0.5029
 2134TIP3   OH2 6365   6.944   2.974   1.322  0.6487 -0.2887  0.6970
 2134TIP3    H1 6366   6.865   3.004   1.277  1.3601  1.5504  0.6119
 2134TIP3    H2 6367   6.969   3.046   1.379  3.4041  0.0787 -0.7796
 2135TIP3   OH2 6368   4.042   2.886   5.835  0.3545 -0.6810 -0.6068
 2135TIP3    H1 6369   4.083   2.899   5.749  1.0233  1.9804  0.0395
 2135TIP3    H2 6370   4.103   2.925   5.897 -0.3376 -2.1437  1.0888
 2136TIP3   OH2 6371   2.553   0.659   3.369 -0.5080  0.0896 -0.3583
 2136TIP3    H1 6372   2.553   0.592   3.300 -0.5668  1.4751 -1.7685
 2136TIP3    H2 6373   2.624   0.633   3.428  0.8477 -0.1294 -1.9966
 2137TIP3   OH2 6374   0.033   1.932   5.216 -0.1166 -0.3303 -0.0458
 2137TIP3    H1 6375  -0.061   1.923   5.227 -0.3294  1.0656 -0.4641
 2137TIP3    H2 6376   0.066   1.842   5.208 -1.5956 -0.7925 -1.3358
 2138TIP3   OH2 6377   6.874   2.984   2.683  0.6624 -0.1406 -0.0424
 2138TIP3    H1 6378   6.926   2.915   2.641  0.3880 -0.6826  0.4969
 2138TIP3    H2 6379   6.822   3.021   2.611 -0.1573 -1.3867 -0.1250
 2139TIP3   OH2 6380   3.583   3.945   3.228 -0.1604  0.0483 -0.5643
 2139TIP3    H1 6381   3.502   3.967   3.182  0.3367  1.1000 -0.9770
 2139TIP3    H2 6382   3.652   3.981   3.172  0.4876  0.9648  0.7755
 2140TIP3   OH2 6383   0.911   4.612   4.099  0.3266 -0.1899  0.5913
 2140TIP3    H1 6384   0.860   4.637   4.022  0.5351  1.3712  0.9437
 2140TIP3    H2 6385   0.999   4.643   4.082  0.7316 -1.1671  0.8273
 2141TIP3   OH2 6386   5.719   2.870   5.151 -0.0566 -0.4420  0.2942
 2141TIP3    H1 6387   5.801   2.916   5.164  0.6682 -1.2412 -1.1497
 2141TIP3    H2 6388   5.654   2.922   5.198  1.2515  0.2408  1.4072
 2142TIP3   OH2 6389   3.758   6.494   1.112 -0.5165 -0.1880 -0.1602
 2142TIP3    H1 6390   3.834   6.526   1.160 -0.4676 -0.2709 -0.1825
 2142TIP3    H2 6391   3.709   6.573   1.089 -1.1389 -0.2275  1.0008
 2143TIP3   OH2 6392   3.511   6.573   5.803  0.1234 -0.0378 -0.8626
 2143TIP3    H1 6393   3.486   6.495   5.853 -0.2286 -0.3568 -1.5219
 2143TIP3    H2 6394   3.587   6.608   5.850 -0.0670 -0.4503 -0.2331
 2144TIP3   OH2 6395   5.928   1.335   2.395 -0.7326  0.3110 -0.0538
 2144TIP3    H1 6396   5.852   1.317   2.451 -1.0924  0.6137 -0.4327
 2144TIP3    H2 6397   5.896   1.400   2.332  0.0905  1.1073  0.3210
 2145TIP3   OH2 6398   1.149   6.150   0.742  0.6466  0.3637 -0.0578
 2145TIP3    H1 6399   1.184   6.151   0.831  1.9006 -1.6831 -0.4591
 2145TIP3    H2 6400   1.193   6.076   0.700 -0.0421  1.1686 -2.3397
 2146TIP3   OH2 6401   0.970   4.049   3.642 -0.0670 -0.5623 -0.1694
 2146TIP3    H1 6402   1.052   4.098   3.631  0.0382 -1.1417 -2.4276
 2146TIP3    H2 6403   0.903   4.106   3.604 -0.2735 -1.2500 -0.8571
 2147TIP3   OH2 6404   3.905   4.523   0.587 -0.3638  0.4478  0.2882
 2147TIP3    H1 6405   3.885   4.429   0.577 -0.8596  0.4746  0.9512
 2147TIP3    H2 6406   3.827   4.559   0.628  0.6446  0.7681  1.9997
 2148TIP3   OH2 6407   3.597   4.087   3.728  0.6639  0.1715  0.3228
 2148TIP3    H1 6408   3.529   4.154   3.740  0.4412  0.3554 -1.5741
 2148TIP3    H2 6409   3.553   4.004   3.749  0.4156  0.4563  0.9415
 2149TIP3   OH2 6410   1.717   3.494   4.644 -0.5794  0.1790 -0.0555
 2149TIP3    H1 6411   1.774   3.533   4.710  0.4644  0.8446 -1.3049
 2149TIP3    H2 6412   1.640   3.465   4.693  0.5991 -0.3123  1.6129
 2150TIP3   OH2 6413   3.282   2.336   0.158  0.3373  0.1665 -0.1857
 2150TIP3    H1 6414   3.350   2.337   0.091  0.1049 -0.0208 -0.4297
 2150TIP3    H2 6415   3.315   2.392   0.227  0.7394  0.0775 -0.3033
 2151TIP3   OH2 6416   5.359   6.401   1.150 -0.2647  0.2047 -0.2498
 2151TIP3    H1 6417   5.358   6.315   1.193 -1.6077  1.5714  2.6256
 2151TIP3    H2 6418   5.418   6.454   1.203  0.5356  1.1412 -1.9797
 2152TIP3   OH2 6419   6.508   5.118   2.086 -0.6163 -0.4727  0.5215
 2152TIP3    H1 6420   6.472   5.112   1.998 -0.8242  1.8695  0.3890
 2152TIP3    H2 6421   6.482   5.204   2.117 -1.3479 -1.5741  3.2610
 2153TIP3   OH2 6422   3.197   2.104   4.393  1.2642  0.4138 -0.1284
 2153TIP3    H1 6423   3.208   2.124   4.300 -1.9459  1.1444 -0.4885
 2153TIP3    H2 6424   3.155   2.183   4.429  0.6956 -0.5850  1.5022
 2154TIP3   OH2 6425   2.448   6.051   1.777  0.4863 -0.0214 -0.0041
 2154TIP3    H1 6426   2.439   6.115   1.848 -0.6774 -0.2597  0.0875
 2154TIP3    H2 6427   2.502   6.095   1.711  1.6319  0.1868  1.0347
 2155TIP3   OH2 6428   2.124   3.822   0.621  0.1642 -0.7828 -0.5191
 2155TIP3    H1 6429   2.056   3.789   0.679 -0.1991 -1.0568 -1.0867
 2155TIP3    H2 6430   2.196   3.845   0.679  0.0537 -1.6584 -0.0146
 2156TIP3   OH2 6431   6.566   4.116   5.815  0.1625  0.1465 -0.3321
 2156TIP3    H1 6432   6.585   4.192   5.870  0.4648  0.3114 -0.6617
 2156TIP3    H2 6433   6.510   4.151   5.745  1.1032  0.2804 -1.0413
 2157TIP3   OH2 6434   3.952   0.417   3.666  0.4210  0.3615  0.1882
 2157TIP3    H1 6435   4.018   0.348   3.662 -0.0007 -0.1012  1.0773
 2157TIP3    H2 6436   3.994   0.491   3.622 -0.0958 -1.1927 -3.2652
 2158TIP3   OH2 6437   2.856   6.715   4.877 -0.2220 -0.1880  0.4557
 2158TIP3    H1 6438   2.887   6.636   4.921 -0.8619 -2.0154 -2.1124
 2158TIP3    H2 6439   2.764   6.697   4.857 -0.7502  1.7758  0.8911
 2159TIP3   OH2 6440   4.988   2.026   4.753  0.1712 -0.5582  0.2382
 2159TIP3    H1 6441   4.943   2.050   4.834 -0.2865 -0.4357 -0.0490
 2159TIP3    H2 6442   4.922   2.039   4.685  0.9127  0.4733 -0.2952
 2160TIP3   OH2 6443   3.029   0.274   0.567  0.3557  0.1124 -0.0428
 2160TIP3    H1 6444   3.110   0.323   0.580  0.3484 -0.2201  1.4251
 2160TIP3    H2 6445   3.046   0.221   0.488  1.8576 -0.5177  0.6580
 2161TIP3   OH2 6446   4.940   6.798   1.126  0.8788  0.4068 -0.5144
 2161TIP3    H1 6447   4.993   6.762   1.054  2.7493  0.2641  0.8747
 2161TIP3    H2 6448   4.964   6.745   1.202 -1.1537  0.4799  0.2278
 2162TIP3   OH2 6449   6.427   5.783   2.471  0.3219  0.4073 -0.1814
 2162TIP3    H1 6450   6.394   5.756   2.556 -0.5166 -1.2075 -0.9748
 2162TIP3    H2 6451   6.430   5.703   2.419  1.2340  1.2715 -1.5490
 2163TIP3   OH2 6452   4.869   1.365   4.059  0.6626  0.3556  0.3738
 2163TIP3    H1 6453   4.812   1.299   4.020 -0.6052  1.9357 -0.5985
 2163TIP3    H2 6454   4.951   1.358   4.010  0.5777 -0.5196  0.3391
 2164TIP3   OH2 6455   3.953   3.816   2.401  0.6536 -0.0367  0.1398
 2164TIP3    H1 6456   4.005   3.816   2.320 -0.2042  0.4962 -0.4303
 2164TIP3    H2 6457   3.991   3.746   2.454  1.6142 -0.0060 -0.4701
 2165TIP3   OH2 6458   3.821   0.380   0.887 -0.6450  0.0875  0.1916
 2165TIP3    H1 6459   3.815   0.289   0.915  1.7093 -0.2536 -0.1832
 2165TIP3    H2 6460   3.906   0.386   0.843 -0.0785  2.7864  1.4253
 2166TIP3   OH2 6461   2.121   5.294   5.341  0.2067  0.1816  0.0392
 2166TIP3    H1 6462   2.206   5.258   5.365  1.0326  1.7903 -0.3512
 2166TIP3    H2 6463   2.103   5.257   5.254  0.2813 -0.5094  0.3116
 2167TIP3   OH2 6464   0.086   0.718   4.846 -0.4097  0.2258  0.4413
 2167TIP3    H1 6465   0.001   0.755   4.822  0.6794  2.1561 -0.6752
 2167TIP3    H2 6466   0.066   0.658   4.918 -2.8318 -0.1604 -0.4594
 2168TIP3   OH2 6467   4.885   1.230   4.839 -0.3909  0.3850  0.1648
 2168TIP3    H1 6468   4.791   1.241   4.822 -0.2223 -1.3076 -2.3737
 2168TIP3    H2 6469   4.915   1.172   4.769  1.7626 -2.6018  3.2628
 2169TIP3   OH2 6470   0.215   4.882   5.057  0.5697 -0.1552  0.4758
 2169TIP3    H1 6471   0.289   4.909   5.003  0.1149 -0.1274 -0.1560
 2169TIP3    H2 6472   0.211   4.946   5.128 -0.4609  1.4825 -0.9548
 2170TIP3   OH2 6473   2.894   6.157   2.136 -0.3981  0.0860  0.3669
 2170TIP3    H1 6474   2.932   6.128   2.219  2.8196  1.4241 -0.4454
 2170TIP3    H2 6475   2.887   6.078   2.084  1.7735 -0.2612  0.4886
 2171TIP3   OH2 6476   6.497   2.893   0.683 -0.3887 -0.2930 -0.1861
 2171TIP3    H1 6477   6.556   2.819   0.669 -1.9220 -1.6414  0.1816
 2171TIP3    H2 6478   6.470   2.919   0.595  0.5247  0.1739 -0.3445
 2172TIP3   OH2 6479   6.159   1.992   1.929 -0.2621 -0.3790 -0.0553
 2172TIP3    H1 6480   6.165   1.915   1.872  1.6187 -0.8355  0.6795
 2172TIP3    H2 6481   6.073   1.984   1.971 -1.0789 -0.7918 -1.7323
 2173TIP3   OH2 6482   1.860   4.340   0.821  0.2252  0.2575 -0.4342
 2173TIP3    H1 6483   1.848   4.284   0.897  2.7236  0.4446  0.1847
 2173TIP3    H2 6484   1.823   4.424   0.847 -1.4286 -0.3928 -0.5191
 2174TIP3   OH2 6485   1.071   6.674   1.948  0.1104  0.2881  0.0783
 2174TIP3    H1 6486   1.016   6.735   1.898 -1.0478  0.7497  1.8064
 2174TIP3    H2 6487   1.158   6.713   1.945  0.0531  0.3778 -1.3971
 2175TIP3   OH2 6488   1.135   1.312   5.215 -0.0593  0.0022 -0.3137
 2175TIP3    H1 6489   1.229   1.296   5.202 -0.6053 -2.0654 -2.2815
 2175TIP3    H2 6490   1.131   1.399   5.253  2.7370 -0.4103  1.2220
 2176TIP3   OH2 6491   0.748   4.004   2.006  0.1843 -1.0006  0.0373
 2176TIP3    H1 6492   0.717   3.999   2.097  2.5428  0.1758  0.9927
 2176TIP3    H2 6493   0.758   4.097   1.989 -1.0483 -1.1570 -1.8021
 2177TIP3   OH2 6494   3.846   4.502   4.831  0.1093  0.3206  0.2591
 2177TIP3    H1 6495   3.843   4.455   4.747 -1.5400 -0.3992  0.6773
 2177TIP3    H2 6496   3.833   4.434   4.897 -1.5417  1.2178  0.9222
 2178TIP3   OH2 6497   1.596   2.433   5.409 -0.2940  0.0611  0.6393
 2178TIP3    H1 6498   1.606   2.357   5.352 -0.8744 -0.7633  1.6039
 2178TIP3    H2 6499   1.619   2.401   5.496  0.0682  1.1595  0.9583
 2179TIP3   OH2 6500   1.285   1.699   4.475  0.0492  0.3841  0.0064
 2179TIP3    H1 6501   1.230   1.642   4.420 -0.3615  0.4491  0.3409
 2179TIP3    H2 6502   1.298   1.649   4.556  0.7303  0.2503 -0.1831
 2180TIP3   OH2 6503   3.027   1.130   4.136 -0.2876  0.1455 -0.0345
 2180TIP3    H1 6504   3.065   1.049   4.102 -0.1450  0.1963  0.0023
 2180TIP3    H2 6505   3.084   1.154   4.210 -0.4160  0.1988  0.0480
 2181TIP3   OH2 6506   1.186   3.824   2.441 -0.8364 -0.0511  0.6184
 2181TIP3    H1 6507   1.232   3.848   2.361 -1.2461 -0.3907  0.2754
 2181TIP3    H2 6508   1.189   3.903   2.495  0.2758 -0.1136  0.6722
 2182TIP3   OH2 6509   3.599   6.034   5.396 -0.4095  0.2921 -0.4602
 2182TIP3    H1 6510   3.618   5.955   5.345 -2.9962 -1.2518  0.7218
 2182TIP3    H2 6511   3.630   6.013   5.485 -3.1829 -0.4899  0.4256
 2183TIP3   OH2 6512   3.190   1.927   3.359 -0.2484  0.6244 -0.0472
 2183TIP3    H1 6513   3.209   1.840   3.395  0.3198  0.5100 -0.6215
 2183TIP3    H2 6514   3.123   1.912   3.293 -0.8186  0.7534  0.4827
 2184TIP3   OH2 6515   4.054   3.866   3.963  0.1163 -0.3359  0.2219
 2184TIP3    H1 6516   4.117   3.801   3.934 -0.6541 -1.9460  1.9496
 2184TIP3    H2 6517   3.988   3.868   3.893 -0.3321 -2.1373  0.5432
 2185TIP3   OH2 6518   2.755   5.099   0.985  0.2347 -0.4022  0.2830
 2185TIP3    H1 6519   2.809   5.091   1.063  0.7343 -0.8119 -0.1031
 2185TIP3    H2 6520   2.668   5.124   1.018 -0.3919 -3.4275  1.2357
 2186TIP3   OH2 6521   6.138   4.072   3.913  0.9663  0.1284  0.4229
 2186TIP3    H1 6522   6.181   4.007   3.969  0.8428  0.2329  0.6424
 2186TIP3    H2 6523   6.198   4.147   3.914  0.7103  0.3323  0.8544
 2187TIP3   OH2 6524   7.063   5.291   1.105 -0.1593 -0.2061  0.1009
 2187TIP3    H1 6525   7.049   5.309   1.012 -1.3338 -0.4730  0.2070
 2187TIP3    H2 6526   7.145   5.335   1.126 -0.7561  1.3431 -0.6645
 2188TIP3   OH2 6527   0.595   1.583   1.519  0.5149  0.2044 -0.2987
 2188TIP3    H1 6528   0.597   1.678   1.533  0.7056  0.3228 -1.0640
 2188TIP3    H2 6529   0.666   1.549   1.572  1.3434  0.6525 -1.0937
 2189TIP3   OH2 6530   4.365   1.800   4.041 -0.3144 -0.1678 -0.1912
 2189TIP3    H1 6531   4.365   1.713   4.001 -0.7953  0.1289 -0.8631
 2189TIP3    H2 6532   4.284   1.840   4.010 -0.9942 -0.1148  1.5540
 2190TIP3   OH2 6533   6.625   1.313   5.119 -0.7394  0.7649  0.4945
 2190TIP3    H1 6534   6.661   1.231   5.085 -0.6076  0.8877  0.3348
 2190TIP3    H2 6535   6.693   1.346   5.178 -0.1137  1.5320 -0.6169
 2191TIP3   OH2 6536   3.535   3.334   3.395 -0.2827 -0.3589 -0.1074
 2191TIP3    H1 6537   3.449   3.334   3.351 -2.3099  1.9993  3.3170
 2191TIP3    H2 6538   3.550   3.243   3.418 -1.8740 -0.8298 -0.7793
 2192TIP3   OH2 6539   5.086   3.585   5.308 -0.2769 -0.0139  0.1809
 2192TIP3    H1 6540   5.097   3.662   5.364  0.7076  0.2288 -0.3242
 2192TIP3    H2 6541   5.027   3.528   5.357 -2.1475  1.6360 -0.0285
 2193TIP3   OH2 6542   6.904   0.127   3.322 -0.0841 -0.1200 -0.5875
 2193TIP3    H1 6543   6.949   0.164   3.245  2.1990  1.8448  1.5205
 2193TIP3    H2 6544   6.844   0.197   3.350  1.1388  0.3544  0.9690
 2194TIP3   OH2 6545   2.834   3.713   0.053  0.4568 -0.2517 -0.8251
 2194TIP3    H1 6546   2.921   3.740   0.025  0.4338  0.4494 -0.2410
 2194TIP3    H2 6547   2.846   3.686   0.144 -0.3114  1.8951 -0.0255
 2195TIP3   OH2 6548   2.624   4.570   1.179 -0.7615 -0.4222 -0.4339
 2195TIP3    H1 6549   2.591   4.652   1.142 -0.0376  0.2273  0.2863
 2195TIP3    H2 6550   2.558   4.544   1.243 -0.0928  0.6936  0.7687
 2196TIP3   OH2 6551   2.461   1.836   4.513 -0.5013  0.2624  0.2809
 2196TIP3    H1 6552   2.536   1.893   4.530  0.1516 -0.5470  0.2162
 2196TIP3    H2 6553   2.492   1.777   4.444 -0.3912 -1.5255  1.7753
 2197TIP3   OH2 6554   4.650   1.052   3.097 -0.1941  0.4500  0.3879
 2197TIP3    H1 6555   4.581   1.118   3.099 -0.0653  0.5712  2.0577
 2197TIP3    H2 6556   4.622   0.987   3.162  1.0276  0.2493  0.7227
 2198TIP3   OH2 6557   0.003   6.707   5.081 -0.8722 -0.1435 -0.4795
 2198TIP3    H1 6558   0.059   6.746   5.149 -2.3808  1.0403  0.1335
 2198TIP3    H2 6559   0.051   6.721   5.000 -0.4029  1.1299 -0.0124
 2199TIP3   OH2 6560   3.340   5.295   2.770  0.8273 -0.1426 -0.4970
 2199TIP3    H1 6561   3.425   5.281   2.811  0.5080 -2.1140 -0.4404
 2199TIP3    H2 6562   3.350   5.379   2.723  2.1249  0.6761  1.1369
 2200TIP3   OH2 6563   4.405   5.360   1.412  0.0009  0.4067  0.0706
 2200TIP3    H1 6564   4.466   5.426   1.444 -0.0954  0.5575 -0.0597
 2200TIP3    H2 6565   4.356   5.403   1.342  0.4697 -0.0470 -0.5418
 2201TIP3   OH2 6566   6.325   1.941   0.354 -0.2119 -0.2888 -0.3232
 2201TIP3    H1 6567   6.239   1.902   0.371  0.1312 -0.6146  0.7564
 2201TIP3    H2 6568   6.383   1.897   0.416  0.7256 -0.0360 -1.0106
 2202TIP3   OH2 6569   3.991   2.802   1.035 -0.6243  0.2090  0.3666
 2202TIP3    H1 6570   3.934   2.762   1.100 -0.1554 -1.8252 -0.3945
 2202TIP3    H2 6571   4.074   2.756   1.045 -0.1750  0.7390 -0.8134
 2203TIP3   OH2 6572   5.495   5.145   1.485 -0.3022 -0.2497 -0.0029
 2203TIP3    H1 6573   5.534   5.221   1.528 -0.6014  0.4654 -0.9501
 2203TIP3    H2 6574   5.486   5.080   1.554 -1.1468  0.9894  1.1024
 2204TIP3   OH2 6575   0.833   3.249   5.692 -0.0671 -0.1131  0.2365
 2204TIP3    H1 6576   0.825   3.291   5.606  1.5026 -0.0793  0.0905
 2204TIP3    H2 6577   0.884   3.169   5.675  2.0951  0.9361  1.4270
 2205TIP3   OH2 6578   2.758   3.022   0.164 -0.1690  0.0182  0.8434
 2205TIP3    H1 6579   2.736   2.942   0.212 -0.5118 -0.4079 -0.0042
 2205TIP3    H2 6580   2.720   3.093   0.216 -1.4295 -0.5161  0.6761
 2206TIP3   OH2 6581   2.446   1.598   0.258  0.1439  0.0334  0.5353
 2206TIP3    H1 6582   2.419   1.545   0.183  1.3610 -0.4004  0.3831
 2206TIP3    H2 6583   2.486   1.536   0.319 -1.4273  0.2697  1.8802
 2207TIP3   OH2 6584   5.201   0.880   1.066  0.2871 -0.9037 -0.5912
 2207TIP3    H1 6585   5.180   0.948   1.130 -0.1644 -1.2849 -0.3303
 2207TIP3    H2 6586   5.185   0.921   0.981 -0.0228 -0.7002 -0.4350
 2208TIP3   OH2 6587   2.436   2.797   3.957 -0.0691  0.3070  0.4450
 2208TIP3    H1 6588   2.517   2.846   3.969 -0.0058 -0.1315  2.1290
 2208TIP3    H2 6589   2.438   2.730   4.026 -0.8321 -1.1356 -0.8603
 2209TIP3   OH2 6590   3.477   5.636   5.213 -0.3357 -0.1141 -0.1128
 2209TIP3    H1 6591   3.542   5.571   5.187 -0.9750 -0.1622 -1.7075
 2209TIP3    H2 6592   3.413   5.637   5.141 -1.2465  1.0648  0.6628
 2210TIP3   OH2 6593   2.866   3.308   5.739  0.2611 -0.2864  0.2120
 2210TIP3    H1 6594   2.798   3.373   5.719  0.4524 -0.0278  0.3964
 2210TIP3    H2 6595   2.914   3.346   5.812  0.9414 -0.2190 -0.2637
 2211TIP3   OH2 6596   5.552   2.863   5.670 -0.2243  0.5414 -0.0127
 2211TIP3    H1 6597   5.624   2.924   5.652 -1.1438  1.3013 -1.3047
 2211TIP3    H2 6598   5.584   2.809   5.742  2.3090 -0.2047 -1.5352
 2212TIP3   OH2 6599   2.340   3.756   2.579 -0.2753  0.1244  0.3641
 2212TIP3    H1 6600   2.430   3.770   2.550  0.1811  0.0052  1.6638
 2212TIP3    H2 6601   2.287   3.800   2.513  0.7600  0.5780 -0.1902
 2213TIP3   OH2 6602   5.001   3.533   0.570  0.0857  0.4694  0.2345
 2213TIP3    H1 6603   5.013   3.588   0.647  0.6628  2.2321 -1.0386
 2213TIP3    H2 6604   5.011   3.593   0.496  0.9988 -1.4047 -1.2550
 2214TIP3   OH2 6605   2.667   6.775   3.013 -0.0499  0.3396  0.1017
 2214TIP3    H1 6606   2.705   6.719   2.945 -0.0045  1.4110 -0.7938
 2214TIP3    H2 6607   2.740   6.829   3.043 -0.6121  1.8337 -1.0400
 2215TIP3   OH2 6608   5.035   5.933   1.791  0.2861  0.4086  0.0425
 2215TIP3    H1 6609   5.014   5.999   1.725 -0.1683  0.5782  0.3496
 2215TIP3    H2 6610   5.118   5.961   1.828 -0.5214  1.5294  1.0647
 2216TIP3   OH2 6611   2.663   5.195   2.944  0.3069 -0.5319  0.1705
 2216TIP3    H1 6612   2.716   5.150   3.010 -0.5571 -1.5859  0.1763
 2216TIP3    H2 6613   2.724   5.255   2.901  0.7645  0.7048  2.3606
 2217TIP3   OH2 6614   4.858   2.388   1.177 -0.2980  0.4452  0.2269
 2217TIP3    H1 6615   4.918   2.319   1.205 -0.6811  0.1090  0.2308
 2217TIP3    H2 6616   4.889   2.466   1.223 -0.1354  0.1793  0.5794
 2218TIP3   OH2 6617   6.007   3.391   4.204 -0.0083 -0.1736  0.3384
 2218TIP3    H1 6618   5.986   3.297   4.204  0.0145 -0.1811 -0.1779
 2218TIP3    H2 6619   6.014   3.414   4.111  2.7214 -0.2731  0.4490
 2219TIP3   OH2 6620   4.846   4.089   2.821  0.0724  0.1391  0.0287
 2219TIP3    H1 6621   4.764   4.103   2.773  0.6534  0.3403 -0.9199
 2219TIP3    H2 6622   4.901   4.038   2.761  0.5532 -0.2351  0.7615
 2220TIP3   OH2 6623   3.238   2.776   2.322  0.2658  0.2265 -0.1777
 2220TIP3    H1 6624   3.158   2.818   2.356  1.1376  2.1260 -0.3494
 2220TIP3    H2 6625   3.274   2.839   2.260 -0.3068 -2.3737 -3.4112
 2221TIP3   OH2 6626   0.606   1.306   4.946 -0.1278 -0.4152 -0.3926
 2221TIP3    H1 6627   0.670   1.274   4.882  0.9261  0.7239  0.0379
 2221TIP3    H2 6628   0.595   1.398   4.923 -2.2175 -0.7585 -0.9113
 2222TIP3   OH2 6629   6.517   5.394   3.941 -0.5612  0.9067 -0.4324
 2222TIP3    H1 6630   6.450   5.406   4.009  0.9986  0.4090  1.2708
 2222TIP3    H2 6631   6.594   5.440   3.975  0.7906 -0.8260 -1.0280
 2223TIP3   OH2 6632   3.634   0.118   2.825  0.1832 -0.1261 -0.4210
 2223TIP3    H1 6633   3.726   0.143   2.837  0.2419 -0.4476 -0.1983
 2223TIP3    H2 6634   3.635   0.022   2.819 -0.3571 -0.2965  1.6545
 2224TIP3   OH2 6635   6.662   0.231   0.082  0.2048  0.2848 -0.1850
 2224TIP3    H1 6636   6.666   0.279  -0.000  2.1637  2.4216  1.0428
 2224TIP3    H2 6637   6.676   0.297   0.150 -1.0245 -1.4208  1.9032
 2225TIP3   OH2 6638   2.276   0.382   3.028  0.5479 -0.0908  0.0708
 2225TIP3    H1 6639   2.274   0.287   3.031 -0.2251 -0.0696  0.4223
 2225TIP3    H2 6640   2.266   0.409   3.120  0.6529  0.3304 -0.0385
 2226TIP3   OH2 6641   5.695   1.201   3.497 -0.2930  0.4015 -0.5479
 2226TIP3    H1 6642   5.787   1.182   3.519 -0.8378 -0.4072  1.2376
 2226TIP3    H2 6643   5.678   1.285   3.539 -0.3706  0.5545 -0.8863
 2227TIP3   OH2 6644   3.656   2.940   1.544  0.2392 -0.3405 -0.1598
 2227TIP3    H1 6645   3.668   3.033   1.561  0.7113 -0.7090  1.6907
 2227TIP3    H2 6646   3.604   2.937   1.463 -0.3397  1.5155  0.1030
 2228TIP3   OH2 6647   1.650   1.709   3.261  0.1122  0.4081  0.0418
 2228TIP3    H1 6648   1.685   1.783   3.210 -2.0827  1.1898 -0.4354
 2228TIP3    H2 6649   1.709   1.637   3.241  0.2333  1.0910 -2.4196
 2229TIP3   OH2 6650   3.260   2.471   3.601  0.0380  0.7671 -0.3549
 2229TIP3    H1 6651   3.339   2.426   3.569 -0.5065  0.3891 -1.1976
 2229TIP3    H2 6652   3.260   2.455   3.695  1.0005  0.8277 -0.3289
 2230TIP3   OH2 6653   2.921   1.094   3.622  0.1301  0.2331 -0.2070
 2230TIP3    H1 6654   2.891   1.124   3.707  0.9450  2.1863 -0.5473
 2230TIP3    H2 6655   2.842   1.062   3.578 -0.5906  0.7737  0.6712
 2231TIP3   OH2 6656   3.322   3.806   1.675 -0.3581 -0.3011 -0.1718
 2231TIP3    H1 6657   3.300   3.840   1.588  0.1670 -0.1903 -0.2616
 2231TIP3    H2 6658   3.243   3.822   1.726 -1.1672 -1.5847 -0.9627
 2232TIP3   OH2 6659   4.483   3.972   3.320  0.9153 -0.4051  0.4327
 2232TIP3    H1 6660   4.511   4.034   3.388  1.9668 -0.9938  0.5676
 2232TIP3    H2 6661   4.493   3.886   3.362 -4.6280 -0.7303  1.8575
 2233TIP3   OH2 6662   0.959   5.806   5.099  0.4941  0.4430  0.1333
 2233TIP3    H1 6663   0.956   5.855   5.018  0.4274  0.8081  0.3559
 2233TIP3    H2 6664   0.880   5.832   5.146 -0.2751 -0.9300 -0.3530
 2234TIP3   OH2 6665   6.261   2.630   0.422 -0.3699 -0.1061 -0.3186
 2234TIP3    H1 6666   6.338   2.575   0.437 -0.3502 -0.2118 -0.7925
 2234TIP3    H2 6667   6.193   2.568   0.395 -0.3808  0.0850 -0.7416
 2235TIP3   OH2 6668   5.230   3.343   0.659  0.4079  0.0891 -0.2876
 2235TIP3    H1 6669   5.234   3.438   0.649  1.4994 -0.1517 -3.6200
 2235TIP3    H2 6670   5.137   3.322   0.652  0.2142  0.8827 -0.1792
 2236TIP3   OH2 6671   2.894   0.816   5.314  0.0156 -0.2319 -0.0902
 2236TIP3    H1 6672   2.915   0.733   5.358 -1.6926 -1.6277 -1.7328
 2236TIP3    H2 6673   2.890   0.880   5.385  4.5599 -0.7195  0.9409
 2237TIP3   OH2 6674   2.180   2.898   3.208 -0.1986  0.3879  0.1569
 2237TIP3    H1 6675   2.191   2.940   3.122  1.0190 -0.8840 -0.3412
 2237TIP3    H2 6676   2.174   2.971   3.270 -0.3478  1.3150 -0.9134
 2238TIP3   OH2 6677   0.436   2.347   3.995  0.2876  0.3065 -0.0465
 2238TIP3    H1 6678   0.346   2.371   3.976  0.4254  1.8659  1.0457
 2238TIP3    H2 6679   0.459   2.400   4.072  2.7283  1.4758 -1.4625
 2239TIP3   OH2 6680   0.340   2.041   3.618  0.3218  0.3555  0.1945
 2239TIP3    H1 6681   0.396   2.116   3.636  1.4927 -0.9273  2.4242
 2239TIP3    H2 6682   0.272   2.045   3.685  0.7242 -0.8163  0.7082
 2240TIP3   OH2 6683   1.732   0.669   4.597 -0.1653 -0.1775 -0.0306
 2240TIP3    H1 6684   1.754   0.728   4.669  1.9804 -1.0155  0.0738
 2240TIP3    H2 6685   1.668   0.717   4.545 -1.6018  0.5578  2.2627
 2241TIP3   OH2 6686   1.791   6.748   5.306  0.0033  0.6171  0.5358
 2241TIP3    H1 6687   1.748   6.822   5.350  0.4386  1.0080  0.3186
 2241TIP3    H2 6688   1.870   6.733   5.357  0.6750  1.2807 -0.2790
 2242TIP3   OH2 6689   5.378   4.954   3.178  0.2718 -0.4842 -0.7716
 2242TIP3    H1 6690   5.449   4.939   3.240 -0.0465 -0.9764 -0.5208
 2242TIP3    H2 6691   5.399   4.899   3.103  0.1878 -0.5898 -0.7190
 2243TIP3   OH2 6692   3.239   6.043   5.075 -0.4781 -0.3132  0.0372
 2243TIP3    H1 6693   3.249   6.136   5.098 -0.3091  0.0712 -1.4739
 2243TIP3    H2 6694   3.322   6.019   5.034 -0.4698 -1.1941  0.5325
 2244TIP3   OH2 6695   1.914   1.984   4.962  0.5443 -0.0267 -0.7261
 2244TIP3    H1 6696   1.895   1.932   4.884 -0.9125  1.3609 -1.3755
 2244TIP3    H2 6697   1.985   2.043   4.936  1.9715 -1.4021 -0.0914
 2245TIP3   OH2 6698   0.336   4.037   4.817  0.7434  0.4248 -0.6511
 2245TIP3    H1 6699   0.397   4.110   4.811 -0.9638  1.7924 -2.2864
 2245TIP3    H2 6700   0.261   4.072   4.865 -0.5512  0.1221 -2.3759
 2246TIP3   OH2 6701   6.040   0.291   3.572  0.3676  0.7213  0.3565
 2246TIP3    H1 6702   6.114   0.342   3.539 -0.1606  2.2639  1.4340
 2246TIP3    H2 6703   6.061   0.201   3.548  1.8816  1.2913 -0.6454
 2247TIP3   OH2 6704   1.423   0.703   1.710  0.0005 -0.7178  0.2198
 2247TIP3    H1 6705   1.398   0.763   1.780 -0.0522 -0.8577  0.3226
 2247TIP3    H2 6706   1.394   0.746   1.630  3.3278  1.2473 -0.1190
 2248TIP3   OH2 6707   0.682   5.778   0.222  0.1241  0.6960 -0.2850
 2248TIP3    H1 6708   0.627   5.749   0.149  0.2007  0.6054 -0.3068
 2248TIP3    H2 6709   0.755   5.716   0.223  0.7296  1.3858 -0.8601
 2249TIP3   OH2 6710   1.625   5.651   4.807  0.0288 -0.1040 -0.0735
 2249TIP3    H1 6711   1.601   5.735   4.846 -1.1546  0.3660 -1.7230
 2249TIP3    H2 6712   1.659   5.674   4.721  2.8241 -1.1001  0.6676
 2250TIP3   OH2 6713   5.292   0.152   3.117 -0.7527 -0.3914 -0.2576
 2250TIP3    H1 6714   5.379   0.131   3.082 -0.1214  1.6990 -0.0520
 2250TIP3    H2 6715   5.286   0.247   3.111 -2.0982 -0.2819  1.8961
 2251TIP3   OH2 6716   2.562   3.267   3.452  0.0999  0.0599 -0.3096
 2251TIP3    H1 6717   2.578   3.262   3.357  3.0811 -0.7025  0.1245
 2251TIP3    H2 6718   2.620   3.336   3.482 -0.1376 -0.3272  1.0928
 2252TIP3   OH2 6719   1.177   3.012   0.716  0.6217  0.0700  0.1589
 2252TIP3    H1 6720   1.101   3.058   0.682  1.0673 -0.0903 -1.0984
 2252TIP3    H2 6721   1.142   2.953   0.783 -0.2622  0.4305  0.0259
 2253TIP3   OH2 6722   7.190   1.033   5.840  0.0560 -0.3551 -0.0429
 2253TIP3    H1 6723   7.211   1.073   5.756 -0.6531 -1.2204 -0.6431
 2253TIP3    H2 6724   7.231   0.946   5.837  1.0686  0.0615  1.0060
 2254TIP3   OH2 6725   4.685   3.461   1.779 -0.7262 -0.9790 -0.1248
 2254TIP3    H1 6726   4.751   3.435   1.843  0.3212  0.5231 -0.5309
 2254TIP3    H2 6727   4.731   3.463   1.696 -1.6433 -1.2647 -0.6528
 2255TIP3   OH2 6728   2.364   2.725   4.338 -0.1922  0.5270 -0.1850
 2255TIP3    H1 6729   2.299   2.782   4.298  0.9358  1.9118 -0.1423
 2255TIP3    H2 6730   2.448   2.765   4.316  0.6352 -0.9354  0.1620
 2256TIP3   OH2 6731   6.029   2.137   4.882  0.6138  0.1340  0.0045
 2256TIP3    H1 6732   6.033   2.186   4.800  1.4658  0.8250  0.4430
 2256TIP3    H2 6733   6.120   2.117   4.903  0.6376  1.9308  1.9206
 2257TIP3   OH2 6734   3.229   0.678   1.794 -0.9234  0.2416  0.5342
 2257TIP3    H1 6735   3.138   0.667   1.768 -1.4689  1.2212  1.9186
 2257TIP3    H2 6736   3.234   0.767   1.830  0.0036 -0.5694  2.6145
 2258TIP3   OH2 6737   3.154   5.680   3.853  0.1055  0.0677  0.1215
 2258TIP3    H1 6738   3.122   5.770   3.859 -1.6203 -0.5673  0.9363
 2258TIP3    H2 6739   3.169   5.666   3.760  1.2202  1.4437  0.0597
 2259TIP3   OH2 6740   5.499   2.219   3.311  0.1744  0.4935 -0.5150
 2259TIP3    H1 6741   5.546   2.238   3.229  0.3110 -1.5980 -0.9747
 2259TIP3    H2 6742   5.414   2.186   3.283  0.5009 -0.9739  0.1377
 2260TIP3   OH2 6743   1.282   6.328   1.925  0.0917 -0.2526 -0.5516
 2260TIP3    H1 6744   1.224   6.387   1.877  0.4171  2.4497  2.0289
 2260TIP3    H2 6745   1.351   6.306   1.863 -0.6162  1.2560 -1.9474
 2261TIP3   OH2 6746   2.868   4.813   1.087 -0.2395  0.3817 -0.1730
 2261TIP3    H1 6747   2.819   4.769   1.157 -0.4522 -0.1024 -0.6158
 2261TIP3    H2 6748   2.937   4.862   1.133 -0.2316 -0.1137  0.3632
 2262TIP3   OH2 6749   3.879   3.662   0.581  0.4694 -0.1652  0.7124
 2262TIP3    H1 6750   3.940   3.590   0.598 -0.8137 -0.9203  2.3856
 2262TIP3    H2 6751   3.857   3.653   0.488  1.2410 -1.2014  0.6152
 2263TIP3   OH2 6752   6.895   3.797   0.834 -0.3725 -0.2458  0.0992
 2263TIP3    H1 6753   6.985   3.831   0.827  0.3675 -1.9817  0.7623
 2263TIP3    H2 6754   6.852   3.830   0.755  1.0563  0.0092 -0.6205
 2264TIP3   OH2 6755   3.054   1.905   4.030 -0.0300 -0.0185 -0.6496
 2264TIP3    H1 6756   3.081   1.831   4.085 -0.5193  0.1836 -0.1270
 2264TIP3    H2 6757   3.052   1.870   3.941 -1.9352 -1.1165 -0.2162
 2265TIP3   OH2 6758   1.787   4.991   3.360 -0.8287 -0.5164  0.1587
 2265TIP3    H1 6759   1.771   4.917   3.418 -1.9646 -0.3203  0.1176
 2265TIP3    H2 6760   1.795   5.066   3.419  0.6001 -0.6925  0.2209
 2266TIP3   OH2 6761   0.753   3.085   5.133  0.2508  0.1980 -0.5263
 2266TIP3    H1 6762   0.680   3.148   5.134 -0.4082 -0.5452 -0.8003
 2266TIP3    H2 6763   0.763   3.058   5.224  0.7510  0.9294 -0.3550
 2267TIP3   OH2 6764   4.203   6.090   4.218 -0.3969 -0.6739 -0.2943
 2267TIP3    H1 6765   4.180   6.141   4.141 -0.1533  1.1842  0.8049
 2267TIP3    H2 6766   4.283   6.043   4.194  0.3283  0.7902 -0.8010
 2268TIP3   OH2 6767   0.164   3.930   5.136 -0.8505  0.5390 -0.0618
 2268TIP3    H1 6768   0.150   4.017   5.099  0.4032  1.5115  1.5785
 2268TIP3    H2 6769   0.238   3.941   5.196 -0.4469 -1.7420 -0.0270
 2269TIP3   OH2 6770   2.216   0.781   4.892 -0.4642  0.3460 -0.1355
 2269TIP3    H1 6771   2.148   0.714   4.884 -1.4161  0.7252  3.1497
 2269TIP3    H2 6772   2.298   0.732   4.899 -0.6917 -0.2450 -1.3209
 2270TIP3   OH2 6773   6.478   2.855   0.037  0.3416 -0.3145 -0.0366
 2270TIP3    H1 6774   6.414   2.890  -0.025  1.2952  0.9015 -0.3728
 2270TIP3    H2 6775   6.562   2.881   0.002  0.8989  1.4163  2.3283
 2271TIP3   OH2 6776   4.200   6.784   2.772 -0.0442 -0.3916 -0.1317
 2271TIP3    H1 6777   4.254   6.813   2.845  0.7667 -0.4904 -0.6807
 2271TIP3    H2 6778   4.226   6.693   2.757  1.9285  0.4385 -2.3743
 2272TIP3   OH2 6779   1.847   4.114   1.923  0.0774 -0.1803 -0.2043
 2272TIP3    H1 6780   1.873   4.185   1.981  0.3543 -0.9902  0.6839
 2272TIP3    H2 6781   1.912   4.115   1.853 -1.3063  1.9864 -1.5592
 2273TIP3   OH2 6782   4.470   6.095   5.710 -0.2767 -0.4395  0.3373
 2273TIP3    H1 6783   4.473   6.135   5.623 -0.9962  2.8341  1.6998
 2273TIP3    H2 6784   4.558   6.060   5.723  0.2145  0.1501 -1.1795
 2274TIP3   OH2 6785   0.135   3.911   5.565 -0.1085 -0.2064  0.2541
 2274TIP3    H1 6786   0.191   3.902   5.487 -0.5918  0.5071 -0.1882
 2274TIP3    H2 6787   0.183   3.972   5.621 -0.8945  1.2335 -0.5810
 2275TIP3   OH2 6788   2.276   0.891   2.643 -0.4445 -0.4070 -0.3362
 2275TIP3    H1 6789   2.289   0.812   2.591  0.9114 -1.0274  0.8826
 2275TIP3    H2 6790   2.357   0.900   2.694 -1.2258  0.8499  0.7495
 2276TIP3   OH2 6791   2.502   1.098   1.472 -0.9370  0.1795  0.2571
 2276TIP3    H1 6792   2.554   1.092   1.553  0.3678 -1.1237 -0.6234
 2276TIP3    H2 6793   2.480   1.008   1.451  0.2139  0.3008 -1.7165
 2277TIP3   OH2 6794   7.203   3.065   4.399  0.4765 -0.0128  0.0179
 2277TIP3    H1 6795   7.251   3.006   4.456 -3.3839 -1.1332  2.5414
 2277TIP3    H2 6796   7.138   3.107   4.456 -0.7802  2.2679 -2.7901
 2278TIP3   OH2 6797   4.423   5.272   4.292  0.4249  0.2496  0.4019
 2278TIP3    H1 6798   4.492   5.274   4.359 -0.4370 -1.1605  1.3791
 2278TIP3    H2 6799   4.470   5.284   4.210  1.7979 -0.2107  1.0744
 2279TIP3   OH2 6800   4.501   5.123   1.340 -0.5622 -0.3187  0.0208
 2279TIP3    H1 6801   4.595   5.119   1.323 -1.0813 -0.4228 -3.5287
 2279TIP3    H2 6802   4.491   5.199   1.398  1.6500 -0.0877  0.2030
 2280TIP3   OH2 6803   5.887   6.267   3.134 -0.2110 -0.1528  0.4398
 2280TIP3    H1 6804   5.863   6.282   3.043  0.0402 -0.3623  0.3377
 2280TIP3    H2 6805   5.974   6.305   3.143 -0.2224 -0.1584  0.5851
 2281TIP3   OH2 6806   4.408   2.113   2.608  0.0794  0.0805  0.4927
 2281TIP3    H1 6807   4.498   2.140   2.627  0.6391  0.1202 -1.8812
 2281TIP3    H2 6808   4.368   2.190   2.568 -1.9310  0.9599  3.8104
 2282TIP3   OH2 6809   5.807   1.971   0.628  0.7352  0.1054 -0.2960
 2282TIP3    H1 6810   5.835   2.029   0.557  1.8499  0.6236  0.5490
 2282TIP3    H2 6811   5.878   1.974   0.692 -0.2328 -0.3865  0.8369
 2283TIP3   OH2 6812   3.887   0.197   2.967  0.0943  0.0834 -0.2135
 2283TIP3    H1 6813   3.958   0.176   3.028 -0.3727  1.6742  0.9377
 2283TIP3    H2 6814   3.900   0.290   2.946  0.2727 -0.3989 -2.6237
 2284TIP3   OH2 6815   2.888   0.969   5.538  0.0882 -0.1769  0.7462
 2284TIP3    H1 6816   2.956   0.954   5.604 -0.6944 -1.4490  1.2984
 2284TIP3    H2 6817   2.813   1.000   5.588  0.7660  3.0796 -0.0584
 2285TIP3   OH2 6818   3.307   2.467   1.865  0.4507 -0.7843 -0.3982
 2285TIP3    H1 6819   3.285   2.443   1.774  2.0277  0.4782 -1.1675
 2285TIP3    H2 6820   3.320   2.561   1.862 -0.8086 -0.5091  1.4905
 2286TIP3   OH2 6821   1.082   4.982   0.804  0.1804 -0.4025  0.4304
 2286TIP3    H1 6822   0.992   4.988   0.773  0.4402  1.1981 -0.1425
 2286TIP3    H2 6823   1.076   5.000   0.897 -0.1136 -0.5219  0.4365
 2287TIP3   OH2 6824   2.136   0.150   4.757 -0.8315  0.1601 -0.3101
 2287TIP3    H1 6825   2.204   0.082   4.749 -1.7465 -1.3158  2.7132
 2287TIP3    H2 6826   2.177   0.219   4.808 -0.5960  0.8782 -1.4458
 2288TIP3   OH2 6827   3.883   2.827   1.412  0.2851 -0.3407 -0.0516
 2288TIP3    H1 6828   3.813   2.860   1.468  1.5664 -0.9674  2.0375
 2288TIP3    H2 6829   3.839   2.800   1.332 -1.2353  3.4464 -0.6947
 2289TIP3   OH2 6830   4.884   5.096   2.353 -0.1639  0.0178  0.1051
 2289TIP3    H1 6831   4.824   5.025   2.376 -0.1663 -0.4023 -1.0909
 2289TIP3    H2 6832   4.960   5.051   2.314  0.0491  0.6376 -0.2055
 2290TIP3   OH2 6833   2.827   1.606   3.645 -0.0375  0.0649  0.5195
 2290TIP3    H1 6834   2.749   1.567   3.606  0.6052  0.9331 -1.8732
 2290TIP3    H2 6835   2.844   1.684   3.591  1.6541  0.7083  1.8686
 2291TIP3   OH2 6836   4.537   0.009   4.994 -0.1479  0.0700  0.6035
 2291TIP3    H1 6837   4.545   0.104   4.981 -1.6441  0.2312  0.6785
 2291TIP3    H2 6838   4.589  -0.029   4.924 -1.7276  0.9706 -1.1607
 2292TIP3   OH2 6839   7.097   4.812   2.158  0.3838 -0.1245 -0.3062
 2292TIP3    H1 6840   7.059   4.813   2.246  1.0216  0.7052 -0.0179
 2292TIP3    H2 6841   7.185   4.777   2.171  0.2923 -0.5055 -0.7048
 2293TIP3   OH2 6842   5.414   5.123   4.916  0.1230 -0.0974 -0.4073
 2293TIP3    H1 6843   5.389   5.214   4.933 -3.7912 -1.2466  1.1832
 2293TIP3    H2 6844   5.488   5.107   4.974  0.1067  1.7530  0.1855
 2294TIP3   OH2 6845   2.778   0.859   1.242  0.0083 -0.6688  0.4886
 2294TIP3    H1 6846   2.685   0.882   1.237  0.2701  0.2801 -0.3885
 2294TIP3    H2 6847   2.795   0.812   1.161  0.3849 -0.4789  0.4566
 2295TIP3   OH2 6848   3.426   3.156   3.656  0.1806 -0.0337 -0.0207
 2295TIP3    H1 6849   3.482   3.114   3.590 -0.4165  0.0297 -0.5659
 2295TIP3    H2 6850   3.368   3.213   3.607  0.8394  1.3154  0.6946
 2296TIP3   OH2 6851   6.952   4.526   0.356  0.4844 -0.0834  0.3090
 2296TIP3    H1 6852   6.992   4.484   0.280 -0.6805 -1.8175  0.5832
 2296TIP3    H2 6853   6.968   4.465   0.428 -1.4120 -0.1971  0.7026
 2297TIP3   OH2 6854   3.732   6.369   4.361 -0.5310 -0.0919  0.0081
 2297TIP3    H1 6855   3.675   6.356   4.285  0.1805  0.3362 -0.6147
 2297TIP3    H2 6856   3.820   6.348   4.329 -0.3770 -1.1820  1.0768
 2298TIP3   OH2 6857   3.451   1.405   0.854 -0.2075 -0.2625 -0.0168
 2298TIP3    H1 6858   3.542   1.375   0.852 -0.1101  0.0458 -0.6167
 2298TIP3    H2 6859   3.416   1.377   0.769 -0.0856  1.3699 -0.6532
 2299TIP3   OH2 6860   4.186   5.536   2.438  0.0191  0.5860 -0.0624
 2299TIP3    H1 6861   4.144   5.505   2.358 -0.1415  0.1685  0.1846
 2299TIP3    H2 6862   4.134   5.613   2.464  0.9887  1.6667 -1.1945
 2300TIP3   OH2 6863   0.064   6.244   5.006 -0.8364  0.3444  0.0912
 2300TIP3    H1 6864   0.080   6.256   4.912  0.5853 -1.0944  0.1111
 2300TIP3    H2 6865   0.034   6.154   5.014  0.7927 -0.1507  1.1660
 2301TIP3   OH2 6866   0.560   6.714   2.615 -0.0638  0.0433  0.5099
 2301TIP3    H1 6867   0.646   6.675   2.602  0.2270  0.8336 -0.0260
 2301TIP3    H2 6868   0.515   6.654   2.673  1.1563  0.0485  1.4987
 2302TIP3   OH2 6869   1.273   2.047   2.956  0.6226  0.1584  0.0315
 2302TIP3    H1 6870   1.231   2.110   3.014 -2.6611 -0.8395 -0.9664
 2302TIP3    H2 6871   1.266   1.963   3.003  0.4018 -0.2166 -0.6559
 2303TIP3   OH2 6872   4.783   0.049   1.159 -0.8699 -0.5145  0.1681
 2303TIP3    H1 6873   4.699   0.085   1.130  0.1524  0.4916 -1.7534
 2303TIP3    H2 6874   4.844   0.068   1.087  0.7576 -2.2457  0.9898
 2304TIP3   OH2 6875   0.094   6.591   4.649  0.1992 -0.2088 -0.3673
 2304TIP3    H1 6876   0.118   6.553   4.564 -2.5430  1.1206 -1.8462
 2304TIP3    H2 6877   0.039   6.524   4.691 -0.0983 -0.0735 -0.5387
 2305TIP3   OH2 6878   0.612   3.642   5.400  0.3397  0.1918  0.8349
 2305TIP3    H1 6879   0.595   3.625   5.307 -1.3365  1.6281  0.8383
 2305TIP3    H2 6880   0.585   3.562   5.444 -3.9518  1.2244  0.5170
 2306TIP3   OH2 6881   6.124   0.462   2.280  0.3423 -0.3278  0.5529
 2306TIP3    H1 6882   6.171   0.477   2.198  1.9145 -3.1658  0.8232
 2306TIP3    H2 6883   6.035   0.439   2.254 -0.5714  3.2195 -0.0444
 2307TIP3   OH2 6884   3.386  -0.031   5.358  0.8891 -0.0422  0.0474
 2307TIP3    H1 6885   3.328   0.038   5.391  2.6598  1.5498  0.0188
 2307TIP3    H2 6886   3.467   0.015   5.336  2.4636 -2.2787  0.8594
 2308TIP3   OH2 6887   0.374   5.750   4.233 -0.8627 -0.3159  0.4101
 2308TIP3    H1 6888   0.294   5.803   4.233 -1.9277 -1.8228 -0.7824
 2308TIP3    H2 6889   0.445   5.813   4.246 -1.8677  1.7994 -2.9471
 2309TIP3   OH2 6890   3.148   4.091   1.633  0.3020 -0.3360  0.1158
 2309TIP3    H1 6891   3.105   4.176   1.634  0.9122 -0.0197  0.8652
 2309TIP3    H2 6892   3.086   4.031   1.674 -0.3016 -0.3500 -0.7983
 2310TIP3   OH2 6893   5.180   4.174   3.237 -0.2408 -0.7126  0.4720
 2310TIP3    H1 6894   5.146   4.232   3.169 -1.1343 -1.5799  0.1381
 2310TIP3    H2 6895   5.238   4.114   3.190  0.3964 -0.3215  0.7525
 2311TIP3   OH2 6896   1.812   5.226   0.331  0.0626  0.6537  0.0269
 2311TIP3    H1 6897   1.806   5.227   0.426  0.5122 -2.0092  0.1586
 2311TIP3    H2 6898   1.897   5.264   0.311  1.2407 -1.3245  0.9463
 2312TIP3   OH2 6899   2.225   2.717   2.065  0.6873 -0.0300  0.7861
 2312TIP3    H1 6900   2.187   2.762   2.141  1.1910  0.4070  0.7851
 2312TIP3    H2 6901   2.224   2.624   2.089 -1.3782 -0.1667  0.3509
 2313TIP3   OH2 6902   2.324   0.606   3.509 -0.1496  0.1906 -0.2601
 2313TIP3    H1 6903   2.409   0.632   3.473  0.8896 -2.3267  0.1608
 2313TIP3    H2 6904   2.338   0.607   3.604 -0.0888 -1.5757 -0.2134
 2314TIP3   OH2 6905   2.604   0.170   1.809 -0.1825  0.4250  0.7739
 2314TIP3    H1 6906   2.555   0.145   1.887  0.1047  1.1146  1.1784
 2314TIP3    H2 6907   2.597   0.265   1.805 -0.4673  0.3811 -0.2280
 2315TIP3   OH2 6908   0.582   6.597   4.125 -0.7539 -0.2946 -0.1760
 2315TIP3    H1 6909   0.581   6.523   4.064  1.2732 -1.1522  0.7445
 2315TIP3    H2 6910   0.652   6.653   4.093 -1.9060  1.0148 -0.5356
 2316TIP3   OH2 6911   7.174   3.559   2.985  0.2965  0.2587  0.2458
 2316TIP3    H1 6912   7.212   3.505   2.915 -0.8535 -0.1738 -0.0661
 2316TIP3    H2 6913   7.087   3.521   3.000 -0.8433  2.4328 -0.4828
 2317TIP3   OH2 6914   6.529   5.813   4.234 -0.0878 -0.4358  0.1838
 2317TIP3    H1 6915   6.509   5.784   4.145  0.1107 -1.6096  0.5088
 2317TIP3    H2 6916   6.468   5.765   4.289 -1.1642  1.3230  0.5924
 2318TIP3   OH2 6917   6.099   6.446   1.735  0.1498  0.4359  0.1748
 2318TIP3    H1 6918   6.085   6.469   1.643 -1.0217  1.4614  0.5826
 2318TIP3    H2 6919   6.193   6.432   1.742  0.4576  1.7475 -0.8786
 2319TIP3   OH2 6920   3.181   4.060   3.424  0.1154  1.0747  0.0283
 2319TIP3    H1 6921   3.112   4.001   3.392  0.3383  1.9615 -2.2723
 2319TIP3    H2 6922   3.234   4.005   3.482 -1.7927  0.0522  0.9135
 2320TIP3   OH2 6923   1.914   0.685   0.095  1.1946 -0.1692 -0.0173
 2320TIP3    H1 6924   1.861   0.609   0.119 -1.2217  1.4700  0.0892
 2320TIP3    H2 6925   1.963   0.705   0.175  0.8256 -0.7918  0.3724
 2321TIP3   OH2 6926   6.392   5.279   5.222 -0.0111 -0.2359  0.0146
 2321TIP3    H1 6927   6.430   5.268   5.309 -0.1538 -0.2112  0.0791
 2321TIP3    H2 6928   6.301   5.253   5.232  0.2153 -1.2497 -0.3619
 2322TIP3   OH2 6929   1.158   0.162   1.467  0.4604  0.6946  0.0387
 2322TIP3    H1 6930   1.203   0.140   1.548  0.1012  0.7450  0.2567
 2322TIP3    H2 6931   1.118   0.248   1.485 -3.0024 -0.9797  1.2786
 2323TIP3   OH2 6932   0.016   2.997   2.890 -0.4284 -0.0889 -0.0360
 2323TIP3    H1 6933   0.073   3.053   2.944 -1.5301  0.7549  0.3157
 2323TIP3    H2 6934   0.070   2.970   2.817  0.9779 -0.8654  1.2423
 2324TIP3   OH2 6935   1.952   5.646   1.329  0.0127 -0.4455  0.5591
 2324TIP3    H1 6936   1.920   5.616   1.244 -3.4474 -0.8394  1.8305
 2324TIP3    H2 6937   1.916   5.734   1.338 -0.2375 -0.6635  1.8703
 2325TIP3   OH2 6938   4.069   1.579   2.797 -0.4015 -0.0692  0.0254
 2325TIP3    H1 6939   3.977   1.591   2.821 -0.0238  0.2678  1.4467
 2325TIP3    H2 6940   4.075   1.611   2.707 -1.4942  0.7888  0.2340
 2326TIP3   OH2 6941   6.019   4.807   3.253  0.4202  0.7128  0.1990
 2326TIP3    H1 6942   5.952   4.781   3.190  1.1743  1.4176 -0.9263
 2326TIP3    H2 6943   6.086   4.739   3.246 -0.0855  0.0677  1.2462
 2327TIP3   OH2 6944   0.345   2.245   1.340  0.0023  0.1038  0.1989
 2327TIP3    H1 6945   0.367   2.291   1.259  0.9222 -0.9126 -0.1510
 2327TIP3    H2 6946   0.313   2.314   1.399 -0.1361  0.9408 -0.8312
 2328TIP3   OH2 6947   5.998   5.252   2.361  0.2642  0.0410  0.4252
 2328TIP3    H1 6948   6.009   5.345   2.380 -1.7170 -0.0798  2.7129
 2328TIP3    H2 6949   6.077   5.210   2.394  0.4436  0.7659  0.9251
 2329TIP3   OH2 6950   5.752   4.586   2.764  0.5353  0.0150  0.2599
 2329TIP3    H1 6951   5.818   4.559   2.702  1.6326  1.6657  0.6353
 2329TIP3    H2 6952   5.796   4.650   2.820 -1.6988  2.2417 -0.3426
 2330TIP3   OH2 6953   6.255   2.419   5.348  0.3124 -0.0208 -0.3204
 2330TIP3    H1 6954   6.328   2.358   5.358  0.3690 -0.2970 -2.0485
 2330TIP3    H2 6955   6.233   2.415   5.255 -0.3239  1.8851 -0.2957
 2331TIP3   OH2 6956   5.956   1.739   3.277 -0.0126 -0.6104  0.0062
 2331TIP3    H1 6957   5.975   1.819   3.228  0.7045  0.2371  1.6204
 2331TIP3    H2 6958   5.996   1.752   3.362 -0.5423 -2.3871  0.5749
 2332TIP3   OH2 6959   1.406   5.663   0.420 -0.9787  0.1567  0.2838
 2332TIP3    H1 6960   1.407   5.609   0.499 -0.4611  0.7374  0.6829
 2332TIP3    H2 6961   1.499   5.672   0.396 -1.1900 -1.6643 -1.5549
 2333TIP3   OH2 6962   4.224   3.210   2.514 -0.1756  0.1289 -0.0119
 2333TIP3    H1 6963   4.304   3.262   2.511  0.5193 -0.9528 -1.1797
 2333TIP3    H2 6964   4.224   3.161   2.432 -1.9071 -0.0897  0.0866
 2334TIP3   OH2 6965   3.476   0.559   5.526  0.3187 -0.3024  0.0082
 2334TIP3    H1 6966   3.533   0.631   5.497 -0.4706  0.8602  1.2107
 2334TIP3    H2 6967   3.432   0.531   5.446 -0.0718  1.2367 -0.3499
 2335TIP3   OH2 6968   2.468   5.919   5.853 -0.4293 -0.8506  0.1690
 2335TIP3    H1 6969   2.530   5.847   5.864  0.2858 -0.5019 -1.3193
 2335TIP3    H2 6970   2.433   5.907   5.764 -1.6883 -0.4074  0.5790
 2336TIP3   OH2 6971   5.624   1.794   4.128  0.3571 -0.8165  0.3163
 2336TIP3    H1 6972   5.581   1.879   4.128  0.5453 -0.7020  1.7628
 2336TIP3    H2 6973   5.654   1.781   4.218  2.5421 -1.2978 -0.3973
 2337TIP3   OH2 6974   2.411   5.258   2.279  0.1342  0.4245  0.0030
 2337TIP3    H1 6975   2.349   5.310   2.228 -0.0586  0.9844  0.8058
 2337TIP3    H2 6976   2.417   5.175   2.231 -1.2063  0.3740 -0.1039
 2338TIP3   OH2 6977   1.188   0.802   4.324  0.3103  0.1991 -0.1673
 2338TIP3    H1 6978   1.096   0.775   4.326  0.5004 -0.4331  0.7317
 2338TIP3    H2 6979   1.220   0.781   4.411  1.6919 -0.9631 -0.9112
 2339TIP3   OH2 6980   0.314   0.594   3.400  0.2458 -0.2859 -0.5132
 2339TIP3    H1 6981   0.341   0.566   3.487 -0.7517  0.5477  0.0795
 2339TIP3    H2 6982   0.224   0.625   3.411  0.4609  0.8145 -1.6259
 2340TIP3   OH2 6983   6.537   4.623   4.670 -0.0951  0.2166 -0.4360
 2340TIP3    H1 6984   6.562   4.665   4.752 -1.4284  1.3900 -0.6128
 2340TIP3    H2 6985   6.461   4.569   4.692 -0.3734  0.4277 -0.8674
 2341TIP3   OH2 6986   2.170   1.567   0.453 -0.3526  0.0684  0.0054
 2341TIP3    H1 6987   2.184   1.472   0.448 -1.0800 -0.1291  1.4000
 2341TIP3    H2 6988   2.207   1.593   0.537  1.8755  1.4473 -1.2850
 2342TIP3   OH2 6989   6.579   1.705   5.062 -0.4026  0.2027  0.2301
 2342TIP3    H1 6990   6.527   1.646   5.007  2.5128 -0.4278 -2.1017
 2342TIP3    H2 6991   6.546   1.792   5.041 -0.9849 -0.2181 -0.6631
 2343TIP3   OH2 6992   4.313   4.345   4.540  0.3653 -0.0966 -0.0431
 2343TIP3    H1 6993   4.286   4.259   4.572 -0.9342  0.3597  0.1578
 2343TIP3    H2 6994   4.299   4.340   4.445  1.1099 -0.3827 -0.1405
 2344TIP3   OH2 6995   3.175   1.073   0.033 -0.3636 -0.5803  0.8044
 2344TIP3    H1 6996   3.259   1.054   0.075  0.0278  0.3162  0.4338
 2344TIP3    H2 6997   3.160   1.166   0.049  0.1242 -0.0367 -1.6042
 2345TIP3   OH2 6998   3.078   0.490   0.820  0.6778 -0.0505  0.1608
 2345TIP3    H1 6999   3.160   0.457   0.784  1.3372  1.0323  0.5970
 2345TIP3    H2 7000   3.053   0.425   0.886  1.0922 -0.4840 -0.1031
 2346TIP3   OH2 7001   1.473   1.934   1.345  0.3310  0.2850 -0.5644
 2346TIP3    H1 7002   1.422   2.007   1.310  0.1924  0.5947  0.2574
 2346TIP3    H2 7003   1.439   1.921   1.434  1.8251  0.6571  0.0949
 2347TIP3   OH2 7004   3.529   3.240   2.320 -0.1800  0.1772 -0.0215
 2347TIP3    H1 7005   3.479   3.318   2.344 -1.4728 -0.5088 -0.3657
 2347TIP3    H2 7006   3.569   3.211   2.401 -2.0717 -0.4272  0.7484
 2348TIP3   OH2 7007   3.639   5.680   4.856  0.0389 -0.4162  0.0193
 2348TIP3    H1 7008   3.684   5.627   4.791  2.1468  1.2816  0.0004
 2348TIP3    H2 7009   3.642   5.769   4.821 -1.5963  0.0674  0.9832
 2349TIP3   OH2 7010   1.094   1.136   1.484  0.2205 -0.4958  0.0049
 2349TIP3    H1 7011   1.104   1.068   1.417  1.4882 -1.1617  0.8307
 2349TIP3    H2 7012   1.160   1.115   1.549 -1.0157  0.1017  1.5111
 2350TIP3   OH2 7013   4.944   0.325   3.792 -0.0933  0.0192  0.1751
 2350TIP3    H1 7014   4.866   0.277   3.819 -0.3612  0.7826  0.8130
 2350TIP3    H2 7015   4.961   0.296   3.702 -1.2154 -0.0288 -0.0292
 2351TIP3   OH2 7016   0.260   1.124   0.254 -0.1250  0.3936 -0.6367
 2351TIP3    H1 7017   0.189   1.096   0.197  0.2561  0.4544 -1.1535
 2351TIP3    H2 7018   0.336   1.074   0.224 -0.4998 -1.7162  1.6534
 2352TIP3   OH2 7019   3.478   3.432   0.852 -0.3912  0.0636  0.8342
 2352TIP3    H1 7020   3.444   3.361   0.906 -0.6120 -0.6560 -0.2380
 2352TIP3    H2 7021   3.518   3.389   0.777  0.7557  1.0084  0.8645
 2353TIP3   OH2 7022   2.734   3.835   3.077  0.2306  0.1438  0.4711
 2353TIP3    H1 7023   2.759   3.911   3.128  0.9686  1.1573 -1.2995
 2353TIP3    H2 7024   2.656   3.862   3.030 -0.2538 -0.6570  0.7933
 2354TIP3   OH2 7025   0.722   4.356   3.144 -0.4371  0.0038  0.3497
 2354TIP3    H1 7026   0.690   4.395   3.225 -2.0634  0.1174 -0.2988
 2354TIP3    H2 7027   0.787   4.419   3.111 -0.4667  0.4204  1.0677
 2355TIP3   OH2 7028   4.157   5.435   1.220  0.2985  0.3105  0.0933
 2355TIP3    H1 7029   4.180   5.494   1.149  2.7563  0.3739  0.8781
 2355TIP3    H2 7030   4.119   5.491   1.287  0.2827  0.6080 -0.1623
 2356TIP3   OH2 7031   5.109   5.816   4.970 -0.1601 -0.2577  0.3152
 2356TIP3    H1 7032   5.017   5.793   4.973 -0.9866  1.8161 -3.3737
 2356TIP3    H2 7033   5.111   5.906   4.936  3.2067 -0.1535  0.3881
 2357TIP3   OH2 7034   2.100   6.667   5.231  0.1122  0.4131 -0.8773
 2357TIP3    H1 7035   2.188   6.639   5.255  0.4073  2.6198  0.9627
 2357TIP3    H2 7036   2.102   6.671   5.136  1.4521 -1.1457 -0.9706
 2358TIP3   OH2 7037   1.162   6.684   3.217 -0.7245 -0.0511 -0.1540
 2358TIP3    H1 7038   1.080   6.679   3.167 -0.3456  0.7778 -0.8662
 2358TIP3    H2 7039   1.195   6.772   3.201  0.0596 -0.2073  0.5359
 2359TIP3   OH2 7040   1.653   3.698   2.157 -0.0815  0.3330  0.6047
 2359TIP3    H1 7041   1.640   3.610   2.122 -1.4244  0.1513  1.4900
 2359TIP3    H2 7042   1.693   3.747   2.085 -0.4263 -0.6919 -0.3102
 2360TIP3   OH2 7043   7.101   3.917   2.573 -0.2614  0.4121  0.0183
 2360TIP3    H1 7044   7.103   3.879   2.660 -0.3076  0.2566 -0.0492
 2360TIP3    H2 7045   7.194   3.924   2.548 -0.2690 -0.0524 -0.1428
 2361TIP3   OH2 7046   2.242   5.692   2.702 -0.9628 -0.1655  0.3687
 2361TIP3    H1 7047   2.313   5.628   2.708  0.2740  1.0477 -0.9135
 2361TIP3    H2 7048   2.190   5.662   2.627 -0.9293 -0.1985  0.3584
 2362TIP3   OH2 7049   2.419   0.411   5.415  0.2562 -0.1403 -0.2242
 2362TIP3    H1 7050   2.466   0.370   5.343  2.8187  1.2503  0.4843
 2362TIP3    H2 7051   2.431   0.505   5.401 -0.4503  0.1940  1.1948
 2363TIP3   OH2 7052   3.734   2.164   4.212  0.3678 -0.7308  0.0619
 2363TIP3    H1 7053   3.777   2.221   4.276 -1.0925 -0.0744  0.5061
 2363TIP3    H2 7054   3.770   2.077   4.230  1.1571 -0.2882  0.7065
 2364TIP3   OH2 7055   6.104   1.826   4.316 -0.4304  0.4164  0.6003
 2364TIP3    H1 7056   6.133   1.787   4.399  1.3675  0.0588 -0.1506
 2364TIP3    H2 7057   6.028   1.774   4.291 -1.0392  0.5627  2.0309
 2365TIP3   OH2 7058   3.998   5.979   4.025 -0.0268  0.3845 -0.1630
 2365TIP3    H1 7059   3.908   5.982   3.993 -0.1405  1.0197  0.2020
 2365TIP3    H2 7060   3.989   5.965   4.119  0.2443  0.7025 -0.0883
 2366TIP3   OH2 7061   0.311   5.424   2.767 -0.1888 -0.1776  0.0874
 2366TIP3    H1 7062   0.387   5.473   2.799 -1.0263  1.1126  0.1954
 2366TIP3    H2 7063   0.251   5.422   2.842 -1.7406  1.9723 -0.9843
 2367TIP3   OH2 7064   6.640   4.316   1.039 -0.1906 -0.0790  0.7089
 2367TIP3    H1 7065   6.692   4.395   1.027 -1.1464  0.3301 -1.0551
 2367TIP3    H2 7066   6.602   4.326   1.127  2.1597 -0.1350  1.8080
 2368TIP3   OH2 7067   2.354   0.603   3.771 -0.0611  0.0453  0.3325
 2368TIP3    H1 7068   2.264   0.605   3.804 -0.3195  1.5034 -0.3892
 2368TIP3    H2 7069   2.404   0.654   3.834  0.1177 -0.0809  0.2945
 2369TIP3   OH2 7070   4.965   5.642   5.227  0.3344  0.2612  0.0150
 2369TIP3    H1 7071   4.911   5.574   5.266  0.7984 -0.2733 -0.2644
 2369TIP3    H2 7072   4.902   5.703   5.187 -0.0693 -0.2041 -0.0608
 2370TIP3   OH2 7073   6.927   0.480   5.592  0.3930  0.0033 -0.3885
 2370TIP3    H1 7074   6.967   0.396   5.568  2.8145 -0.0568  3.1051
 2370TIP3    H2 7075   7.000   0.542   5.593 -0.7315  1.3756  0.2632
 2371TIP3   OH2 7076   2.868   1.882   2.371 -0.2336 -0.1983 -0.4128
 2371TIP3    H1 7077   2.870   1.884   2.467  0.0790 -0.1923 -0.4190
 2371TIP3    H2 7078   2.801   1.945   2.347 -0.1607 -0.0391 -0.2034
 2372TIP3   OH2 7079   5.794   2.002   3.552  0.1025 -0.2595  0.7475
 2372TIP3    H1 7080   5.774   2.076   3.494  1.0808 -0.7684 -0.2881
 2372TIP3    H2 7081   5.825   2.042   3.633  1.6307  0.4883 -0.1708
 2373TIP3   OH2 7082   5.135   2.835   0.221  0.7321  0.6501 -0.1192
 2373TIP3    H1 7083   5.193   2.876   0.285 -0.7047  1.3056  0.8129
 2373TIP3    H2 7084   5.048   2.868   0.243  0.4029  2.8698 -3.8590
 2374TIP3   OH2 7085   6.294   5.542   5.728  0.6304  0.5694 -0.2120
 2374TIP3    H1 7086   6.352   5.606   5.770  1.9774 -1.2924  0.9192
 2374TIP3    H2 7087   6.353   5.483   5.681  0.2232 -3.2768  3.4829
 2375TIP3   OH2 7088   0.233   5.744   4.778 -0.0829 -0.3039 -0.1150
 2375TIP3    H1 7089   0.272   5.701   4.702  0.2503 -1.2378  0.5755
 2375TIP3    H2 7090   0.145   5.768   4.749  0.3127  0.0940 -1.0529
 2376TIP3   OH2 7091   5.554   2.908   3.335  0.4075  0.1203  0.3349
 2376TIP3    H1 7092   5.629   2.915   3.277 -1.0401 -0.4187 -1.7274
 2376TIP3    H2 7093   5.512   2.994   3.330  0.9117  0.4527  1.5550
 2377TIP3   OH2 7094   0.119   2.714   4.073 -0.1664  0.7681  0.2072
 2377TIP3    H1 7095   0.084   2.728   4.161  0.1587  1.6454  0.2035
 2377TIP3    H2 7096   0.043   2.685   4.021 -0.4246  0.5622  0.6943
 2378TIP3   OH2 7097   5.075   3.378   4.838  0.1523  0.7540  0.8866
 2378TIP3    H1 7098   5.018   3.329   4.779  0.4491  0.0295  1.1916
 2378TIP3    H2 7099   5.024   3.387   4.918  1.1785 -1.7577  1.9457
 2379TIP3   OH2 7100   5.554   4.285   2.194 -0.6722 -0.1174 -0.1537
 2379TIP3    H1 7101   5.573   4.379   2.202 -1.0157 -0.0998  0.5090
 2379TIP3    H2 7102   5.464   4.276   2.227 -0.2866 -0.8249  0.7295
 2380TIP3   OH2 7103   4.702   2.605   3.113  0.4270 -0.1456 -0.4659
 2380TIP3    H1 7104   4.612   2.581   3.137  0.4306 -0.4702 -0.7723
 2380TIP3    H2 7105   4.738   2.643   3.193  0.2442 -0.6696 -0.1233
 2381TIP3   OH2 7106   6.114   5.975   5.162 -0.0030 -0.1957  0.4194
 2381TIP3    H1 7107   6.157   6.056   5.134  0.9959 -0.7478  0.2860
 2381TIP3    H2 7108   6.183   5.924   5.205 -0.8286 -0.6048  1.3051
 2382TIP3   OH2 7109   6.265   5.542   2.592 -0.0262 -0.2915 -0.2678
 2382TIP3    H1 7110   6.175   5.540   2.624  0.4411  0.5843  1.2071
 2382TIP3    H2 7111   6.314   5.486   2.652  0.9569  1.7459  0.9468
 2383TIP3   OH2 7112   3.345   1.628   4.315 -0.1717 -0.0093  0.5104
 2383TIP3    H1 7113   3.352   1.534   4.302 -0.4349 -0.0655  0.7727
 2383TIP3    H2 7114   3.260   1.652   4.278  0.0458  0.1837  0.1221
 2384TIP3   OH2 7115   3.971   3.247   5.837 -0.2260 -0.1902  0.2763
 2384TIP3    H1 7116   3.923   3.183   5.785 -0.5989 -0.5548  1.0481
 2384TIP3    H2 7117   3.906   3.282   5.899 -0.0088  0.8922 -0.0959
 2385TIP3   OH2 7118   1.121   5.165   2.403 -0.3290 -0.1037  0.3099
 2385TIP3    H1 7119   1.061   5.149   2.476  0.9165 -2.6381  0.8689
 2385TIP3    H2 7120   1.113   5.087   2.348  1.8053 -0.1216 -0.0382
 2386TIP3   OH2 7121   3.965   3.149   2.922 -0.2240 -0.1056 -0.1009
 2386TIP3    H1 7122   3.977   3.093   2.999  3.7613 -0.1824 -0.5671
 2386TIP3    H2 7123   3.915   3.224   2.954 -1.8458 -1.8053  1.6022
 2387TIP3   OH2 7124   5.617   6.204   3.618 -0.2592  0.3434  0.1210
 2387TIP3    H1 7125   5.565   6.285   3.610 -1.6154 -0.5987 -1.0340
 2387TIP3    H2 7126   5.649   6.187   3.530 -0.8283 -0.8966  0.1316
 2388TIP3   OH2 7127   5.717   6.702   4.602 -0.2855  0.3252 -0.2649
 2388TIP3    H1 7128   5.624   6.692   4.623 -0.3551  0.3174 -0.5752
 2388TIP3    H2 7129   5.749   6.767   4.664 -0.6976  0.9745 -0.7246
 2389TIP3   OH2 7130   0.853   2.631   0.426 -0.0228  0.0431  0.1159
 2389TIP3    H1 7131   0.837   2.725   0.423 -1.1469 -0.1563 -0.9374
 2389TIP3    H2 7132   0.766   2.592   0.426  0.3952 -1.0607 -2.5013
 2390TIP3   OH2 7133   2.643   2.582   3.696 -0.0434 -0.0870  0.2856
 2390TIP3    H1 7134   2.646   2.657   3.638  0.7558 -1.2170 -1.2080
 2390TIP3    H2 7135   2.550   2.566   3.710 -0.2260  1.2859  0.8215
 2391TIP3   OH2 7136   4.039   1.046   2.817 -0.3604  0.2725 -0.2490
 2391TIP3    H1 7137   4.032   1.021   2.725  0.3069 -0.1158 -0.2021
 2391TIP3    H2 7138   4.006   0.971   2.865 -0.1130  0.2255 -0.1531
 2392TIP3   OH2 7139   0.742   1.602   2.572 -0.0058 -0.2353  0.5517
 2392TIP3    H1 7140   0.654   1.593   2.535 -0.7660 -0.1615  2.2454
 2392TIP3    H2 7141   0.780   1.515   2.566 -0.5202 -0.4667  0.5867
 2393TIP3   OH2 7142   0.856   1.184   4.819 -0.5813 -0.7401 -0.0361
 2393TIP3    H1 7143   0.906   1.217   4.745 -0.0668  0.9379  1.0028
 2393TIP3    H2 7144   0.903   1.216   4.897 -2.8962  0.4484  0.9841
 2394TIP3   OH2 7145   2.734   3.511   3.918 -0.4810  0.0211 -0.6949
 2394TIP3    H1 7146   2.662   3.561   3.881  0.5433  0.8272 -1.6750
 2394TIP3    H2 7147   2.806   3.574   3.925  0.4292 -0.9902 -0.6723
 2395TIP3   OH2 7148   5.722   1.253   0.212 -0.3497  0.5388 -0.0273
 2395TIP3    H1 7149   5.693   1.249   0.303  0.5958 -0.1342  0.2637
 2395TIP3    H2 7150   5.645   1.230   0.161 -1.2336  2.1740  0.5271
 2396TIP3   OH2 7151   4.439   3.693   1.908 -0.0109 -0.4676 -0.3098
 2396TIP3    H1 7152   4.395   3.718   1.826  0.7879 -0.8207 -0.8521
 2396TIP3    H2 7153   4.417   3.601   1.920 -0.6829 -0.2497  0.2459
 2397TIP3   OH2 7154   3.161   1.266   5.608  0.6952  0.2013 -0.3220
 2397TIP3    H1 7155   3.173   1.174   5.632 -1.6517  0.3104  1.5457
 2397TIP3    H2 7156   3.200   1.315   5.681 -1.2411  0.6056  0.4880
 2398TIP3   OH2 7157   0.876   4.174   5.401 -0.3059 -0.0159 -0.2045
 2398TIP3    H1 7158   0.893   4.081   5.391 -0.6086  0.0005 -0.9021
 2398TIP3    H2 7159   0.947   4.206   5.457  0.8100 -0.3311 -1.3972
 2399TIP3   OH2 7160   3.011   3.902   3.284  0.6514  0.2843  0.0886
 2399TIP3    H1 7161   2.999   3.808   3.292 -2.5256  0.4509 -1.1045
 2399TIP3    H2 7162   3.001   3.919   3.190 -1.4076  2.0002  0.5426
 2400TIP3   OH2 7163   3.481   6.276   5.341  0.1190  0.2573  0.1857
 2400TIP3    H1 7164   3.490   6.317   5.427 -1.2700  0.5534  0.2057
 2400TIP3    H2 7165   3.512   6.186   5.355  1.0437  0.6377  0.6875
 2401TIP3   OH2 7166   0.485   3.190   1.254  0.2701  0.5479  0.2923
 2401TIP3    H1 7167   0.484   3.273   1.302 -1.2733 -0.0080  1.3145
 2401TIP3    H2 7168   0.394   3.177   1.227  0.7409 -0.1651 -1.0218
 2402TIP3   OH2 7169   3.464   1.054   1.179 -0.4062 -0.3875  0.0092
 2402TIP3    H1 7170   3.547   1.026   1.141 -0.6172 -2.4524  0.9227
 2402TIP3    H2 7171   3.487   1.084   1.267 -0.6132 -1.1234  0.3266
 2403TIP3   OH2 7172   6.795   1.047   5.087  0.4565  0.2796 -0.5227
 2403TIP3    H1 7173   6.851   0.970   5.095 -0.0421 -0.1018 -0.6358
 2403TIP3    H2 7174   6.709   1.017   5.113  0.7187  1.4324  1.9153
 2404TIP3   OH2 7175   0.247   1.566   4.111  0.3235  0.1007  0.4945
 2404TIP3    H1 7176   0.157   1.596   4.105  0.0782 -0.6907 -0.0540
 2404TIP3    H2 7177   0.299   1.646   4.118 -0.2489  0.7237 -1.5105
 2405TIP3   OH2 7178   2.156   4.338   2.995  0.4778 -0.2034  0.1926
 2405TIP3    H1 7179   2.185   4.356   2.906 -0.7487  0.6578 -0.0645
 2405TIP3    H2 7180   2.076   4.389   3.004  0.8455  0.1090  1.9597
 2406TIP3   OH2 7181   6.380   2.114   4.664  0.2864  0.4139 -0.5448
 2406TIP3    H1 7182   6.463   2.159   4.647  0.9571  0.0736  1.5575
 2406TIP3    H2 7183   6.349   2.152   4.746 -0.5973 -0.9273 -0.2328
 2407TIP3   OH2 7184   0.642   3.660   4.414  0.5187  0.2918 -0.4043
 2407TIP3    H1 7185   0.582   3.707   4.356  1.4027  1.1412 -0.6551
 2407TIP3    H2 7186   0.658   3.577   4.369  0.9635  0.8159 -1.2458
 2408TIP3   OH2 7187   2.399   3.341   4.070  0.3133  0.2353 -0.3717
 2408TIP3    H1 7188   2.492   3.347   4.094  0.0486  1.8946  0.3638
 2408TIP3    H2 7189   2.354   3.319   4.152  0.0895 -1.1664 -0.8457
 2409TIP3   OH2 7190   3.395   5.803   0.250  0.1326  0.3755  0.0354
 2409TIP3    H1 7191   3.375   5.886   0.207 -0.2568  0.7739  0.9506
 2409TIP3    H2 7192   3.459   5.825   0.317  0.7130 -0.2287 -0.3100
 2410TIP3   OH2 7193   4.196   1.294   2.836  0.6625  0.0056 -0.4218
 2410TIP3    H1 7194   4.143   1.374   2.839 -1.4223 -1.3467  2.9892
 2410TIP3    H2 7195   4.133   1.223   2.825  2.1490 -1.4297 -0.0214
 2411TIP3   OH2 7196   5.222   4.825   3.517 -0.4782  0.3176  0.2588
 2411TIP3    H1 7197   5.250   4.733   3.516  0.3926  0.5649  1.0563
 2411TIP3    H2 7198   5.164   4.831   3.593 -0.5145  0.4405  0.2211
 2412TIP3   OH2 7199   0.206   6.333   5.215  0.1046  0.6475 -0.2583
 2412TIP3    H1 7200   0.279   6.282   5.249 -0.1009  0.2620 -0.3830
 2412TIP3    H2 7201   0.184   6.291   5.131 -0.7509  0.2726  0.1413
 2413TIP3   OH2 7202   3.816   3.654   5.500 -0.4125 -0.8994  0.4757
 2413TIP3    H1 7203   3.798   3.739   5.460 -1.0824 -1.0596  0.4155
 2413TIP3    H2 7204   3.780   3.661   5.588 -0.0018 -0.9451  0.6458
 2414TIP3   OH2 7205   4.390   0.561   2.995 -0.2981  0.3114 -0.3355
 2414TIP3    H1 7206   4.419   0.648   3.021 -1.3858  0.7062 -0.3996
 2414TIP3    H2 7207   4.303   0.552   3.035  0.3083 -1.2374  0.7382
 2415TIP3   OH2 7208   2.448   6.001   4.383 -0.2746  0.6293 -0.4961
 2415TIP3    H1 7209   2.425   6.090   4.411  1.1869  0.7797  0.3517
 2415TIP3    H2 7210   2.392   5.944   4.437 -0.1730  1.0110  0.0251
 2416TIP3   OH2 7211   6.872   1.560   2.554 -0.3048  0.1973 -0.4262
 2416TIP3    H1 7212   6.780   1.537   2.563  0.1696 -2.0399 -0.6501
 2416TIP3    H2 7213   6.874   1.629   2.488 -1.6990 -0.8760 -1.6398
 2417TIP3   OH2 7214   3.196   3.596   1.941 -0.1221 -0.0652 -0.2722
 2417TIP3    H1 7215   3.114   3.645   1.937  0.6025  1.1987  0.0497
 2417TIP3    H2 7216   3.216   3.575   1.849 -0.9134 -0.5996 -0.3335
 2418TIP3   OH2 7217   5.330   3.273   2.165 -0.5094  0.2379  0.0930
 2418TIP3    H1 7218   5.245   3.268   2.207 -0.1304  0.4182  0.9052
 2418TIP3    H2 7219   5.319   3.228   2.081 -1.1430 -0.5633  0.6006
 2419TIP3   OH2 7220   1.893   2.560   2.603  0.0260  0.0810  0.5709
 2419TIP3    H1 7221   1.942   2.641   2.617 -1.0596  0.9597 -0.4549
 2419TIP3    H2 7222   1.899   2.513   2.686  2.7372  0.0325  0.4396
 2420TIP3   OH2 7223   0.866   3.377   2.211  0.5412  0.8043  0.0746
 2420TIP3    H1 7224   0.867   3.462   2.255  0.7727  0.0881  1.5280
 2420TIP3    H2 7225   0.930   3.325   2.259  0.0543 -0.3416 -0.4792
 2421TIP3   OH2 7226   0.518   5.027   1.218  0.1201 -0.0682 -0.5518
 2421TIP3    H1 7227   0.582   5.098   1.227 -0.6896  0.4033  2.9372
 2421TIP3    H2 7228   0.562   4.951   1.256 -1.5798  0.5504  3.0834
 2422TIP3   OH2 7229   0.572   4.776   0.763  0.0900  0.3079 -0.0898
 2422TIP3    H1 7230   0.559   4.683   0.782  1.1695  0.0108 -0.7360
 2422TIP3    H2 7231   0.490   4.818   0.790 -0.2976 -0.7830  0.4770
 2423TIP3   OH2 7232   0.255   5.724   1.864  0.9059  0.2845  0.2448
 2423TIP3    H1 7233   0.330   5.705   1.808 -0.0839 -1.2283 -0.6386
 2423TIP3    H2 7234   0.270   5.673   1.943 -0.1525 -1.8054 -0.7995
 2424TIP3   OH2 7235   2.275   0.266   1.672 -0.1388  0.1597  0.1505
 2424TIP3    H1 7236   2.308   0.182   1.704 -2.3636 -1.7251 -2.1950
 2424TIP3    H2 7237   2.233   0.306   1.748  2.7508  0.2798  1.8555
 2425TIP3   OH2 7238   5.937   1.158   1.833  0.2649  0.5002 -0.1411
 2425TIP3    H1 7239   5.925   1.145   1.928  2.7029 -0.6285  0.0821
 2425TIP3    H2 7240   5.848   1.166   1.799 -0.9997 -3.2941  1.6984
 2426TIP3   OH2 7241   0.814   4.983   1.012  0.3338 -0.1886  0.1215
 2426TIP3    H1 7242   0.817   4.934   0.930 -0.5095  0.3558 -0.2482
 2426TIP3    H2 7243   0.763   4.928   1.071  1.0629 -0.6461  0.3316
 2427TIP3   OH2 7244   2.709   0.431   2.701 -0.1842  0.1393 -0.7355
 2427TIP3    H1 7245   2.623   0.435   2.743  0.4597 -1.0969  0.7953
 2427TIP3    H2 7246   2.690   0.425   2.608 -1.7456  0.2938 -0.4505
 2428TIP3   OH2 7247   4.066   4.643   1.305  0.0418 -0.1398  0.3884
 2428TIP3    H1 7248   4.051   4.549   1.317 -0.9795 -0.0294  0.1222
 2428TIP3    H2 7249   3.980   4.683   1.320  0.1961  0.6343 -0.6291
 2429TIP3   OH2 7250   6.302   1.759   1.785  0.4754 -0.6798  0.1811
 2429TIP3    H1 7251   6.273   1.672   1.813  0.2725 -1.1475 -1.3765
 2429TIP3    H2 7252   6.284   1.761   1.691  0.4528  1.0697  0.1951
 2430TIP3   OH2 7253   3.608   4.856   4.218 -0.3413  0.1565  0.2245
 2430TIP3    H1 7254   3.635   4.918   4.151 -0.7169  0.6607  0.5262
 2430TIP3    H2 7255   3.686   4.842   4.271 -0.5098  1.1914  0.7785
 2431TIP3   OH2 7256   0.088   6.512   0.455  0.0952 -0.0735 -0.6814
 2431TIP3    H1 7257   0.135   6.559   0.524  1.8638  0.2281 -2.0131
 2431TIP3    H2 7258   0.109   6.420   0.469 -3.6221 -0.7321  2.1184
 2432TIP3   OH2 7259   2.815   0.771   1.004  0.0102  0.0894  0.1064
 2432TIP3    H1 7260   2.754   0.697   1.006  0.0730  0.0288 -0.1706
 2432TIP3    H2 7261   2.825   0.792   0.911 -0.3623  0.7380  0.2023
 2433TIP3   OH2 7262   6.098   5.569   0.660 -0.2305 -0.3097  0.2531
 2433TIP3    H1 7263   6.172   5.629   0.671 -1.8489  1.9227 -0.2973
 2433TIP3    H2 7264   6.105   5.509   0.734  0.7066  1.4548  1.6770
 2434TIP3   OH2 7265   6.672   3.515   1.653  0.2776 -0.3879 -0.3415
 2434TIP3    H1 7266   6.634   3.586   1.704 -2.1533 -1.4548 -0.5286
 2434TIP3    H2 7267   6.615   3.507   1.577  1.0906 -1.8868 -0.8410
 2435TIP3   OH2 7268   4.775   5.169   1.270 -0.3247  0.7338  0.1351
 2435TIP3    H1 7269   4.865   5.185   1.298  0.3082 -0.4558 -1.1031
 2435TIP3    H2 7270   4.781   5.092   1.213 -1.7475  2.0279 -1.9199
 2436TIP3   OH2 7271   0.810   0.243   3.485 -0.2477  0.0714  0.2422
 2436TIP3    H1 7272   0.728   0.291   3.475 -0.4469 -0.3306 -0.0562
 2436TIP3    H2 7273   0.869   0.306   3.527 -1.6295 -0.6068  3.5677
 2437TIP3   OH2 7274   7.188   1.553   5.793  0.2415  0.5259  0.4467
 2437TIP3    H1 7275   7.262   1.493   5.790  0.1692  0.4481  0.2282
 2437TIP3    H2 7276   7.156   1.547   5.883 -0.2451 -0.3371  0.2254
 2438TIP3   OH2 7277   2.166   0.939   0.024 -0.1003  0.3261 -0.8045
 2438TIP3    H1 7278   2.238   0.953   0.086 -0.4682 -2.0295  0.2760
 2438TIP3    H2 7279   2.087   0.957   0.075 -0.3318  1.3273 -1.5073
 2439TIP3   OH2 7280   5.337   3.640   0.193  0.3396 -0.2825 -0.1830
 2439TIP3    H1 7281   5.371   3.638   0.282 -1.4082 -0.2301  0.5267
 2439TIP3    H2 7282   5.392   3.579   0.145  2.4490  1.0062  0.4736
 2440TIP3   OH2 7283   0.104   6.774   2.977  0.2374  0.2506  0.2292
 2440TIP3    H1 7284   0.102   6.688   3.017  0.5521 -0.8731 -2.0049
 2440TIP3    H2 7285   0.025   6.817   3.009 -0.1984 -1.0646  0.9840
 2441TIP3   OH2 7286   3.154   3.550   3.653 -0.3729  0.2933  0.2121
 2441TIP3    H1 7287   3.205   3.592   3.584 -1.2566  0.5380 -0.3184
 2441TIP3    H2 7288   3.063   3.566   3.628 -0.7134  0.2333  1.3495
 2442TIP3   OH2 7289   1.755   4.765   0.277  0.2589  0.7906 -1.0081
 2442TIP3    H1 7290   1.682   4.777   0.338  0.7876 -3.6252  0.8714
 2442TIP3    H2 7291   1.713   4.739   0.195 -0.3587  0.6680 -0.6633
 2443TIP3   OH2 7292   3.778   5.897   2.239 -0.4070 -0.6025  0.4757
 2443TIP3    H1 7293   3.684   5.907   2.225 -0.2991  0.3901  0.3715
 2443TIP3    H2 7294   3.806   5.839   2.168 -1.1484 -2.0863  1.3451
 2444TIP3   OH2 7295   2.784   3.539   4.316 -0.4364  0.6569  0.3275
 2444TIP3    H1 7296   2.733   3.473   4.270  0.1767 -1.1970  2.1319
 2444TIP3    H2 7297   2.727   3.615   4.320 -1.9976 -0.4384 -0.0609
 2445TIP3   OH2 7298   4.791   4.067   1.011 -0.1698 -0.4659 -0.4589
 2445TIP3    H1 7299   4.877   4.025   1.022  0.3606  0.6996 -0.0087
 2445TIP3    H2 7300   4.791   4.095   0.919  0.2603  0.2203 -0.2551
 2446TIP3   OH2 7301   3.123   0.833   4.713  0.1540 -0.1102 -0.1720
 2446TIP3    H1 7302   3.206   0.834   4.665  1.8606 -3.1950  2.3359
 2446TIP3    H2 7303   3.128   0.907   4.773  0.3524  0.6552 -1.1243
 2447TIP3   OH2 7304   4.013   6.092   4.912  0.2395  0.3219  0.5746
 2447TIP3    H1 7305   3.942   6.145   4.949 -0.8401 -1.3623  1.0086
 2447TIP3    H2 7306   4.008   6.009   4.959  2.3744  0.0801  0.4436
 2448TIP3   OH2 7307   2.970   4.839   3.980  0.3875 -0.1765  0.1904
 2448TIP3    H1 7308   3.019   4.908   4.025 -0.5223  1.1879 -0.8137
 2448TIP3    H2 7309   2.932   4.883   3.904 -0.1928 -1.8201 -0.5126
 2449TIP3   OH2 7310   2.573   1.142   4.160 -0.0351 -0.1306  0.3017
 2449TIP3    H1 7311   2.594   1.184   4.077 -1.5805  1.0916  0.4923
 2449TIP3    H2 7312   2.611   1.054   4.152  0.0305  0.0238 -1.6077
 2450TIP3   OH2 7313   0.350   0.317   5.556 -0.0447  0.4730 -0.5810
 2450TIP3    H1 7314   0.326   0.282   5.471  0.9147 -1.8114  0.0134
 2450TIP3    H2 7315   0.438   0.353   5.543 -0.3797  1.2504 -0.7989
 2451TIP3   OH2 7316   1.274   2.867   0.466  0.3407  0.3334  0.2633
 2451TIP3    H1 7317   1.220   2.790   0.447  2.2697 -1.4030  1.4399
 2451TIP3    H2 7318   1.226   2.914   0.534 -0.7691  0.1054 -0.3278
 2452TIP3   OH2 7319   6.626   3.880   2.673 -0.4125 -0.2453 -0.5734
 2452TIP3    H1 7320   6.710   3.842   2.645  0.8059  2.3435 -0.6443
 2452TIP3    H2 7321   6.581   3.806   2.715  0.9891 -2.2539 -2.3368
 2453TIP3   OH2 7322   6.363   6.419   1.303  0.6311  0.1897  0.4388
 2453TIP3    H1 7323   6.273   6.412   1.271  0.3543 -0.5029  1.3110
 2453TIP3    H2 7324   6.415   6.369   1.240  0.4629  0.8758 -0.2528
 2454TIP3   OH2 7325   6.228   6.295   2.243  0.5248 -0.4029 -0.0092
 2454TIP3    H1 7326   6.198   6.370   2.191  0.3176  0.6163  1.5159
 2454TIP3    H2 7327   6.310   6.268   2.201  1.4583  1.7205  0.3410
 2455TIP3   OH2 7328   1.981   6.363   3.382 -0.2150 -0.5661 -0.1997
 2455TIP3    H1 7329   1.980   6.329   3.292 -1.5282  2.0490 -1.2773
 2455TIP3    H2 7330   1.911   6.315   3.426 -1.2369 -0.1834 -1.3301
 2456TIP3   OH2 7331   4.162   3.066   4.319 -0.3871  0.7894 -0.1935
 2456TIP3    H1 7332   4.208   2.994   4.276  1.9772  2.7281 -1.1225
 2456TIP3    H2 7333   4.070   3.053   4.296  0.0975 -1.2829 -1.2116
 2457TIP3   OH2 7334   5.575   2.766   1.816  0.1736  0.0535 -0.2674
 2457TIP3    H1 7335   5.636   2.795   1.748  0.7544  0.8095  0.5427
 2457TIP3    H2 7336   5.500   2.825   1.809  0.8023  1.0008  0.5580
 2458TIP3   OH2 7337   1.562   3.374   1.722 -0.1341 -0.5156 -0.0511
 2458TIP3    H1 7338   1.581   3.415   1.638  0.1760  0.2598  0.3921
 2458TIP3    H2 7339   1.616   3.295   1.724  1.2528  0.4219  0.1886
 2459TIP3   OH2 7340   3.025   0.635   2.095  0.3090  0.0138  0.0933
 2459TIP3    H1 7341   2.997   0.726   2.083 -0.1881 -0.2501 -0.7988
 2459TIP3    H2 7342   3.090   0.620   2.026  0.3962 -0.3099  0.2438
 2460TIP3   OH2 7343   2.232   4.654   0.430  0.1294  0.1216 -0.9114
 2460TIP3    H1 7344   2.138   4.642   0.421  0.2894 -0.6172 -1.6498
 2460TIP3    H2 7345   2.264   4.573   0.469  0.4308  0.4758 -0.4000
 2461TIP3   OH2 7346   0.906   1.193   1.958  0.4530 -0.8179  0.2341
 2461TIP3    H1 7347   0.815   1.184   1.928  0.6023 -1.4519 -0.0335
 2461TIP3    H2 7348   0.907   1.151   2.044  0.8453 -2.2583 -0.4450
 2462TIP3   OH2 7349   2.986   1.902   1.012 -0.1600  0.3126 -0.2863
 2462TIP3    H1 7350   3.017   1.894   1.103  0.8067 -0.4341 -0.6696
 2462TIP3    H2 7351   2.928   1.978   1.014  0.2521  0.6277  0.8507
 2463TIP3   OH2 7352   3.869   0.609   0.309 -0.3736 -0.0590  0.5224
 2463TIP3    H1 7353   3.832   0.523   0.288  1.3666 -0.9417  0.8758
 2463TIP3    H2 7354   3.807   0.671   0.271 -0.9583 -1.4838 -1.0028
 2464TIP3   OH2 7355   4.085   0.104   1.373 -0.1617 -0.3211 -0.3335
 2464TIP3    H1 7356   4.156   0.163   1.347 -1.5955  1.0045 -1.4747
 2464TIP3    H2 7357   4.052   0.069   1.290 -1.8812  0.4049 -0.0009
 2465TIP3   OH2 7358   5.225   0.469   1.131 -0.1569 -0.4621 -0.3289
 2465TIP3    H1 7359   5.199   0.537   1.193 -1.6969 -0.8402 -0.5085
 2465TIP3    H2 7360   5.293   0.419   1.176 -1.0225 -0.5309  0.9594
 2466TIP3   OH2 7361   3.672   4.353   3.598  0.2036 -0.1411  0.4559
 2466TIP3    H1 7362   3.624   4.277   3.563 -0.9974  0.7500  0.1036
 2466TIP3    H2 7363   3.748   4.362   3.540 -0.2996 -0.3456 -0.2531
 2467TIP3   OH2 7364   0.557   4.805   5.366  0.6579 -0.5007 -0.0282
 2467TIP3    H1 7365   0.640   4.757   5.365  1.0634  0.1978 -0.7134
 2467TIP3    H2 7366   0.532   4.810   5.274 -0.3167 -0.9886  0.2008
 2468TIP3   OH2 7367   3.033   0.066   4.398 -0.1119  0.0385 -0.2381
 2468TIP3    H1 7368   3.018   0.142   4.453  1.0169 -0.4182  0.7287
 2468TIP3    H2 7369   3.091   0.097   4.329  0.2083  0.0965  0.0564
 2469TIP3   OH2 7370   0.689   5.506   5.648  0.1564  0.0902  0.6758
 2469TIP3    H1 7371   0.694   5.460   5.564  1.1898  0.2040  0.6628
 2469TIP3    H2 7372   0.666   5.438   5.711  1.5333 -0.4419  0.6320
 2470TIP3   OH2 7373   4.405   3.906   0.074  0.8257 -0.3614 -0.2979
 2470TIP3    H1 7374   4.457   3.910  -0.007  2.6139 -2.4315  0.6089
 2470TIP3    H2 7375   4.420   3.817   0.106  0.3524  0.4563  2.4235
 2471TIP3   OH2 7376   1.670   5.265   3.326 -0.1495 -0.5815  0.1101
 2471TIP3    H1 7377   1.662   5.351   3.286  0.7507 -1.3095 -1.7928
 2471TIP3    H2 7378   1.714   5.281   3.410 -0.3054  0.8310 -0.0587
 2472TIP3   OH2 7379   4.993   1.637   3.894 -0.2796  0.1690  0.8333
 2472TIP3    H1 7380   5.067   1.637   3.834  1.1996 -0.5145  2.5784
 2472TIP3    H2 7381   4.918   1.612   3.840  1.2213 -1.7443 -0.4752
 2473TIP3   OH2 7382   2.140   0.404   1.486 -0.3996 -0.6249  0.0896
 2473TIP3    H1 7383   2.064   0.443   1.530  0.6900  0.6291  0.9387
 2473TIP3    H2 7384   2.180   0.348   1.552 -0.1558 -0.6976 -0.1186
 2474TIP3   OH2 7385   2.571   2.853   4.212  0.2222 -0.5399  0.0482
 2474TIP3    H1 7386   2.662   2.883   4.221  0.6588 -1.3410 -1.3800
 2474TIP3    H2 7387   2.525   2.928   4.175  0.5644 -0.4938 -0.2983
 2475TIP3   OH2 7388  -0.013   3.490   1.801 -0.6481  0.3562 -0.8747
 2475TIP3    H1 7389  -0.027   3.496   1.707 -0.7211 -1.1493 -0.9832
 2475TIP3    H2 7390   0.078   3.461   1.810  0.0395  2.4637 -0.3934
 2476TIP3   OH2 7391   4.804   3.614   1.338 -0.1953 -0.6099 -0.3452
 2476TIP3    H1 7392   4.896   3.624   1.314  0.1503  0.8665  1.4019
 2476TIP3    H2 7393   4.758   3.615   1.254  1.3220 -0.8882 -1.2295
 2477TIP3   OH2 7394   1.341   4.107   0.874 -0.3909  0.2373  0.5565
 2477TIP3    H1 7395   1.403   4.171   0.908  0.4348 -0.6403  0.7535
 2477TIP3    H2 7396   1.355   4.029   0.928 -0.9153 -0.3213 -0.0911
 2478TIP3   OH2 7397   0.053   3.431   1.038  0.3319 -0.2851  0.0405
 2478TIP3    H1 7398   0.125   3.446   0.976  0.1817 -1.4956 -0.4537
 2478TIP3    H2 7399  -0.026   3.444   0.987  0.1934 -2.2262 -0.3376
 2479TIP3   OH2 7400   0.879   0.475   0.409 -0.1560 -0.1833 -0.2877
 2479TIP3    H1 7401   0.787   0.474   0.383 -1.1175 -4.4813  2.3183
 2479TIP3    H2 7402   0.879   0.517   0.495 -0.2774 -2.4340  0.8949
 2480TIP3   OH2 7403   2.315   5.255   3.262  0.2664  0.2827 -0.5882
 2480TIP3    H1 7404   2.325   5.299   3.346 -0.3818  1.3779 -1.0558
 2480TIP3    H2 7405   2.229   5.214   3.266  0.1091  0.5852 -0.8211
 2481TIP3   OH2 7406   2.607   4.050   0.898 -0.0714  0.1788 -0.2668
 2481TIP3    H1 7407   2.550   4.033   0.974 -0.6329  0.7379 -0.5599
 2481TIP3    H2 7408   2.685   4.091   0.936 -0.5477  0.8854 -0.0338
 2482TIP3   OH2 7409   1.867   3.852   0.766 -0.4362 -0.1339  0.0614
 2482TIP3    H1 7410   1.841   3.922   0.706  1.0081  1.5291  1.2866
 2482TIP3    H2 7411   1.812   3.864   0.843 -1.2971 -1.3939 -0.3149
 2483TIP3   OH2 7412   6.810   1.742   3.473  0.5534 -0.1369 -0.2705
 2483TIP3    H1 7413   6.874   1.756   3.403  0.2119  1.4320 -0.2942
 2483TIP3    H2 7414   6.862   1.739   3.553  0.6894  1.0722 -0.2946
 2484TIP3   OH2 7415   5.019   2.410   1.750 -0.2954 -0.3645 -0.0712
 2484TIP3    H1 7416   4.998   2.446   1.836 -0.1998 -1.9434  0.6538
 2484TIP3    H2 7417   5.048   2.485   1.698 -3.1689  1.1269  0.3173
 2485TIP3   OH2 7418   2.803   3.390   3.565  0.5941 -0.4936 -0.4511
 2485TIP3    H1 7419   2.827   3.318   3.624 -1.0005  1.7043  3.1925
 2485TIP3    H2 7420   2.844   3.467   3.604 -1.7603  1.3169 -1.3750
 2486TIP3   OH2 7421   4.169   1.230   3.214  0.2213  0.5110  0.4232
 2486TIP3    H1 7422   4.193   1.275   3.295 -0.3105  1.6331 -0.0306
 2486TIP3    H2 7423   4.119   1.294   3.164 -0.5984 -0.5939 -0.2247
 2487TIP3   OH2 7424   5.038   5.537   0.746  0.0963  0.0960  0.4543
 2487TIP3    H1 7425   5.109   5.483   0.711  1.3747  0.7242  1.9380
 2487TIP3    H2 7426   5.016   5.495   0.830 -1.1883  0.0126  0.0934
 2488TIP3   OH2 7427   1.547   2.819   1.554 -0.0943  0.4216 -0.3752
 2488TIP3    H1 7428   1.468   2.794   1.506 -0.3471 -0.8783  0.6539
 2488TIP3    H2 7429   1.565   2.744   1.610  0.1776  1.8543  1.5664
 2489TIP3   OH2 7430   2.276   4.945   0.975 -0.4438 -0.0967  0.0703
 2489TIP3    H1 7431   2.184   4.946   0.950 -0.7959  0.2666  1.2768
 2489TIP3    H2 7432   2.321   4.995   0.907 -1.3560  0.9301  0.1852
 2490TIP3   OH2 7433   5.361   1.578   4.102 -0.1973  0.0173 -0.5722
 2490TIP3    H1 7434   5.409   1.610   4.179  0.2838 -1.5042 -0.2072
 2490TIP3    H2 7435   5.273   1.615   4.113  0.5080  1.7980 -0.5846
 2491TIP3   OH2 7436   5.085   4.203   5.872  0.1779 -0.1572  0.8109
 2491TIP3    H1 7437   5.024   4.270   5.841  0.1123  0.4728  2.2203
 2491TIP3    H2 7438   5.165   4.251   5.890  0.2290 -0.5046  1.5313
 2492TIP3   OH2 7439   2.182   0.291   5.443  0.0798 -0.1411 -0.4954
 2492TIP3    H1 7440   2.258   0.350   5.440 -0.1858  0.1922 -2.5744
 2492TIP3    H2 7441   2.118   0.333   5.386 -1.8738 -0.2056  1.5235
 2493TIP3   OH2 7442   0.660   3.413   3.713 -0.0793 -0.2675  0.0590
 2493TIP3    H1 7443   0.620   3.373   3.791 -1.7272 -3.1336 -2.0665
 2493TIP3    H2 7444   0.592   3.472   3.680  0.1430  0.0276  0.1288
 2494TIP3   OH2 7445   4.746   6.782   5.658 -1.0123  0.2445 -0.4627
 2494TIP3    H1 7446   4.666   6.776   5.710  0.4119  3.5825  2.5995
 2494TIP3    H2 7447   4.805   6.718   5.697 -1.0065  0.4525 -0.1207
 2495TIP3   OH2 7448   0.757   2.780   1.297  0.1776  0.5111  0.7542
 2495TIP3    H1 7449   0.677   2.727   1.294 -0.9485  2.1214  0.8541
 2495TIP3    H2 7450   0.794   2.762   1.384  0.6744 -1.2198  0.2343
 2496TIP3   OH2 7451   2.536   1.664   4.751  0.8008 -0.1026 -0.6453
 2496TIP3    H1 7452   2.465   1.676   4.688  0.3896  0.7043 -0.0489
 2496TIP3    H2 7453   2.564   1.753   4.772 -0.1316 -0.2568  1.4882
 2497TIP3   OH2 7454   3.185   0.547   5.849 -0.4273  0.7100  0.2793
 2497TIP3    H1 7455   3.134   0.561   5.769  1.2742 -0.9861 -1.1968
 2497TIP3    H2 7456   3.120   0.549   5.919 -2.1403  1.1916 -1.2374
 2498TIP3   OH2 7457   3.611   5.085   4.422 -0.2053 -0.1982 -0.0374
 2498TIP3    H1 7458   3.610   5.080   4.326  0.1639 -1.2066  0.0058
 2498TIP3    H2 7459   3.544   5.023   4.451  0.9807 -1.3102  0.3942
 2499TIP3   OH2 7460   3.751   1.537   5.680 -0.6621  0.0411 -0.1620
 2499TIP3    H1 7461   3.808   1.567   5.750 -1.1073 -0.0671  0.2549
 2499TIP3    H2 7462   3.808   1.483   5.624  0.1120  1.5402 -0.8637
 2500TIP3   OH2 7463   6.664   1.562   4.143  0.7717  0.0948  0.2115
 2500TIP3    H1 7464   6.649   1.527   4.055 -0.5929  2.6351 -0.6674
 2500TIP3    H2 7465   6.576   1.566   4.181  1.1315  0.7763  0.9817
 2501TIP3   OH2 7466   5.958   3.903   0.463 -0.3874  0.3390 -0.1057
 2501TIP3    H1 7467   5.942   3.835   0.398  0.6137  2.0320 -2.2730
 2501TIP3    H2 7468   6.046   3.884   0.496 -0.4371  0.1126 -0.1045
 2502TIP3   OH2 7469   2.397   0.942   4.253 -0.1584  0.6739 -0.3156
 2502TIP3    H1 7470   2.446   1.023   4.237  0.3814  0.7812  1.6276
 2502TIP3    H2 7471   2.334   0.965   4.321 -0.0680 -0.5147  0.1975
 2503TIP3   OH2 7472   4.308   2.997   0.416  0.1809  0.5980  0.2514
 2503TIP3    H1 7473   4.308   3.072   0.476 -2.1042  0.8263  0.0410
 2503TIP3    H2 7474   4.319   3.036   0.330 -0.4656  0.6612  0.1916
 2504TIP3   OH2 7475   6.246   6.642   3.679 -0.2696 -0.0684 -0.4105
 2504TIP3    H1 7476   6.243   6.735   3.702 -1.4221 -0.4826  1.3138
 2504TIP3    H2 7477   6.204   6.636   3.594 -0.9478  0.9025 -0.1574
 2505TIP3   OH2 7478   5.913   6.300   5.446  0.3623  0.7806  0.4891
 2505TIP3    H1 7479   5.959   6.296   5.361 -0.5187 -0.7945  0.0508
 2505TIP3    H2 7480   5.842   6.362   5.431 -0.6149 -0.4802 -0.4028
 2506TIP3   OH2 7481   5.552   1.227   3.162 -0.3937 -0.2040  0.4173
 2506TIP3    H1 7482   5.497   1.161   3.205 -1.7624  1.2390  0.9604
 2506TIP3    H2 7483   5.498   1.260   3.090  0.9515 -0.8696 -0.9542
 2507TIP3   OH2 7484   3.918   4.679   4.605 -0.1527 -0.2417 -0.2839
 2507TIP3    H1 7485   3.919   4.588   4.577 -0.4450  0.0715 -1.3382
 2507TIP3    H2 7486   3.995   4.688   4.661  0.1584 -1.0050 -0.5769
 2508TIP3   OH2 7487   2.818   1.987   4.977  0.2535 -0.0095 -0.1933
 2508TIP3    H1 7488   2.805   1.895   4.999  0.2724 -0.1117 -0.6022
 2508TIP3    H2 7489   2.841   2.029   5.060  1.1395 -0.5447 -0.1518
 2509TIP3   OH2 7490   2.443   0.009   5.719 -0.1861 -0.0983 -0.2652
 2509TIP3    H1 7491   2.379  -0.040   5.771 -0.7353  0.9112  0.0316
 2509TIP3    H2 7492   2.406   0.097   5.712  2.4053  1.4150  2.3305
 2510TIP3   OH2 7493   0.251   0.598   3.134 -0.1518 -0.1313  0.2470
 2510TIP3    H1 7494   0.267   0.580   3.227  0.1229  0.3715  0.3017
 2510TIP3    H2 7495   0.236   0.692   3.130 -1.1087 -0.2929 -0.0947
 2511TIP3   OH2 7496   6.958   6.368   0.489 -0.6703  0.0732 -0.1972
 2511TIP3    H1 7497   7.046   6.354   0.453 -0.4044 -2.0613  1.1053
 2511TIP3    H2 7498   6.972   6.424   0.565 -0.3721 -0.5626  0.2224
 2512TIP3   OH2 7499   1.449   5.459   4.530  0.0574 -0.3050  0.3399
 2512TIP3    H1 7500   1.540   5.434   4.546  1.0554  1.2430 -2.2349
 2512TIP3    H2 7501   1.413   5.475   4.617  1.9488 -1.8640  1.4973
 2513TIP3   OH2 7502   4.741   3.093   2.982 -0.4648 -0.4265 -0.2587
 2513TIP3    H1 7503   4.739   3.185   3.008  1.2730 -0.7686  1.3031
 2513TIP3    H2 7504   4.708   3.046   3.059  0.4310 -1.2068 -0.3418
 2514TIP3   OH2 7505   2.369   3.332   0.968 -0.4982  0.3130 -0.4866
 2514TIP3    H1 7506   2.342   3.249   1.008 -0.6839  1.1644  1.2192
 2514TIP3    H2 7507   2.456   3.349   1.002  0.6418 -0.3935 -2.8300
 2515TIP3   OH2 7508   2.108   6.084   4.186  0.0557  0.0583 -0.0246
 2515TIP3    H1 7509   2.029   6.032   4.195 -1.2933  1.8785 -0.7548
 2515TIP3    H2 7510   2.125   6.117   4.275 -0.2953  0.0688  0.0390
 2516TIP3   OH2 7511   5.859   5.516   3.798  0.1309 -0.1274  0.8172
 2516TIP3    H1 7512   5.879   5.595   3.748  1.7201 -0.4833  0.8359
 2516TIP3    H2 7513   5.854   5.447   3.732  0.8904 -0.3638  0.9949
 2517TIP3   OH2 7514   0.928   0.498   4.913  0.2504  0.7573 -0.3768
 2517TIP3    H1 7515   0.995   0.510   4.846 -0.1644  0.5480 -0.8391
 2517TIP3    H2 7516   0.845   0.502   4.865 -0.0208 -0.6367 -0.0828
 2518TIP3   OH2 7517   3.919   0.407   1.578 -0.2846 -0.2117  0.3164
 2518TIP3    H1 7518   4.010   0.424   1.557 -0.1761 -0.3646  0.6536
 2518TIP3    H2 7519   3.915   0.313   1.595 -0.5909 -0.2808 -0.1203
 2519TIP3   OH2 7520   1.418   1.815   4.046 -0.5641  0.3990  0.1762
 2519TIP3    H1 7521   1.421   1.877   3.973  0.4413  0.1717  0.0184
 2519TIP3    H2 7522   1.459   1.736   4.012  1.9531  0.9877  1.6372
 2520TIP3   OH2 7523   1.392   0.072   2.320 -0.1460 -0.5597 -0.0773
 2520TIP3    H1 7524   1.363   0.158   2.289 -1.4057 -1.6847 -2.3061
 2520TIP3    H2 7525   1.456   0.043   2.254 -0.0406 -1.4748  0.4090
 2521TIP3   OH2 7526   4.395   1.642   1.346 -0.1504 -0.4765 -0.0742
 2521TIP3    H1 7527   4.303   1.666   1.349 -0.2577 -0.5318 -1.8725
 2521TIP3    H2 7528   4.441   1.723   1.324  0.1602 -0.6054  0.0890
 2522TIP3   OH2 7529   2.940   2.853   1.452 -0.1317 -0.3052 -0.0196
 2522TIP3    H1 7530   2.976   2.861   1.364  0.0893 -0.0573  0.0909
 2522TIP3    H2 7531   3.011   2.815   1.504  1.0438  2.7411  0.8401
 2523TIP3   OH2 7532   0.434   4.138   1.269  0.0658 -0.8617 -0.4963
 2523TIP3    H1 7533   0.496   4.210   1.259  0.1270 -1.2436 -5.2902
 2523TIP3    H2 7534   0.489   4.059   1.277  0.0694 -0.8154 -0.0207
 2524TIP3   OH2 7535  -0.003   3.850   0.545 -0.3461 -0.2028  0.1238
 2524TIP3    H1 7536  -0.035   3.934   0.512 -0.3741 -0.2076  0.1381
 2524TIP3    H2 7537   0.083   3.839   0.506  0.4513  0.6983  1.5434
 2525TIP3   OH2 7538   2.684   1.231   1.282 -0.1039  0.5360 -0.0252
 2525TIP3    H1 7539   2.628   1.199   1.352 -0.9614  0.1506 -0.8745
 2525TIP3    H2 7540   2.626   1.241   1.207  0.4409  2.5918 -0.2315
 2526TIP3   OH2 7541   2.188   2.293   0.879 -0.3297  0.5009  0.6883
 2526TIP3    H1 7542   2.258   2.286   0.944  1.5679 -1.7367 -1.4013
 2526TIP3    H2 7543   2.137   2.213   0.890  1.0879 -0.8291 -1.5869
 2527TIP3   OH2 7544   1.752   1.805   2.727  0.1783  0.4332  0.3019
 2527TIP3    H1 7545   1.800   1.794   2.810  1.1937 -1.7185 -0.5041
 2527TIP3    H2 7546   1.728   1.717   2.701 -2.2045  1.2699 -0.5710
 2528TIP3   OH2 7547   5.578   3.127   3.011 -0.4083  0.5287 -0.4629
 2528TIP3    H1 7548   5.583   3.216   3.045  1.3125 -0.2842  1.5892
 2528TIP3    H2 7549   5.510   3.085   3.063  2.3677 -0.7756  2.4042
 2529TIP3   OH2 7550   2.386  -0.002   1.672  0.1660  0.2467  0.1319
 2529TIP3    H1 7551   2.426  -0.012   1.586  0.2517 -1.0789  0.3041
 2529TIP3    H2 7552   2.459   0.018   1.730  0.1026  1.1826 -0.0974
 2530TIP3   OH2 7553   6.260   1.623   4.494 -0.2210 -0.1256 -0.3164
 2530TIP3    H1 7554   6.232   1.687   4.560  0.2734  1.9216 -1.9844
 2530TIP3    H2 7555   6.299   1.552   4.545  2.3311  2.4288  1.5843
 2531TIP3   OH2 7556   6.926   0.468   2.329  0.5685 -0.0933 -0.1641
 2531TIP3    H1 7557   6.913   0.519   2.409 -0.9258 -1.0230  0.2211
 2531TIP3    H2 7558   6.857   0.401   2.331  1.4114 -1.0624 -1.5010
 2532TIP3   OH2 7559   5.807   0.974   5.179  0.3804  0.1537 -0.2555
 2532TIP3    H1 7560   5.768   1.024   5.108  0.0645 -0.0930 -0.2582
 2532TIP3    H2 7561   5.736   0.959   5.241  0.3722 -0.5936 -0.4288
 2533TIP3   OH2 7562   2.532   0.458   2.198 -0.1397  0.1914 -0.5307
 2533TIP3    H1 7563   2.551   0.505   2.117 -2.2469  0.4934 -0.9223
 2533TIP3    H2 7564   2.609   0.473   2.254  0.4895  1.6741 -1.7200
 2534TIP3   OH2 7565   2.519   5.050   3.330  0.1360 -0.0951 -0.0374
 2534TIP3    H1 7566   2.467   5.125   3.360  1.7048  1.4401 -0.9604
 2534TIP3    H2 7567   2.604   5.062   3.373  0.4673 -1.2503 -0.3475
 2535TIP3   OH2 7568   3.380   4.890   4.368  0.5276  0.5153  0.2750
 2535TIP3    H1 7569   3.345   4.809   4.406  1.4870  0.7594  1.7632
 2535TIP3    H2 7570   3.457   4.863   4.320  0.7664  0.5230  0.6524
 2536TIP3   OH2 7571   5.579   5.555   3.550  0.6957  0.0715 -0.0954
 2536TIP3    H1 7572   5.628   5.589   3.475  4.7642 -2.0995  1.2662
 2536TIP3    H2 7573   5.607   5.609   3.624  0.2072 -0.6026  0.6041
 2537TIP3   OH2 7574   1.458   0.663   0.385 -0.2454  0.5471 -0.5596
 2537TIP3    H1 7575   1.428   0.633   0.300 -2.2011  0.5584  0.0778
 2537TIP3    H2 7576   1.453   0.585   0.441 -0.7706  0.9437 -0.0351
 2538TIP3   OH2 7577   3.232   3.844   4.758 -0.4862 -0.1537 -0.1445
 2538TIP3    H1 7578   3.300   3.835   4.825 -0.2333 -1.2469 -0.5127
 2538TIP3    H2 7579   3.155   3.802   4.796 -0.4716 -0.3707 -0.3446
 2539TIP3   OH2 7580   5.788   2.417   0.458 -0.1701  0.1917 -0.0003
 2539TIP3    H1 7581   5.694   2.396   0.462 -0.1143 -0.1996 -0.6302
 2539TIP3    H2 7582   5.832   2.333   0.461  0.1258  0.3224 -0.6172
 2540TIP3   OH2 7583   4.574   1.980   4.101 -0.4490  0.0816  0.9828
 2540TIP3    H1 7584   4.633   1.961   4.028 -1.2125 -0.7307  0.5609
 2540TIP3    H2 7585   4.512   1.907   4.102  0.8384 -1.1463  3.8365
 2541TIP3   OH2 7586   5.489   4.249   4.170 -0.4361  0.3118 -0.4435
 2541TIP3    H1 7587   5.411   4.196   4.185 -1.3106  1.2044 -1.7147
 2541TIP3    H2 7588   5.524   4.218   4.087  1.9166 -1.6246  1.0976
 2542TIP3   OH2 7589   1.776   5.025   4.878 -0.3661  0.1656 -0.0565
 2542TIP3    H1 7590   1.795   5.016   4.785 -1.3017 -0.6420 -0.1916
 2542TIP3    H2 7591   1.735   5.111   4.886 -0.4890  0.1414 -0.4257
 2543TIP3   OH2 7592   1.200   0.255   3.710 -0.1247  0.1866 -0.1585
 2543TIP3    H1 7593   1.186   0.346   3.736 -3.0562 -0.2110  0.0301
 2543TIP3    H2 7594   1.210   0.258   3.615  2.5360  0.8782  0.0624
 2544TIP3   OH2 7595   3.965   2.260   5.620 -0.1722 -0.5077 -0.0138
 2544TIP3    H1 7596   4.018   2.330   5.657  0.5962 -0.3109 -1.4127
 2544TIP3    H2 7597   3.881   2.301   5.601 -0.1792 -0.3218  0.4114
 2545TIP3   OH2 7598   1.095   0.496   5.810  0.4398 -0.1128 -0.5248
 2545TIP3    H1 7599   1.138   0.530   5.888  1.5321 -1.5075 -0.4909
 2545TIP3    H2 7600   1.085   0.573   5.753  0.1183  0.8166  0.7275
 2546TIP3   OH2 7601   4.609   2.648   2.845  0.0740  0.4616  0.2737
 2546TIP3    H1 7602   4.672   2.646   2.917  1.5922  1.3487 -0.9572
 2546TIP3    H2 7603   4.613   2.738   2.812 -0.2520 -0.0209 -1.1747
 2547TIP3   OH2 7604   6.077   3.969   1.948 -0.3648  0.2196  0.1417
 2547TIP3    H1 7605   6.055   4.060   1.929 -0.4676 -0.2466 -2.2698
 2547TIP3    H2 7606   6.007   3.919   1.907  0.6766 -0.9880 -0.2153
 2548TIP3   OH2 7607   1.331   0.356   2.251  0.3248  0.6151  0.0078
 2548TIP3    H1 7608   1.396   0.415   2.214  0.1470  0.1683 -1.0364
 2548TIP3    H2 7609   1.263   0.350   2.184  0.0874 -0.3571  0.3200
 2549TIP3   OH2 7610   3.096   5.967   4.136  0.0982 -0.2629  0.1906
 2549TIP3    H1 7611   3.134   6.036   4.191  1.3566  1.1272 -2.2285
 2549TIP3    H2 7612   3.154   5.892   4.149  1.0317  0.3989 -0.0136
 2550TIP3   OH2 7613   3.017   1.222   1.001  0.1367 -0.0769  0.0405
 2550TIP3    H1 7614   3.101   1.261   0.975 -0.1173  0.8819  0.6096
 2550TIP3    H2 7615   3.039   1.169   1.077  0.0161  1.3760  1.1433
 2551TIP3   OH2 7616   1.095   4.636   5.336  0.0510  0.7296 -0.0597
 2551TIP3    H1 7617   1.078   4.551   5.294  0.7747  0.8253 -0.5602
 2551TIP3    H2 7618   1.124   4.614   5.424 -0.2775  0.4829 -0.0080
 2552TIP3   OH2 7619   3.666   5.472   5.044  0.1639 -0.7085  0.1647
 2552TIP3    H1 7620   3.690   5.559   5.012 -0.4226 -0.4588  0.3989
 2552TIP3    H2 7621   3.750   5.431   5.064  0.4251  0.0022  0.5682
 2553TIP3   OH2 7622   6.444   4.488   3.788 -0.4793 -0.1953 -0.0657
 2553TIP3    H1 7623   6.472   4.431   3.717  0.4199 -0.9484  0.8704
 2553TIP3    H2 7624   6.522   4.500   3.842 -0.7803  1.5370  0.0273
 2554TIP3   OH2 7625   0.262   2.601   3.772 -0.0510 -0.0219 -1.1516
 2554TIP3    H1 7626   0.176   2.639   3.761 -0.2085  0.7122  1.8427
 2554TIP3    H2 7627   0.301   2.648   3.846  1.5288 -2.6164 -0.1818
 2555TIP3   OH2 7628   6.081   3.503   2.781 -0.1709  0.0891  0.2087
 2555TIP3    H1 7629   6.148   3.570   2.765  0.2035 -0.2419  0.3670
 2555TIP3    H2 7630   6.040   3.530   2.862  1.4575 -1.0233  1.4684
 2556TIP3   OH2 7631   3.277   3.771   4.505  0.2868  0.3390  0.1423
 2556TIP3    H1 7632   3.275   3.778   4.601 -1.7009 -1.1894  0.2962
 2556TIP3    H2 7633   3.321   3.688   4.488 -0.8190 -0.2186 -0.1345
 2557TIP3   OH2 7634   6.626   5.254   2.299  0.7164 -0.1867 -0.6159
 2557TIP3    H1 7635   6.635   5.161   2.319 -1.3234 -0.3302 -0.1551
 2557TIP3    H2 7636   6.555   5.284   2.356  2.0372  1.9254  0.0650
 2558TIP3   OH2 7637   4.720   1.750   2.285 -0.7202  0.1762  0.8141
 2558TIP3    H1 7638   4.638   1.723   2.244 -0.9539  1.7628  0.1819
 2558TIP3    H2 7639   4.767   1.798   2.217 -0.3180  1.3100  1.8478
 2559TIP3   OH2 7640   2.381   2.059   1.434 -0.2804 -0.0104  0.1958
 2559TIP3    H1 7641   2.471   2.084   1.414 -0.1500  0.4109  1.2406
 2559TIP3    H2 7642   2.375   1.968   1.407  0.7043 -0.2840  0.8345
 2560TIP3   OH2 7643   2.995   2.800   5.424 -0.3866 -0.0450  0.1649
 2560TIP3    H1 7644   2.916   2.813   5.371 -0.5093 -1.1866  0.0393
 2560TIP3    H2 7645   3.031   2.888   5.435 -0.9431  0.3396 -0.9178
 2561TIP3   OH2 7646   7.049   2.788   3.018  0.2793 -0.4919  0.0734
 2561TIP3    H1 7647   7.099   2.863   2.985 -0.6433  0.2475  0.3038
 2561TIP3    H2 7648   7.098   2.759   3.095 -0.2114  0.9594  0.9965
 2562TIP3   OH2 7649   4.019   3.611   1.245 -0.4640 -0.1068 -0.6645
 2562TIP3    H1 7650   3.962   3.547   1.288 -0.0250 -0.1288 -0.0965
 2562TIP3    H2 7651   3.959   3.675   1.207 -0.8773 -0.3555 -0.4414
 2563TIP3   OH2 7652   2.229   1.489   5.225 -0.4318 -0.3310  0.1154
 2563TIP3    H1 7653   2.155   1.439   5.191 -1.6265  0.9387  0.7525
 2563TIP3    H2 7654   2.201   1.515   5.313  0.0616  1.5832 -0.2510
 2564TIP3   OH2 7655   3.076   1.536   3.303 -0.2613 -0.0157 -0.1519
 2564TIP3    H1 7656   3.110   1.454   3.339 -1.1157  0.2419  1.3584
 2564TIP3    H2 7657   3.124   1.604   3.348 -1.0109  0.3174  0.1681
 2565TIP3   OH2 7658   4.052   3.967   5.087  0.0044 -0.0826  0.5930
 2565TIP3    H1 7659   4.003   4.050   5.083 -0.2413 -0.2622 -1.4855
 2565TIP3    H2 7660   4.143   3.992   5.074  0.1224 -0.0123  1.5180
 2566TIP3   OH2 7661   5.417   6.754   3.986  0.4761  0.0043 -0.0594
 2566TIP3    H1 7662   5.498   6.762   3.935  0.7155 -1.9336 -0.0728
 2566TIP3    H2 7663   5.351   6.727   3.922  0.6710 -1.9681  0.4818
 2567TIP3   OH2 7664   2.865   1.615   1.208 -0.2669  0.3107 -0.2458
 2567TIP3    H1 7665   2.921   1.608   1.285  0.4462  1.3857 -0.6426
 2567TIP3    H2 7666   2.776   1.609   1.242  0.0680 -1.3755  0.3964
 2568TIP3   OH2 7667   4.642   1.096   2.199  0.3575 -0.4832 -0.0545
 2568TIP3    H1 7668   4.548   1.112   2.204  0.5211  1.7535 -2.1963
 2568TIP3    H2 7669   4.682   1.175   2.235  1.4067 -0.8694 -0.3234
 2569TIP3   OH2 7670   2.669   6.522   5.558  0.2443 -0.3398  0.3960
 2569TIP3    H1 7671   2.745   6.565   5.520  1.2029 -0.8687  1.6642
 2569TIP3    H2 7672   2.616   6.594   5.593  0.5058 -0.0197  0.1368
 2570TIP3   OH2 7673   7.125   5.128   3.917  0.2388 -0.0795 -0.5766
 2570TIP3    H1 7674   7.154   5.210   3.957 -0.2691  0.6681 -1.6754
 2570TIP3    H2 7675   7.193   5.065   3.938  2.2382  1.3672 -2.2856
 2571TIP3   OH2 7676   4.457   0.861   3.955  0.5289 -0.2376 -0.0069
 2571TIP3    H1 7677   4.477   0.769   3.973  1.0404 -0.2198 -0.4711
 2571TIP3    H2 7678   4.510   0.883   3.878 -0.0222  0.2823 -0.2503
 2572TIP3   OH2 7679   1.926   6.015   0.719 -0.3064 -0.3587  0.0670
 2572TIP3    H1 7680   1.987   5.942   0.706 -0.4987 -0.2262 -1.9799
 2572TIP3    H2 7681   1.901   6.041   0.630 -2.9252 -0.0227  0.8254
 2573TIP3   OH2 7682   1.291   1.834   4.802  0.4462  0.3991 -0.2185
 2573TIP3    H1 7683   1.377   1.800   4.779  1.0861  1.8870 -0.1416
 2573TIP3    H2 7684   1.259   1.776   4.871  2.0377  0.7007  0.8055
 2574TIP3   OH2 7685   5.969   5.576   4.303  0.5463  0.5083  0.0708
 2574TIP3    H1 7686   6.014   5.494   4.282 -0.0709  0.2554 -0.2909
 2574TIP3    H2 7687   5.943   5.611   4.218  1.1540  1.2877  0.1954
 2575TIP3   OH2 7688   0.445   5.823   3.833  0.4431 -0.0645 -0.6925
 2575TIP3    H1 7689   0.522   5.841   3.888 -1.0133  1.1737  1.0311
 2575TIP3    H2 7690   0.382   5.782   3.892 -1.5808  2.2445 -1.1250
 2576TIP3   OH2 7691   2.615   2.026   5.532 -0.1223 -0.4430  0.0401
 2576TIP3    H1 7692   2.585   2.024   5.441 -1.2750 -1.3871  0.4006
 2576TIP3    H2 7693   2.689   1.964   5.534 -0.2552 -0.6135 -0.2071
 2577TIP3   OH2 7694   6.733   4.459   2.000 -0.3823  0.3827  0.4793
 2577TIP3    H1 7695   6.781   4.450   1.918 -0.6282 -1.5731  0.5181
 2577TIP3    H2 7696   6.787   4.415   2.066 -1.1011  0.2109  0.9777
 2578TIP3   OH2 7697   6.222   2.117   3.750  0.4179  0.2423 -0.5160
 2578TIP3    H1 7698   6.149   2.075   3.795  0.2742  1.1411  0.1172
 2578TIP3    H2 7699   6.297   2.104   3.808  0.0456  2.2010  0.5250
 2579TIP3   OH2 7700   5.107   4.410   1.409 -0.6349 -0.4858  0.6310
 2579TIP3    H1 7701   5.013   4.403   1.424 -1.1929  0.4076 -1.9852
 2579TIP3    H2 7702   5.137   4.320   1.399 -0.9485 -0.8468  2.5494
 2580TIP3   OH2 7703   5.563   5.988   0.272 -0.2507  0.5930  0.4243
 2580TIP3    H1 7704   5.547   6.027   0.186  0.7284 -1.0877 -0.5648
 2580TIP3    H2 7705   5.621   5.915   0.255 -0.6445 -0.2542  2.4363
 2581TIP3   OH2 7706   3.426   4.817   3.990  0.1303 -0.4868 -0.8280
 2581TIP3    H1 7707   3.479   4.841   4.065 -0.6936  0.4402 -0.5248
 2581TIP3    H2 7708   3.489   4.804   3.919  0.9793 -2.0758  0.1716
 2582TIP3   OH2 7709   5.115   3.516   2.194 -0.2559  0.3673  0.0995
 2582TIP3    H1 7710   5.177   3.537   2.264 -1.4809 -1.4248  1.8608
 2582TIP3    H2 7711   5.169   3.481   2.123  0.8339 -0.8676  1.4674
 2583TIP3   OH2 7712   2.434   5.218   5.154  0.0879 -0.0733  0.0651
 2583TIP3    H1 7713   2.506   5.243   5.212 -0.1669 -0.2783  0.4748
 2583TIP3    H2 7714   2.476   5.180   5.077  0.4239  0.0749  0.1764
 2584TIP3   OH2 7715   4.602   1.224   4.800  0.2457 -0.2516  0.7929
 2584TIP3    H1 7716   4.578   1.209   4.709  0.0107  2.7382  0.2572
 2584TIP3    H2 7717   4.611   1.137   4.838 -0.0967 -1.5641 -1.9576
 2585TIP3   OH2 7718   2.617   1.268   3.930 -0.2352  0.0338  0.0996
 2585TIP3    H1 7719   2.689   1.328   3.952  0.9615 -2.0866  2.4979
 2585TIP3    H2 7720   2.538   1.320   3.943  0.7749  1.6771  0.0155
 2586TIP3   OH2 7721   0.631   4.918   5.074  0.0327 -0.3220  0.3751
 2586TIP3    H1 7722   0.637   4.823   5.089 -0.0149 -0.9030 -2.6271
 2586TIP3    H2 7723   0.546   4.930   5.031 -0.2334  1.2142  1.2583
 2587TIP3   OH2 7724   2.327   3.508   4.599 -0.6493 -0.2455  0.1536
 2587TIP3    H1 7725   2.291   3.590   4.635  2.1022  1.0891  0.1526
 2587TIP3    H2 7726   2.421   3.522   4.598 -0.1877 -2.7674 -1.5955
 2588TIP3   OH2 7727   5.653   4.692   1.181  0.0209  0.0329  1.0791
 2588TIP3    H1 7728   5.726   4.748   1.153  1.2768 -2.1229 -0.2938
 2588TIP3    H2 7729   5.604   4.745   1.243  1.0237  2.6774 -0.2299
 2589TIP3   OH2 7730   0.946   3.966   0.838 -0.4107 -0.3269 -0.1128
 2589TIP3    H1 7731   0.989   4.051   0.852 -2.3242  0.7324 -0.3082
 2589TIP3    H2 7732   0.910   3.942   0.923  0.7638 -1.3705  0.1249
 2590TIP3   OH2 7733   4.608   6.781   1.617  0.1338 -0.2844  0.4397
 2590TIP3    H1 7734   4.698   6.812   1.601 -0.0773 -0.1298 -0.5227
 2590TIP3    H2 7735   4.580   6.747   1.532 -0.3861 -1.2093  0.9751
 2591TIP3   OH2 7736   2.328   4.407   1.954  0.6107 -0.1520 -0.2223
 2591TIP3    H1 7737   2.409   4.455   1.935  0.1469  1.3792  1.3835
 2591TIP3    H2 7738   2.358   4.320   1.980  1.6467  0.0154 -0.7629
 2592TIP3   OH2 7739   5.766   3.162   2.821  0.0842  0.0080  0.5754
 2592TIP3    H1 7740   5.714   3.204   2.753  0.4495 -2.3576 -1.3087
 2592TIP3    H2 7741   5.702   3.116   2.875 -0.0159 -0.3952  0.1179
 2593TIP3   OH2 7742   0.963   0.095   4.774  0.1959  0.2314  0.7840
 2593TIP3    H1 7743   1.014   0.176   4.779 -0.7780  0.9487 -0.3997
 2593TIP3    H2 7744   0.908   0.097   4.853 -0.1949  0.9923  0.5051
 2594TIP3   OH2 7745   3.552   5.943   0.432 -0.5466  0.2193  0.1987
 2594TIP3    H1 7746   3.621   5.935   0.498 -0.8336 -0.1932  0.4502
 2594TIP3    H2 7747   3.599   5.953   0.350 -0.1585 -1.4652  0.1802
 2595TIP3   OH2 7748   6.169   4.379   5.633 -0.2761  0.7898 -0.4872
 2595TIP3    H1 7749   6.215   4.335   5.704 -1.3120 -0.2418 -0.4425
 2595TIP3    H2 7750   6.109   4.440   5.676 -0.8507  0.2176 -0.4658
 2596TIP3   OH2 7751   3.308   1.291   1.062 -0.1552  0.3283  0.1294
 2596TIP3    H1 7752   3.361   1.341   0.999 -0.0482  1.2192  0.9021
 2596TIP3    H2 7753   3.370   1.232   1.104 -0.6327 -2.1387 -2.2992
 2597TIP3   OH2 7754   5.831   5.294   1.398  0.0716  0.2237 -0.1147
 2597TIP3    H1 7755   5.774   5.308   1.474  0.2030 -1.1165  0.2499
 2597TIP3    H2 7756   5.920   5.297   1.432  0.1136 -1.3588 -0.0043
 2598TIP3   OH2 7757   6.751   5.877   4.449  0.2081  0.3274 -0.3195
 2598TIP3    H1 7758   6.737   5.923   4.366  0.0174  1.3979  0.2971
 2598TIP3    H2 7759   6.663   5.858   4.481  0.2622 -1.8362 -1.2803
 2599TIP3   OH2 7760   4.411   4.609   2.419 -0.4712  0.4655 -0.1784
 2599TIP3    H1 7761   4.491   4.597   2.469  0.1061  1.3653 -0.8348
 2599TIP3    H2 7762   4.355   4.535   2.443  0.7623 -0.4714 -0.1121
 2600TIP3   OH2 7763   3.325   5.503   3.350  0.3771 -0.0444  0.3102
 2600TIP3    H1 7764   3.414   5.537   3.337  0.5049 -0.8139 -1.1151
 2600TIP3    H2 7765   3.332   5.446   3.426  1.0880 -0.0070  0.2817
 2601TIP3   OH2 7766   0.372   1.342   0.950  0.2842 -0.1695 -0.1250
 2601TIP3    H1 7767   0.305   1.287   0.990  1.1255 -1.3196 -0.2231
 2601TIP3    H2 7768   0.401   1.400   1.021 -1.9792  1.5807 -0.5192
 2602TIP3   OH2 7769   0.177   1.777   1.857 -0.0746 -0.2792  0.5212
 2602TIP3    H1 7770   0.093   1.816   1.835  0.2235 -0.8474 -2.0076
 2602TIP3    H2 7771   0.234   1.800   1.784  1.4064 -1.5503  1.2124
 2603TIP3   OH2 7772   3.620   0.394   0.293  0.2845 -0.2717  0.7068
 2603TIP3    H1 7773   3.658   0.366   0.210 -3.1215  1.8095 -1.8324
 2603TIP3    H2 7774   3.561   0.323   0.318 -0.5241  0.1023 -0.0704
 2604TIP3   OH2 7775   2.928   4.051   3.735  0.1946  0.2978 -0.2216
 2604TIP3    H1 7776   2.903   3.974   3.786  0.2379  1.8583  2.2856
 2604TIP3    H2 7777   2.849   4.104   3.731  0.2823  0.3637 -1.5534
 2605TIP3   OH2 7778   5.137   5.020   0.760  1.1302 -0.6564  0.4891
 2605TIP3    H1 7779   5.163   5.088   0.823 -0.9369 -0.7408  1.5285
 2605TIP3    H2 7780   5.134   5.065   0.676  0.2249  0.4768  1.0947
 2606TIP3   OH2 7781   4.055   5.626   1.400 -0.0463  0.6136 -0.4648
 2606TIP3    H1 7782   4.013   5.693   1.347 -0.2648  1.2401  0.4700
 2606TIP3    H2 7783   3.985   5.592   1.456  0.5930  1.4292  0.8670
 2607TIP3   OH2 7784   1.674   3.107   0.996  0.0179 -0.3409  0.0565
 2607TIP3    H1 7785   1.579   3.096   0.990 -0.1839  1.4014 -0.2795
 2607TIP3    H2 7786   1.699   3.147   0.913  0.8486  0.5300  0.7126
 2608TIP3   OH2 7787   6.834   5.560   5.769  0.3755 -0.6465 -0.6497
 2608TIP3    H1 7788   6.764   5.596   5.824  1.7135 -2.6305  2.7012
 2608TIP3    H2 7789   6.884   5.636   5.740 -1.4578  0.6146 -0.7016
 2609TIP3   OH2 7790   1.156   2.996   4.402 -0.2446 -0.1500 -0.0618
 2609TIP3    H1 7791   1.134   3.043   4.322 -1.0947 -0.5778 -0.1006
 2609TIP3    H2 7792   1.174   3.064   4.466  0.5680  0.1953 -0.6407
 2610TIP3   OH2 7793   6.516   3.910   0.526 -0.4048 -0.3362 -0.2796
 2610TIP3    H1 7794   6.448   3.843   0.519  0.0665 -0.8247 -0.2813
 2610TIP3    H2 7795   6.499   3.969   0.452 -0.6865 -0.5802 -0.4139
 2611TIP3   OH2 7796   0.543   5.731   1.939  0.4768 -0.3794 -0.0383
 2611TIP3    H1 7797   0.617   5.687   1.896 -0.0472 -1.1565 -0.1540
 2611TIP3    H2 7798   0.517   5.672   2.009  0.7276  0.4558  0.7854
 2612TIP3   OH2 7799   5.729   6.077   5.529 -0.4236 -0.5823  0.5716
 2612TIP3    H1 7800   5.747   6.110   5.617  0.5194 -1.0905  0.5854
 2612TIP3    H2 7801   5.802   6.110   5.476  0.4680 -2.4749  0.5467
 2613TIP3   OH2 7802   6.605   3.186   3.724 -0.3601  0.2116 -0.2188
 2613TIP3    H1 7803   6.588   3.103   3.679  0.0622  0.2000 -0.3592
 2613TIP3    H2 7804   6.524   3.204   3.771 -0.1700 -0.7227  0.5011
 2614TIP3   OH2 7805   5.891   5.730   5.862  0.4628 -0.5093 -0.0498
 2614TIP3    H1 7806   5.918   5.807   5.912 -0.3296 -0.1858 -0.0975
 2614TIP3    H2 7807   5.925   5.746   5.774  0.3473 -0.2354 -0.0466
 2615TIP3   OH2 7808   4.141   5.984   2.022  0.4382  0.3287 -0.9487
 2615TIP3    H1 7809   4.172   5.987   1.931  0.5710 -0.9830 -0.9657
 2615TIP3    H2 7810   4.182   5.906   2.059 -1.6293 -0.6200 -0.5303
 2616TIP3   OH2 7811   1.138   2.698   5.844  0.0661 -0.1038 -0.3471
 2616TIP3    H1 7812   1.222   2.735   5.871  0.0503 -0.4137  0.1373
 2616TIP3    H2 7813   1.073   2.763   5.869 -0.0706 -0.8817  1.4781
 2617TIP3   OH2 7814   0.212   1.806   0.034  0.0677 -0.7934 -0.4001
 2617TIP3    H1 7815   0.263   1.880   0.068 -2.9024  1.3232 -0.2235
 2617TIP3    H2 7816   0.164   1.773   0.111 -1.3089 -0.5733 -1.1393
 2618TIP3   OH2 7817   7.129   2.518   1.951  0.6787 -0.1146 -0.1701
 2618TIP3    H1 7818   7.150   2.580   2.021 -0.6368 -1.1447  1.2041
 2618TIP3    H2 7819   7.174   2.553   1.874  0.4925  2.1906  0.6827
 2619TIP3   OH2 7820   0.689   4.222   2.449  0.0694 -0.3844  0.0491
 2619TIP3    H1 7821   0.768   4.276   2.460 -0.2721  0.2214 -0.4628
 2619TIP3    H2 7822   0.632   4.247   2.522  0.3532 -0.8496  0.4414
 2620TIP3   OH2 7823   7.011   6.529   0.710 -0.1288 -0.1760  1.0542
 2620TIP3    H1 7824   7.013   6.622   0.731 -1.0424 -0.3680  2.1346
 2620TIP3    H2 7825   6.944   6.493   0.769  0.7204 -1.6424  1.1688
 2621TIP3   OH2 7826   2.868   3.082   3.799 -0.3947 -0.4366  0.8941
 2621TIP3    H1 7827   2.868   3.050   3.709 -1.0725  0.3944  0.5763
 2621TIP3    H2 7828   2.915   3.165   3.795  0.1674 -0.7258  1.4407
 2622TIP3   OH2 7829   7.032   2.256   2.396  0.1328 -0.2975  0.2426
 2622TIP3    H1 7830   6.970   2.216   2.457  0.5946 -1.3517  0.0285
 2622TIP3    H2 7831   6.992   2.243   2.310 -0.8037  1.6967  0.3207
 2623TIP3   OH2 7832   0.959   5.296   5.392  0.7150  0.2190 -0.3283
 2623TIP3    H1 7833   0.864   5.299   5.396  0.7432 -0.0270  1.8621
 2623TIP3    H2 7834   0.983   5.356   5.321 -1.0375  0.3704 -0.8314
 2624TIP3   OH2 7835   6.129   1.217   3.785 -0.3401 -0.4098  0.3056
 2624TIP3    H1 7836   6.086   1.182   3.863 -0.4873  0.5808  0.6884
 2624TIP3    H2 7837   6.161   1.303   3.812 -1.3363  0.4221 -1.0225
 2625TIP3   OH2 7838   5.261   2.273   1.638 -0.0516 -0.2191  0.6535
 2625TIP3    H1 7839   5.203   2.288   1.713 -1.6765 -1.0567 -0.3884
 2625TIP3    H2 7840   5.328   2.342   1.646 -0.3797 -0.0610  2.6458
 2626TIP3   OH2 7841   0.055   2.063   2.946 -0.2312 -0.2278  0.2970
 2626TIP3    H1 7842  -0.001   1.985   2.939  0.1651 -0.5409  0.5169
 2626TIP3    H2 7843   0.113   2.057   2.870 -1.2327  0.7075 -0.5662
 2627TIP3   OH2 7844   2.571   0.398   0.338  0.7820  0.4505 -0.8104
 2627TIP3    H1 7845   2.495   0.376   0.284  0.2967  1.9341 -0.7860
 2627TIP3    H2 7846   2.596   0.315   0.380 -0.6025 -0.1388 -1.0849
 2628TIP3   OH2 7847   1.786   0.126   2.494 -0.1627  0.0648 -0.0986
 2628TIP3    H1 7848   1.785   0.072   2.572  1.5391 -1.1945 -0.8878
 2628TIP3    H2 7849   1.724   0.084   2.435 -0.8408  0.5521  0.2491
 2629TIP3   OH2 7850   5.867   5.148   5.404  0.3764 -0.5079 -0.1282
 2629TIP3    H1 7851   5.898   5.187   5.485 -0.6576 -0.0677  0.0768
 2629TIP3    H2 7852   5.848   5.057   5.426  1.8360 -0.8943 -0.3557
 2630TIP3   OH2 7853   4.585   3.693   0.783 -0.0079  0.2904 -0.2150
 2630TIP3    H1 7854   4.602   3.785   0.798  0.4581  0.0586  0.7356
 2630TIP3    H2 7855   4.630   3.674   0.700 -0.9873  1.1412 -0.9597
 2631TIP3   OH2 7856   5.606   6.672   4.341  0.0332 -0.6662  0.2379
 2631TIP3    H1 7857   5.631   6.594   4.291  2.1873  0.5187 -0.6738
 2631TIP3    H2 7858   5.660   6.669   4.419 -1.0319 -0.8724  0.9868
 2632TIP3   OH2 7859   0.463   2.056   2.348  0.7838 -0.0080  0.1925
 2632TIP3    H1 7860   0.387   2.002   2.369  0.2294  0.9815  0.8182
 2632TIP3    H2 7861   0.428   2.146   2.346  2.1784  0.6257  1.8543
 2633TIP3   OH2 7862  -0.011   3.380   4.732 -0.3594 -0.1498  0.5507
 2633TIP3    H1 7863   0.011   3.337   4.814 -1.8175 -1.9508  0.0474
 2633TIP3    H2 7864   0.070   3.374   4.680  0.1185 -0.3000  1.2893
 2634TIP3   OH2 7865   0.317   0.042   1.374  0.4045  0.5108  0.1773
 2634TIP3    H1 7866   0.349  -0.018   1.307 -0.6604 -0.8739  0.8622
 2634TIP3    H2 7867   0.269   0.109   1.325 -0.5507 -0.6005 -0.4609
 2635TIP3   OH2 7868   6.339   3.538   0.573  0.0177  0.5150 -0.4314
 2635TIP3    H1 7869   6.335   3.534   0.669 -1.2923  1.3115 -0.4302
 2635TIP3    H2 7870   6.417   3.488   0.550 -0.4196 -0.8930  0.9750
 2636TIP3   OH2 7871   3.126   3.313   1.433 -0.7265 -0.6607  0.1979
 2636TIP3    H1 7872   3.190   3.268   1.379 -1.6183 -0.4475 -1.0938
 2636TIP3    H2 7873   3.046   3.313   1.381 -1.4140  0.2772  1.1854
 2637TIP3   OH2 7874   4.977   3.454   5.091 -0.2774  0.0767  0.6243
 2637TIP3    H1 7875   4.898   3.507   5.082 -0.4856  0.0073  1.8453
 2637TIP3    H2 7876   5.029   3.499   5.158  0.4513 -0.1976  0.2591
 2638TIP3   OH2 7877   1.186   6.647   2.841  0.3896 -0.0010  0.2171
 2638TIP3    H1 7878   1.132   6.621   2.767  1.5841  0.1353 -0.7232
 2638TIP3    H2 7879   1.163   6.586   2.911  0.1654 -0.9322 -0.6642
 2639TIP3   OH2 7880   3.646   6.417   5.173  0.0926  0.2772  0.4706
 2639TIP3    H1 7881   3.607   6.500   5.150 -1.3797 -0.8982 -1.5974
 2639TIP3    H2 7882   3.582   6.374   5.230 -0.9078 -0.8708 -1.4070
 2640TIP3   OH2 7883   6.501   1.904   4.908  0.0367  0.3366 -0.1140
 2640TIP3    H1 7884   6.424   1.951   4.940 -0.0614 -0.0028  0.1512
 2640TIP3    H2 7885   6.566   1.972   4.893 -0.6025  0.7418 -1.2087
 2641TIP3   OH2 7886   0.105   0.579   2.587 -0.4696 -0.3122  0.0639
 2641TIP3    H1 7887   0.072   0.667   2.605 -0.4325 -0.0501 -1.0265
 2641TIP3    H2 7888   0.175   0.566   2.651  0.0244  0.7582 -0.2310
 2642TIP3   OH2 7889   4.142   3.210   1.156  0.1044 -0.0163 -0.1118
 2642TIP3    H1 7890   4.227   3.233   1.192  0.7168 -0.6810 -1.1044
 2642TIP3    H2 7891   4.079   3.242   1.222  1.1513 -0.5863  1.2144
 2643TIP3   OH2 7892   2.388   5.967   5.359  0.6207 -0.4361 -0.7666
 2643TIP3    H1 7893   2.368   5.941   5.448  2.4930 -0.1405 -0.2116
 2643TIP3    H2 7894   2.373   5.888   5.306 -0.2047 -0.6936 -0.1606
 2644TIP3   OH2 7895   2.728   2.790   1.731 -0.7636 -0.0936  0.1657
 2644TIP3    H1 7896   2.673   2.741   1.671 -1.3858  0.2599  0.4452
 2644TIP3    H2 7897   2.667   2.828   1.794 -0.1993  0.2836  0.4891
 2645TIP3   OH2 7898   1.775   5.301   2.920 -0.6245  0.1159 -0.7346
 2645TIP3    H1 7899   1.724   5.302   2.839 -0.4353 -0.3975 -0.8652
 2645TIP3    H2 7900   1.737   5.371   2.973 -0.8154  0.3867 -1.2246
 2646TIP3   OH2 7901   4.345   5.270   5.099 -0.2518 -0.1820 -0.1569
 2646TIP3    H1 7902   4.307   5.235   5.018  0.2067  1.2306 -1.0188
 2646TIP3    H2 7903   4.299   5.353   5.114  1.0579  0.5609 -0.1017
 2647TIP3   OH2 7904   1.689   2.275   4.781 -0.2587 -0.4220  0.3581
 2647TIP3    H1 7905   1.599   2.283   4.750  0.2443 -1.7255 -1.6450
 2647TIP3    H2 7906   1.729   2.213   4.721  2.6837  1.9908 -0.4171
 2648TIP3   OH2 7907   0.152   0.330   3.852  0.2636  0.1293 -0.1172
 2648TIP3    H1 7908   0.228   0.273   3.841  1.2260  1.0044  1.5063
 2648TIP3    H2 7909   0.184   0.402   3.907 -1.5327  0.9619 -0.0872
 2649TIP3   OH2 7910   2.050   1.005   2.739 -0.1669 -0.6422 -0.1731
 2649TIP3    H1 7911   2.072   1.081   2.794 -1.1664 -1.7237  1.8515
 2649TIP3    H2 7912   2.134   0.971   2.710  0.3503  0.4494 -0.0000
 2650TIP3   OH2 7913   4.374   1.070   0.712  0.2872 -0.1798 -0.1789
 2650TIP3    H1 7914   4.299   1.077   0.654  1.3075 -0.3248 -1.5770
 2650TIP3    H2 7915   4.417   1.156   0.705  1.0469 -0.5778 -0.5657
 2651TIP3   OH2 7916   4.326   3.996   2.539 -0.1540  0.4566  0.6608
 2651TIP3    H1 7917   4.398   3.982   2.478 -1.2126  0.0752 -0.5493
 2651TIP3    H2 7918   4.320   3.915   2.589 -1.0339 -0.3293 -0.6671
 2652TIP3   OH2 7919   0.888   1.581   0.023  0.1708  0.2425 -0.2988
 2652TIP3    H1 7920   0.888   1.670   0.059  0.4256  0.9432 -1.9146
 2652TIP3    H2 7921   0.796   1.559   0.015  0.1107 -0.0737  1.0726
 2653TIP3   OH2 7922   0.675   6.542   4.885  0.2079  0.5525 -0.4313
 2653TIP3    H1 7923   0.741   6.611   4.892  0.4383  0.3394 -0.4944
 2653TIP3    H2 7924   0.604   6.570   4.944  0.1010  1.0653 -0.8051
 2654TIP3   OH2 7925   0.322   3.765   2.519  0.2840 -0.1018  0.4395
 2654TIP3    H1 7926   0.364   3.711   2.452 -0.1185 -0.1153  0.1920
 2654TIP3    H2 7927   0.257   3.706   2.559 -0.1917  0.2076  0.1331
 2655TIP3   OH2 7928   1.330   5.488   2.821 -0.5234 -0.0825  0.5035
 2655TIP3    H1 7929   1.278   5.470   2.743 -0.1455  0.5355  0.0992
 2655TIP3    H2 7930   1.289   5.565   2.861 -1.3418 -1.0098  1.4989
 2656TIP3   OH2 7931   2.464   3.801   1.367 -0.0568  0.0317 -0.3655
 2656TIP3    H1 7932   2.381   3.837   1.335  0.1999  0.0449 -1.0343
 2656TIP3    H2 7933   2.527   3.821   1.297  0.2283 -1.1423 -0.4558
 2657TIP3   OH2 7934   1.961   4.056   4.762  0.1193  0.3212  0.3729
 2657TIP3    H1 7935   1.945   4.071   4.669 -0.3144 -0.9807  0.2176
 2657TIP3    H2 7936   1.875   4.036   4.798  0.6526 -2.1697  0.4325
 2658TIP3   OH2 7937   3.508   5.918   5.073  0.0350  0.0556  0.2801
 2658TIP3    H1 7938   3.532   5.885   4.986 -0.3213 -0.4691  0.3735
 2658TIP3    H2 7939   3.531   5.847   5.133  2.0822  1.1375  0.8694
 2659TIP3   OH2 7940   4.044   4.369   1.325  0.6663  0.3515  0.3401
 2659TIP3    H1 7941   3.971   4.317   1.357  0.1929  0.9931  0.3258
 2659TIP3    H2 7942   4.122   4.326   1.361  0.2133  0.3571  1.3682
 2660TIP3   OH2 7943   2.069   2.063   0.090  0.0390 -0.0347 -0.1739
 2660TIP3    H1 7944   1.994   2.104   0.133 -0.3221 -0.0080 -0.8171
 2660TIP3    H2 7945   2.085   1.984   0.142  0.0941  0.3840  0.4622
 2661TIP3   OH2 7946   3.034   3.023   0.798 -0.5156  0.3625 -0.3683
 2661TIP3    H1 7947   3.006   3.069   0.718 -1.6840 -1.4205 -1.0451
 2661TIP3    H2 7948   2.972   2.951   0.807  1.5516 -1.4450  0.3099
 2662TIP3   OH2 7949   0.371   5.573   3.983  0.1038 -0.1546 -0.1875
 2662TIP3    H1 7950   0.358   5.620   4.066 -0.9020 -0.8367  0.0581
 2662TIP3    H2 7951   0.339   5.485   4.000  0.4762 -0.4885 -1.1286
 2663TIP3   OH2 7952   5.823   2.756   3.781 -0.2551 -0.1225  0.0263
 2663TIP3    H1 7953   5.789   2.834   3.736 -0.6690  0.2368  0.9487
 2663TIP3    H2 7954   5.746   2.703   3.799 -0.3480  0.6060  1.9503
 2664TIP3   OH2 7955   5.230   1.752   1.939 -0.1768 -0.4253 -0.8647
 2664TIP3    H1 7956   5.261   1.665   1.913  0.5194 -1.3329  2.5156
 2664TIP3    H2 7957   5.215   1.745   2.033  0.7291  3.3721 -0.2821
 2665TIP3   OH2 7958   0.920   1.103   0.117 -0.0081  0.0773 -0.6034
 2665TIP3    H1 7959   0.859   1.129   0.186  0.2498  1.9385 -1.0305
 2665TIP3    H2 7960   0.879   1.026   0.076 -0.0828 -1.1976  1.6890
 2666TIP3   OH2 7961   0.808   5.542   5.270 -0.7832 -0.4124 -0.0791
 2666TIP3    H1 7962   0.756   5.466   5.295 -1.9096  0.3349 -0.1018
 2666TIP3    H2 7963   0.796   5.550   5.176 -1.0730  0.0926  0.0005
 2667TIP3   OH2 7964   0.981   5.818   2.811  0.1483 -0.1266 -0.1504
 2667TIP3    H1 7965   1.023   5.745   2.858 -0.7921  0.8110  2.3278
 2667TIP3    H2 7966   1.053   5.875   2.786  0.8028 -1.3403 -1.1641
 2668TIP3   OH2 7967   7.149   4.799   1.218 -0.3293 -0.6615  0.0028
 2668TIP3    H1 7968   7.234   4.776   1.181 -0.8527 -1.8258 -0.5241
 2668TIP3    H2 7969   7.116   4.869   1.161  0.8370  0.7813  1.0190
 2669TIP3   OH2 7970   6.898   0.409   3.876 -0.8325 -0.1417  0.4969
 2669TIP3    H1 7971   6.935   0.491   3.843 -0.8628  0.4400  1.8221
 2669TIP3    H2 7972   6.974   0.361   3.911 -0.6893 -1.0834 -1.0227
 2670TIP3   OH2 7973   6.484   6.395   3.801 -0.5765 -0.2176  0.1884
 2670TIP3    H1 7974   6.506   6.303   3.812 -0.7145 -0.0807  1.8038
 2670TIP3    H2 7975   6.394   6.402   3.833 -0.2261  0.6486  1.0192
 2671TIP3   OH2 7976   7.023   5.783   2.562 -0.4774 -0.2795 -0.4240
 2671TIP3    H1 7977   6.972   5.739   2.630 -0.3277 -0.6382 -0.5367
 2671TIP3    H2 7978   7.010   5.729   2.484  0.0982 -0.3946 -0.4437
 2672TIP3   OH2 7979   2.005   0.227   2.372  0.1121 -0.5256  0.1119
 2672TIP3    H1 7980   2.064   0.242   2.446  0.0749 -1.1606  0.2711
 2672TIP3    H2 7981   1.925   0.192   2.410 -1.0661  1.9178  0.0903
 2673TIP3   OH2 7982   3.957   5.082   4.399  0.5255  0.0120  0.3498
 2673TIP3    H1 7983   3.952   5.175   4.378  2.0632 -0.0497 -0.4780
 2673TIP3    H2 7984   3.893   5.040   4.341  1.3129  0.3575 -0.8022
 2674TIP3   OH2 7985   4.239   0.105   0.161 -0.3695  0.5551  0.6719
 2674TIP3    H1 7986   4.300   0.130   0.231 -0.4300 -0.1565  0.9870
 2674TIP3    H2 7987   4.283   0.132   0.080 -0.0908  0.9678  0.9568
 2675TIP3   OH2 7988   0.957   4.219   4.106  0.2880 -0.3723 -0.0122
 2675TIP3    H1 7989   0.994   4.242   4.020  0.2197  0.5833  0.2026
 2675TIP3    H2 7990   0.862   4.214   4.090  0.2142  0.4522  0.1410
 2676TIP3   OH2 7991   5.500   4.712   4.747  0.6064 -0.0078 -0.0959
 2676TIP3    H1 7992   5.574   4.659   4.716  0.5498 -1.0617  1.4382
 2676TIP3    H2 7993   5.492   4.782   4.682  3.5458  0.7061  0.1347
 2677TIP3   OH2 7994   0.310   0.238   0.510 -0.0987 -0.3060 -0.1673
 2677TIP3    H1 7995   0.395   0.194   0.503 -0.6249 -1.2805 -0.6723
 2677TIP3    H2 7996   0.332   0.330   0.523  1.0509 -0.7127  1.0477
 2678TIP3   OH2 7997   3.458   0.615   5.785  0.7143 -0.2987  0.3675
 2678TIP3    H1 7998   3.490   0.611   5.695  0.4688 -0.8143  0.3026
 2678TIP3    H2 7999   3.363   0.607   5.777  0.6393  0.2410  0.6325
 2679TIP3   OH2 8000   2.342   2.590   0.605  0.0733 -0.4144 -0.7510
 2679TIP3    H1 8001   2.318   2.616   0.693 -0.2652  3.1634 -1.7580
 2679TIP3    H2 8002   2.260   2.556   0.567 -0.6620  1.2349 -0.7014
 2680TIP3   OH2 8003   5.796   5.125   0.430  0.0279  0.4726  0.6639
 2680TIP3    H1 8004   5.829   5.037   0.451  0.2725  0.0619 -1.3269
 2680TIP3    H2 8005   5.870   5.169   0.387 -1.0550  0.5386 -1.2142
 2681TIP3   OH2 8006   0.112   5.916   1.734  0.3742  0.6022 -0.6402
 2681TIP3    H1 8007   0.080   5.969   1.807  2.2288  0.0021  0.6786
 2681TIP3    H2 8008   0.153   5.840   1.775  1.1617  0.0607 -2.3207
 2682TIP3   OH2 8009   3.878   3.569   3.357  0.4798  0.2187  0.3392
 2682TIP3    H1 8010   3.881   3.660   3.327 -0.4715 -0.1549 -1.0014
 2682TIP3    H2 8011   3.894   3.574   3.451  1.0950  1.7051  0.1895
 2683TIP3   OH2 8012   4.043   5.729   1.077 -0.1545 -0.0533  0.3229
 2683TIP3    H1 8013   4.112   5.668   1.050 -0.0111  0.7925 -1.3207
 2683TIP3    H2 8014   4.075   5.815   1.050 -1.4501  0.4584  0.3597
 2684TIP3   OH2 8015   4.260   5.811   2.264 -0.7324 -0.2378  0.1266
 2684TIP3    H1 8016   4.270   5.729   2.215  0.9213  0.1778 -0.3064
 2684TIP3    H2 8017   4.326   5.805   2.333  0.3177  1.2356 -0.6951
 2685TIP3   OH2 8018   1.940   6.290   0.802  0.7921 -0.0997  0.0041
 2685TIP3    H1 8019   1.940   6.195   0.792  0.0498 -0.3383  1.9109
 2685TIP3    H2 8020   1.952   6.305   0.896  3.2777  1.7698 -0.4909
 2686TIP3   OH2 8021   1.520   1.498   1.859  0.2098  0.4055 -0.0555
 2686TIP3    H1 8022   1.456   1.520   1.926  0.3416 -0.3636  0.3340
 2686TIP3    H2 8023   1.604   1.517   1.899  0.3097 -0.4458  0.1644
 2687TIP3   OH2 8024   4.610   5.117   5.813 -1.0933  0.3424 -0.2518
 2687TIP3    H1 8025   4.610   5.213   5.808 -0.8138  0.4092  0.6999
 2687TIP3    H2 8026   4.701   5.092   5.801 -1.2657  0.1408 -1.1828
 2688TIP3   OH2 8027   5.916   5.078   4.014  0.9728  0.1539  0.0882
 2688TIP3    H1 8028   5.982   5.145   3.996  0.0871  1.3055  1.0245
 2688TIP3    H2 8029   5.968   4.999   4.033  2.0893  1.0126  0.7598
 2689TIP3   OH2 8030   0.449   0.548   5.312 -0.8332 -0.7052  0.5166
 2689TIP3    H1 8031   0.414   0.610   5.376 -0.6568 -0.1516  0.0760
 2689TIP3    H2 8032   0.530   0.516   5.352  0.4154  1.2355 -0.3384
 2690TIP3   OH2 8033   2.111   1.555   3.406  0.1098 -0.0888  0.1949
 2690TIP3    H1 8034   2.086   1.464   3.389  0.5634 -0.1180 -0.3117
 2690TIP3    H2 8035   2.182   1.548   3.470  1.2792 -0.1849 -1.0678
 2691TIP3   OH2 8036   0.510   5.566   3.226  0.2893 -0.0111  0.1548
 2691TIP3    H1 8037   0.439   5.529   3.278 -0.2204 -0.2293 -0.6608
 2691TIP3    H2 8038   0.521   5.655   3.259  0.4648 -0.3827  1.1002
 2692TIP3   OH2 8039   0.152   3.645   2.093 -0.2726 -0.0963 -0.8560
 2692TIP3    H1 8040   0.164   3.601   2.009 -2.7732 -0.2308 -1.2174
 2692TIP3    H2 8041   0.070   3.611   2.126  0.0072  0.9468  1.0504
 2693TIP3   OH2 8042   1.921   2.119   1.259  0.4917  0.1529  0.1999
 2693TIP3    H1 8043   1.965   2.128   1.344 -0.2616 -0.9139  0.7247
 2693TIP3    H2 8044   1.855   2.051   1.273 -0.0267  0.3585 -1.0960
 2694TIP3   OH2 8045   0.808   1.035   1.633  0.0267  0.5814  0.2957
 2694TIP3    H1 8046   0.881   1.043   1.695 -0.0676  1.3801  0.3124
 2694TIP3    H2 8047   0.841   0.975   1.565  0.7772  1.0870  0.2019
 2695TIP3   OH2 8048   5.564   4.347   5.440  0.3562  0.4955 -0.4031
 2695TIP3    H1 8049   5.607   4.304   5.514  1.7779  0.9435 -0.9251
 2695TIP3    H2 8050   5.636   4.389   5.392 -0.4581 -0.2057 -2.3287
 2696TIP3   OH2 8051   2.864   0.468   0.478  0.3364 -0.4990  0.6973
 2696TIP3    H1 8052   2.876   0.376   0.502  0.2005 -0.2233  1.8903
 2696TIP3    H2 8053   2.769   0.477   0.468  0.2571 -0.2714  1.5665
 2697TIP3   OH2 8054   0.550   3.376   5.517  0.0620 -0.0772  0.0958
 2697TIP3    H1 8055   0.456   3.357   5.509  0.2553 -0.6146 -1.1379
 2697TIP3    H2 8056   0.593   3.297   5.485  0.9228  0.7637 -0.9045
 2698TIP3   OH2 8057   3.593   1.777   4.249 -0.2594 -0.2721 -0.1402
 2698TIP3    H1 8058   3.549   1.692   4.246  0.0953 -0.4379 -1.5356
 2698TIP3    H2 8059   3.541   1.833   4.191  0.6673 -0.1235 -0.8379
 2699TIP3   OH2 8060   5.634   2.465   5.636 -0.4127  0.3608  0.1405
 2699TIP3    H1 8061   5.603   2.442   5.548 -0.2812  0.6024  0.0312
 2699TIP3    H2 8062   5.726   2.488   5.624 -0.4222  0.4957  0.3252
 2700TIP3   OH2 8063   1.860   1.720   5.692 -0.0578  0.1830 -0.1390
 2700TIP3    H1 8064   1.852   1.636   5.646  0.1333 -0.4628  0.9646
 2700TIP3    H2 8065   1.935   1.762   5.652  1.5347 -1.3746  1.0514
 2701TIP3   OH2 8066   2.589   4.464   3.995  0.3356  0.2153  0.3944
 2701TIP3    H1 8067   2.624   4.553   3.991  0.9651 -0.0544 -0.3436
 2701TIP3    H2 8068   2.664   4.409   4.016  0.1646 -0.2519 -0.1669
 2702TIP3   OH2 8069   0.937   6.442   2.092 -0.3137 -0.0855  0.5530
 2702TIP3    H1 8070   0.874   6.514   2.095 -0.2040  0.0928 -0.9423
 2702TIP3    H2 8071   1.022   6.483   2.106 -0.2719  0.0487 -0.0863
 2703TIP3   OH2 8072   6.732   1.342   5.853  0.5003 -0.2943  0.2031
 2703TIP3    H1 8073   6.724   1.436   5.836 -2.2788 -0.3786  0.4467
 2703TIP3    H2 8074   6.751   1.336   5.946 -0.9088  0.0684  0.5440
 2704TIP3   OH2 8075   6.071   0.154   0.882  0.3731 -0.3599  0.3999
 2704TIP3    H1 8076   5.984   0.172   0.845 -0.3713  0.6924  2.5175
 2704TIP3    H2 8077   6.108   0.241   0.898  2.4544 -0.7480 -1.6809
 2705TIP3   OH2 8078   3.431   3.358   1.142 -0.1398 -0.2094  0.1197
 2705TIP3    H1 8079   3.498   3.289   1.147  0.5563  0.3095 -1.2395
 2705TIP3    H2 8080   3.480   3.439   1.158 -0.4686  0.1522 -0.6406
 2706TIP3   OH2 8081   3.397   2.178   3.405  0.2030 -0.4196 -0.2247
 2706TIP3    H1 8082   3.463   2.222   3.458 -0.2085  0.7038 -0.5925
 2706TIP3    H2 8083   3.446   2.120   3.347  0.8121 -0.0874 -0.0487
 2707TIP3   OH2 8084   4.301   2.538   2.847  0.3314 -0.1891  0.4111
 2707TIP3    H1 8085   4.279   2.556   2.938  0.9402 -2.3538  1.0451
 2707TIP3    H2 8086   4.396   2.528   2.847  0.2014 -1.6656 -0.1445
 2708TIP3   OH2 8087   0.305   4.957   2.533 -0.0731  0.3643 -0.3749
 2708TIP3    H1 8088   0.296   5.019   2.606 -0.9235  1.5971 -1.4863
 2708TIP3    H2 8089   0.257   4.879   2.562 -1.3111  1.2326 -0.0213
 2709TIP3   OH2 8090   1.409   4.206   5.872 -0.6531 -0.8509  0.7958
 2709TIP3    H1 8091   1.435   4.188   5.962  0.1826 -0.4367  0.6473
 2709TIP3    H2 8092   1.477   4.166   5.818  0.9462  2.0721  0.4523
 2710TIP3   OH2 8093   1.654   5.749   0.796  0.3936 -0.1110  0.0705
 2710TIP3    H1 8094   1.749   5.735   0.793  0.6081  1.0329 -3.3282
 2710TIP3    H2 8095   1.622   5.716   0.712 -2.1260  0.1975  0.8100
 2711TIP3   OH2 8096   0.557   6.382   5.464 -0.7280 -0.0628 -0.0700
 2711TIP3    H1 8097   0.630   6.378   5.526 -1.8347 -1.4255  1.2398
 2711TIP3    H2 8098   0.491   6.323   5.501 -1.9400  0.0236 -1.9355
 2712TIP3   OH2 8099   5.619   0.743   0.435  0.0207 -0.1820 -0.4120
 2712TIP3    H1 8100   5.632   0.747   0.530 -0.9435 -0.6821 -0.2457
 2712TIP3    H2 8101   5.632   0.832   0.404  0.4273 -0.0339  0.1749
 2713TIP3   OH2 8102   0.835   1.648   4.463 -0.3217 -0.1597 -0.1413
 2713TIP3    H1 8103   0.784   1.687   4.392  0.5289  0.0352 -0.6563
 2713TIP3    H2 8104   0.769   1.607   4.520 -1.1033  0.6936 -0.4062
 2714TIP3   OH2 8105   0.134   2.392   1.034  0.5010 -0.3540 -0.1481
 2714TIP3    H1 8106   0.103   2.482   1.022  0.2057 -0.3929  0.2993
 2714TIP3    H2 8107   0.123   2.351   0.949  0.6855  0.0468 -0.3709
 2715TIP3   OH2 8108   4.310   0.463   1.141  0.6310  0.4803  0.7815
 2715TIP3    H1 8109   4.310   0.551   1.105  0.3532 -0.1425 -0.8095
 2715TIP3    H2 8110   4.230   0.423   1.107  1.4284 -0.8130  0.3507
 2716TIP3   OH2 8111   3.006   0.373   1.929 -0.3384  0.0462 -0.1186
 2716TIP3    H1 8112   2.973   0.340   2.012 -0.6353 -0.1607 -0.3161
 2716TIP3    H2 8113   2.934   0.426   1.894  0.1960  1.0691  0.2802
 2717TIP3   OH2 8114   4.465   3.016   3.587  0.7117 -0.2902 -0.2623
 2717TIP3    H1 8115   4.557   3.019   3.614  0.2690  0.1257  1.2944
 2717TIP3    H2 8116   4.465   2.959   3.510  2.0718 -1.6015  0.6352
 2718TIP3   OH2 8117   5.697   5.460   2.947 -0.4565  0.9041 -0.7532
 2718TIP3    H1 8118   5.686   5.390   3.012  0.2180  0.7045 -0.8432
 2718TIP3    H2 8119   5.686   5.416   2.863 -0.2340  0.9500 -0.8051
 2719TIP3   OH2 8120   2.260   4.257   4.705 -0.2562 -0.0374  0.2310
 2719TIP3    H1 8121   2.247   4.348   4.732 -1.3903 -0.4115  1.0186
 2719TIP3    H2 8122   2.204   4.248   4.628 -0.0869 -0.0580  0.1095
 2720TIP3   OH2 8123   1.322   0.222   2.889 -0.1802 -0.4261  0.1652
 2720TIP3    H1 8124   1.232   0.226   2.857 -0.7723 -1.2915  1.6301
 2720TIP3    H2 8125   1.318   0.260   2.977  1.2100  1.0148 -0.3413
 2721TIP3   OH2 8126   0.705   5.888   3.917  0.3196 -0.4973  0.0359
 2721TIP3    H1 8127   0.764   5.850   3.852  1.8622 -1.9849  2.1647
 2721TIP3    H2 8128   0.760   5.951   3.964  0.3629 -2.0580  2.2035
 2722TIP3   OH2 8129   4.655   0.004   4.736  0.1039 -0.5414  0.3578
 2722TIP3    H1 8130   4.732   0.026   4.789  0.6419 -0.2310 -0.5182
 2722TIP3    H2 8131   4.637   0.084   4.686  0.0607 -1.0406 -0.4430
 2723TIP3   OH2 8132   6.466   5.593   4.738  0.2649 -0.2952 -0.5458
 2723TIP3    H1 8133   6.547   5.593   4.790 -0.7260 -1.1790  1.0484
 2723TIP3    H2 8134   6.415   5.665   4.773  1.4704  2.2349 -3.5170
 2724TIP3   OH2 8135   4.176   6.322   1.848  0.3047 -0.3138 -0.4763
 2724TIP3    H1 8136   4.254   6.351   1.800  0.3279  0.2664 -0.1115
 2724TIP3    H2 8137   4.201   6.237   1.884  1.2117  0.3683  0.5889
 2725TIP3   OH2 8138   1.216   5.985   4.898 -0.4867 -0.4241 -1.1687
 2725TIP3    H1 8139   1.167   6.025   4.826  0.2234 -0.1487 -1.5052
 2725TIP3    H2 8140   1.261   6.059   4.939 -1.1170 -0.5358 -0.2503
 2726TIP3   OH2 8141   5.342   3.869   2.220  1.1016 -0.3603 -0.2499
 2726TIP3    H1 8142   5.323   3.922   2.297 -1.7478  0.2487 -1.2369
 2726TIP3    H2 8143   5.339   3.779   2.251  1.8597 -0.0760  0.6838
 2727TIP3   OH2 8144   6.478   6.647   2.500  0.1377 -0.2485 -0.0616
 2727TIP3    H1 8145   6.549   6.582   2.500 -0.5123 -0.9934 -1.1122
 2727TIP3    H2 8146   6.457   6.659   2.408  0.7975  2.1254  0.0419
 2728TIP3   OH2 8147   2.819   5.577   2.055 -0.3659  0.6402  0.2107
 2728TIP3    H1 8148   2.739   5.575   2.108 -0.1665  2.7020  0.6933
 2728TIP3    H2 8149   2.800   5.641   1.986  0.1248 -0.4637 -0.9986
 2729TIP3   OH2 8150   0.629   2.990   3.421 -0.3121  0.3357 -0.4373
 2729TIP3    H1 8151   0.708   2.954   3.462 -0.1910  1.4037  0.3157
 2729TIP3    H2 8152   0.559   2.931   3.448  0.0311  0.0979 -0.0474
 2730TIP3   OH2 8153   6.231   2.389   3.913  0.0173  0.1931 -0.3031
 2730TIP3    H1 8154   6.265   2.406   4.001  0.3393  1.0013 -0.5773
 2730TIP3    H2 8155   6.247   2.295   3.900  0.4557  0.1719  0.2928
 2731TIP3   OH2 8156   2.691   4.983   5.324 -0.0751 -0.2665  0.5459
 2731TIP3    H1 8157   2.648   4.974   5.409 -0.5793  1.0754  0.4675
 2731TIP3    H2 8158   2.695   5.078   5.309 -1.4645 -0.4737 -1.6517
 2732TIP3   OH2 8159   4.806   5.615   0.342 -0.0999  0.7224  0.0056
 2732TIP3    H1 8160   4.712   5.614   0.322  0.0466  2.5167 -0.9540
 2732TIP3    H2 8161   4.811   5.655   0.429 -0.1679  2.0415 -0.5728
 2733TIP3   OH2 8162   5.337   4.739   2.977  0.7733  0.1809  0.1097
 2733TIP3    H1 8163   5.340   4.674   3.048 -1.2681 -1.7079 -1.3795
 2733TIP3    H2 8164   5.398   4.704   2.911  0.5651  0.4240 -0.2092
 2734TIP3   OH2 8165   5.301   4.298   5.159 -0.3189 -0.0094 -0.2776
 2734TIP3    H1 8166   5.369   4.286   5.092  1.2321 -0.5474  1.3192
 2734TIP3    H2 8167   5.340   4.360   5.221 -1.0436 -0.7750  0.9784
 2735TIP3   OH2 8168   4.631   1.141   2.502 -0.2927 -0.5747 -0.2519
 2735TIP3    H1 8169   4.599   1.086   2.431 -1.2211  0.8727 -0.9912
 2735TIP3    H2 8170   4.578   1.220   2.497  2.2038  1.1983 -0.4054
 2736TIP3   OH2 8171   3.529   1.871   2.573  0.4732 -0.3257  0.3926
 2736TIP3    H1 8172   3.616   1.831   2.567  0.6153 -0.0190  0.3727
 2736TIP3    H2 8173   3.537   1.935   2.644  0.6183  0.5535 -0.3943
 2737TIP3   OH2 8174   2.142   4.632   1.674 -0.1424  0.2634 -0.0770
 2737TIP3    H1 8175   2.205   4.560   1.683  0.0175  0.6803  3.5119
 2737TIP3    H2 8176   2.126   4.638   1.579  2.0553 -2.5251 -0.7660
 2738TIP3   OH2 8177   0.309   6.408   5.840  0.4036  0.2135 -0.7231
 2738TIP3    H1 8178   0.359   6.486   5.866  0.5074 -0.5689  1.7654
 2738TIP3    H2 8179   0.336   6.342   5.904 -2.5019 -0.7584 -0.3782
 2739TIP3   OH2 8180   6.857   2.350   5.809 -0.4866  0.1839 -0.0604
 2739TIP3    H1 8181   6.793   2.281   5.824 -1.0595  0.5195 -0.9104
 2739TIP3    H2 8182   6.926   2.308   5.757  0.9230 -0.6628  2.3103
 2740TIP3   OH2 8183   1.513   5.628   4.099  0.4965 -0.0267 -0.0256
 2740TIP3    H1 8184   1.463   5.575   4.160 -1.1911  0.2284 -1.1372
 2740TIP3    H2 8185   1.525   5.573   4.022 -0.7861  0.9398 -0.9688
 2741TIP3   OH2 8186   4.264   5.927   5.068 -0.5400 -0.7158 -0.5990
 2741TIP3    H1 8187   4.322   5.852   5.078 -2.8196 -2.5553 -0.3199
 2741TIP3    H2 8188   4.305   5.996   5.120  1.1808 -2.0077 -0.1474
 2742TIP3   OH2 8189   5.171   1.149   0.502 -0.1171 -0.4662  0.3183
 2742TIP3    H1 8190   5.222   1.141   0.582 -0.4458  0.2237  0.6059
 2742TIP3    H2 8191   5.091   1.193   0.529  0.3442  1.0245 -0.6075
 2743TIP3   OH2 8192   4.720   5.518   4.263  0.4246  0.2253  0.1831
 2743TIP3    H1 8193   4.697   5.561   4.181 -2.3659 -2.1097 -0.4181
 2743TIP3    H2 8194   4.749   5.430   4.236 -2.3525 -1.2661  1.6464
 2744TIP3   OH2 8195   3.164   3.462   1.039  0.0943 -0.0803  0.0118
 2744TIP3    H1 8196   3.259   3.458   1.049  0.2134 -0.5750 -1.1090
 2744TIP3    H2 8197   3.137   3.370   1.032 -0.3743  0.0802 -0.3791
 2745TIP3   OH2 8198   3.490   4.289   2.068 -0.2004 -0.0573  0.0557
 2745TIP3    H1 8199   3.537   4.310   1.987  1.2879 -0.5934  0.7301
 2745TIP3    H2 8200   3.543   4.220   2.109 -0.2149  1.0595  2.0852
 2746TIP3   OH2 8201   7.118   3.514   1.559 -0.0528  0.0822  0.2156
 2746TIP3    H1 8202   7.059   3.466   1.500 -3.1394  1.7456  1.7027
 2746TIP3    H2 8203   7.126   3.600   1.519  1.1665 -0.0052  0.2311
 2747TIP3   OH2 8204   0.945   4.071   1.315  0.3600  0.2718  0.1338
 2747TIP3    H1 8205   1.036   4.045   1.305  0.0024 -1.3989  0.8264
 2747TIP3    H2 8206   0.940   4.159   1.278  1.8585 -0.3011 -1.5379
 2748TIP3   OH2 8207   4.667   5.872   0.905  0.0016  0.1885 -0.3172
 2748TIP3    H1 8208   4.613   5.873   0.983 -0.4439  2.6270 -0.5706
 2748TIP3    H2 8209   4.746   5.920   0.930  1.9334 -2.8319 -0.1123
 2749TIP3   OH2 8210   0.763   5.445   2.170 -0.4099  0.2190  0.0398
 2749TIP3    H1 8211   0.841   5.455   2.116 -0.0737  2.1667  0.7932
 2749TIP3    H2 8212   0.774   5.359   2.212  0.6242 -0.1436 -0.9119
 2750TIP3   OH2 8213   2.869   0.781   4.599  0.0795 -0.4057 -0.1079
 2750TIP3    H1 8214   2.960   0.771   4.626 -0.0551 -2.6513 -0.3374
 2750TIP3    H2 8215   2.821   0.720   4.654 -1.1214 -0.1569 -0.8560
 2751TIP3   OH2 8216   0.291   6.325   4.771  0.1790  0.5804  0.3223
 2751TIP3    H1 8217   0.345   6.348   4.695 -0.9962  2.3298 -0.0491
 2751TIP3    H2 8218   0.235   6.253   4.740  0.5832  0.4341 -0.0723
 2752TIP3   OH2 8219   2.071   6.579   3.208 -0.0899 -0.2954  0.4857
 2752TIP3    H1 8220   2.061   6.522   3.284  0.7496 -0.3062  0.5967
 2752TIP3    H2 8221   2.155   6.623   3.221 -1.1944  1.7901  0.9398
 2753TIP3   OH2 8222   4.081   3.824   4.534  0.5494 -0.7379 -0.1222
 2753TIP3    H1 8223   4.054   3.838   4.443 -0.4390  0.3631  0.3134
 2753TIP3    H2 8224   4.001   3.795   4.578  0.6598  0.1553  0.6870
 2754TIP3   OH2 8225   4.680   5.990   0.659 -0.2007  0.1621  0.0288
 2754TIP3    H1 8226   4.643   5.959   0.741 -0.1795  0.7935  0.2869
 2754TIP3    H2 8227   4.717   5.912   0.618 -1.8146 -0.4853 -0.2427
 2755TIP3   OH2 8228   0.114   1.280   1.734  0.1644  0.1664 -0.0461
 2755TIP3    H1 8229   0.135   1.372   1.749 -0.1257  0.0687  1.0207
 2755TIP3    H2 8230   0.142   1.264   1.643  1.0107  1.0723  0.0309
 2756TIP3   OH2 8231   2.836   1.869   5.468  0.0822 -0.3446 -0.1567
 2756TIP3    H1 8232   2.825   1.814   5.390 -0.3587 -1.4373  0.6488
 2756TIP3    H2 8233   2.888   1.814   5.528  0.9696  0.7243  0.0894
 2757TIP3   OH2 8234   6.831   0.966   3.774  0.1994  0.5934 -0.2290
 2757TIP3    H1 8235   6.774   1.042   3.760  0.6423  0.9046 -0.3634
 2757TIP3    H2 8236   6.778   0.891   3.747 -0.9229  0.6493  1.6381
 2758TIP3   OH2 8237   1.819   4.988   5.177 -0.1871 -0.9373 -0.3174
 2758TIP3    H1 8238   1.784   4.927   5.242 -2.6249  0.3527 -0.3151
 2758TIP3    H2 8239   1.758   5.062   5.177  3.0504  2.0251  0.3281
 2759TIP3   OH2 8240   0.411   4.986   3.830 -0.4049 -0.1662  0.1766
 2759TIP3    H1 8241   0.327   4.942   3.819 -0.1153 -1.0463  1.2612
 2759TIP3    H2 8242   0.460   4.929   3.891  0.6360  0.7763  0.2499
 2760TIP3   OH2 8243   3.997   5.684   4.836  0.5848 -0.1355 -0.4488
 2760TIP3    H1 8244   4.079   5.730   4.821  0.8670 -0.7211 -0.7315
 2760TIP3    H2 8245   4.021   5.591   4.834  0.1809 -0.2906  0.9517
 2761TIP3   OH2 8246   3.352   3.836   5.270 -0.5067  0.2238 -0.4626
 2761TIP3    H1 8247   3.288   3.903   5.245 -2.5737 -1.0478  1.1367
 2761TIP3    H2 8248   3.387   3.805   5.186 -0.8602  1.9938 -1.3110
 2762TIP3   OH2 8249   6.022   2.187   4.115 -0.0204 -0.3115 -0.2619
 2762TIP3    H1 8250   5.939   2.145   4.140  0.8526 -1.4764  0.7685
 2762TIP3    H2 8251   6.001   2.281   4.114 -0.7736 -0.3672  2.4716
 2763TIP3   OH2 8252   6.498   5.879   1.890 -0.2636 -0.3454  0.1367
 2763TIP3    H1 8253   6.542   5.865   1.974 -0.6003 -0.5829  0.2774
 2763TIP3    H2 8254   6.422   5.932   1.911 -0.6278 -0.8370  0.0605
 2764TIP3   OH2 8255   2.159   1.645   5.489 -0.3797  0.1059  0.6420
 2764TIP3    H1 8256   2.111   1.589   5.549 -3.1104  1.0820 -0.4554
 2764TIP3    H2 8257   2.122   1.733   5.503  1.2776  0.9731 -0.1345
 2765TIP3   OH2 8258   2.110   0.899   0.541  0.1507 -0.3872  0.6268
 2765TIP3    H1 8259   2.017   0.882   0.556 -0.2292 -1.4707 -2.3664
 2765TIP3    H2 8260   2.117   0.994   0.539 -1.2816 -0.2764 -0.9974
 2766TIP3   OH2 8261   0.602   4.855   4.023 -0.4963  0.2872 -0.2133
 2766TIP3    H1 8262   0.641   4.819   4.103  1.3209  0.7577 -0.8356
 2766TIP3    H2 8263   0.626   4.792   3.955 -0.9847  0.5211 -0.6060
 2767TIP3   OH2 8264   4.371   1.149   1.673  0.0752 -0.3302 -0.3594
 2767TIP3    H1 8265   4.459   1.115   1.688  0.2996 -0.0901 -1.0659
 2767TIP3    H2 8266   4.359   1.145   1.578 -1.1159 -1.4365 -0.1899
 2768TIP3   OH2 8267   6.519   4.058   2.303  0.2579  0.2884  0.1266
 2768TIP3    H1 8268   6.480   4.119   2.366  0.6141  0.2294  0.4059
 2768TIP3    H2 8269   6.613   4.065   2.318  0.3233  0.0115 -0.1568
 2769TIP3   OH2 8270   6.535   0.695   2.397 -0.2615 -0.0075  0.0407
 2769TIP3    H1 8271   6.441   0.679   2.394 -0.3566  0.4505  0.5095
 2769TIP3    H2 8272   6.543   0.789   2.412  0.2692 -0.0451  0.0062
 2770TIP3   OH2 8273   0.902   3.157   0.672 -1.2472  0.2768 -0.2088
 2770TIP3    H1 8274   0.871   3.135   0.760 -0.0020  0.1883  0.2296
 2770TIP3    H2 8275   0.922   3.251   0.676  1.7811 -0.3134  0.5937
 2771TIP3   OH2 8276   4.303   3.148   2.237 -0.0766  0.0164  0.1970
 2771TIP3    H1 8277   4.380   3.190   2.199 -0.4172  0.1437 -0.3599
 2771TIP3    H2 8278   4.271   3.089   2.169 -0.1043 -0.5065  0.6622
 2772TIP3   OH2 8279   6.458   3.608   1.174 -0.2532 -0.1998 -0.1825
 2772TIP3    H1 8280   6.537   3.558   1.154 -0.6188 -1.4454  1.3033
 2772TIP3    H2 8281   6.478   3.697   1.145  1.0514 -0.8390 -1.3442
 2773TIP3   OH2 8282   6.367   1.335   4.200  0.6561 -0.0070 -0.5656
 2773TIP3    H1 8283   6.329   1.249   4.179 -0.3858 -0.4662  2.6181
 2773TIP3    H2 8284   6.458   1.316   4.222  1.0598  0.1013 -2.0636
 2774TIP3   OH2 8285   3.083   5.536   5.668 -0.3804 -0.6022 -0.0294
 2774TIP3    H1 8286   3.076   5.448   5.707  0.7733 -0.4742  0.5013
 2774TIP3    H2 8287   3.127   5.521   5.584  0.2486 -0.4707  0.2789
 2775TIP3   OH2 8288   6.899   3.729   5.346  0.7071 -0.4507  0.1264
 2775TIP3    H1 8289   6.868   3.739   5.256  3.7784 -2.3719 -1.3248
 2775TIP3    H2 8290   6.886   3.815   5.386  0.3010  0.8149 -2.5349
 2776TIP3   OH2 8291   0.998   1.768   3.633  0.1829 -0.1175 -0.3120
 2776TIP3    H1 8292   1.088   1.775   3.665  0.1648 -0.5395 -0.1707
 2776TIP3    H2 8293   0.953   1.844   3.671  1.1052  1.6618 -2.5247
 2777TIP3   OH2 8294   5.619   3.922   4.267  0.1319  0.0789  0.6214
 2777TIP3    H1 8295   5.560   3.995   4.245  0.4886  0.0727 -0.3958
 2777TIP3    H2 8296   5.597   3.900   4.358 -1.6870 -0.1574  0.1594
 2778TIP3   OH2 8297   6.805   6.375   2.022  0.1860 -0.5135  0.1195
 2778TIP3    H1 8298   6.855   6.395   1.943 -0.0721 -1.2460 -0.2346
 2778TIP3    H2 8299   6.847   6.298   2.058  0.0853 -0.3874  0.5054
 2779TIP3   OH2 8300   6.317   1.632   5.336 -0.9668 -0.2929  0.2019
 2779TIP3    H1 8301   6.243   1.602   5.389 -0.2122 -1.3985  0.6738
 2779TIP3    H2 8302   6.394   1.607   5.387 -0.2620  0.7877 -0.3117
 2780TIP3   OH2 8303   5.945   3.298   3.256 -0.3247  0.0711 -0.0816
 2780TIP3    H1 8304   5.860   3.288   3.300 -1.2358 -0.8355 -1.9567
 2780TIP3    H2 8305   6.009   3.294   3.328 -1.8020  0.0220  1.3014
 2781TIP3   OH2 8306   4.480   2.996   2.398  0.2550  0.0852 -0.3180
 2781TIP3    H1 8307   4.404   3.022   2.346 -0.6179 -0.8952  0.4181
 2781TIP3    H2 8308   4.550   2.983   2.334  0.3049  2.5969 -0.8660
 2782TIP3   OH2 8309   0.293   1.484   2.760  0.5168  0.4881 -0.3636
 2782TIP3    H1 8310   0.286   1.577   2.781  0.9691  0.0489  2.1244
 2782TIP3    H2 8311   0.203   1.456   2.744  0.1428  1.0183  0.6879
 2783TIP3   OH2 8312   3.744   4.188   3.223  0.2109 -0.5808  0.1352
 2783TIP3    H1 8313   3.831   4.201   3.261  0.1268 -1.6560  0.7271
 2783TIP3    H2 8314   3.692   4.152   3.295 -0.0091 -2.4914 -0.9403
 2784TIP3   OH2 8315   1.524   1.076   4.181 -0.2556  0.3526  0.5394
 2784TIP3    H1 8316   1.539   1.013   4.111 -1.2255  2.0318 -1.3056
 2784TIP3    H2 8317   1.429   1.093   4.178 -0.7581 -1.1884  3.8427
 2785TIP3   OH2 8318   2.438   6.613   3.498  0.1720 -0.5817  0.0951
 2785TIP3    H1 8319   2.346   6.602   3.476 -0.2254  0.9630  0.8450
 2785TIP3    H2 8320   2.479   6.642   3.417 -0.0686 -0.9293 -0.1520
 2786TIP3   OH2 8321   2.412   1.151   0.045  0.0005  0.1881 -0.3988
 2786TIP3    H1 8322   2.474   1.212   0.005 -1.6664  0.2672 -3.0695
 2786TIP3    H2 8323   2.420   1.071  -0.007  0.4397 -1.1205  1.5591
 2787TIP3   OH2 8324   3.315   2.768   4.199  0.1603 -0.3880 -0.7945
 2787TIP3    H1 8325   3.369   2.689   4.202 -1.4811 -1.5584 -0.6598
 2787TIP3    H2 8326   3.329   2.810   4.284 -0.0432 -1.2927 -0.3109
 2788TIP3   OH2 8327   7.089   3.787   2.822 -0.3948  0.1890 -0.1230
 2788TIP3    H1 8328   7.122   3.850   2.885  1.3058 -0.0433 -0.7274
 2788TIP3    H2 8329   7.112   3.701   2.858 -1.4509 -0.0477  0.0245
 2789TIP3   OH2 8330   1.497   3.607   5.362 -0.4837  0.0405  0.1193
 2789TIP3    H1 8331   1.525   3.520   5.390  0.3020  1.1458  3.2241
 2789TIP3    H2 8332   1.575   3.645   5.321  0.0012  0.1647  1.1298
 2790TIP3   OH2 8333   3.496   6.643   5.121  0.3414 -0.0035  0.0914
 2790TIP3    H1 8334   3.556   6.707   5.085  1.5757 -0.5740  1.0849
 2790TIP3    H2 8335   3.411   6.687   5.121  1.0281  1.3690  0.1139
 2791TIP3   OH2 8336   6.473   4.882   4.211  0.1735  0.3588  0.1293
 2791TIP3    H1 8337   6.543   4.883   4.145  1.8006  3.2379  1.7279
 2791TIP3    H2 8338   6.503   4.819   4.276 -1.4908 -2.5822 -1.7155
 2792TIP3   OH2 8339   1.735   1.975   1.371 -0.5002 -0.1845 -0.3204
 2792TIP3    H1 8340   1.644   2.004   1.368 -1.2229 -1.8774  2.1250
 2792TIP3    H2 8341   1.733   1.888   1.331 -0.0575 -0.4015  0.1167
 2793TIP3   OH2 8342   1.940   2.385   1.166  0.1476  0.0161 -0.1239
 2793TIP3    H1 8343   1.951   2.437   1.245  1.1758 -0.3863  0.0070
 2793TIP3    H2 8344   1.946   2.294   1.196 -0.1508 -0.1550 -0.5658
 2794TIP3   OH2 8345   0.417   5.620   5.873 -0.2611  0.0942  0.1475
 2794TIP3    H1 8346   0.411   5.628   5.777 -1.2743  0.9685  0.2639
 2794TIP3    H2 8347   0.418   5.525   5.889  0.0755 -0.0617 -0.7310
 2795TIP3   OH2 8348   5.880   2.612   0.607 -0.3149  0.5651 -0.2500
 2795TIP3    H1 8349   5.844   2.548   0.547  1.0868  1.0236 -1.6310
 2795TIP3    H2 8350   5.956   2.569   0.647 -1.0939  0.3466  1.0595
 2796TIP3   OH2 8351   7.014   2.273   1.994  0.6050  0.3812 -0.0304
 2796TIP3    H1 8352   7.074   2.201   1.974  0.2567  0.4899 -1.5988
 2796TIP3    H2 8353   7.061   2.352   1.968 -0.6185  0.3858 -2.5489
 2797TIP3   OH2 8354   2.514   0.221   3.259 -0.2134  0.0840  0.1812
 2797TIP3    H1 8355   2.435   0.182   3.296  0.5230 -1.5352  0.1496
 2797TIP3    H2 8356   2.563   0.147   3.223  0.1677  1.3336 -2.0616
 2798TIP3   OH2 8357   6.994   0.426   4.295 -0.3698  0.2156 -0.7736
 2798TIP3    H1 8358   6.905   0.425   4.260 -0.8972  2.1557  0.3312
 2798TIP3    H2 8359   7.038   0.497   4.246  0.3095 -0.1494 -0.7091
 2799TIP3   OH2 8360   5.719   4.538   5.675  0.5883  0.1253  0.2848
 2799TIP3    H1 8361   5.656   4.609   5.664  0.5331 -0.2738 -3.5508
 2799TIP3    H2 8362   5.686   4.486   5.748 -0.8659  2.4969  1.4046
 2800TIP3   OH2 8363   6.534   6.377   1.927  0.1069  0.5461  0.1132
 2800TIP3    H1 8364   6.625   6.368   1.956  0.0462  0.1451  0.1826
 2800TIP3    H2 8365   6.483   6.330   1.994 -0.0956  0.2360 -0.2576
 2801TIP3   OH2 8366   3.093   0.751   3.042  0.1235  0.2080  0.1715
 2801TIP3    H1 8367   3.063   0.786   3.126  0.6800 -0.1497  0.5304
 2801TIP3    H2 8368   3.181   0.717   3.060  0.7530  1.2357 -0.8449
 2802TIP3   OH2 8369   3.376   4.742   4.661 -0.1000  0.0044  0.0623
 2802TIP3    H1 8370   3.455   4.727   4.609 -1.3539 -0.0575 -1.9575
 2802TIP3    H2 8371   3.339   4.655   4.674 -0.2344  0.1036  0.3494
 2803TIP3   OH2 8372   5.513   0.353   2.512  0.3513 -0.1930  0.1802
 2803TIP3    H1 8373   5.419   0.363   2.497  0.5634  0.6854 -0.6915
 2803TIP3    H2 8374   5.534   0.266   2.477 -0.2517 -0.7138  1.0698
 2804TIP3   OH2 8375   0.681   2.565   4.818 -0.0556  0.0004  0.0998
 2804TIP3    H1 8376   0.768   2.562   4.858 -0.2484  1.3831  0.6789
 2804TIP3    H2 8377   0.637   2.486   4.850  0.9085 -0.6168 -0.0523
 2805TIP3   OH2 8378   1.013   2.788   4.601  0.4459  0.4215  0.1805
 2805TIP3    H1 8379   1.108   2.797   4.611  0.7786 -1.2375 -1.0734
 2805TIP3    H2 8380   1.002   2.711   4.546 -1.6252  0.9831 -0.2735
 2806TIP3   OH2 8381   3.525   1.560   1.179 -0.0571  0.2827 -0.5432
 2806TIP3    H1 8382   3.451   1.542   1.237 -0.0392  0.5710 -0.4281
 2806TIP3    H2 8383   3.489   1.621   1.114 -0.2480 -0.5302 -1.2118
 2807TIP3   OH2 8384   1.917   6.375   2.625  0.4973 -0.1524  0.6391
 2807TIP3    H1 8385   1.878   6.355   2.710  0.2591 -3.1174 -0.0731
 2807TIP3    H2 8386   1.946   6.291   2.591  4.2139  1.4072 -0.5343
 2808TIP3   OH2 8387   0.026   6.123   1.963  0.0749  0.9624  0.5610
 2808TIP3    H1 8388  -0.020   6.074   2.031  1.1798 -1.7338 -0.5156
 2808TIP3    H2 8389   0.007   6.215   1.983 -3.4206  0.1308  1.7838
 2809TIP3   OH2 8390   1.114   0.555   3.280 -0.6121  0.3249  0.2008
 2809TIP3    H1 8391   1.052   0.617   3.243  0.7935  1.2954 -0.6264
 2809TIP3    H2 8392   1.191   0.608   3.302 -0.3112 -0.7080  1.8742
 2810TIP3   OH2 8393   5.766   4.633   4.672 -0.0869  0.4403 -0.7134
 2810TIP3    H1 8394   5.857   4.605   4.668 -0.7627 -1.8363 -1.1937
 2810TIP3    H2 8395   5.767   4.723   4.638  1.6667 -0.3049 -2.7931
 2811TIP3   OH2 8396   3.838   1.822   4.133  0.3937  0.0813  0.0362
 2811TIP3    H1 8397   3.910   1.783   4.183 -1.6037 -2.2454  1.3208
 2811TIP3    H2 8398   3.771   1.841   4.199 -1.0101  0.1196 -1.3472
 2812TIP3   OH2 8399   1.200   3.132   3.356 -0.2448  0.1569  0.2495
 2812TIP3    H1 8400   1.146   3.126   3.278  0.6700 -1.3512 -0.3219
 2812TIP3    H2 8401   1.275   3.186   3.330  0.1081 -0.4254  0.0354
 2813TIP3   OH2 8402   4.989   0.859   3.409 -0.2844 -0.2758 -0.6418
 2813TIP3    H1 8403   5.056   0.803   3.371 -0.5626 -0.4004 -0.9591
 2813TIP3    H2 8404   4.952   0.906   3.334 -0.2719  0.0932 -0.4188
 2814TIP3   OH2 8405   1.720   6.448   5.523  0.6823 -0.1805  0.7303
 2814TIP3    H1 8406   1.803   6.476   5.487 -0.3988  0.5426 -1.3687
 2814TIP3    H2 8407   1.694   6.373   5.469  0.2780 -0.8619  1.8163
 2815TIP3   OH2 8408   1.401   4.981   4.859 -0.0670 -0.6723  0.3332
 2815TIP3    H1 8409   1.347   4.992   4.937  0.4549 -1.9761  0.9163
 2815TIP3    H2 8410   1.485   4.950   4.893  0.3915 -0.5930 -0.6989
 2816TIP3   OH2 8411   5.372   4.002   4.474 -0.6314  0.6571  0.2732
 2816TIP3    H1 8412   5.335   3.916   4.496  0.4238  0.2185  0.4070
 2816TIP3    H2 8413   5.353   4.013   4.381 -2.3615  1.1126  0.6482
 2817TIP3   OH2 8414   1.384   1.307   3.037  0.3514  0.0783  0.0169
 2817TIP3    H1 8415   1.381   1.381   2.975 -0.0817 -0.6149 -0.8134
 2817TIP3    H2 8416   1.473   1.308   3.071  0.1482  1.4298  0.5836
 2818TIP3   OH2 8417   4.072   1.965   3.577 -0.3945  0.3139  0.0316
 2818TIP3    H1 8418   4.039   1.994   3.662 -1.1814 -1.1478  0.2505
 2818TIP3    H2 8419   4.165   1.988   3.578 -0.6037  1.1694  0.8941
 2819TIP3   OH2 8420   4.181   5.339   4.402 -0.2116 -0.2230  0.0663
 2819TIP3    H1 8421   4.193   5.434   4.412 -3.3768  0.6243 -2.4157
 2819TIP3    H2 8422   4.264   5.309   4.365  1.2852  1.2943  1.9655
 2820TIP3   OH2 8423   2.684   3.623   1.574 -0.3590 -1.1569  0.0038
 2820TIP3    H1 8424   2.667   3.625   1.480 -0.9441 -0.9124  0.1102
 2820TIP3    H2 8425   2.768   3.579   1.582  0.0776 -0.4725 -0.6910
 2821TIP3   OH2 8426   5.531   4.024   2.545 -0.1583  0.1452  0.7059
 2821TIP3    H1 8427   5.561   3.995   2.459 -0.2286  0.6999  0.4859
 2821TIP3    H2 8428   5.438   4.042   2.532  0.0188  1.0910  0.6527
 2822TIP3   OH2 8429   6.169   1.277   3.356  0.7113 -0.6567  0.0526
 2822TIP3    H1 8430   6.200   1.367   3.369 -0.2429 -0.3427  0.2273
 2822TIP3    H2 8431   6.101   1.266   3.422  0.8146 -1.5153  0.0264
 2823TIP3   OH2 8432   1.003   6.725   2.328 -0.3487 -0.0426 -0.9475
 2823TIP3    H1 8433   1.072   6.785   2.300 -1.0038  1.3815  0.3404
 2823TIP3    H2 8434   0.967   6.765   2.407 -1.3203 -1.7793 -0.4555
 2824TIP3   OH2 8435   3.398   0.394   0.767  0.1828 -0.5129  0.2572
 2824TIP3    H1 8436   3.353   0.366   0.687  0.7270 -0.9086  0.0872
 2824TIP3    H2 8437   3.465   0.455   0.737 -1.2953  1.4313  0.6608
 2825TIP3   OH2 8438   3.297   2.449   5.684 -0.9119 -0.2378 -0.2600
 2825TIP3    H1 8439   3.348   2.489   5.754 -2.3552 -1.5244  1.6442
 2825TIP3    H2 8440   3.319   2.500   5.606  1.7765  0.4202  0.8155
 2826TIP3   OH2 8441   4.120   5.832   0.770 -0.1449 -0.0351  0.0973
 2826TIP3    H1 8442   4.026   5.850   0.774 -0.8020 -3.0216  0.7572
 2826TIP3    H2 8443   4.160   5.898   0.827 -1.6918  1.8414 -0.8774
 2827TIP3   OH2 8444   1.577   5.778   3.027  0.1979 -0.2302 -0.1960
 2827TIP3    H1 8445   1.512   5.817   2.968 -2.9661  0.4991  3.3916
 2827TIP3    H2 8446   1.591   5.844   3.095  1.9384 -1.8335  1.1189
 2828TIP3   OH2 8447   6.586   2.053   1.686 -0.5646  0.1829  0.3389
 2828TIP3    H1 8448   6.563   2.025   1.775  0.6155 -1.3243  0.2143
 2828TIP3    H2 8449   6.503   2.054   1.639 -0.9604 -0.9905  0.9569
 2829TIP3   OH2 8450   1.165   2.058   3.990  0.3237  0.0700  0.3721
 2829TIP3    H1 8451   1.237   2.120   4.004  0.0727  0.5806 -0.5450
 2829TIP3    H2 8452   1.138   2.033   4.079  2.4767 -1.1501  0.7601
 2830TIP3   OH2 8453   6.616   0.525   4.383  0.0068  0.2020 -0.4045
 2830TIP3    H1 8454   6.528   0.541   4.347  1.1584  2.1874 -2.5850
 2830TIP3    H2 8455   6.658   0.467   4.320  0.2472 -0.8770  0.7172
 2831TIP3   OH2 8456   5.866   0.503   3.897 -0.2981  0.4906 -0.0403
 2831TIP3    H1 8457   5.785   0.452   3.892 -0.1187 -0.1221  2.1204
 2831TIP3    H2 8458   5.934   0.443   3.866 -0.5220  0.6838 -0.9452
 2832TIP3   OH2 8459   2.561   6.733   2.223  0.2665 -0.7263  0.3511
 2832TIP3    H1 8460   2.570   6.749   2.130 -0.4377  0.1242  0.4219
 2832TIP3    H2 8461   2.490   6.790   2.251  0.9807 -0.3876  1.5581
 2833TIP3   OH2 8462   2.458   4.048   1.143 -0.0026  0.5824  0.5150
 2833TIP3    H1 8463   2.392   4.016   1.205  0.7135 -3.1527 -0.3839
 2833TIP3    H2 8464   2.541   4.038   1.191  0.5986 -2.6873 -0.9348
 2834TIP3   OH2 8465   2.538   4.699   4.627 -0.0780  0.6805  0.4748
 2834TIP3    H1 8466   2.597   4.756   4.578 -0.9809 -0.0467 -1.5983
 2834TIP3    H2 8467   2.595   4.648   4.684  1.4934 -0.5730 -2.0261
 2835TIP3   OH2 8468   0.801   0.424   3.162 -0.2567  0.4775 -0.0379
 2835TIP3    H1 8469   0.793   0.407   3.068  0.9406  0.8066 -0.2243
 2835TIP3    H2 8470   0.894   0.409   3.180 -0.7445 -1.1542  1.4249
 2836TIP3   OH2 8471   0.277   6.797   5.826 -0.2962  0.2830  0.3929
 2836TIP3    H1 8472   0.182   6.794   5.811 -0.1214  2.4437 -1.7314
 2836TIP3    H2 8473   0.313   6.738   5.760 -0.0690  1.7983 -0.9036
 2837TIP3   OH2 8474   4.360   3.754   2.697  0.5281  0.6044  0.3181
 2837TIP3    H1 8475   4.283   3.706   2.725  0.3550  0.4801 -0.3412
 2837TIP3    H2 8476   4.432   3.691   2.706  0.5115  0.6334  0.6702
 2838TIP3   OH2 8477   3.129   2.892   1.123  0.2446  0.1805 -0.1985
 2838TIP3    H1 8478   3.108   2.969   1.175 -3.4380  0.7471 -2.1307
 2838TIP3    H2 8479   3.108   2.818   1.180 -1.7055  0.7700 -0.0520
 2839TIP3   OH2 8480   0.862   1.771   1.520  0.2812 -0.2742  0.2441
 2839TIP3    H1 8481   0.876   1.678   1.539  0.3327  0.0625  2.1149
 2839TIP3    H2 8482   0.772   1.788   1.548  0.3466  0.2717  0.1309
 2840TIP3   OH2 8483   3.420   1.517   1.780  0.2757 -0.0206 -0.1334
 2840TIP3    H1 8484   3.344   1.487   1.830 -0.2469 -0.9429 -1.4372
 2840TIP3    H2 8485   3.386   1.586   1.723  0.9603  1.3439  1.0226
 2841TIP3   OH2 8486   6.941   4.772   1.829  0.4727 -0.5610 -0.4581
 2841TIP3    H1 8487   6.903   4.811   1.908  0.5602 -0.8313 -0.2818
 2841TIP3    H2 8488   6.936   4.842   1.764  0.8979 -0.1521 -0.0629
 2842TIP3   OH2 8489   5.748   0.739   1.182  0.3256 -0.1630 -0.1983
 2842TIP3    H1 8490   5.671   0.698   1.143  1.6096 -1.6038 -1.3544
 2842TIP3    H2 8491   5.740   0.723   1.276 -2.3227  2.4724  0.1775
 2843TIP3   OH2 8492   4.779   0.150   2.291 -0.8695  0.1127  0.6331
 2843TIP3    H1 8493   4.720   0.223   2.274  0.5724  1.3131  0.6279
 2843TIP3    H2 8494   4.804   0.160   2.382  2.4698  2.0867 -0.3441
 2844TIP3   OH2 8495   2.567   3.676   0.573  0.3310  0.4627 -0.1088
 2844TIP3    H1 8496   2.539   3.705   0.659 -0.4505 -0.6349  0.0395
 2844TIP3    H2 8497   2.630   3.606   0.591  1.6056  1.5003 -0.4459
 2845TIP3   OH2 8498   3.408   3.130   5.857  0.0172 -0.2935  0.7995
 2845TIP3    H1 8499   3.444   3.048   5.891 -1.4206 -1.2543  0.1016
 2845TIP3    H2 8500   3.336   3.103   5.801 -0.3142  1.4556  0.3267
 2846TIP3   OH2 8501   6.527   6.279   4.522 -0.0297 -0.6237  0.2091
 2846TIP3    H1 8502   6.554   6.196   4.560 -0.5485 -1.2577 -0.7575
 2846TIP3    H2 8503   6.583   6.289   4.445  0.0428 -0.0684  0.3298
 2847TIP3   OH2 8504   6.916   0.734   4.397 -0.4630  0.4738  0.8705
 2847TIP3    H1 8505   6.842   0.767   4.346 -0.5510  1.3639  1.5421
 2847TIP3    H2 8506   6.992   0.781   4.362 -0.1592 -0.6309  0.0066
 2848TIP3   OH2 8507   5.434   2.442   5.409  0.2386 -0.0179  0.2417
 2848TIP3    H1 8508   5.508   2.412   5.356  1.9009  1.3770  1.6315
 2848TIP3    H2 8509   5.369   2.372   5.402  2.1239 -1.8236 -0.1849
 2849TIP3   OH2 8510   2.079   6.111   2.195 -0.1753  0.3580  0.0898
 2849TIP3    H1 8511   2.161   6.145   2.232 -0.3590 -0.4934  1.3394
 2849TIP3    H2 8512   2.024   6.189   2.184  1.7239  1.4282 -3.5621
 2850TIP3   OH2 8513   0.705   1.692   0.891  0.0383 -0.3114 -0.0081
 2850TIP3    H1 8514   0.720   1.622   0.827 -0.9139  1.6653 -2.5662
 2850TIP3    H2 8515   0.729   1.653   0.975  1.9894 -2.8824 -1.5984
 2851TIP3   OH2 8516   5.194   5.543   4.982  0.0994  0.1682  0.3762
 2851TIP3    H1 8517   5.122   5.558   4.921  1.4709 -0.7238 -1.5278
 2851TIP3    H2 8518   5.185   5.614   5.047 -0.8760  1.7041 -1.3473
 2852TIP3   OH2 8519   0.974   2.419   0.655 -0.2556 -0.1457 -0.3557
 2852TIP3    H1 8520   0.966   2.412   0.560  1.1077 -1.9297 -0.3911
 2852TIP3    H2 8521   1.037   2.490   0.669 -0.6134  0.2582 -0.7672
 2853TIP3   OH2 8522   6.565   2.565   0.941  0.4225  0.4244  0.5804
 2853TIP3    H1 8523   6.655   2.565   0.972  0.5824  1.3847  0.1535
 2853TIP3    H2 8524   6.542   2.658   0.935 -0.8762  0.1850  1.4925
 2854TIP3   OH2 8525   6.042   0.978   5.325 -0.3736  0.1610 -0.4410
 2854TIP3    H1 8526   6.075   0.890   5.306 -2.3946 -1.2395  1.8133
 2854TIP3    H2 8527   5.959   0.983   5.278 -1.2177  0.0193  0.9659
 2855TIP3   OH2 8528   4.896   5.546   1.574  0.1505 -0.5137 -0.3208
 2855TIP3    H1 8529   4.884   5.641   1.571 -1.9597 -0.6761  1.0133
 2855TIP3    H2 8530   4.872   5.522   1.664 -1.7303 -2.5520 -1.2955
 2856TIP3   OH2 8531   4.818   0.294   1.911  0.1600  0.0892 -0.2622
 2856TIP3    H1 8532   4.852   0.373   1.871  0.1449  0.0916 -0.2705
 2856TIP3    H2 8533   4.728   0.288   1.879 -1.4543  2.5374  3.1689
 2857TIP3   OH2 8534   4.960   6.215   4.937  0.3565 -0.2899  0.3967
 2857TIP3    H1 8535   4.881   6.238   4.888 -0.0444 -2.3535 -0.0183
 2857TIP3    H2 8536   4.977   6.291   4.993 -1.8526  0.2522  0.4118
 2858TIP3   OH2 8537   3.573   3.761   1.587 -0.5449  0.4391  0.5189
 2858TIP3    H1 8538   3.588   3.823   1.516  1.4120  0.0031  0.5103
 2858TIP3    H2 8539   3.478   3.755   1.593 -0.7618  1.6389 -1.0361
 2859TIP3   OH2 8540   1.316   3.007   5.002  0.3185  0.2937 -0.0583
 2859TIP3    H1 8541   1.277   2.919   5.005 -0.4195  0.6283  0.4900
 2859TIP3    H2 8542   1.254   3.058   4.951  0.8507  0.4518 -0.5525
 2860TIP3   OH2 8543   7.147   1.465   2.446  0.6058 -0.0710 -0.2579
 2860TIP3    H1 8544   7.232   1.480   2.487  0.4354  1.0420 -0.2905
 2860TIP3    H2 8545   7.168   1.441   2.355  0.9129 -0.7933 -0.0028
 2861TIP3   OH2 8546   5.342   0.807   5.444 -0.0645 -0.1946  0.3199
 2861TIP3    H1 8547   5.422   0.850   5.414 -1.1896  1.5930 -0.2684
 2861TIP3    H2 8548   5.271   0.860   5.407 -1.5297 -1.5684  1.0457
 2862TIP3   OH2 8549   5.560   0.250   2.134  0.0605  0.6678  0.3239
 2862TIP3    H1 8550   5.604   0.333   2.152 -1.1229  1.0753  1.5641
 2862TIP3    H2 8551   5.471   0.275   2.108  0.5040 -0.1272 -2.2652
 2863TIP3   OH2 8552   6.110   4.388   2.170 -0.2016  0.0050  0.5725
 2863TIP3    H1 8553   6.175   4.318   2.168 -0.6121 -0.4285  1.5706
 2863TIP3    H2 8554   6.048   4.365   2.102 -0.3767 -0.6577  0.9487
 2864TIP3   OH2 8555   5.900   6.057   0.594 -0.0256  0.2534 -0.0045
 2864TIP3    H1 8556   5.828   6.029   0.651 -0.6857  1.1544 -0.3842
 2864TIP3    H2 8557   5.938   6.132   0.640  1.0005 -0.5127  0.4368
 2865TIP3   OH2 8558   2.264   6.566   2.068 -0.1660  0.4444  0.2506
 2865TIP3    H1 8559   2.329   6.564   2.138 -0.7627  2.5169  0.9385
 2865TIP3    H2 8560   2.180   6.570   2.114 -0.7582 -1.1944 -0.6214
 2866TIP3   OH2 8561   4.261   5.597   4.380 -0.3022 -0.5736  0.5116
 2866TIP3    H1 8562   4.227   5.682   4.409 -0.1285 -0.4233  0.2731
 2866TIP3    H2 8563   4.324   5.618   4.312 -0.4892 -0.9139  0.2319
 2867TIP3   OH2 8564   1.119   2.591   1.180 -0.1444 -0.0316  0.5098
 2867TIP3    H1 8565   1.087   2.524   1.120  1.2975 -0.0784 -0.2391
 2867TIP3    H2 8566   1.212   2.571   1.191 -0.0639  0.8470  1.6151
 2868TIP3   OH2 8567   0.178   4.583   0.010  0.0779 -0.0973  0.1567
 2868TIP3    H1 8568   0.198   4.548   0.097  1.4774  1.0071  0.3130
 2868TIP3    H2 8569   0.190   4.509  -0.049 -1.8078 -1.1200  0.9540
 2869TIP3   OH2 8570   6.174   5.819   2.750 -0.0881 -0.2672  0.1673
 2869TIP3    H1 8571   6.117   5.749   2.718 -0.2931 -0.3276  0.6539
 2869TIP3    H2 8572   6.117   5.897   2.752 -0.0184 -0.2163  0.1727
 2870TIP3   OH2 8573   6.843   5.503   3.618 -0.3784  0.1606 -0.3371
 2870TIP3    H1 8574   6.795   5.461   3.547 -0.3231  1.5916 -1.2575
 2870TIP3    H2 8575   6.800   5.587   3.630  0.0569  0.2346  0.8661
 2871TIP3   OH2 8576   4.303   5.262   2.912 -0.7645  0.0603 -0.1881
 2871TIP3    H1 8577   4.261   5.238   2.829 -1.0048  0.2789 -0.1279
 2871TIP3    H2 8578   4.324   5.355   2.902  1.6486 -0.4816 -1.0894
 2872TIP3   OH2 8579   5.472   0.688   0.859  0.2960  0.0244  0.1947
 2872TIP3    H1 8580   5.555   0.714   0.819 -1.3001  1.8252 -2.1530
 2872TIP3    H2 8581   5.473   0.731   0.945  0.9997  1.6566 -0.5805
 2873TIP3   OH2 8582   2.334   6.066   4.753 -0.2275 -0.3934  0.0501
 2873TIP3    H1 8583   2.316   5.990   4.807  1.3557  0.4786  1.9693
 2873TIP3    H2 8584   2.428   6.082   4.765  0.1974 -0.0897 -2.9640
 2874TIP3   OH2 8585   5.695   3.789   0.182  0.6129  0.2639 -0.2642
 2874TIP3    H1 8586   5.675   3.854   0.115  1.6759  0.4886 -0.3762
 2874TIP3    H2 8587   5.629   3.804   0.250 -0.6813 -0.1613 -1.3604
 2875TIP3   OH2 8588   2.275   1.978   2.697 -0.0265  0.1012  0.5264
 2875TIP3    H1 8589   2.331   2.045   2.658 -1.5939  0.2554 -1.6353
 2875TIP3    H2 8590   2.193   2.023   2.716 -0.7111 -0.9278  0.1284
 2876TIP3   OH2 8591   5.649   0.870   3.728 -0.3868 -0.0160  0.1627
 2876TIP3    H1 8592   5.638   0.791   3.676 -0.3218  0.0214  0.0919
 2876TIP3    H2 8593   5.569   0.876   3.780 -1.7505  1.4788 -1.9708
 2877TIP3   OH2 8594   3.535   6.186   1.812  0.1830 -0.3955 -0.1731
 2877TIP3    H1 8595   3.505   6.100   1.840 -0.7254  0.8387  3.0650
 2877TIP3    H2 8596   3.603   6.210   1.875 -0.4270  1.7352 -0.2511
 2878TIP3   OH2 8597   3.724   2.602   0.352 -0.0223  0.1112 -0.2808
 2878TIP3    H1 8598   3.721   2.574   0.444 -1.4870  0.9616 -0.0290
 2878TIP3    H2 8599   3.777   2.682   0.353  0.7250 -0.3669 -0.3486
 2879TIP3   OH2 8600   2.361   6.612   0.544  0.3932 -0.4309 -0.0466
 2879TIP3    H1 8601   2.433   6.599   0.482  0.8433 -0.3049  0.4436
 2879TIP3    H2 8602   2.372   6.542   0.608  0.4200 -0.0661  0.3497
 2880TIP3   OH2 8603   5.346   5.879   2.848 -0.2733  0.1701 -0.3229
 2880TIP3    H1 8604   5.434   5.846   2.833 -1.0688 -1.4449 -1.6700
 2880TIP3    H2 8605   5.288   5.811   2.814 -2.0416  1.5168 -0.1577
 2881TIP3   OH2 8606   6.899   1.040   4.445 -0.2016 -0.1717  0.1916
 2881TIP3    H1 8607   6.858   0.996   4.370 -1.2072  3.6329 -1.7278
 2881TIP3    H2 8608   6.825   1.066   4.500 -0.0867  2.3596 -0.7293
 2882TIP3   OH2 8609   5.236   0.406   0.870  0.4434  0.4256 -0.5314
 2882TIP3    H1 8610   5.230   0.408   0.965 -1.1861  0.1947 -0.6116
 2882TIP3    H2 8611   5.330   0.397   0.852  0.7771  0.5612  1.0366
 2883TIP3   OH2 8612   5.774   1.873   2.837  0.4845  0.0316 -0.2668
 2883TIP3    H1 8613   5.684   1.852   2.863  0.4745  1.1689  0.7313
 2883TIP3    H2 8614   5.828   1.819   2.895  0.4390  0.4774  0.2037
 2884TIP3   OH2 8615   4.304   1.837   1.951  0.2731  0.4657 -0.3393
 2884TIP3    H1 8616   4.327   1.928   1.931 -0.8051  1.0762  1.0372
 2884TIP3    H2 8617   4.232   1.843   2.013  1.9153 -1.2764  1.9162
 2885TIP3   OH2 8618   5.941   3.057   0.376  0.3432 -0.7652  0.4255
 2885TIP3    H1 8619   5.908   2.967   0.381  1.8041 -1.3875 -0.5217
 2885TIP3    H2 8620   5.971   3.076   0.465  0.1654 -1.2590  0.5967
 2886TIP3   OH2 8621   1.770   6.462   5.133 -0.0133 -0.0467 -0.3170
 2886TIP3    H1 8622   1.820   6.496   5.058  0.6990 -0.3468  0.0101
 2886TIP3    H2 8623   1.772   6.532   5.197 -0.5268  0.1671 -0.5307
 2887TIP3   OH2 8624   1.488   4.100   0.448 -0.5400 -0.0697  0.1794
 2887TIP3    H1 8625   1.441   4.107   0.365  1.6191  1.6741 -0.9716
 2887TIP3    H2 8626   1.580   4.102   0.424  0.1497 -0.0650  2.5976
 2888TIP3   OH2 8627   1.367   6.704   1.082  0.1116 -0.1832  0.5968
 2888TIP3    H1 8628   1.349   6.610   1.081 -0.7922 -0.0417  1.7373
 2888TIP3    H2 8629   1.335   6.734   1.167  2.2594  0.8080  1.1164
 2889TIP3   OH2 8630   3.029   4.857   5.138 -0.5580 -0.1928  0.4194
 2889TIP3    H1 8631   2.980   4.780   5.166  1.6785 -2.3332 -1.1293
 2889TIP3    H2 8632   3.074   4.886   5.217 -0.7120 -1.0515  0.8440
 2890TIP3   OH2 8633   1.862   4.318   5.829 -0.6409 -0.1731 -0.4282
 2890TIP3    H1 8634   1.931   4.279   5.883  0.3712 -0.0387 -1.5744
 2890TIP3    H2 8635   1.814   4.375   5.888  1.9634  1.8979 -0.1282
 2891TIP3   OH2 8636   2.037   1.579   3.755  0.1574 -0.8587  0.2503
 2891TIP3    H1 8637   2.102   1.534   3.702  1.0921 -1.9549  2.1983
 2891TIP3    H2 8638   2.084   1.603   3.835 -1.4236 -0.1685  1.0220
 2892TIP3   OH2 8639   4.732   2.821   4.085  0.0839  1.0751  0.5740
 2892TIP3    H1 8640   4.648   2.861   4.064 -0.1604  0.5521  0.5262
 2892TIP3    H2 8641   4.783   2.827   4.005 -0.3112  0.4131  0.2603
 2893TIP3   OH2 8642   4.119   4.126   5.357 -0.5057  0.4585  0.0966
 2893TIP3    H1 8643   4.089   4.142   5.446 -1.4770 -0.3697 -0.0733
 2893TIP3    H2 8644   4.080   4.196   5.305 -1.2920 -0.0065  0.0531
 2894TIP3   OH2 8645   2.859   3.559   2.171 -0.8648 -0.0782  0.3183
 2894TIP3    H1 8646   2.862   3.598   2.084  0.6619  1.5512  1.0274
 2894TIP3    H2 8647   2.865   3.465   2.156 -0.3994  0.1831 -1.3240
 2895TIP3   OH2 8648   5.179   0.055   4.243  0.3817 -0.0889  0.0385
 2895TIP3    H1 8649   5.157  -0.014   4.306  0.1309  0.3261  0.4097
 2895TIP3    H2 8650   5.231   0.117   4.293  2.9183 -1.2802 -0.9218
 2896TIP3   OH2 8651   5.912   2.439   1.419 -0.0943  0.1575 -0.0939
 2896TIP3    H1 8652   5.959   2.521   1.403 -2.6554  1.7755  0.1101
 2896TIP3    H2 8653   5.852   2.459   1.491 -3.0376 -0.8588 -2.0523
 2897TIP3   OH2 8654   3.595   0.405   2.750  0.3101  0.2145  0.7049
 2897TIP3    H1 8655   3.522   0.466   2.741  0.6193  0.4504 -0.3001
 2897TIP3    H2 8656   3.555   0.318   2.740 -0.0071  0.2756  1.3640
 2898TIP3   OH2 8657   0.302   4.010   4.266 -0.3407  0.0793  0.0562
 2898TIP3    H1 8658   0.252   4.018   4.348 -0.8106 -1.4683 -0.0608
 2898TIP3    H2 8659   0.376   4.069   4.278 -1.1081  0.8788  1.0613
 2899TIP3   OH2 8660   5.843   3.024   1.360  0.0360 -0.3207  0.8973
 2899TIP3    H1 8661   5.900   3.077   1.304 -0.1130  1.0147  1.9501
 2899TIP3    H2 8662   5.888   3.021   1.444 -0.0408 -1.7748  0.9117
 2900TIP3   OH2 8663   5.988   3.579   1.990  0.5322 -0.6065  0.0714
 2900TIP3    H1 8664   6.079   3.556   1.968  0.6780 -0.0278  0.0429
 2900TIP3    H2 8665   5.981   3.562   2.084  1.1616  0.8694  0.4095
 2901TIP3   OH2 8666   6.311   3.614   0.860  0.2140 -0.2894 -0.2506
 2901TIP3    H1 8667   6.240   3.679   0.867 -0.5630 -0.9987 -1.1755
 2901TIP3    H2 8668   6.391   3.666   0.863 -0.3663  0.6262 -0.0024
 2902TIP3   OH2 8669   1.346   5.174   2.666  0.3899 -0.3884 -0.1552
 2902TIP3    H1 8670   1.297   5.179   2.584 -0.6232 -0.6176  0.4169
 2902TIP3    H2 8671   1.424   5.123   2.644  0.5571  0.2816 -1.1690
 2903TIP3   OH2 8672   2.861   1.840   2.006 -0.0630  0.0486 -0.3102
 2903TIP3    H1 8673   2.920   1.827   2.081 -0.0759  1.9299  0.0981
 2903TIP3    H2 8674   2.854   1.936   1.999 -1.3703 -0.1213 -1.7010
 2904TIP3   OH2 8675   2.879   4.978   2.307  0.8568 -0.1862  0.6207
 2904TIP3    H1 8676   2.844   4.889   2.312  0.9487 -0.1886  1.2491
 2904TIP3    H2 8677   2.974   4.966   2.302  0.7903 -0.2136 -1.9174
 2905TIP3   OH2 8678   2.926   0.531   5.388 -0.2158  0.5381 -0.2118
 2905TIP3    H1 8679   2.851   0.488   5.429 -0.5600  1.4538  0.1390
 2905TIP3    H2 8680   2.935   0.487   5.303  1.0024 -1.9331  1.0974
 2906TIP3   OH2 8681   6.997   5.962   4.530 -0.1354 -0.4496 -0.5782
 2906TIP3    H1 8682   6.913   5.919   4.511 -0.4053  0.3055 -1.1312
 2906TIP3    H2 8683   7.035   5.979   4.444  1.7952 -3.0141 -0.3842
 2907TIP3   OH2 8684   6.056   5.872   3.405 -0.5679 -0.0494 -0.4327
 2907TIP3    H1 8685   6.106   5.869   3.324 -0.7499 -1.4745 -0.5125
 2907TIP3    H2 8686   6.044   5.965   3.423  0.7867  0.2903 -1.2233
 2908TIP3   OH2 8687   6.100   1.029   0.869  0.1282 -1.0827 -0.0609
 2908TIP3    H1 8688   6.007   1.043   0.885  0.1988 -0.1342 -0.4223
 2908TIP3    H2 8689   6.141   1.041   0.954  0.1312  0.5666 -0.2595
 2909TIP3   OH2 8690   4.004   6.250   0.372 -0.2791 -0.1060 -0.2828
 2909TIP3    H1 8691   3.927   6.297   0.341 -0.1391 -0.5712 -1.3906
 2909TIP3    H2 8692   4.036   6.302   0.445 -1.0675  0.6239 -0.4375
 2910TIP3   OH2 8693   4.446   6.059   3.472  0.2617 -0.3421 -0.4245
 2910TIP3    H1 8694   4.382   5.988   3.469  0.3422 -0.4111 -0.5410
 2910TIP3    H2 8695   4.522   6.025   3.424  0.0755  0.0414 -1.0105
 2911TIP3   OH2 8696   0.473   3.808   1.628  0.0688 -0.6398  0.0532
 2911TIP3    H1 8697   0.493   3.886   1.679 -1.7114  2.1609 -3.1061
 2911TIP3    H2 8698   0.428   3.750   1.689 -1.3387  2.1528  1.8636
 2912TIP3   OH2 8699   0.854   6.694   0.301  0.2062  0.6890  0.3536
 2912TIP3    H1 8700   0.914   6.622   0.283  0.1383  0.7911 -0.3146
 2912TIP3    H2 8701   0.774   6.672   0.254  0.4133  1.5137 -0.4193
 2913TIP3   OH2 8702   2.952   1.390   4.191 -0.3106  0.0529  0.0043
 2913TIP3    H1 8703   2.966   1.302   4.156 -0.6164 -0.0861  0.2321
 2913TIP3    H2 8704   2.931   1.443   4.114  0.0114 -0.0400 -0.1529
 2914TIP3   OH2 8705   5.786   5.460   5.858  0.2728 -0.6451  0.0385
 2914TIP3    H1 8706   5.829   5.533   5.903 -0.7547 -0.8811  1.4687
 2914TIP3    H2 8707   5.748   5.499   5.779 -0.4876  0.4384  0.9103
 2915TIP3   OH2 8708   7.162   6.594   2.518  0.1488  0.0511 -0.1451
 2915TIP3    H1 8709   7.185   6.510   2.557 -3.4966 -0.2258  1.8413
 2915TIP3    H2 8710   7.190   6.659   2.582 -0.2701  0.0602  0.0316
 2916TIP3   OH2 8711   1.807   5.228   3.569 -0.2459 -0.4944 -0.3473
 2916TIP3    H1 8712   1.790   5.177   3.648  0.6828  1.1266  0.9679
 2916TIP3    H2 8713   1.820   5.318   3.600  0.2839  0.1766 -2.3276
 2917TIP3   OH2 8714   6.389   3.651   3.328 -0.0372  0.4058  0.0147
 2917TIP3    H1 8715   6.405   3.636   3.421  0.8149  0.2901 -0.1441
 2917TIP3    H2 8716   6.397   3.745   3.316 -1.8140  0.6334  0.3503
 2918TIP3   OH2 8717   6.872   6.211   4.419  0.2549  0.0998  0.2673
 2918TIP3    H1 8718   6.813   6.281   4.389  0.3248  0.0170 -0.0636
 2918TIP3    H2 8719   6.871   6.147   4.349  0.0209 -0.3404  0.6708
 2919TIP3   OH2 8720   4.269   0.439   4.344 -0.8791 -0.0600 -0.2411
 2919TIP3    H1 8721   4.223   0.355   4.346  0.0726 -0.5820  0.7131
 2919TIP3    H2 8722   4.201   0.503   4.327 -1.9283 -0.8332  0.8948
 2920TIP3   OH2 8723   4.916   6.488   2.049 -0.1323  0.0092  0.1238
 2920TIP3    H1 8724   4.964   6.449   2.122 -0.0509  1.3683  0.8280
 2920TIP3    H2 8725   4.948   6.578   2.044 -1.3549  0.4352 -0.5080
 2921TIP3   OH2 8726   6.482   2.941   3.679  0.0665 -0.1086 -0.0972
 2921TIP3    H1 8727   6.510   2.910   3.765  2.6186  2.3571  0.0932
 2921TIP3    H2 8728   6.534   2.890   3.617  0.1275 -0.0703 -0.0765
 2922TIP3   OH2 8729   3.381   3.865   0.306  0.2012  0.2827 -0.0332
 2922TIP3    H1 8730   3.438   3.826   0.240  2.0185  1.0754  0.9922
 2922TIP3    H2 8731   3.377   3.958   0.284  0.7132  0.5300  0.8696
 2923TIP3   OH2 8732   0.502   4.441   0.963 -0.0119 -0.6860  0.0973
 2923TIP3    H1 8733   0.578   4.408   1.012  0.9626 -0.1078 -0.9771
 2923TIP3    H2 8734   0.480   4.523   1.007  0.2901 -0.6133  0.1145
 2924TIP3   OH2 8735   0.335   5.100   0.404 -0.2746  0.2882  0.0913
 2924TIP3    H1 8736   0.265   5.161   0.382 -0.9201 -0.5584 -0.2781
 2924TIP3    H2 8737   0.345   5.047   0.325  1.1953  0.7670 -0.0717
 2925TIP3   OH2 8738   0.272   5.091   5.226  0.0962 -0.8069  0.0943
 2925TIP3    H1 8739   0.290   5.185   5.224  1.5166 -1.0081  1.3834
 2925TIP3    H2 8740   0.277   5.068   5.319  0.2911 -2.2583 -0.2517
 2926TIP3   OH2 8741   5.137   1.063   5.014  0.2785 -0.3250 -0.3669
 2926TIP3    H1 8742   5.137   1.150   5.055  0.4739 -0.6501  0.3346
 2926TIP3    H2 8743   5.159   1.080   4.922  1.1845  0.2959 -0.0556
 2927TIP3   OH2 8744   3.303   3.982   3.161  0.1315  0.1417  0.1825
 2927TIP3    H1 8745   3.288   3.995   3.255  0.4620  1.0309  0.1223
 2927TIP3    H2 8746   3.263   4.059   3.120 -0.6730 -0.6156 -0.4713
 2928TIP3   OH2 8747   5.599   5.938   4.399 -0.7423 -0.1695 -0.4275
 2928TIP3    H1 8748   5.549   5.935   4.481 -0.8242 -3.2231 -0.4592
 2928TIP3    H2 8749   5.672   5.996   4.418 -1.1695 -0.2040  1.5702
 2929TIP3   OH2 8750   6.971   4.046   4.593 -0.0518  0.4143  0.0330
 2929TIP3    H1 8751   6.956   3.966   4.645 -1.3190 -0.6538 -1.8606
 2929TIP3    H2 8752   7.037   4.021   4.529  1.4356  1.6959  1.0070
 2930TIP3   OH2 8753   3.610   6.781   5.557 -0.4904  0.0337 -0.2195
 2930TIP3    H1 8754   3.660   6.863   5.567  1.3102 -1.1154  0.7511
 2930TIP3    H2 8755   3.639   6.726   5.630 -0.7681 -1.9069 -1.4932
 2931TIP3   OH2 8756   2.605   2.002   1.061  0.0145  0.6992  0.1194
 2931TIP3    H1 8757   2.540   1.935   1.043 -0.9889  1.7013 -0.0932
 2931TIP3    H2 8758   2.670   1.992   0.992 -0.7920  0.7540 -0.6646
 2932TIP3   OH2 8759   1.002   6.781   4.581  0.0668  0.4052 -0.0517
 2932TIP3    H1 8760   0.938   6.754   4.515  0.7370  2.1055 -1.4936
 2932TIP3    H2 8761   1.071   6.715   4.576 -0.8248 -0.5844  0.4018
 2933TIP3   OH2 8762   1.919   5.748   3.711  0.1882  0.0819  0.1302
 2933TIP3    H1 8763   2.000   5.745   3.659 -0.3508  1.2958 -0.8377
 2933TIP3    H2 8764   1.942   5.800   3.788  0.6041 -0.4941  0.4053
 2934TIP3   OH2 8765   2.032   5.143   0.538  0.0999 -0.6683 -0.0052
 2934TIP3    H1 8766   2.095   5.188   0.594 -1.2141  1.8219 -0.3523
 2934TIP3    H2 8767   2.071   5.146   0.450  0.7547 -1.7617  0.2304
 2935TIP3   OH2 8768   5.420   4.637   1.636  0.0834  0.0504 -0.1858
 2935TIP3    H1 8769   5.355   4.707   1.632 -0.2754 -0.3250 -1.3123
 2935TIP3    H2 8770   5.453   4.640   1.725 -2.3831 -0.5638  0.8255
 2936TIP3   OH2 8771   0.997   2.719   5.583  0.0661 -0.2539 -0.7435
 2936TIP3    H1 8772   1.037   2.636   5.560  2.0345  0.0001  1.3544
 2936TIP3    H2 8773   1.008   2.725   5.678 -2.1981  1.3318 -0.5054
 2937TIP3   OH2 8774   0.253   1.341   5.488  0.0842 -0.3339  0.1550
 2937TIP3    H1 8775   0.317   1.271   5.500  0.8657  0.0450 -1.4711
 2937TIP3    H2 8776   0.215   1.325   5.402 -1.0798  0.1979  0.5429
 2938TIP3   OH2 8777   2.421   4.258   1.578 -0.5818 -0.7099 -0.4752
 2938TIP3    H1 8778   2.407   4.222   1.665  2.2195  0.6868  0.6836
 2938TIP3    H2 8779   2.461   4.187   1.528 -1.1526 -1.1668 -0.2931
 2939TIP3   OH2 8780   6.242   4.649   3.148  0.0011  0.7657  0.1138
 2939TIP3    H1 8781   6.221   4.736   3.113  0.9442  1.9626  2.2990
 2939TIP3    H2 8782   6.328   4.660   3.189 -0.3119 -0.9391  1.3187
 2940TIP3   OH2 8783   2.118   2.528   2.950  0.7125 -0.1492 -0.1147
 2940TIP3    H1 8784   2.163   2.548   3.031  0.6124 -1.1244  0.1947
 2940TIP3    H2 8785   2.188   2.520   2.885  0.8007  0.5256 -0.1064
 2941TIP3   OH2 8786   6.878   6.754   4.132  0.0486 -0.3638 -0.6560
 2941TIP3    H1 8787   6.801   6.799   4.097  0.2866 -0.0740 -0.8089
 2941TIP3    H2 8788   6.847   6.714   4.214 -0.6584 -1.5259 -1.4645
 2942TIP3   OH2 8789   3.968   1.813   5.169  0.6895  0.5900  0.7875
 2942TIP3    H1 8790   4.061   1.819   5.146  0.2158  0.8027 -1.3175
 2942TIP3    H2 8791   3.924   1.795   5.086 -1.1863  0.7162  1.6969
 2943TIP3   OH2 8792   5.797   2.128   0.398  0.3897 -0.1336  0.3490
 2943TIP3    H1 8793   5.705   2.129   0.372  0.3285 -0.4708  0.5433
 2943TIP3    H2 8794   5.845   2.106   0.318  0.4080  1.2781 -0.0462
 2944TIP3   OH2 8795   4.845   2.837   4.720  0.2708 -0.4535  0.0307
 2944TIP3    H1 8796   4.881   2.779   4.786  1.4949 -0.3552 -0.5156
 2944TIP3    H2 8797   4.919   2.890   4.692 -0.9952  2.1267  1.2423
 2945TIP3   OH2 8798   6.603   0.415   1.602 -0.3552 -0.2066  0.2181
 2945TIP3    H1 8799   6.538   0.359   1.561 -1.6546  0.1737  1.6601
 2945TIP3    H2 8800   6.622   0.482   1.536 -2.0021  0.1084  0.0353
 2946TIP3   OH2 8801   5.947   4.233   5.502 -0.2511  0.0606 -0.0976
 2946TIP3    H1 8802   5.886   4.236   5.576  0.0469  1.4079  0.1257
 2946TIP3    H2 8803   6.015   4.297   5.524  1.3906 -1.5541 -0.2420
 2947TIP3   OH2 8804   4.835   6.226   3.231 -0.7262 -0.0733 -0.3417
 2947TIP3    H1 8805   4.893   6.292   3.269  1.5263 -1.9143 -0.2928
 2947TIP3    H2 8806   4.895   6.166   3.186 -2.5913 -2.2174 -0.1398
 2948TIP3   OH2 8807   4.671   0.530   0.293  0.1088 -0.2305 -0.3823
 2948TIP3    H1 8808   4.731   0.466   0.330 -0.4883 -0.9253 -0.5873
 2948TIP3    H2 8809   4.655   0.593   0.364 -0.1370 -0.9112  0.1792
 2949TIP3   OH2 8810   2.916   0.958   0.483  0.0737 -0.2707 -0.0863
 2949TIP3    H1 8811   2.917   1.040   0.434 -2.0875 -0.8453 -1.2257
 2949TIP3    H2 8812   2.826   0.927   0.476 -0.3880 -0.4770  4.2140
 2950TIP3   OH2 8813   0.806   0.476  -0.011 -0.5077  0.0434  0.0137
 2950TIP3    H1 8814   0.774   0.395   0.029  0.0961  0.4873  1.4746
 2950TIP3    H2 8815   0.772   0.546   0.045 -1.2773  0.8458 -1.4020
 2951TIP3   OH2 8816   5.519   3.822   0.652  0.0445 -0.1323  0.5999
 2951TIP3    H1 8817   5.596   3.766   0.669 -1.3180 -2.5158 -0.5360
 2951TIP3    H2 8818   5.553   3.893   0.598  1.5330 -0.9497  0.3946
 2952TIP3   OH2 8819   0.040   0.624   3.425 -0.2438 -0.1137 -0.3902
 2952TIP3    H1 8820  -0.021   0.698   3.430 -0.6663 -0.3762 -1.4126
 2952TIP3    H2 8821  -0.017   0.547   3.420  0.1510 -0.3393 -1.6955
 2953TIP3   OH2 8822   0.250   5.973   0.783  0.1317  0.2346  1.1969
 2953TIP3    H1 8823   0.294   5.922   0.715 -0.5608  0.2256  0.7408
 2953TIP3    H2 8824   0.291   5.945   0.865  0.9576  0.2251  0.7904
 2954TIP3   OH2 8825   0.679   0.571   4.294  0.3463  0.1603 -0.5901
 2954TIP3    H1 8826   0.599   0.612   4.326  0.5176  0.5770 -0.6892
 2954TIP3    H2 8827   0.668   0.478   4.315  0.8861  0.5308  1.6011
 2955TIP3   OH2 8828   1.831   4.901   1.498 -0.5818  0.0798 -0.0873
 2955TIP3    H1 8829   1.821   4.979   1.444 -0.4211  1.2569  1.5045
 2955TIP3    H2 8830   1.926   4.885   1.500 -0.5602  0.2322  0.1099
 2956TIP3   OH2 8831   3.990   5.866   5.067 -0.0077 -0.5551 -0.1451
 2956TIP3    H1 8832   4.085   5.872   5.057 -0.2336  0.6514 -2.0058
 2956TIP3    H2 8833   3.964   5.793   5.011 -0.2269 -0.6144  0.0326
 2957TIP3   OH2 8834   6.242   1.542   3.367 -0.4343 -0.1805 -0.4645
 2957TIP3    H1 8835   6.211   1.613   3.423 -2.1718 -0.4848 -0.9925
 2957TIP3    H2 8836   6.286   1.586   3.295  1.3390  0.2312  0.7854
 2958TIP3   OH2 8837   6.874   0.393   5.858 -0.1866 -0.0772 -0.4648
 2958TIP3    H1 8838   6.955   0.395   5.806  0.5535  2.4043  0.6103
 2958TIP3    H2 8839   6.830   0.476   5.837 -1.7760 -0.7677  0.0216
 2959TIP3   OH2 8840   4.274   2.380   4.498  0.7117 -0.5238  0.2677
 2959TIP3    H1 8841   4.218   2.306   4.476 -0.3642 -0.0150  1.2121
 2959TIP3    H2 8842   4.251   2.402   4.589 -0.0257  1.8313 -0.4064
 2960TIP3   OH2 8843   7.221   2.771   1.553  0.0415 -0.2438 -0.4889
 2960TIP3    H1 8844   7.232   2.851   1.604  0.0136 -1.1892  1.0493
 2960TIP3    H2 8845   7.128   2.770   1.530  0.2350  0.6412 -1.3673
 2961TIP3   OH2 8846   0.067   2.469   2.925 -0.3902 -0.0500  0.3623
 2961TIP3    H1 8847   0.088   2.540   2.864 -0.6556 -0.4668 -0.2259
 2961TIP3    H2 8848   0.152   2.438   2.957 -0.0213 -1.7411 -2.0115
 2962TIP3   OH2 8849   1.948   3.034   0.082 -0.5605  0.0576 -0.0160
 2962TIP3    H1 8850   1.987   2.953   0.116  1.3569  1.3268  1.0050
 2962TIP3    H2 8851   2.000   3.055   0.004 -0.8082  0.4897 -0.0705
 2963TIP3   OH2 8852   6.133   0.556   0.650  0.8683  0.6151 -0.4278
 2963TIP3    H1 8853   6.057   0.591   0.602 -0.2780  1.2544  1.7030
 2963TIP3    H2 8854   6.178   0.634   0.683  1.6793  0.1934 -0.5129
 2964TIP3   OH2 8855   5.927   2.356   3.743 -0.4989  0.5117  0.4155
 2964TIP3    H1 8856   6.013   2.372   3.705 -0.9367 -0.1053 -0.8599
 2964TIP3    H2 8857   5.880   2.439   3.732 -0.4380  0.5072  0.1258
 2965TIP3   OH2 8858   4.559   5.013   4.243  0.0032  0.1802  0.1305
 2965TIP3    H1 8859   4.469   4.986   4.226  0.2166  0.1305 -0.9946
 2965TIP3    H2 8860   4.577   4.983   4.332 -1.3484  0.9156  0.6785
 2966TIP3   OH2 8861   0.921   4.673   1.206 -0.3408  0.1479 -0.2722
 2966TIP3    H1 8862   0.968   4.605   1.159 -1.2418 -1.3039  0.8568
 2966TIP3    H2 8863   0.941   4.656   1.298 -2.6899 -0.2655  0.2168
 2967TIP3   OH2 8864   0.409   0.501   1.252 -0.1298 -0.3695  0.1953
 2967TIP3    H1 8865   0.453   0.421   1.223 -0.7509 -0.5173 -0.3488
 2967TIP3    H2 8866   0.406   0.556   1.174 -1.7302 -0.7289 -0.0282
 2968TIP3   OH2 8867   6.700   0.721   4.558 -0.1198 -0.0144 -0.1464
 2968TIP3    H1 8868   6.790   0.740   4.533 -0.7202 -1.0562 -3.6364
 2968TIP3    H2 8869   6.673   0.650   4.499 -2.7423 -0.8666  1.8696
 2969TIP3   OH2 8870   1.296   2.505   3.406 -0.4009  0.1973 -0.4669
 2969TIP3    H1 8871   1.270   2.587   3.449  0.6906  1.0154 -1.2849
 2969TIP3    H2 8872   1.216   2.472   3.366 -0.6584  1.4614 -1.0496
 2970TIP3   OH2 8873   4.891   3.526   2.387 -0.5786 -0.3967 -0.9553
 2970TIP3    H1 8874   4.975   3.560   2.357  0.1691 -0.8957  0.4549
 2970TIP3    H2 8875   4.908   3.497   2.477 -1.9221 -1.7223 -1.0846
 2971TIP3   OH2 8876   5.808   5.450   4.702 -0.6645  0.1996 -0.5163
 2971TIP3    H1 8877   5.840   5.402   4.626 -1.6587  1.8044 -2.0080
 2971TIP3    H2 8878   5.814   5.387   4.774  2.1443 -0.7696 -1.4725
 2972TIP3   OH2 8879   5.826   1.750   5.522  0.1043  0.0935  0.1861
 2972TIP3    H1 8880   5.746   1.801   5.511 -0.2588 -1.0384 -3.8035
 2972TIP3    H2 8881   5.797   1.659   5.524  1.1057 -0.2304  2.3514
 2973TIP3   OH2 8882   0.476   0.729   0.255 -0.0740  0.6081 -0.1564
 2973TIP3    H1 8883   0.382   0.741   0.267  0.1223  2.3823 -0.0770
 2973TIP3    H2 8884   0.508   0.816   0.230  1.9039  0.6749  2.1982
 2974TIP3   OH2 8885   0.625   1.716   4.020  0.2254 -0.2823  0.1984
 2974TIP3    H1 8886   0.543   1.751   3.984  0.0682 -1.6776 -0.9257
 2974TIP3    H2 8887   0.678   1.695   3.943  1.1808 -0.4493  0.8848
 2975TIP3   OH2 8888   2.464   3.453   1.583  0.5252  0.3386 -0.2457
 2975TIP3    H1 8889   2.543   3.508   1.588  1.6255 -1.0691 -1.2117
 2975TIP3    H2 8890   2.423   3.476   1.500  0.2907  0.5770 -0.0660
 2976TIP3   OH2 8891   0.510   3.939   0.002 -0.3639 -0.2506  0.1866
 2976TIP3    H1 8892   0.451   3.978  -0.063  0.5849  2.7738  1.0083
 2976TIP3    H2 8893   0.490   3.985   0.083  2.1140 -0.1883  0.8303
 2977TIP3   OH2 8894   1.232   3.743   2.808 -0.3173 -0.0610  0.0232
 2977TIP3    H1 8895   1.213   3.650   2.814  0.5317 -0.1880  1.1259
 2977TIP3    H2 8896   1.161   3.786   2.855 -0.2753 -0.2110  0.2232
 2978TIP3   OH2 8897   0.211   0.826   0.216 -0.5210  0.2184 -0.0952
 2978TIP3    H1 8898   0.237   0.794   0.129 -0.0197 -0.0373  0.1445
 2978TIP3    H2 8899   0.127   0.869   0.202 -0.6986 -0.2964 -0.6125
 2979TIP3   OH2 8900   0.291   0.465   2.179 -0.6667 -0.5777  0.5960
 2979TIP3    H1 8901   0.309   0.400   2.246  0.1551 -0.5255  0.4326
 2979TIP3    H2 8902   0.198   0.453   2.159 -0.8186 -0.8701  1.4359
 2980TIP3   OH2 8903   4.540   2.692   5.824 -0.2371 -0.5550 -0.1800
 2980TIP3    H1 8904   4.476   2.722   5.760 -1.5956 -0.3424  1.2067
 2980TIP3    H2 8905   4.492   2.630   5.879  0.9116 -0.8184  0.5663
 2981TIP3   OH2 8906   0.229   0.281   2.683 -0.0923 -0.2516 -0.0549
 2981TIP3    H1 8907   0.277   0.339   2.742 -1.4002  1.0930 -0.2523
 2981TIP3    H2 8908   0.269   0.295   2.598 -0.0698 -0.0121 -0.0062
 2982TIP3   OH2 8909   5.808   5.157   3.328  0.2149 -0.1320 -0.2634
 2982TIP3    H1 8910   5.761   5.076   3.347 -1.7735  1.2346  1.0807
 2982TIP3    H2 8911   5.789   5.174   3.235 -2.0166  0.3333  0.2177
 2983TIP3   OH2 8912   4.994   0.474   3.016 -0.5469  0.1293  0.2397
 2983TIP3    H1 8913   4.959   0.396   2.974  1.8364  0.1676 -2.0565
 2983TIP3    H2 8914   4.953   0.547   2.969 -1.5269  0.2772  1.2877
 2984TIP3   OH2 8915   4.239   6.621   5.642 -0.1849  0.8035 -0.2524
 2984TIP3    H1 8916   4.206   6.535   5.669  0.4288  0.4015 -0.7445
 2984TIP3    H2 8917   4.250   6.669   5.724 -1.0438  0.6086 -0.0078
 2985TIP3   OH2 8918   3.340   4.983   1.210 -0.0587  0.1236 -0.6702
 2985TIP3    H1 8919   3.375   4.935   1.135 -1.0209 -2.9020  0.6441
 2985TIP3    H2 8920   3.377   4.937   1.286 -0.3021  2.1444  0.7253
 2986TIP3   OH2 8921   4.859   1.789   1.551 -0.1848  0.2368  0.0477
 2986TIP3    H1 8922   4.934   1.844   1.527  2.0943 -2.2507  1.0521
 2986TIP3    H2 8923   4.824   1.830   1.630 -1.5956  2.8474 -1.7627
 2987TIP3   OH2 8924   0.052   2.640   1.029  1.1579  0.4988  0.2713
 2987TIP3    H1 8925   0.039   2.635   1.123  0.4600 -0.9777  0.1334
 2987TIP3    H2 8926   0.041   2.732   1.008 -2.4535  0.4476  1.1826
 2988TIP3   OH2 8927   3.392   3.240   4.819  0.2591  0.7439  0.3445
 2988TIP3    H1 8928   3.480   3.250   4.783  0.4955  0.6928  0.9010
 2988TIP3    H2 8929   3.405   3.236   4.913 -0.3288  0.5809  0.4217
 2989TIP3   OH2 8930   3.095   3.934   0.169  0.1403 -0.1920 -0.1951
 2989TIP3    H1 8931   3.173   3.991   0.168 -1.0310  1.4920 -0.4094
 2989TIP3    H2 8932   3.042   3.967   0.241 -1.1116 -0.2333 -1.0561
 2990TIP3   OH2 8933   0.480   5.686   0.397 -0.0775 -0.3908 -0.0276
 2990TIP3    H1 8934   0.463   5.592   0.397  0.0771 -0.4198  0.6459
 2990TIP3    H2 8935   0.540   5.699   0.323 -0.4890 -0.7473 -0.4299
 2991TIP3   OH2 8936   3.129   4.735   2.468  0.2235  0.6528  0.1176
 2991TIP3    H1 8937   3.151   4.715   2.559 -1.1889 -1.3001  0.0848
 2991TIP3    H2 8938   3.119   4.650   2.426  0.2022  1.5103 -1.7220
 2992TIP3   OH2 8939   7.094   3.660   0.237 -0.4720  0.0683  0.3760
 2992TIP3    H1 8940   7.188   3.677   0.241 -0.4300 -0.2123  3.9143
 2992TIP3    H2 8941   7.054   3.730   0.289 -2.1101 -0.5043 -0.0330
 2993TIP3   OH2 8942   4.382   4.828   0.586 -0.0696 -0.0532 -0.3366
 2993TIP3    H1 8943   4.323   4.853   0.515  0.4243 -1.3871 -1.2558
 2993TIP3    H2 8944   4.455   4.785   0.542  1.7482  1.7525  0.7413
 2994TIP3   OH2 8945   3.042   5.035   1.964 -0.0548 -0.0030 -0.2368
 2994TIP3    H1 8946   3.002   5.122   1.965  1.6244  0.8077  0.5045
 2994TIP3    H2 8947   2.976   4.978   2.003 -0.3423  1.3805  1.4479
 2995TIP3   OH2 8948   3.168   5.189   3.485 -0.2430  0.6064 -0.1337
 2995TIP3    H1 8949   3.262   5.204   3.477 -0.0514 -0.6932 -0.5484
 2995TIP3    H2 8950   3.161   5.101   3.523 -1.2886 -0.0599 -1.7750
 2996TIP3   OH2 8951   4.111   2.501   5.711 -0.1729 -0.9302  0.2637
 2996TIP3    H1 8952   4.071   2.579   5.672  1.6866 -0.4918 -0.9255
 2996TIP3    H2 8953   4.185   2.535   5.762 -0.5359 -1.7816  1.3725
 2997TIP3   OH2 8954   3.724   0.018   4.831  0.0783 -0.1936 -0.0809
 2997TIP3    H1 8955   3.796  -0.005   4.772 -0.0291 -1.0320  0.1033
 2997TIP3    H2 8956   3.761   0.010   4.919  0.3366  1.3959 -0.0239
 2998TIP3   OH2 8957   5.997   3.406   2.497 -0.2867 -0.0911 -0.1070
 2998TIP3    H1 8958   6.078   3.356   2.487 -1.3629 -2.0520  0.4885
 2998TIP3    H2 8959   5.993   3.427   2.591 -0.2095  0.4544 -0.2255
 2999TIP3   OH2 8960   0.969   0.908   5.004  0.3921  0.2875  0.2674
 2999TIP3    H1 8961   1.036   0.930   4.939 -0.3052 -1.6364 -1.2150
 2999TIP3    H2 8962   0.921   0.990   5.018  0.8972  0.8792 -1.2652
 3000TIP3   OH2 8963   6.419   2.359   0.126  0.0296  0.0761  0.0722
 3000TIP3    H1 8964   6.353   2.299   0.160 -0.2828 -0.6180 -1.6550
 3000TIP3    H2 8965   6.369   2.437   0.100  0.2512  0.5582  1.0527
 3001TIP3   OH2 8966   6.731   5.665   4.855  0.8342  0.1024  0.0932
 3001TIP3    H1 8967   6.697   5.753   4.871  1.0465  0.6004 -1.9281
 3001TIP3    H2 8968   6.826   5.678   4.847  0.9343 -0.4264  0.4151
 3002TIP3   OH2 8969   3.393   3.082   0.777 -0.1387  0.2960 -0.7528
 3002TIP3    H1 8970   3.483   3.113   0.780  0.2051 -0.6623 -0.9390
 3002TIP3    H2 8971   3.345   3.151   0.731  0.9047 -0.1658 -2.5907
 3003TIP3   OH2 8972   3.286   1.016   5.642  0.1618 -0.6432  0.1870
 3003TIP3    H1 8973   3.350   1.003   5.572  1.1500 -1.9507  1.2896
 3003TIP3    H2 8974   3.318   0.963   5.715 -0.4682  1.2230  1.9003
 3004TIP3   OH2 8975   3.614   0.133   3.140 -0.2359  0.8273  0.1330
 3004TIP3    H1 8976   3.667   0.168   3.068 -1.5025  0.7901 -0.8419
 3004TIP3    H2 8977   3.525   0.131   3.106 -0.5704 -1.1211  0.9763
 3005TIP3   OH2 8978   6.013   5.066   0.096  0.3267  0.3272 -0.3239
 3005TIP3    H1 8979   5.990   5.115   0.175  0.9094  1.0884 -0.6168
 3005TIP3    H2 8980   6.026   5.132   0.029  1.1167 -0.2233 -0.7355
 3006TIP3   OH2 8981   5.569   2.338   1.002  0.0771  0.0178 -0.6959
 3006TIP3    H1 8982   5.543   2.428   0.982  0.1994  0.0935 -0.5161
 3006TIP3    H2 8983   5.662   2.344   1.025 -0.1125 -0.0313  0.1145
 3007TIP3   OH2 8984   6.566   6.775   4.964 -0.1865  0.4292  0.1281
 3007TIP3    H1 8985   6.644   6.805   5.009 -0.0468  0.7978 -0.3594
 3007TIP3    H2 8986   6.554   6.685   4.995  0.1368  0.5408  0.5876
 3008TIP3   OH2 8987   7.217   4.875   1.915  0.0596 -0.0091  0.1309
 3008TIP3    H1 8988   7.129   4.849   1.888  0.3952 -0.0714 -0.9550
 3008TIP3    H2 8989   7.216   4.867   2.010 -1.6449  1.6329  0.3191
 3009TIP3   OH2 8990   1.872   6.065   1.796  0.1019 -0.6435  0.0887
 3009TIP3    H1 8991   1.807   6.005   1.831 -0.1301 -0.5279 -0.1375
 3009TIP3    H2 8992   1.858   6.063   1.701 -0.2055  0.0954  0.1089
 3010TIP3   OH2 8993   4.983   6.690   4.261  0.1504  0.3231 -0.3449
 3010TIP3    H1 8994   5.005   6.626   4.193  0.6942 -0.7028  0.7629
 3010TIP3    H2 8995   5.065   6.738   4.276 -0.0717  0.8104 -0.6784
 3011TIP3   OH2 8996   6.033   0.503   1.104  0.3926  0.1001  0.1207
 3011TIP3    H1 8997   5.987   0.578   1.068  0.5231  0.7643  1.2816
 3011TIP3    H2 8998   6.090   0.473   1.033  0.1813  0.9705 -0.4283
 3012TIP3   OH2 8999   0.067   2.509   2.580  0.2911 -0.1041 -0.3883
 3012TIP3    H1 9000   0.121   2.568   2.527  1.1250 -0.6080 -0.1215
 3012TIP3    H2 9001  -0.020   2.514   2.540  0.5710  0.5958 -0.9339
 3013TIP3   OH2 9002   5.294   3.483   4.693 -0.6555 -0.1155 -0.2355
 3013TIP3    H1 9003   5.280   3.430   4.615  0.0046 -0.7092  0.0353
 3013TIP3    H2 9004   5.222   3.459   4.751 -1.2465  0.4558 -0.7211
 3014TIP3   OH2 9005   1.354   2.180   1.266 -0.1052  0.1612 -0.2176
 3014TIP3    H1 9006   1.419   2.227   1.215  2.6806 -1.2114  1.7816
 3014TIP3    H2 9007   1.319   2.246   1.327  1.4810  0.3597  0.5112
 3015TIP3   OH2 9008   0.426   2.558   1.474 -0.0973  0.0180  0.4104
 3015TIP3    H1 9009   0.450   2.596   1.559  0.0614 -0.7949  0.7366
 3015TIP3    H2 9010   0.333   2.537   1.482 -0.4688  1.3579 -0.1671
 3016TIP3   OH2 9011   2.620   3.458   1.968  0.1516 -0.7224 -0.0690
 3016TIP3    H1 9012   2.663   3.373   1.981  1.3169 -0.2405 -0.5740
 3016TIP3    H2 9013   2.693   3.520   1.958 -0.6766  0.1636 -0.8215
 3017TIP3   OH2 9014   5.903   1.433   0.145  0.1097 -0.1360 -0.3407
 3017TIP3    H1 9015   5.873   1.353   0.189 -1.9289  0.6982 -0.1197
 3017TIP3    H2 9016   5.843   1.501   0.174  2.1910  1.6815  0.0160
 3018TIP3   OH2 9017   1.612   0.877   3.196 -0.0658 -0.4222 -0.1182
 3018TIP3    H1 9018   1.597   0.921   3.113  1.5487  0.9793  0.2748
 3018TIP3    H2 9019   1.700   0.841   3.189 -1.0988 -3.1505 -0.1788
 3019TIP3   OH2 9020   4.138   0.188   5.410 -0.4037  0.1846  0.0214
 3019TIP3    H1 9021   4.219   0.237   5.427  0.2034 -0.5714 -0.5727
 3019TIP3    H2 9022   4.117   0.146   5.493  0.4070 -0.4306 -0.0683
 3020TIP3   OH2 9023   2.494   0.475   2.494 -0.1002 -0.4556 -0.4869
 3020TIP3    H1 9024   2.471   0.392   2.536 -1.1951 -0.3712 -0.8750
 3020TIP3    H2 9025   2.477   0.460   2.401 -2.6054  0.8686 -0.3457
 3021TIP3   OH2 9026   0.322   3.168   4.856 -0.6694  0.4227 -0.0510
 3021TIP3    H1 9027   0.271   3.161   4.775 -1.0049  0.0396  0.1937
 3021TIP3    H2 9028   0.366   3.083   4.864  0.5943  0.9790 -0.6391
 3022TIP3   OH2 9029   2.983   4.237   4.265 -0.4872  0.3891  0.0223
 3022TIP3    H1 9030   2.955   4.147   4.247 -0.5166  0.0141  1.7925
 3022TIP3    H2 9031   3.076   4.238   4.241 -0.1452 -0.5165  1.1967
 3023TIP3   OH2 9032   1.096   4.222   0.841 -0.4965 -0.5082 -0.5426
 3023TIP3    H1 9033   1.169   4.164   0.863 -1.5816 -1.1587  1.6825
 3023TIP3    H2 9034   1.101   4.233   0.746  2.2344 -0.8188 -0.5096
 3024TIP3   OH2 9035   4.967   6.067   1.376  0.4327 -0.3581 -0.6117
 3024TIP3    H1 9036   4.949   6.098   1.465  0.7094 -0.0917 -0.6479
 3024TIP3    H2 9037   5.046   6.013   1.385  0.7004  0.0079 -0.7655
 3025TIP3   OH2 9038   2.815   1.048   4.507  0.6831 -0.2299  0.1143
 3025TIP3    H1 9039   2.839   1.019   4.419  1.9854  1.2377 -0.0574
 3025TIP3    H2 9040   2.822   0.968   4.560  2.2372 -0.6860 -0.6935
 3026TIP3   OH2 9041   0.112   6.101   2.359 -0.4330  0.1671 -0.3881
 3026TIP3    H1 9042   0.170   6.158   2.307  1.3213 -0.7679  0.4566
 3026TIP3    H2 9043   0.167   6.026   2.383 -1.5581 -0.0736  1.6832
 3027TIP3   OH2 9044   0.630   3.571   4.826 -0.2483  0.0666  0.0193
 3027TIP3    H1 9045   0.677   3.648   4.793 -0.1925  0.2583  0.5376
 3027TIP3    H2 9046   0.572   3.605   4.894 -0.1430 -0.3675  0.3313
 3028TIP3   OH2 9047   2.510   0.718   3.003 -0.1612  0.0688 -0.4280
 3028TIP3    H1 9048   2.494   0.649   3.068 -1.5700  0.2819 -0.5191
 3028TIP3    H2 9049   2.423   0.743   2.973  0.3720  1.3680 -0.9546
 3029TIP3   OH2 9050   5.114   1.664   4.176  0.2382 -0.6069  0.3683
 3029TIP3    H1 9051   5.058   1.651   4.099  1.2224 -0.5669 -0.3697
 3029TIP3    H2 9052   5.054   1.656   4.250 -1.1124  1.3381 -0.4316
 3030TIP3   OH2 9053   5.777   1.758   2.357  0.0121  0.4656 -0.0960
 3030TIP3    H1 9054   5.769   1.739   2.450 -2.4045 -1.0167 -0.5315
 3030TIP3    H2 9055   5.844   1.698   2.326 -0.3472 -0.2052  0.4028
 3031TIP3   OH2 9056   0.419   4.212   5.082  0.5456 -1.0719 -0.3281
 3031TIP3    H1 9057   0.336   4.173   5.109  0.5360 -0.3809  0.6836
 3031TIP3    H2 9058   0.484   4.175   5.142  0.6101  0.0721  0.3329
 3032TIP3   OH2 9059   0.184   5.701   2.850 -0.2808 -0.7387  0.1734
 3032TIP3    H1 9060   0.152   5.707   2.940 -2.7139 -1.6157 -0.5586
 3032TIP3    H2 9061   0.278   5.686   2.859 -0.3884 -0.3920  2.5362
 3033TIP3   OH2 9062   0.769   3.453   2.858  0.2313  0.1340 -0.3456
 3033TIP3    H1 9063   0.691   3.415   2.816 -1.9065  3.8704 -0.1503
 3033TIP3    H2 9064   0.748   3.455   2.951  0.8651  0.5599 -0.2053
 3034TIP3   OH2 9065   5.800   4.699   4.409  0.5674 -0.1767 -0.1679
 3034TIP3    H1 9066   5.813   4.776   4.465  0.4561 -0.8555  0.8094
 3034TIP3    H2 9067   5.706   4.688   4.404  0.6053 -1.0367  0.8072
 3035TIP3   OH2 9068   4.233   2.224   4.189 -0.2951  0.1067  0.4373
 3035TIP3    H1 9069   4.179   2.185   4.258 -1.9553  0.4208 -0.6288
 3035TIP3    H2 9070   4.241   2.316   4.216 -0.3738  0.0834  0.5447
 3036TIP3   OH2 9071   3.052   2.665   1.258 -0.3187 -0.0160  0.5373
 3036TIP3    H1 9072   3.058   2.606   1.184  0.2353 -0.6084  1.0460
 3036TIP3    H2 9073   3.079   2.613   1.333 -1.6639  0.3240  1.2973
 3037TIP3   OH2 9074   0.724   2.084   2.357 -0.1498  0.3900 -0.1624
 3037TIP3    H1 9075   0.633   2.073   2.329 -0.0329 -1.2216  0.0191
 3037TIP3    H2 9076   0.763   1.998   2.344  1.5868  1.2601 -1.0363
 3038TIP3   OH2 9077   1.448   3.923   1.353  0.2864  0.1833  0.4035
 3038TIP3    H1 9078   1.403   3.847   1.317 -0.4761  0.7265  0.1895
 3038TIP3    H2 9079   1.380   3.969   1.403  0.8524  0.4759  0.9103
 3039TIP3   OH2 9080   3.086   2.645   1.998 -0.4942 -0.6510 -0.6350
 3039TIP3    H1 9081   3.070   2.558   1.961  1.6674 -0.7746 -1.4244
 3039TIP3    H2 9082   3.081   2.704   1.923  0.4089 -0.4321 -0.5341
 3040TIP3   OH2 9083   0.032   4.774   3.526 -0.9544 -0.2008  0.0302
 3040TIP3    H1 9084   0.014   4.756   3.434  0.2079 -0.1072 -0.2315
 3040TIP3    H2 9085  -0.032   4.841   3.550 -1.2899 -0.2458 -0.6976
 3041TIP3   OH2 9086   0.849   5.946   3.345 -0.0383 -0.2381  0.2975
 3041TIP3    H1 9087   0.789   6.015   3.317 -1.6369 -1.2837  1.0256
 3041TIP3    H2 9088   0.881   5.974   3.431 -0.4445 -0.2624  0.4565
 3042TIP3   OH2 9089   3.694   4.469   1.973  0.0596  0.4114 -0.3227
 3042TIP3    H1 9090   3.789   4.481   1.968  0.2320  0.6328  2.3465
 3042TIP3    H2 9091   3.660   4.554   2.000 -0.2458 -0.8586  3.9611
 3043TIP3   OH2 9092   0.623   3.183   3.233 -0.1162  0.0392  0.2453
 3043TIP3    H1 9093   0.707   3.225   3.249  0.3213 -0.9836  0.6594
 3043TIP3    H2 9094   0.613   3.119   3.304 -1.2038  0.0863  0.1596
 3044TIP3   OH2 9095   2.064   1.424   2.162  0.5728  0.2564 -0.4538
 3044TIP3    H1 9096   1.970   1.422   2.143  0.7872 -1.1967 -1.5970
 3044TIP3    H2 9097   2.081   1.512   2.194 -1.3795  0.2032  0.8634
 3045TIP3   OH2 9098   5.957   3.056   1.618 -0.5009 -0.0724  0.8562
 3045TIP3    H1 9099   5.981   3.148   1.608 -0.2552 -0.1680  0.5702
 3045TIP3    H2 9100   6.037   3.013   1.647 -0.8003 -0.0737  1.7089
 3046TIP3   OH2 9101   1.479   6.201   3.934  0.1526  0.5530 -0.2877
 3046TIP3    H1 9102   1.485   6.110   3.905  0.1829  1.0344 -1.9276
 3046TIP3    H2 9103   1.398   6.205   3.984  0.0683 -0.3445 -0.3331
 3047TIP3   OH2 9104   0.494   3.624   2.281  0.1921  0.4018 -0.3434
 3047TIP3    H1 9105   0.583   3.598   2.305 -0.0737  1.3217  1.8976
 3047TIP3    H2 9106   0.438   3.559   2.323 -0.2373 -0.9550 -2.8288
 3048TIP3   OH2 9107   6.065   3.526   1.425 -0.5014 -0.3581  0.0589
 3048TIP3    H1 9108   6.099   3.616   1.419  0.2135 -0.7126 -2.0818
 3048TIP3    H2 9109   6.015   3.514   1.345  0.3597 -2.2208 -0.2558
 3049TIP3   OH2 9110   2.500   4.988   3.032  0.1059 -0.4438 -0.2344
 3049TIP3    H1 9111   2.543   5.063   2.991 -1.1792  0.9304  0.8515
 3049TIP3    H2 9112   2.503   5.006   3.125  2.4700 -3.2468  0.3839
 3050TIP3   OH2 9113   1.090   3.713   1.296  0.8067  0.0167 -0.3934
 3050TIP3    H1 9114   1.053   3.673   1.374 -1.1339  0.7069 -0.9222
 3050TIP3    H2 9115   1.184   3.717   1.314  0.2897  1.6176  2.5877
 3051TIP3   OH2 9116   6.843   4.940   2.010  0.0935 -0.0843 -0.5523
 3051TIP3    H1 9117   6.797   4.890   2.077 -1.2109  0.6896 -0.8421
 3051TIP3    H2 9118   6.884   5.012   2.057  1.9523 -1.3344 -0.1375
 3052TIP3   OH2 9119   6.148   4.256   4.662  0.1793 -0.3081  0.1488
 3052TIP3    H1 9120   6.167   4.163   4.652 -0.2581 -0.2705 -1.3989
 3052TIP3    H2 9121   6.075   4.272   4.602  0.0477  0.9772  0.6131
 3053TIP3   OH2 9122   3.448   5.811   3.660 -0.0926  0.3699 -0.6367
 3053TIP3    H1 9123   3.395   5.732   3.644  1.5493 -0.8576 -0.2351
 3053TIP3    H2 9124   3.387   5.872   3.703 -1.7091 -0.2214 -1.9793
 3054TIP3   OH2 9125   2.082   3.336   3.001 -0.0610 -0.0656  0.1361
 3054TIP3    H1 9126   2.028   3.409   2.971 -0.8756 -0.2880  1.0221
 3054TIP3    H2 9127   2.091   3.351   3.095 -0.8726 -1.5168  0.4582
 3055TIP3   OH2 9128   0.204   6.397   3.356 -0.0548 -0.1922  0.5389
 3055TIP3    H1 9129   0.135   6.459   3.334 -0.3721 -0.6195  0.3048
 3055TIP3    H2 9130   0.233   6.363   3.272  0.3037 -0.1637  0.6494
 3056TIP3   OH2 9131   3.545   0.843   4.781 -0.7242  0.1684 -0.0611
 3056TIP3    H1 9132   3.553   0.924   4.830 -0.2294  1.2704 -1.8752
 3056TIP3    H2 9133   3.478   0.860   4.715 -0.1470 -0.6424 -0.8984
 3057TIP3   OH2 9134   4.048   2.872   3.046 -0.0491 -0.4372 -0.0798
 3057TIP3    H1 9135   4.095   2.842   2.968  2.3947  0.6588  0.8787
 3057TIP3    H2 9136   3.998   2.795   3.075  2.8986 -2.4235  0.0941
 3058TIP3   OH2 9137   7.168   0.243   1.596  0.0124  0.1035 -0.2814
 3058TIP3    H1 9138   7.210   0.273   1.677  1.7144 -0.3359 -0.9570
 3058TIP3    H2 9139   7.227   0.273   1.527 -1.6189  0.8250 -1.4137
 3059TIP3   OH2 9140   6.235   1.236   4.929  0.0262  0.2492  0.3280
 3059TIP3    H1 9141   6.243   1.326   4.898 -0.8674  0.9962  2.1309
 3059TIP3    H2 9142   6.170   1.197   4.871 -0.4792  1.1459  0.2635
 3060TIP3   OH2 9143   0.754   1.225   0.588 -0.1600  0.2010 -0.0006
 3060TIP3    H1 9144   0.791   1.139   0.608  1.8755  0.3198 -2.6267
 3060TIP3    H2 9145   0.828   1.275   0.552 -1.6436  2.5329 -0.0701
 3061TIP3   OH2 9146   4.408   5.895   0.238  0.5436 -0.7231 -0.3845
 3061TIP3    H1 9147   4.338   5.952   0.269 -0.1542 -1.4673 -0.5304
 3061TIP3    H2 9148   4.400   5.898   0.142  1.4651  0.0866 -0.4478
 3062TIP3   OH2 9149   4.978   0.150   3.239  0.1747  0.2253 -0.2256
 3062TIP3    H1 9150   4.952   0.066   3.201 -0.8211  0.2260  0.4193
 3062TIP3    H2 9151   5.073   0.153   3.228  0.1449 -0.6948 -0.8316
 3063TIP3   OH2 9152   2.618   6.472   0.590 -0.5702  0.0547  0.0401
 3063TIP3    H1 9153   2.699   6.471   0.540 -0.7912  0.0520 -0.3221
 3063TIP3    H2 9154   2.608   6.563   0.618 -2.0656  0.8187 -2.6252
 3064TIP3   OH2 9155   3.681   0.046   3.957 -0.3042 -0.3330  0.3489
 3064TIP3    H1 9156   3.710   0.046   4.048 -1.5927 -1.4240  0.7812
 3064TIP3    H2 9157   3.759   0.019   3.907  0.8111  1.5602  0.9367
 3065TIP3   OH2 9158   3.276   2.435   0.660  0.4637 -0.0946  0.0644
 3065TIP3    H1 9159   3.337   2.509   0.662 -0.9147  1.2028 -1.9369
 3065TIP3    H2 9160   3.276   2.406   0.569 -0.1548 -1.5946  0.5161
 3066TIP3   OH2 9161   3.649   4.963   2.826 -0.7788 -0.2453 -0.2194
 3066TIP3    H1 9162   3.637   4.922   2.740 -0.9175 -1.1360  0.2178
 3066TIP3    H2 9163   3.689   5.048   2.806  0.8296 -1.1532 -1.0475
 3067TIP3   OH2 9164   4.730   5.750   0.580  0.5988 -0.0336 -0.0886
 3067TIP3    H1 9165   4.644   5.709   0.571  1.1642 -0.7682 -2.7671
 3067TIP3    H2 9166   4.775   5.695   0.644 -0.3749 -0.5697  0.1667
 3068TIP3   OH2 9167   4.233   6.063   1.778  0.2517 -0.2259 -0.1659
 3068TIP3    H1 9168   4.304   6.071   1.715  0.3469  2.4240  0.1660
 3068TIP3    H2 9169   4.173   6.000   1.738 -0.8541  2.9660 -4.2043
 3069TIP3   OH2 9170   4.655   5.737   5.785  0.1330 -0.0057  0.0802
 3069TIP3    H1 9171   4.673   5.830   5.773 -0.9135  0.3714  1.1905
 3069TIP3    H2 9172   4.644   5.702   5.696  1.4203  0.7227 -0.3879
 3070TIP3   OH2 9173   4.976   6.244   3.912  0.3749  0.9311 -0.2580
 3070TIP3    H1 9174   5.064   6.241   3.949  0.2489  0.5128  0.0036
 3070TIP3    H2 9175   4.925   6.294   3.975 -0.5088 -2.0435  1.5568
 3071TIP3   OH2 9176   5.900   5.325   4.469  0.8059  0.8610  0.0425
 3071TIP3    H1 9177   5.995   5.322   4.461  0.8569 -2.0645  0.5396
 3071TIP3    H2 9178   5.869   5.247   4.423 -1.2375  0.9634  1.1122
 3072TIP3   OH2 9179   3.933   0.682   3.810 -0.3745  0.0157  0.5391
 3072TIP3    H1 9180   3.956   0.771   3.838  0.9669  0.1528 -0.8518
 3072TIP3    H2 9181   3.946   0.628   3.889  0.3216  0.8256  1.0057
 3073TIP3   OH2 9182   1.703   1.240   2.966 -0.1174 -0.0991  0.0009
 3073TIP3    H1 9183   1.678   1.230   2.874 -1.7677  0.1381  0.3965
 3073TIP3    H2 9184   1.755   1.162   2.985  2.5671  1.0991 -1.8222
 3074TIP3   OH2 9185   6.208   0.637   2.702  0.0064  0.6224 -0.3108
 3074TIP3    H1 9186   6.193   0.725   2.738  1.1698  0.2173  1.2664
 3074TIP3    H2 9187   6.175   0.578   2.769 -0.6720 -0.1779 -1.3192
 3075TIP3   OH2 9188   6.303   1.494   2.903 -0.1729  0.1952  0.6581
 3075TIP3    H1 9189   6.233   1.456   2.955  1.1746  0.2731  2.6338
 3075TIP3    H2 9190   6.381   1.488   2.959  1.5747 -0.5190 -1.6880
 3076TIP3   OH2 9191   2.400   6.268   4.433  0.0867  0.0127 -0.1957
 3076TIP3    H1 9192   2.391   6.361   4.412  0.6880  0.3087  0.7771
 3076TIP3    H2 9193   2.484   6.262   4.480  0.0526 -1.0203 -0.2413
 3077TIP3   OH2 9194   1.008   1.024   2.642 -0.0916 -0.7125 -0.8830
 3077TIP3    H1 9195   0.970   1.070   2.716 -0.1831 -2.6086  0.3296
 3077TIP3    H2 9196   1.094   0.997   2.672  1.1985  1.1729 -2.6370
 3078TIP3   OH2 9197   5.602   1.248   2.732  0.4605 -0.8550  0.0158
 3078TIP3    H1 9198   5.684   1.210   2.763  2.0483  2.2568 -0.0527
 3078TIP3    H2 9199   5.547   1.255   2.810  1.4693 -0.1240  0.6767
 3079TIP3   OH2 9200   0.280   4.031   1.999  0.2760  0.6430 -0.4469
 3079TIP3    H1 9201   0.188   4.018   1.979  0.1937 -0.3358  0.4624
 3079TIP3    H2 9202   0.312   3.945   2.025  1.9075  0.5694 -2.4067
 3080TIP3   OH2 9203   4.984   6.388   0.858  0.0393  0.4493 -0.4338
 3080TIP3    H1 9204   4.977   6.420   0.768  1.2239  1.9001 -0.0542
 3080TIP3    H2 9205   5.002   6.294   0.848 -0.4926  0.4518 -1.6831
 3081TIP3   OH2 9206   3.743   4.617   5.697  0.0858 -0.0384  0.3307
 3081TIP3    H1 9207   3.766   4.575   5.780 -0.8969 -1.6588 -0.1635
 3081TIP3    H2 9208   3.682   4.686   5.722 -1.1204 -1.2542  0.9074
 3082TIP3   OH2 9209   4.029   1.494   4.579 -0.2511 -0.2785  0.1144
 3082TIP3    H1 9210   3.969   1.419   4.581 -1.5021  0.6622 -0.7151
 3082TIP3    H2 9211   4.062   1.500   4.669 -1.5955 -0.6843  0.6644
 3083TIP3   OH2 9212   0.330   4.133   1.593  0.1006  0.1211  0.1021
 3083TIP3    H1 9213   0.389   4.124   1.668 -0.3953 -1.0128  0.3904
 3083TIP3    H2 9214   0.357   4.064   1.533  0.3124  0.8483 -0.6468
 3084TIP3   OH2 9215   6.024   4.447   1.520 -0.1086  0.3037  0.6910
 3084TIP3    H1 9216   6.102   4.460   1.574  1.0403 -3.1723  0.1195
 3084TIP3    H2 9217   6.055   4.461   1.430 -0.2003 -0.7410  0.4868
 3085TIP3   OH2 9218   3.010   1.812   3.776 -0.2574  0.4531 -0.3299
 3085TIP3    H1 9219   2.959   1.732   3.768  0.6091 -0.5399  2.5436
 3085TIP3    H2 9220   3.094   1.791   3.735 -0.1838  0.0011  0.0378
 3086TIP3   OH2 9221   0.962   2.903   0.476  0.5794  0.4877 -0.1235
 3086TIP3    H1 9222   0.968   2.851   0.556  0.9708 -1.0863 -1.1371
 3086TIP3    H2 9223   0.913   2.981   0.502 -0.7510 -0.7472  1.2850
 3087TIP3   OH2 9224   2.759   5.924   2.002  0.0237  0.0319 -0.1701
 3087TIP3    H1 9225   2.769   5.991   1.934 -1.0949  0.2855 -0.0988
 3087TIP3    H2 9226   2.666   5.926   2.024  0.1486 -0.9224  0.4824
 3088TIP3   OH2 9227   6.712   2.350   0.262 -0.0583 -0.4968  0.2981
 3088TIP3    H1 9228   6.669   2.280   0.311 -0.0308 -1.5372 -1.0913
 3088TIP3    H2 9229   6.663   2.355   0.180 -1.1983  2.3746  1.0251
 3089TIP3   OH2 9230   0.231   0.252   1.032  0.1128  0.1187  0.1631
 3089TIP3    H1 9231   0.187   0.173   1.002 -0.7918  1.1657 -1.3937
 3089TIP3    H2 9232   0.317   0.222   1.063  0.7959 -1.2026 -2.7088
 3090TIP3   OH2 9233   1.811   1.404   3.824  0.4245  0.1110 -0.3155
 3090TIP3    H1 9234   1.846   1.413   3.912 -0.7908 -0.8268  0.2895
 3090TIP3    H2 9235   1.847   1.479   3.776  0.1605  1.3244  1.2833
 3091TIP3   OH2 9236   6.586   0.900   1.217 -0.4595 -0.0030 -0.7160
 3091TIP3    H1 9237   6.518   0.943   1.269  0.2612 -0.6767  0.8392
 3091TIP3    H2 9238   6.544   0.821   1.183 -0.3458 -0.6282  0.5778
 3092TIP3   OH2 9239   2.246   5.286   1.013  0.1478  0.4052 -0.0892
 3092TIP3    H1 9240   2.341   5.291   1.016  0.2047  0.0848 -0.9366
 3092TIP3    H2 9241   2.216   5.373   1.038  0.6685  0.5438  0.0557
 3093TIP3   OH2 9242   1.613   6.443   3.910  0.2033 -0.0870 -0.6341
 3093TIP3    H1 9243   1.692   6.425   3.961 -0.4087 -1.0094  0.0452
 3093TIP3    H2 9244   1.569   6.358   3.905  0.3851 -0.1053 -3.0068
 3094TIP3   OH2 9245   4.349   2.679   2.286 -1.1331 -0.2730 -0.0289
 3094TIP3    H1 9246   4.398   2.722   2.216 -1.0700 -0.1420  0.0951
 3094TIP3    H2 9247   4.323   2.595   2.249 -0.4607 -0.5188  0.0456
 3095TIP3   OH2 9248   3.415   2.710   3.240 -0.1259 -0.6986 -0.3809
 3095TIP3    H1 9249   3.323   2.726   3.264  0.2760  0.8162  0.3244
 3095TIP3    H2 9250   3.411   2.663   3.157 -1.5479 -0.0244 -0.7306
 3096TIP3   OH2 9251   4.782   4.354   3.773  0.3138 -0.9350  0.1935
 3096TIP3    H1 9252   4.836   4.425   3.738  0.0141 -1.3223 -1.1363
 3096TIP3    H2 9253   4.698   4.396   3.794  1.0213 -0.3669  2.1028
 3097TIP3   OH2 9254   5.466   5.519   1.724  0.1357 -0.3809 -0.3456
 3097TIP3    H1 9255   5.520   5.451   1.685  1.3898  0.5631 -0.3171
 3097TIP3    H2 9256   5.501   5.529   1.813 -0.0303  0.3095 -0.3547
 3098TIP3   OH2 9257   2.962   6.430   2.937 -0.3349 -0.3786 -0.4220
 3098TIP3    H1 9258   2.895   6.364   2.917 -0.0325 -0.7038 -0.3520
 3098TIP3    H2 9259   2.945   6.500   2.873 -0.6290 -0.5366 -0.5220
 3099TIP3   OH2 9260   3.410   3.757   5.002 -0.1567  0.1580  0.3177
 3099TIP3    H1 9261   3.346   3.686   4.993 -0.1148 -0.0417  1.4457
 3099TIP3    H2 9262   3.481   3.719   5.054  0.7394  0.4822 -0.6384
 3100TIP3   OH2 9263   4.518   5.632   0.290  0.4539 -0.5366  0.0172
 3100TIP3    H1 9264   4.465   5.580   0.229  1.6440  0.0391 -1.5583
 3100TIP3    H2 9265   4.490   5.722   0.275  1.0205 -0.3548  0.0416
 3101TIP3   OH2 9266   6.646   3.479   5.410 -0.1654 -0.8636 -0.0008
 3101TIP3    H1 9267   6.621   3.395   5.372 -0.8212 -1.2013  1.1433
 3101TIP3    H2 9268   6.623   3.544   5.343  0.0794 -1.5603 -0.7727
 3102TIP3   OH2 9269   4.943   1.405   0.905  0.0096 -0.4317 -0.2763
 3102TIP3    H1 9270   4.897   1.322   0.894  1.6431 -1.5973  1.2639
 3102TIP3    H2 9271   4.926   1.430   0.996  0.9806  0.0038 -0.2036
 3103TIP3   OH2 9272   5.512   6.532   5.827  0.1972  0.0001 -0.1403
 3103TIP3    H1 9273   5.524   6.486   5.744  0.4675 -1.4875  0.6818
 3103TIP3    H2 9274   5.595   6.521   5.873 -0.4643 -0.6026  0.9712
 3104TIP3   OH2 9275   0.492   4.472   1.746  0.0797  0.6334  0.0674
 3104TIP3    H1 9276   0.466   4.456   1.655 -0.4987  1.3054  0.0998
 3104TIP3    H2 9277   0.507   4.385   1.783  0.1277  0.3450 -0.6155
 3105TIP3   OH2 9278   5.073   2.356   3.250 -0.5640  0.5557 -0.1169
 3105TIP3    H1 9279   5.066   2.406   3.331 -0.0279 -1.9733  1.6171
 3105TIP3    H2 9280   4.984   2.330   3.229 -0.3830 -2.4501  2.2585
 3106TIP3   OH2 9281   3.173   5.977   2.067 -0.2279 -0.1347 -0.1916
 3106TIP3    H1 9282   3.206   6.061   2.100 -0.5348 -0.4231  0.8843
 3106TIP3    H2 9283   3.142   5.996   1.979 -2.3495  1.4126  0.8057
 3107TIP3   OH2 9284   0.255   4.636   1.504  0.1794  0.4204  0.1582
 3107TIP3    H1 9285   0.174   4.628   1.454  0.4075 -2.7218  0.1138
 3107TIP3    H2 9286   0.229   4.679   1.586 -0.9578  1.8816 -0.9194
 3108TIP3   OH2 9287   5.297   0.726   3.364 -0.1082 -0.1687  0.2674
 3108TIP3    H1 9288   5.373   0.683   3.325 -1.4172 -0.6141 -1.9815
 3108TIP3    H2 9289   5.313   0.722   3.458  2.5537 -0.3693 -0.0985
 3109TIP3   OH2 9290   1.294   4.287   5.283 -0.3068 -0.2785  0.3020
 3109TIP3    H1 9291   1.276   4.380   5.288  0.3962 -0.1610  0.8375
 3109TIP3    H2 9292   1.235   4.254   5.215  0.0530  0.7056 -0.5037
 3110TIP3   OH2 9293   6.086   3.977   4.505  0.1168  0.7614  0.0560
 3110TIP3    H1 9294   6.043   4.019   4.430 -1.3438  1.9246  1.4845
 3110TIP3    H2 9295   6.017   3.965   4.570  1.1388 -1.1213  0.8950
 3111TIP3   OH2 9296   0.339   3.713   5.729  0.1177  0.0283 -0.2729
 3111TIP3    H1 9297   0.392   3.747   5.657 -0.1193  0.8346 -0.0771
 3111TIP3    H2 9298   0.361   3.769   5.803 -0.4321 -0.1244  0.0082
 3112TIP3   OH2 9299   0.418   5.390   0.337  0.7454 -0.1738 -0.6954
 3112TIP3    H1 9300   0.325   5.368   0.331  0.7058  0.3465 -2.8297
 3112TIP3    H2 9301   0.462   5.305   0.332  0.4193 -0.3556 -0.5461
 3113TIP3   OH2 9302   4.992   5.989   5.637  0.1570  0.7578  0.0817
 3113TIP3    H1 9303   5.052   5.949   5.700  1.1943 -0.1071 -1.4233
 3113TIP3    H2 9304   5.012   5.948   5.554 -0.4479  2.6421 -1.0647
 3114TIP3   OH2 9305   6.269   3.813   2.941 -0.1840  0.1505  0.6771
 3114TIP3    H1 9306   6.198   3.820   3.004  0.5598  0.8853  1.4602
 3114TIP3    H2 9307   6.245   3.873   2.870 -0.4028  0.2842  0.8647
 3115TIP3   OH2 9308   4.887   3.842   4.171 -0.4226 -0.4743 -0.4290
 3115TIP3    H1 9309   4.853   3.902   4.237  1.7514 -0.1875  0.5078
 3115TIP3    H2 9310   4.863   3.755   4.202  0.4504 -0.3292  0.7104
 3116TIP3   OH2 9311   1.697   6.298   0.233  0.3480 -0.0818 -0.6793
 3116TIP3    H1 9312   1.764   6.364   0.252  2.6577 -2.1715 -1.0931
 3116TIP3    H2 9313   1.669   6.266   0.318  1.0424 -0.2903 -0.5269
 3117TIP3   OH2 9314   0.861   2.124   4.592  0.5340 -0.0347 -0.2548
 3117TIP3    H1 9315   0.949   2.157   4.609 -0.4051  1.7348  1.7108
 3117TIP3    H2 9316   0.869   2.029   4.602  2.4887 -0.0733 -1.7005
 3118TIP3   OH2 9317   4.391   1.451   2.372 -0.3236  0.4682  0.1531
 3118TIP3    H1 9318   4.299   1.478   2.379 -0.3567  1.0389 -1.8692
 3118TIP3    H2 9319   4.403   1.388   2.444 -2.2315  0.5369  0.5835
 3119TIP3   OH2 9320   5.813   5.633  -0.019 -0.6327  0.0883 -1.2018
 3119TIP3    H1 9321   5.829   5.565   0.046 -0.5045  0.3368 -0.9749
 3119TIP3    H2 9322   5.878   5.700  -0.001 -0.8826  0.3602 -1.3030
 3120TIP3   OH2 9323   1.664   6.438   3.290  0.0238  0.6094  0.0108
 3120TIP3    H1 9324   1.636   6.474   3.374 -1.6723 -1.2679  0.3193
 3120TIP3    H2 9325   1.755   6.411   3.305 -0.5897 -0.7028  1.6174
 3121TIP3   OH2 9326   4.038   2.537   3.956 -0.0225  0.9122  0.2215
 3121TIP3    H1 9327   4.109   2.474   3.951 -0.7189  0.1528 -0.5174
 3121TIP3    H2 9328   4.023   2.563   3.865 -0.9666  0.7187  0.3112
 3122TIP3   OH2 9329   6.865   2.470   3.013 -0.2757  0.5964  0.0501
 3122TIP3    H1 9330   6.851   2.554   3.055  1.5950  0.2999  1.3624
 3122TIP3    H2 9331   6.922   2.421   3.073 -2.5918 -2.2649  0.1551
 3123TIP3   OH2 9332   5.260   3.056   0.713  0.1293 -0.1693  0.3309
 3123TIP3    H1 9333   5.210   3.066   0.794 -0.9966  0.4965 -0.4207
 3123TIP3    H2 9334   5.285   3.145   0.689  1.2429 -0.4471  0.4133
 3124TIP3   OH2 9335   3.355   0.574   1.006 -0.3033 -0.2593  0.2943
 3124TIP3    H1 9336   3.332   0.494   0.958 -1.5471 -0.7582  1.6365
 3124TIP3    H2 9337   3.448   0.564   1.025  0.1491 -0.2039 -1.6578
 3125TIP3   OH2 9338   5.589   6.014   2.201 -0.8372  0.4399 -0.2433
 3125TIP3    H1 9339   5.664   6.065   2.231  0.3237 -0.2865 -1.7519
 3125TIP3    H2 9340   5.599   5.929   2.245 -0.8088  0.3601 -0.4034
 3126TIP3   OH2 9341   6.371   2.375   4.169  0.3377 -0.5251 -0.0088
 3126TIP3    H1 9342   6.385   2.431   4.246 -0.3202  1.6775 -1.4002
 3126TIP3    H2 9343   6.382   2.286   4.202  2.4206  0.4042  2.1258
 3127TIP3   OH2 9344   5.156   3.388   1.902 -0.2712 -0.2075  0.5814
 3127TIP3    H1 9345   5.159   3.409   1.808  0.5171  0.5569  0.7637
 3127TIP3    H2 9346   5.181   3.296   1.907 -1.3926 -0.5613 -0.0448
 3128TIP3   OH2 9347   3.514   4.898   4.926 -0.7044 -0.1230 -0.2190
 3128TIP3    H1 9348   3.551   4.833   4.866 -0.9250 -0.3893 -0.0726
 3128TIP3    H2 9349   3.430   4.860   4.952  0.2986 -1.0456  1.9352
 3129TIP3   OH2 9350   0.746   2.026   3.048  0.0651  0.7935  0.1297
 3129TIP3    H1 9351   0.709   1.944   3.017 -0.1558  1.3333 -1.1011
 3129TIP3    H2 9352   0.811   2.050   2.982  1.4965  0.6804  1.4379
 3130TIP3   OH2 9353   1.028   3.102   1.270 -0.7232  0.0583  0.4077
 3130TIP3    H1 9354   1.061   3.012   1.264 -0.9675 -0.0197  0.2099
 3130TIP3    H2 9355   0.944   3.094   1.315  0.2360  0.4374  2.3660
 3131TIP3   OH2 9356   5.039   3.245   2.261  0.4289  0.3626 -0.3821
 3131TIP3    H1 9357   5.002   3.327   2.228  0.3233  0.5717  0.2459
 3131TIP3    H2 9358   4.971   3.180   2.246  1.1702  0.0160 -2.4921
 3132TIP3   OH2 9359   6.735   4.088   3.816  0.1943  0.5597 -0.4926
 3132TIP3    H1 9360   6.738   4.166   3.872  1.0095 -0.6231  1.2119
 3132TIP3    H2 9361   6.696   4.119   3.734 -0.7977  2.4509  0.6035
 3133TIP3   OH2 9362   4.543   3.665   4.770 -0.1895 -0.0742  0.5348
 3133TIP3    H1 9363   4.544   3.573   4.795 -0.1664  0.0875  1.1344
 3133TIP3    H2 9364   4.633   3.684   4.744 -0.2925 -0.3366 -0.0303
 3134TIP3   OH2 9365   0.911   2.742   0.703  0.1146 -0.7238  0.1079
 3134TIP3    H1 9366   0.894   2.667   0.646 -1.6595  0.0531 -0.4618
 3134TIP3    H2 9367   0.888   2.711   0.791  0.6354 -1.2133  0.0828
 3135TIP3   OH2 9368   5.312   6.076   0.813  0.2344 -0.1825  0.3613
 3135TIP3    H1 9369   5.388   6.084   0.755 -0.1766  0.0796 -0.1411
 3135TIP3    H2 9370   5.337   6.006   0.874  1.0939  0.2660  0.5388
 3136TIP3   OH2 9371   3.547   1.382   0.171 -0.3637  0.3146  0.4529
 3136TIP3    H1 9372   3.522   1.469   0.204  1.3577  0.8909  0.3501
 3136TIP3    H2 9373   3.625   1.359   0.222  0.2710 -0.3459 -0.7743
 3137TIP3   OH2 9374   1.369   6.028   1.644 -0.2133  0.2356 -0.1509
 3137TIP3    H1 9375   1.389   6.120   1.660  0.7166  0.2189 -1.1573
 3137TIP3    H2 9376   1.392   6.013   1.553 -1.3777 -0.7355 -0.3175
 3138TIP3   OH2 9377   4.353   2.045   3.553 -0.5967  0.6053 -0.0320
 3138TIP3    H1 9378   4.338   2.085   3.468 -0.3761  3.2992  1.0751
 3138TIP3    H2 9379   4.398   2.113   3.604 -2.0712 -0.2997  2.7018
 3139TIP3   OH2 9380   4.458   5.894   1.081  0.0326  0.5575 -0.0565
 3139TIP3    H1 9381   4.378   5.896   1.027  0.8568 -1.0333 -1.4540
 3139TIP3    H2 9382   4.444   5.822   1.142  0.7227 -0.3513 -0.9291
 3140TIP3   OH2 9383   5.613   2.589   2.602  0.2433  0.0150  0.2802
 3140TIP3    H1 9384   5.587   2.653   2.667  0.5912 -0.5222  0.9606
 3140TIP3    H2 9385   5.599   2.633   2.518  0.5205  0.9910  0.7301
 3141TIP3   OH2 9386   2.923   5.394   3.096 -0.3045  0.5309 -0.3213
 3141TIP3    H1 9387   3.015   5.419   3.088  0.2745 -1.3869 -0.2516
 3141TIP3    H2 9388   2.876   5.454   3.038  0.8049  2.3591  0.5824
 3142TIP3   OH2 9389   6.412   1.219   2.822  0.2465 -0.2703 -0.2015
 3142TIP3    H1 9390   6.433   1.302   2.778  0.4714  0.0256  0.4465
 3142TIP3    H2 9391   6.426   1.152   2.755 -1.0456  0.3072 -1.0761
 3143TIP3   OH2 9392   0.559   2.362   2.079 -0.5266  0.2753 -0.1547
 3143TIP3    H1 9393   0.494   2.397   2.140 -0.6217  0.8601 -0.5905
 3143TIP3    H2 9394   0.642   2.397   2.111 -0.7315  1.8678 -1.2353
 3144TIP3   OH2 9395   3.869   0.191   0.569 -0.7010 -0.1911 -0.2653
 3144TIP3    H1 9396   3.916   0.214   0.649 -0.8103  1.0217 -0.5289
 3144TIP3    H2 9397   3.777   0.192   0.594 -0.7308  0.1041 -0.3900
 3145TIP3   OH2 9398   3.714   0.352   3.855 -0.1256 -0.3681 -0.4654
 3145TIP3    H1 9399   3.796   0.354   3.805  1.0894 -1.3596  1.3403
 3145TIP3    H2 9400   3.723   0.274   3.911 -1.2249  0.8472  1.4944
 3146TIP3   OH2 9401   2.193   1.285   3.807  0.0624 -1.1446 -0.3590
 3146TIP3    H1 9402   2.120   1.259   3.751 -0.5195 -0.1749 -0.0739
 3146TIP3    H2 9403   2.221   1.204   3.849 -1.5042 -1.3902  0.2806
 3147TIP3   OH2 9404   1.743   0.095   3.916 -0.3813  0.1937  1.0711
 3147TIP3    H1 9405   1.649   0.106   3.905 -0.1402  0.1985 -1.4750
 3147TIP3    H2 9406   1.758   0.001   3.904  0.0070  0.3000  0.6831
 3148TIP3   OH2 9407   4.852   5.405   3.201  0.0685  0.2421 -0.1918
 3148TIP3    H1 9408   4.935   5.376   3.240  0.4812  0.6946 -0.7066
 3148TIP3    H2 9409   4.787   5.393   3.270  0.2918 -1.4954 -0.2486
 3149TIP3   OH2 9410   3.334   6.418   1.118 -0.2108  0.0743 -0.4609
 3149TIP3    H1 9411   3.345   6.503   1.160  0.1738  0.5815 -1.5475
 3149TIP3    H2 9412   3.409   6.367   1.147 -1.0223 -0.2963  1.0828
 3150TIP3   OH2 9413   0.536   5.003   0.955 -0.4831 -0.4667  0.6157
 3150TIP3    H1 9414   0.549   5.003   1.050 -0.0510  1.2296  0.5917
 3150TIP3    H2 9415   0.615   5.044   0.921 -0.7869 -0.7638 -0.4724
 3151TIP3   OH2 9416   1.052   4.034   3.230 -0.0298 -0.1499 -0.2695
 3151TIP3    H1 9417   0.984   3.985   3.182  0.8329 -0.3730 -1.3038
 3151TIP3    H2 9418   1.008   4.114   3.258 -1.5587 -1.5559  1.6625
 3152TIP3   OH2 9419   6.586   5.122   3.333 -0.0464  0.6205  0.1165
 3152TIP3    H1 9420   6.540   5.086   3.258  0.3786  1.1189 -0.3894
 3152TIP3    H2 9421   6.678   5.117   3.310  0.1282  0.2025  0.8634
 3153TIP3   OH2 9422   2.548   2.173   0.255 -0.7008  0.3372  0.0505
 3153TIP3    H1 9423   2.524   2.130   0.174  1.1227  0.6526 -0.7175
 3153TIP3    H2 9424   2.473   2.161   0.313 -1.6753 -0.6617 -1.3734
 3154TIP3   OH2 9425   5.349   3.158   5.304 -0.5514  0.3874 -0.1488
 3154TIP3    H1 9426   5.292   3.181   5.230  0.1343  0.2105 -0.7365
 3154TIP3    H2 9427   5.299   3.186   5.381 -1.6839 -0.2658 -0.6117
 3155TIP3   OH2 9428   2.906   1.096   1.236 -0.2953 -0.8957  0.2803
 3155TIP3    H1 9429   2.858   1.014   1.245 -1.6495 -0.1263  0.3865
 3155TIP3    H2 9430   2.840   1.164   1.249  0.9769  0.2214  1.2238
 3156TIP3   OH2 9431   6.575   4.489   4.142  0.3011  0.1502  0.3365
 3156TIP3    H1 9432   6.547   4.398   4.154 -1.3115  0.5311 -0.2620
 3156TIP3    H2 9433   6.520   4.540   4.201  0.6100  0.8234  0.0649
 3157TIP3   OH2 9434   4.331   3.849   4.615  0.0042 -0.1411 -0.0122
 3157TIP3    H1 9435   4.252   3.803   4.586  0.0118 -0.0329 -0.2086
 3157TIP3    H2 9436   4.369   3.791   4.681 -0.0157 -0.3962 -0.2199
 3158TIP3   OH2 9437   1.390   3.116   1.891 -0.0902 -0.5018 -0.3455
 3158TIP3    H1 9438   1.326   3.182   1.864 -0.1793 -0.4957 -0.1204
 3158TIP3    H2 9439   1.437   3.094   1.811 -0.3935 -0.5280 -0.5174
 3159TIP3   OH2 9440   3.396   6.578   5.423  0.0513 -0.3687 -0.7723
 3159TIP3    H1 9441   3.400   6.597   5.329  0.9780 -0.9644 -0.8732
 3159TIP3    H2 9442   3.430   6.657   5.465 -0.9437  0.1397 -0.8866
 3160TIP3   OH2 9443   6.792   2.929   1.762 -0.0970  0.5402  0.0618
 3160TIP3    H1 9444   6.765   2.916   1.671 -1.3887  1.9225  0.2074
 3160TIP3    H2 9445   6.803   3.023   1.770 -0.3245  0.4656  1.4252
 3161TIP3   OH2 9446   5.641   3.169   4.089 -0.2750  0.5042 -0.4211
 3161TIP3    H1 9447   5.613   3.245   4.038 -1.4512  0.8865  0.7405
 3161TIP3    H2 9448   5.560   3.132   4.122  0.4608  0.4177  1.3654
 3162TIP3   OH2 9449   1.009   6.262   4.147  0.7701 -0.4299 -0.1799
 3162TIP3    H1 9450   1.005   6.329   4.079 -0.4329 -0.3009 -0.0003
 3162TIP3    H2 9451   0.997   6.309   4.229 -2.8530 -1.0606 -0.1875
 3163TIP3   OH2 9452   1.782   3.876   2.340  0.3880  0.1844 -0.2087
 3163TIP3    H1 9453   1.767   3.845   2.250  0.4287  0.8841 -0.4594
 3163TIP3    H2 9454   1.757   3.801   2.395 -2.4556  0.6885 -0.6490
 3164TIP3   OH2 9455   3.037   1.495   0.205 -0.9408  0.1446  0.2065
 3164TIP3    H1 9456   2.942   1.489   0.211 -1.0520  0.0659 -1.2517
 3164TIP3    H2 9457   3.061   1.564   0.267 -2.1505  1.4656 -0.7404
 3165TIP3   OH2 9458   3.967   1.991   3.077 -0.9445  0.4562 -0.1647
 3165TIP3    H1 9459   3.946   2.080   3.103 -1.2606  0.3222  0.0317
 3165TIP3    H2 9460   3.999   1.949   3.157 -1.1878  0.2720 -0.1648
 3166TIP3   OH2 9461   4.630   3.374   5.029  0.1518  0.1277 -0.1941
 3166TIP3    H1 9462   4.676   3.299   5.068  2.0429  0.4754 -1.5947
 3166TIP3    H2 9463   4.553   3.336   4.987 -0.3079 -0.6441  1.2834
 3167TIP3   OH2 9464   0.270   5.587   3.692  1.0679  0.6610 -0.8168
 3167TIP3    H1 9465   0.232   5.674   3.704 -2.0776 -0.5011 -1.3756
 3167TIP3    H2 9466   0.321   5.572   3.771  0.4379  2.4077 -0.0167
 3168TIP3   OH2 9467   7.000   2.642   0.381  0.0092  0.3639  0.0909
 3168TIP3    H1 9468   7.029   2.720   0.429 -2.4349 -0.3714  3.0633
 3168TIP3    H2 9469   7.068   2.577   0.399  1.2805  1.3054 -1.1241
 3169TIP3   OH2 9470   3.522   4.601   0.632  0.1352  0.1913  0.1370
 3169TIP3    H1 9471   3.598   4.658   0.622  0.0404  0.2409 -0.3474
 3169TIP3    H2 9472   3.511   4.592   0.726 -0.2876  1.5619  0.2466
 3170TIP3   OH2 9473   3.042   0.285   4.728  0.4772 -0.0442  0.1942
 3170TIP3    H1 9474   3.096   0.262   4.803  1.6826  1.1953 -0.2569
 3170TIP3    H2 9475   3.103   0.324   4.665 -0.5107 -0.9771 -1.4085
 3171TIP3   OH2 9476   0.426   5.614   5.602  0.6181 -0.1971 -0.3036
 3171TIP3    H1 9477   0.476   5.644   5.526  2.5103  0.9714  1.2909
 3171TIP3    H2 9478   0.409   5.522   5.586 -1.0708  0.5024 -3.1564
 3172TIP3   OH2 9479   6.681   2.607   4.177 -0.5425 -0.2497 -1.3277
 3172TIP3    H1 9480   6.741   2.534   4.188 -1.8261 -1.0730  0.9704
 3172TIP3    H2 9481   6.737   2.685   4.173  0.7110 -1.0351  0.2022
 3173TIP3   OH2 9482   0.519   0.276   1.836  0.1792  0.1716 -0.0044
 3173TIP3    H1 9483   0.425   0.292   1.844 -0.0082 -0.6381 -0.4620
 3173TIP3    H2 9484   0.526   0.186   1.804  1.0741  0.6168 -1.1351
 3174TIP3   OH2 9485   6.658   3.341   2.284 -0.5775 -0.3253 -0.5426
 3174TIP3    H1 9486   6.694   3.397   2.352 -0.5761 -0.7854 -0.1653
 3174TIP3    H2 9487   6.568   3.324   2.312 -1.7638  2.2473 -2.3239
 3175TIP3   OH2 9488   4.487   4.683   4.420 -0.7550  0.4606  0.5039
 3175TIP3    H1 9489   4.546   4.740   4.471 -0.9331  1.4403 -0.3449
 3175TIP3    H2 9490   4.544   4.618   4.381 -0.3132  0.9851  0.2566
 3176TIP3   OH2 9491   5.331   4.019   5.619 -0.0247 -0.0760 -0.1451
 3176TIP3    H1 9492   5.281   3.992   5.695 -0.7727 -1.9655 -1.2362
 3176TIP3    H2 9493   5.311   4.112   5.608 -0.7892 -0.0571  1.2800
 3177TIP3   OH2 9494   1.376   0.812   1.471  0.1933  0.0988  0.0232
 3177TIP3    H1 9495   1.428   0.774   1.400  2.0048  3.0752 -0.4504
 3177TIP3    H2 9496   1.389   0.907   1.461 -0.8827  0.7125  3.3183
 3178TIP3   OH2 9497   3.206   3.007   1.847  0.4531  0.2746 -0.0451
 3178TIP3    H1 9498   3.144   2.940   1.817  0.2229 -0.0301  1.0572
 3178TIP3    H2 9499   3.177   3.088   1.804  0.5177 -0.2483 -1.1069
 3179TIP3   OH2 9500   5.619   6.584   3.008  0.0554 -0.0468  0.1344
 3179TIP3    H1 9501   5.708   6.612   3.030  0.0530 -0.2397  0.3863
 3179TIP3    H2 9502   5.564   6.621   3.077 -0.1968  0.9245 -0.5616
 3180TIP3   OH2 9503   4.030   1.212   3.704 -0.1675 -0.4385 -0.2467
 3180TIP3    H1 9504   4.010   1.206   3.610 -0.7094  0.0749 -0.1739
 3180TIP3    H2 9505   3.960   1.267   3.739  0.1285 -0.4901  0.4327
 3181TIP3   OH2 9506   4.597   0.283   1.116  0.0381  0.1717 -0.6645
 3181TIP3    H1 9507   4.554   0.214   1.065  0.5992 -0.7657  0.0885
 3181TIP3    H2 9508   4.657   0.324   1.054  1.2674 -1.4524 -0.6392
 3182TIP3   OH2 9509   6.800   2.337   5.013 -0.1729  0.1023  0.2270
 3182TIP3    H1 9510   6.800   2.432   4.999  1.7488  0.2395  0.7477
 3182TIP3    H2 9511   6.874   2.305   4.961 -0.8086 -1.1170  0.0457
 3183TIP3   OH2 9512   2.525   0.506   1.293 -0.2753 -1.2310  0.1802
 3183TIP3    H1 9513   2.564   0.518   1.206  0.7527 -1.0631  0.6455
 3183TIP3    H2 9514   2.553   0.418   1.320 -0.0059 -1.0209  0.6130
 3184TIP3   OH2 9515   5.591   4.413   3.621 -0.7587  0.6453 -0.0595
 3184TIP3    H1 9516   5.655   4.414   3.549 -0.4925 -0.1846  0.1550
 3184TIP3    H2 9517   5.525   4.349   3.594 -2.4391  2.6661 -1.0388
 3185TIP3   OH2 9518   2.347   0.942   5.224  0.1146  0.4976  0.6687
 3185TIP3    H1 9519   2.385   1.006   5.163 -0.1118 -0.3190 -0.3619
 3185TIP3    H2 9520   2.255   0.936   5.196 -0.2012  0.7075  1.6236
 3186TIP3   OH2 9521   3.622   5.471   1.944  0.4835 -0.1314  0.1312
 3186TIP3    H1 9522   3.594   5.521   2.021 -0.2536  0.7230 -0.6722
 3186TIP3    H2 9523   3.603   5.528   1.870  0.0835 -1.3988 -0.7772
 3187TIP3   OH2 9524   1.875   0.915   3.954 -0.7187  0.1011  0.8757
 3187TIP3    H1 9525   1.872   0.917   4.049  0.8139 -0.5791  0.9731
 3187TIP3    H2 9526   1.908   1.001   3.929 -0.2019 -0.0420  1.0389
 3188TIP3   OH2 9527   0.349   4.210   2.640  0.2695 -0.1507  0.9710
 3188TIP3    H1 9528   0.262   4.181   2.612  0.1493  1.0996 -0.0257
 3188TIP3    H2 9529   0.408   4.143   2.605  0.0037  0.7570 -1.3464
 3189TIP3   OH2 9530   4.752   4.790   3.747  0.5782 -0.3796 -0.1546
 3189TIP3    H1 9531   4.845   4.771   3.757  0.2634 -2.3466 -0.5777
 3189TIP3    H2 9532   4.718   4.792   3.836  0.6699 -1.7351 -0.0738
 3190TIP3   OH2 9533   3.836   4.072   3.590 -0.3549  0.2631  0.0717
 3190TIP3    H1 9534   3.759   4.075   3.646  0.2150 -1.1906  0.9831
 3190TIP3    H2 9535   3.858   3.979   3.583 -0.3642  0.3700 -2.5430
 3191TIP3   OH2 9536   2.945   1.667   1.717  0.1251 -0.0882  0.0582
 3191TIP3    H1 9537   2.883   1.734   1.745  0.4233  0.0799  0.3264
 3191TIP3    H2 9538   2.913   1.586   1.758 -1.0001 -0.4001 -1.3361
 3192TIP3   OH2 9539   2.822   2.627   1.088 -0.4505  0.1898  0.0361
 3192TIP3    H1 9540   2.849   2.535   1.087  1.7892  0.7833 -0.7860
 3192TIP3    H2 9541   2.824   2.652   1.180  0.9743 -0.0920  0.1105
 3193TIP3   OH2 9542   0.825   6.738   0.846  0.6730  0.7899  0.4159
 3193TIP3    H1 9543   0.863   6.813   0.891  1.4890  1.2541 -0.9842
 3193TIP3    H2 9544   0.866   6.662   0.887 -0.1084  1.0736  1.7994
 3194TIP3   OH2 9545   0.878   6.191   2.010 -0.2355 -0.0220 -0.5107
 3194TIP3    H1 9546   0.905   6.283   2.016 -0.1694 -0.1124  1.0324
 3194TIP3    H2 9547   0.790   6.195   1.973 -0.9950  0.8526  1.2307
 3195TIP3   OH2 9548   5.197   3.953   5.850 -0.2102 -0.0620  0.1744
 3195TIP3    H1 9549   5.145   4.025   5.885  0.2258 -0.6228  2.0901
 3195TIP3    H2 9550   5.227   3.905   5.927  2.5811 -0.1937 -0.8729
 3196TIP3   OH2 9551   3.811   2.989   3.117  0.5494  0.4534  0.1869
 3196TIP3    H1 9552   3.767   2.910   3.147  0.2768  0.5906  0.1469
 3196TIP3    H2 9553   3.895   2.958   3.082  0.6529  0.2396  0.6229
 3197TIP3   OH2 9554   7.171   2.787   0.540  0.1938  0.3822  0.0672
 3197TIP3    H1 9555   7.233   2.831   0.481  0.2988  0.0865 -0.0482
 3197TIP3    H2 9556   7.222   2.715   0.577  0.2655  0.8475  0.8870
 3198TIP3   OH2 9557   5.388   6.351   0.885  0.1968 -0.2810 -0.4193
 3198TIP3    H1 9558   5.367   6.345   0.978 -0.9301  0.1810 -0.6403
 3198TIP3    H2 9559   5.328   6.291   0.842  1.4223 -1.3100 -0.7699
 3199TIP3   OH2 9560   2.555   2.584   2.041  0.3143  0.4917  0.2766
 3199TIP3    H1 9561   2.475   2.543   2.007  0.5137 -0.5734  1.0573
 3199TIP3    H2 9562   2.523   2.647   2.105  0.1309 -1.0164  1.7171
 3200TIP3   OH2 9563   3.690   1.830   0.532  0.6150 -0.5343 -0.1654
 3200TIP3    H1 9564   3.686   1.842   0.627 -0.0518  1.4914 -0.3968
 3200TIP3    H2 9565   3.782   1.842   0.510  0.5992  0.1884  0.1219
 3201TIP3   OH2 9566   3.286   2.049   3.751 -0.3081  0.3454  0.5482
 3201TIP3    H1 9567   3.244   2.106   3.687  2.7683  0.9246 -1.1161
 3201TIP3    H2 9568   3.300   2.105   3.828 -2.3416  0.1463  1.1449
 3202TIP3   OH2 9569   6.071   6.454   0.952  0.1213 -0.0293 -0.0502
 3202TIP3    H1 9570   5.987   6.460   0.906  0.7228  0.4815 -1.1135
 3202TIP3    H2 9571   6.102   6.544   0.958 -0.5835  0.1494  2.6966
 3203TIP3   OH2 9572   3.475   2.637   0.676  0.1516  0.2822 -0.0585
 3203TIP3    H1 9573   3.500   2.724   0.704 -1.2594  0.8500 -0.4689
 3203TIP3    H2 9574   3.557   2.589   0.669  0.8404  1.1439  1.5390
 3204TIP3   OH2 9575   1.996   6.712   2.848 -0.1841  0.3969  0.4483
 3204TIP3    H1 9576   1.960   6.637   2.896  0.9358 -1.1335 -0.9936
 3204TIP3    H2 9577   1.956   6.707   2.762  1.5551  0.1015 -0.3865
 3205TIP3   OH2 9578   5.083   5.177   3.852 -0.5024 -0.0288  0.0931
 3205TIP3    H1 9579   4.989   5.169   3.833 -0.6964  0.7686  0.6488
 3205TIP3    H2 9580   5.088   5.182   3.947 -0.1480  2.3362  0.0188
 3206TIP3   OH2 9581   5.350   3.982   3.106  0.3289  0.1630 -0.1365
 3206TIP3    H1 9582   5.413   4.006   3.174  0.0822 -0.4832  0.3299
 3206TIP3    H2 9583   5.383   3.900   3.070  0.0473  0.1002 -0.2580
 3207TIP3   OH2 9584   0.833   2.637   4.066  0.0077 -0.1218  0.1354
 3207TIP3    H1 9585   0.823   2.619   4.160  0.3896  1.5972  0.5570
 3207TIP3    H2 9586   0.800   2.727   4.056  1.5517  0.3503 -1.0467
 3208TIP3   OH2 9587   6.461   4.692   2.867 -0.4820 -0.3237 -0.4545
 3208TIP3    H1 9588   6.481   4.619   2.925 -0.6974  0.6281  0.8880
 3208TIP3    H2 9589   6.502   4.669   2.784 -0.0856 -1.7107  0.0933
 3209TIP3   OH2 9590   1.584   0.230   0.076 -0.4332 -0.1603  0.1531
 3209TIP3    H1 9591   1.552   0.294   0.013  1.7895  1.3275  0.4295
 3209TIP3    H2 9592   1.524   0.155   0.067 -2.3834  1.4453 -1.0358
 3210TIP3   OH2 9593   4.609   0.985   1.713  0.1906 -0.2051 -0.5856
 3210TIP3    H1 9594   4.656   1.044   1.772 -1.7851  1.7189 -0.8023
 3210TIP3    H2 9595   4.675   0.955   1.651  1.1096  2.8724 -1.2623
 3211TIP3   OH2 9596   2.044   1.801   1.651 -0.0494 -0.9887 -0.0138
 3211TIP3    H1 9597   1.968   1.848   1.685  1.4619 -1.1914  4.3575
 3211TIP3    H2 9598   2.050   1.723   1.707  3.0417 -1.2360 -0.5019
 3212TIP3   OH2 9599   0.349   6.617   0.264  0.0265 -0.3053 -0.0892
 3212TIP3    H1 9600   0.435   6.643   0.297 -0.0191 -0.4801  0.1667
 3212TIP3    H2 9601   0.287   6.660   0.322 -0.0520 -0.8383  0.2346
 3213TIP3   OH2 9602   4.550   1.154   4.226  0.7195 -0.6376  0.4517
 3213TIP3    H1 9603   4.500   1.205   4.162  1.4201 -0.2587  0.1983
 3213TIP3    H2 9604   4.520   1.186   4.311  1.4262  0.4880  0.2959
 3214TIP3   OH2 9605   5.642   0.527   0.240 -0.0793 -0.3929  0.1883
 3214TIP3    H1 9606   5.603   0.586   0.305 -1.4817 -0.6165 -0.4319
 3214TIP3    H2 9607   5.609   0.441   0.263  0.3666 -0.6498 -0.1197
 3215TIP3   OH2 9608   2.653   4.354   2.018 -0.3715  0.3848 -0.8572
 3215TIP3    H1 9609   2.678   4.308   1.938 -0.4237  1.7840 -1.7165
 3215TIP3    H2 9610   2.673   4.446   2.000 -0.6261  0.7708  0.6516
 3216TIP3   OH2 9611   6.848   3.214   3.199 -0.0437  0.2231 -0.2763
 3216TIP3    H1 9612   6.900   3.223   3.279  1.0421 -0.8186 -0.8295
 3216TIP3    H2 9613   6.819   3.123   3.200  0.3590  0.0682 -1.2724
 3217TIP3   OH2 9614   1.309   5.279   4.399  0.0146 -0.2618  0.0986
 3217TIP3    H1 9615   1.364   5.341   4.446 -0.8222  1.2866 -0.8417
 3217TIP3    H2 9616   1.251   5.242   4.466 -1.9099  2.7122  0.2694
 3218TIP3   OH2 9617   6.280   0.642   2.450 -0.2968  0.3667  0.1421
 3218TIP3    H1 9618   6.238   0.644   2.536  0.9615  0.1995  0.7707
 3218TIP3    H2 9619   6.215   0.600   2.393 -1.4876  1.2465  0.7920
 3219TIP3   OH2 9620   6.623   4.075   4.768  0.1668  0.2805  0.3099
 3219TIP3    H1 9621   6.678   4.110   4.839  0.1061  2.3752 -0.6074
 3219TIP3    H2 9622   6.563   4.147   4.747 -0.1294 -0.4740 -1.5527
 3220TIP3   OH2 9623   5.050   3.616   3.981 -0.4110  0.0498  0.0625
 3220TIP3    H1 9624   5.142   3.641   3.972 -0.1804 -1.1017 -1.1654
 3220TIP3    H2 9625   5.007   3.694   4.016  0.9709  0.7135  0.3421
 3221TIP3   OH2 9626   4.305   5.500   0.007  0.4425 -0.3772 -0.5851
 3221TIP3    H1 9627   4.268   5.535   0.088  0.4130 -1.2381 -0.2198
 3221TIP3    H2 9628   4.384   5.454   0.034  0.3827 -0.7507 -1.0321
 3222TIP3   OH2 9629   0.921   6.683   0.571 -0.4870  0.3920 -0.3115
 3222TIP3    H1 9630   0.839   6.672   0.619 -0.7835 -0.5969 -1.0063
 3222TIP3    H2 9631   0.894   6.681   0.479  0.4532 -1.3188 -0.5814
 3223TIP3   OH2 9632   0.529   0.343   0.673 -0.1324  0.0329  0.0725
 3223TIP3    H1 9633   0.506   0.409   0.608 -0.2111  0.9944  1.0515
 3223TIP3    H2 9634   0.555   0.266   0.622  0.1155  0.8746 -1.0916
 3224TIP3   OH2 9635   1.526   2.390   4.203 -0.1450 -0.0148  0.4244
 3224TIP3    H1 9636   1.444   2.421   4.240 -0.3301 -0.6309  0.5332
 3224TIP3    H2 9637   1.554   2.319   4.260  0.1818 -0.1793  0.0698
 3225TIP3   OH2 9638   4.077   5.516   0.510  0.0630 -0.2271  0.0233
 3225TIP3    H1 9639   4.152   5.554   0.555  0.0849  1.4164 -1.3020
 3225TIP3    H2 9640   4.067   5.429   0.549 -0.5875  1.3789  3.9476
 3226TIP3   OH2 9641   5.349   1.707   3.218 -0.1901  0.3081 -0.0024
 3226TIP3    H1 9642   5.317   1.772   3.280 -0.1140 -1.3483  1.8744
 3226TIP3    H2 9643   5.444   1.717   3.219 -0.0812 -0.4986  1.1750
 3227TIP3   OH2 9644   6.772   4.805   5.425 -0.3792 -0.5429  0.7026
 3227TIP3    H1 9645   6.734   4.772   5.344 -1.9443 -0.4211  1.3614
 3227TIP3    H2 9646   6.732   4.752   5.494  0.0365  0.1452  1.4872
 3228TIP3   OH2 9647   6.494   5.428   5.571 -0.4363  0.4842 -0.1807
 3228TIP3    H1 9648   6.577   5.387   5.595 -1.3603 -0.1736  2.2309
 3228TIP3    H2 9649   6.448   5.361   5.520 -0.5510 -0.1978  0.7937
 3229TIP3   OH2 9650   3.514   2.265   1.082 -0.1488 -0.0090 -0.2450
 3229TIP3    H1 9651   3.549   2.177   1.096  0.1830  0.0976 -0.3982
 3229TIP3    H2 9652   3.502   2.271   0.988 -2.0778 -0.6080 -0.0847
 3230TIP3   OH2 9653   5.875   3.964   4.002  0.2309 -0.2515  0.3740
 3230TIP3    H1 9654   5.905   3.877   4.029 -0.5842 -0.6915 -0.0713
 3230TIP3    H2 9655   5.955   4.010   3.978  0.7102 -0.7598  0.9488
 3231TIP3   OH2 9656   3.292   4.865   2.946  0.0691 -0.5754  0.1966
 3231TIP3    H1 9657   3.369   4.891   2.997  0.6389 -0.2088 -0.8031
 3231TIP3    H2 9658   3.218   4.878   3.005  0.6862 -0.0424  0.8751
 3232TIP3   OH2 9659   0.721   1.154   2.680  0.0953  0.0480  0.1882
 3232TIP3    H1 9660   0.767   1.143   2.763  0.5973 -0.2385 -0.1260
 3232TIP3    H2 9661   0.667   1.232   2.693  0.1098 -0.0385  0.8089
 3233TIP3   OH2 9662   6.793   2.081   1.480  0.1892  0.7982 -0.0141
 3233TIP3    H1 9663   6.876   2.077   1.528 -0.4526  2.5102  1.3719
 3233TIP3    H2 9664   6.732   2.029   1.531 -0.1179  1.3430  0.1835
 3234TIP3   OH2 9665   3.312   3.924   3.620  0.4280  0.0170  0.8082
 3234TIP3    H1 9666   3.326   3.943   3.713  2.3168  0.7424  0.4128
 3234TIP3    H2 9667   3.377   3.857   3.599  0.9592  0.8503 -0.2889
 3235TIP3   OH2 9668   2.925   3.576   1.075  0.3944  0.1885  0.7906
 3235TIP3    H1 9669   2.954   3.633   1.146  0.9784 -0.3478  0.9999
 3235TIP3    H2 9670   3.001   3.518   1.059 -0.2649 -0.6900  0.7616
 3236TIP3   OH2 9671   0.670   6.241   3.765  0.2778  0.6170  0.0729
 3236TIP3    H1 9672   0.665   6.163   3.710  1.4224 -0.7662  1.8269
 3236TIP3    H2 9673   0.763   6.251   3.785  0.0863  2.1184  0.3165
 3237TIP3   OH2 9674   5.060   1.830   5.417 -0.2476 -0.4353 -0.0196
 3237TIP3    H1 9675   5.026   1.803   5.502 -2.3723  0.4873 -0.4965
 3237TIP3    H2 9676   5.057   1.751   5.363  1.4458 -1.1117  0.8057
 3238TIP3   OH2 9677   3.837   6.449   0.258  0.6671  0.1483 -0.0455
 3238TIP3    H1 9678   3.789   6.519   0.213 -0.6111 -0.6978 -0.0509
 3238TIP3    H2 9679   3.846   6.480   0.348  2.1242  1.2909 -0.5341
 3239TIP3   OH2 9680   4.583   2.465   1.102  0.2044 -0.4401  0.7572
 3239TIP3    H1 9681   4.586   2.385   1.049 -1.9991  0.9216 -1.6647
 3239TIP3    H2 9682   4.617   2.533   1.044 -1.2930  0.9687  1.4680
 3240TIP3   OH2 9683   6.501   1.996   4.435 -0.6262 -0.1525  0.0820
 3240TIP3    H1 9684   6.445   2.025   4.507  1.2327  1.3592  0.9710
 3240TIP3    H2 9685   6.560   1.932   4.474 -0.9432 -0.8775 -0.5911
 3241TIP3   OH2 9686   4.669   1.593   4.112 -0.3094 -0.2808  0.4475
 3241TIP3    H1 9687   4.676   1.671   4.057 -1.2430 -0.0243  0.6757
 3241TIP3    H2 9688   4.736   1.534   4.078  1.4479  1.1759  1.2222
 3242TIP3   OH2 9689   7.069   1.537   2.067 -0.2401 -0.0161 -0.1444
 3242TIP3    H1 9690   7.002   1.577   2.013 -0.6127 -0.7444 -0.2425
 3242TIP3    H2 9691   7.021   1.476   2.124  0.0697  1.1896  1.4623
 3243TIP3   OH2 9692   4.010   0.061   4.800 -0.0450 -0.2211  0.0441
 3243TIP3    H1 9693   4.058   0.050   4.882  0.6369  1.3685 -0.1227
 3243TIP3    H2 9694   4.017   0.154   4.779 -0.0908 -0.6012 -1.8836
 3244TIP3   OH2 9695   1.699   0.797   0.832  0.4674 -0.0730  0.1305
 3244TIP3    H1 9696   1.697   0.890   0.853  0.4809  0.3430 -1.5625
 3244TIP3    H2 9697   1.675   0.753   0.914 -1.8117  1.5143  0.4120
 3245TIP3   OH2 9698   3.829   4.627   1.681  0.3451  0.1727  0.0154
 3245TIP3    H1 9699   3.805   4.684   1.753 -0.6133  0.3512 -0.4311
 3245TIP3    H2 9700   3.857   4.687   1.612 -0.4316  0.1043 -0.3696
 3246TIP3   OH2 9701   2.189   2.992   4.923 -0.1540 -0.4054  0.0579
 3246TIP3    H1 9702   2.158   2.999   5.013  1.3227  2.0716  0.4558
 3246TIP3    H2 9703   2.109   2.980   4.871 -1.4260  1.7439  1.3910
 3247TIP3   OH2 9704   5.147   2.368   5.587  0.8498  0.3959  0.1072
 3247TIP3    H1 9705   5.220   2.308   5.605  1.3956  1.3748  1.3554
 3247TIP3    H2 9706   5.170   2.447   5.636 -0.3560  1.2439 -0.6699
 3248TIP3   OH2 9707   7.081   3.174   1.422 -0.0836  0.0070 -0.2543
 3248TIP3    H1 9708   7.155   3.185   1.363 -0.6832  0.2374 -0.9815
 3248TIP3    H2 9709   7.030   3.255   1.412 -0.1004  0.1317  0.7196
 3249TIP3   OH2 9710   2.132   4.615   3.834  0.0609 -0.4583 -0.0344
 3249TIP3    H1 9711   2.223   4.633   3.856  0.7640  0.9819 -3.4454
 3249TIP3    H2 9712   2.136   4.567   3.751 -2.2907 -0.7139 -0.0811
 3250TIP3   OH2 9713   4.567   3.141   2.625  0.7715 -0.0146  0.1025
 3250TIP3    H1 9714   4.546   3.233   2.609 -1.5077 -0.4640  0.0783
 3250TIP3    H2 9715   4.544   3.096   2.543  0.9576 -0.7257  0.4291
 3251TIP3   OH2 9716   6.355   6.381   0.236  0.0215 -0.3858  0.3607
 3251TIP3    H1 9717   6.437   6.354   0.197  0.3530 -1.6642  1.8240
 3251TIP3    H2 9718   6.380   6.445   0.302 -0.4829  1.3981 -1.1059
 3252TIP3   OH2 9719   5.949   1.603   2.214  0.1865  0.2168  0.0295
 3252TIP3    H1 9720   6.045   1.607   2.222  0.4503 -2.5939 -0.6229
 3252TIP3    H2 9721   5.934   1.556   2.132 -1.7739  0.2478  0.3293
 3253TIP3   OH2 9722   0.528   1.190   1.968  0.3283  0.0300  0.1932
 3253TIP3    H1 9723   0.525   1.134   1.890 -1.1504 -2.4117  1.8804
 3253TIP3    H2 9724   0.458   1.254   1.954  0.6080  0.1491 -0.7898
 3254TIP3   OH2 9725   6.275   5.127   5.695  0.3601 -0.1050 -0.0250
 3254TIP3    H1 9726   6.228   5.155   5.774  0.9983  2.0278 -0.3552
 3254TIP3    H2 9727   6.207   5.093   5.637 -0.2673 -0.5029  0.9194
 3255TIP3   OH2 9728   2.933   3.315   1.213  0.4062 -0.1327 -0.3229
 3255TIP3    H1 9729   2.896   3.237   1.171 -0.5740  0.5316 -0.7515
 3255TIP3    H2 9730   2.879   3.387   1.179  0.2389  0.5406  1.3124
 3256TIP3   OH2 9731   7.110   2.099   3.251 -0.1469 -0.0179 -0.0845
 3256TIP3    H1 9732   7.107   2.063   3.163 -0.3171  0.9990 -0.5156
 3256TIP3    H2 9733   7.042   2.052   3.300 -1.0688  0.4376 -0.9074
 3257TIP3   OH2 9734   1.097   3.162   1.617  0.1875 -0.0435 -0.1199
 3257TIP3    H1 9735   1.169   3.214   1.651 -0.0872  1.6233 -1.9668
 3257TIP3    H2 9736   1.050   3.132   1.695  1.2048  1.2573  1.0258
 3258TIP3   OH2 9737   4.445   1.796   3.457  0.1722 -0.2647  0.5678
 3258TIP3    H1 9738   4.421   1.823   3.368 -0.1534 -0.3537  0.6285
 3258TIP3    H2 9739   4.401   1.859   3.514 -0.0913 -0.5509  0.6862
 3259TIP3   OH2 9740   3.050   5.756   5.430  0.2395  0.7292  0.3832
 3259TIP3    H1 9741   3.127   5.775   5.376 -1.0873  0.6517 -1.6514
 3259TIP3    H2 9742   3.046   5.660   5.432 -1.6721  0.6120 -2.5567
 3260TIP3   OH2 9743   4.270   4.700   2.198  0.0219 -0.2330  0.1658
 3260TIP3    H1 9744   4.336   4.680   2.265 -0.2272 -0.7576  0.2576
 3260TIP3    H2 9745   4.194   4.646   2.222  0.5057 -1.7385 -1.5030
 3261TIP3   OH2 9746   6.197   3.879   1.691 -0.1228  0.0401 -0.3192
 3261TIP3    H1 9747   6.138   3.867   1.765 -1.4485 -0.0442 -1.3446
 3261TIP3    H2 9748   6.203   3.974   1.680 -1.4052  0.0409 -1.2051
 3262TIP3   OH2 9749   6.415   6.048   0.068 -0.0438  0.1675 -0.2290
 3262TIP3    H1 9750   6.356   6.076   0.139  0.7231 -0.8297  0.8440
 3262TIP3    H2 9751   6.436   6.128   0.022 -2.1038  0.5858 -0.5543
 3263TIP3   OH2 9752   0.690   5.282   0.305  0.4268 -0.9152 -0.3892
 3263TIP3    H1 9753   0.656   5.365   0.339  0.3092 -1.0934 -0.0649
 3263TIP3    H2 9754   0.769   5.307   0.257 -0.9251 -0.3200 -2.4179
 3264TIP3   OH2 9755   0.181   5.217   3.376 -0.0879 -0.5395 -0.5216
 3264TIP3    H1 9756   0.120   5.177   3.314  0.8665 -0.9547 -1.2032
 3264TIP3    H2 9757   0.208   5.145   3.433 -0.3819 -0.3144 -0.0944
 3265TIP3   OH2 9758   0.653   6.044   0.328 -0.1580 -0.0961  0.1204
 3265TIP3    H1 9759   0.692   5.958   0.312  1.2585  0.7408 -1.1899
 3265TIP3    H2 9760   0.574   6.044   0.274  0.3678 -0.2411 -0.6813
 3266TIP3   OH2 9761   4.720   5.967   5.514 -0.0153  0.1918  0.0646
 3266TIP3    H1 9762   4.782   5.894   5.509  2.1038  1.9367 -1.2606
 3266TIP3    H2 9763   4.637   5.931   5.483  0.9247 -1.7045 -0.3624
 3267TIP3   OH2 9764   5.098   4.018   2.313 -0.3017  0.5204 -0.2558
 3267TIP3    H1 9765   5.074   3.953   2.247  2.1461  0.5325 -1.2716
 3267TIP3    H2 9766   5.065   3.983   2.395  1.5991 -2.4937 -0.6188
 3268TIP3   OH2 9767   4.052   2.765   0.669 -0.1581 -0.3767 -0.1990
 3268TIP3    H1 9768   4.090   2.699   0.726 -0.3801 -0.8776 -0.6259
 3268TIP3    H2 9769   4.101   2.845   0.689  0.0557 -0.6442  0.3778
 3269TIP3   OH2 9770   4.925   1.294   3.320 -0.3031  0.6678  0.7666
 3269TIP3    H1 9771   4.941   1.379   3.279 -0.2122  0.9556  1.4037
 3269TIP3    H2 9772   4.913   1.313   3.413 -2.1261  0.2085  0.6619
 3270TIP3   OH2 9773   6.877   4.791   0.852  0.3819  0.1387  0.2738
 3270TIP3    H1 9774   6.835   4.758   0.773 -0.6095  0.5764  0.6108
 3270TIP3    H2 9775   6.962   4.824   0.822 -0.0401  0.4263 -0.6364
 3271TIP3   OH2 9776   0.158   5.276   0.322 -0.6133 -1.1257 -0.2218
 3271TIP3    H1 9777   0.121   5.258   0.236 -1.4727 -1.8862  0.2865
 3271TIP3    H2 9778   0.091   5.329   0.366 -0.1468 -0.6742 -0.0409
 3272TIP3   OH2 9779   5.050   4.419   4.212  0.2636  0.0691  0.3049
 3272TIP3    H1 9780   5.086   4.349   4.267  0.1493 -0.2568 -0.0302
 3272TIP3    H2 9781   5.094   4.407   4.128  1.2960  1.2673  0.6442
 3273TIP3   OH2 9782   4.626   0.296   5.058 -0.3356  0.7031  0.3344
 3273TIP3    H1 9783   4.594   0.248   5.134  1.6818 -3.9326 -1.3707
 3273TIP3    H2 9784   4.721   0.280   5.058  0.1797  3.0869 -1.6145
 3274TIP3   OH2 9785   3.361   2.931   2.699  0.0072  0.0192 -0.5703
 3274TIP3    H1 9786   3.289   2.971   2.747 -0.0504  1.8256 -2.0729
 3274TIP3    H2 9787   3.437   2.939   2.757 -0.4146  0.5731 -0.0881
 3275TIP3   OH2 9788   1.332   6.402   4.796  0.5668  0.0513  0.1153
 3275TIP3    H1 9789   1.239   6.422   4.788  0.5263  0.4185  1.2856
 3275TIP3    H2 9790   1.376   6.479   4.760  0.4178 -0.0816 -0.3521
 3276TIP3   OH2 9791   3.459   0.349   2.121  0.1312  0.1670 -0.1317
 3276TIP3    H1 9792   3.544   0.386   2.143 -0.3130  1.3277 -0.3100
 3276TIP3    H2 9793   3.429   0.400   2.046 -1.0259  0.2275  0.3559
 3277TIP3   OH2 9794   3.928   3.514   4.007 -0.5281 -0.2081 -0.1738
 3277TIP3    H1 9795   3.852   3.560   3.971  0.2394 -0.3303 -2.0820
 3277TIP3    H2 9796   3.898   3.423   4.016 -1.3702  0.1985  1.5569
 3278TIP3   OH2 9797   4.553   6.279   5.015  0.0481 -0.1836  0.0212
 3278TIP3    H1 9798   4.602   6.312   5.090 -0.8602  0.7368  0.2354
 3278TIP3    H2 9799   4.492   6.350   4.993  0.0709 -0.5627 -1.3787
 3279TIP3   OH2 9800   1.249   5.808   1.368 -1.2291 -0.5395 -0.3549
 3279TIP3    H1 9801   1.244   5.744   1.439  0.3759  0.8422  1.1070
 3279TIP3    H2 9802   1.323   5.864   1.392 -1.0858  0.4168 -2.7874
 3280TIP3   OH2 9803   1.471   5.025   1.261  0.3211  0.3360 -0.4526
 3280TIP3    H1 9804   1.446   4.987   1.346 -0.2688  1.3257 -0.1545
 3280TIP3    H2 9805   1.545   4.973   1.232  0.0434 -0.5188  0.3073
 3281TIP3   OH2 9806   1.132   2.429   1.806  0.5564 -0.1057 -0.1120
 3281TIP3    H1 9807   1.139   2.524   1.816  0.0681 -0.0972  0.1600
 3281TIP3    H2 9808   1.117   2.396   1.894  3.2274 -0.6777  0.2155
 3282TIP3   OH2 9809   2.029   1.588   2.952 -0.4710  0.5931 -0.0044
 3282TIP3    H1 9810   2.092   1.658   2.936 -0.4057  0.3466 -0.8483
 3282TIP3    H2 9811   1.999   1.562   2.865 -1.6625  0.6426  0.3748
 3283TIP3   OH2 9812   4.821   1.703   5.768  0.1241 -0.1473  0.3436
 3283TIP3    H1 9813   4.812   1.745   5.853 -1.6878 -1.7120  1.0088
 3283TIP3    H2 9814   4.800   1.771   5.704 -0.1990  0.5937  1.2324
 3284TIP3   OH2 9815   0.101   0.551   5.070  0.0698 -0.0352  0.1025
 3284TIP3    H1 9816   0.086   0.643   5.091  0.7815 -0.0753  0.8455
 3284TIP3    H2 9817   0.051   0.503   5.137 -1.9406 -0.2445 -1.4395
 3285TIP3   OH2 9818   0.950   5.315   1.090 -0.0282  0.2462 -0.0753
 3285TIP3    H1 9819   0.938   5.380   1.159 -0.0342 -0.1853  0.3324
 3285TIP3    H2 9820   1.044   5.313   1.075 -0.0219  0.3019 -0.0433
 3286TIP3   OH2 9821   3.068   6.519   4.170 -0.3046 -0.0096  0.0801
 3286TIP3    H1 9822   3.152   6.474   4.181 -0.6002 -0.7726 -0.7470
 3286TIP3    H2 9823   3.074   6.595   4.229  1.2389  0.3345 -0.4847
 3287TIP3   OH2 9824   0.541   6.373   3.972 -0.0419  0.0105  0.7065
 3287TIP3    H1 9825   0.521   6.309   4.041  0.9555  0.5099  1.4854
 3287TIP3    H2 9826   0.560   6.319   3.895 -1.3302 -0.5523  0.7481
 3288TIP3   OH2 9827   3.893   4.870   3.257 -0.3431  0.0706 -0.2229
 3288TIP3    H1 9828   3.831   4.843   3.189 -0.4370 -0.1221 -0.0623
 3288TIP3    H2 9829   3.870   4.961   3.276  0.6382  0.6215 -1.5051
 3289TIP3   OH2 9830   6.171   1.468   3.876 -0.2246 -0.0124 -0.1888
 3289TIP3    H1 9831   6.115   1.521   3.934  2.2598 -0.4882  2.9367
 3289TIP3    H2 9832   6.250   1.521   3.865  0.5440 -1.2264 -0.6698
 3290TIP3   OH2 9833   4.135   2.605   0.870 -0.7520 -0.1448 -0.1997
 3290TIP3    H1 9834   4.194   2.565   0.934 -0.8690 -0.6485 -0.3953
 3290TIP3    H2 9835   4.047   2.582   0.900 -0.9398  1.6369  0.7709
 3291TIP3   OH2 9836   2.261   2.826   0.062  0.4367  0.2871 -0.4920
 3291TIP3    H1 9837   2.340   2.806   0.113 -0.7178 -1.2760  0.7570
 3291TIP3    H2 9838   2.253   2.754   0.000 -0.0310  0.4205 -0.5905
 3292TIP3   OH2 9839   5.799   3.791   2.080 -0.1158  0.1360  0.2989
 3292TIP3    H1 9840   5.890   3.770   2.103  0.5893  2.5922  0.0531
 3292TIP3    H2 9841   5.804   3.820   1.989 -1.2850 -0.3447  0.0662
 3293TIP3   OH2 9842   3.428   0.131   0.394  0.5276 -0.2604 -0.5048
 3293TIP3    H1 9843   3.458   0.151   0.305 -0.8620  0.7402 -0.7855
 3293TIP3    H2 9844   3.386   0.046   0.386  0.0308  0.0154 -0.9120
 3294TIP3   OH2 9845   6.083   3.864   5.271  0.1709  0.3111 -0.6364
 3294TIP3    H1 9846   6.010   3.807   5.291  0.3062  0.2995 -0.1640
 3294TIP3    H2 9847   6.142   3.810   5.217  0.1352  0.1159 -0.4806
 3295TIP3   OH2 9848   3.638   0.363   1.523  0.3214  0.0473 -0.5644
 3295TIP3    H1 9849   3.729   0.393   1.530  0.2874  0.3371 -1.2975
 3295TIP3    H2 9850   3.643   0.268   1.540  0.3622  0.4628  2.2067
 3296TIP3   OH2 9851   1.150   2.994   3.726 -0.3002  0.3878  0.5181
 3296TIP3    H1 9852   1.211   3.051   3.678  0.3205  0.0316  0.8681
 3296TIP3    H2 9853   1.195   2.909   3.729 -0.3875  0.3680  1.6100
 3297TIP3   OH2 9854   5.857   1.921   0.193  0.0341 -0.2861 -0.1714
 3297TIP3    H1 9855   5.869   1.884   0.106  0.6467  0.4180 -0.3910
 3297TIP3    H2 9856   5.788   1.986   0.183 -0.5602 -0.8676  0.0732
 3298TIP3   OH2 9857   6.729   2.598   0.371  0.0219  0.1196 -0.1903
 3298TIP3    H1 9858   6.820   2.611   0.342  0.2456 -3.4209 -1.5400
 3298TIP3    H2 9859   6.710   2.507   0.351 -3.9037  0.7129  0.0429
 3299TIP3   OH2 9860   5.055   3.779   4.502  0.1501  0.5556 -0.4178
 3299TIP3    H1 9861   5.014   3.693   4.504  0.0980  0.4529 -2.8465
 3299TIP3    H2 9862   4.985   3.839   4.474  0.0424  1.5315  1.7403
 3300TIP3   OH2 9863   3.006   4.947   5.877  0.2398  0.4766  0.1437
 3300TIP3    H1 9864   2.940   4.973   5.812 -0.5634 -0.0766  0.7229
 3300TIP3    H2 9865   2.962   4.883   5.932  1.1073  0.4805  0.8699
 3301TIP3   OH2 9866   0.776   6.098   2.556  0.1853  0.2145 -0.6322
 3301TIP3    H1 9867   0.793   6.116   2.463 -0.4467  0.2700 -0.7450
 3301TIP3    H2 9868   0.805   6.008   2.568  3.1554  1.1338 -0.1201
 3302TIP3   OH2 9869   4.225   1.192   0.979  0.1328  0.5301  0.4343
 3302TIP3    H1 9870   4.136   1.207   1.010 -1.2683 -0.7378 -2.5229
 3302TIP3    H2 9871   4.224   1.223   0.888  1.7781 -2.1483 -0.6251
 3303TIP3   OH2 9872   5.334   0.232   4.370  0.0475 -0.6379  0.3356
 3303TIP3    H1 9873   5.396   0.259   4.302 -0.8992 -2.1447 -1.1964
 3303TIP3    H2 9874   5.278   0.309   4.382  2.3380  0.9187  2.0609
 3304TIP3   OH2 9875   2.284   1.728   0.749 -0.4271  0.1844  0.0582
 3304TIP3    H1 9876   2.327   1.784   0.684 -0.4575  0.5312  0.3368
 3304TIP3    H2 9877   2.191   1.738   0.731 -0.3873 -1.2279 -1.1005
 3305TIP3   OH2 9878   6.592   2.506   5.646 -0.1637 -0.1502 -0.4763
 3305TIP3    H1 9879   6.573   2.579   5.705 -1.6170  0.7159 -1.8992
 3305TIP3    H2 9880   6.545   2.432   5.684 -0.3703  0.1721 -0.0923
 3306TIP3   OH2 9881   6.184   3.848   4.904  0.1530 -0.5299  0.3304
 3306TIP3    H1 9882   6.208   3.856   4.812 -2.3481  3.1088 -0.2197
 3306TIP3    H2 9883   6.246   3.906   4.949 -1.5635  1.5789  0.1421
 3307TIP3   OH2 9884   2.058   4.373   1.842  0.4626  0.0171  0.0263
 3307TIP3    H1 9885   2.149   4.400   1.837  0.6990 -0.6390  0.7273
 3307TIP3    H2 9886   2.049   4.330   1.927  0.4709 -3.4324 -1.5676
 3308TIP3   OH2 9887   1.218   1.549   5.301 -0.3651  0.2717  0.7950
 3308TIP3    H1 9888   1.308   1.554   5.333 -0.7035 -1.0550  2.1238
 3308TIP3    H2 9889   1.166   1.586   5.372 -1.0098 -0.9821  1.0010
 3309TIP3   OH2 9890   1.078   6.018   5.825  0.2594  0.1130  0.0232
 3309TIP3    H1 9891   1.112   5.940   5.868  0.5142  0.5686  0.6608
 3309TIP3    H2 9892   1.098   6.005   5.732  1.3775 -0.0440  0.2737
 3310TIP3   OH2 9893   2.638   1.126   3.694  0.3883  0.1162  0.8573
 3310TIP3    H1 9894   2.629   1.177   3.775 -2.9384  2.3703 -0.6865
 3310TIP3    H2 9895   2.582   1.050   3.707 -0.6292  0.7915  0.4931
 3311TIP3   OH2 9896   3.786   5.063   1.562  0.1558  0.6262 -0.2883
 3311TIP3    H1 9897   3.845   5.090   1.492  2.0110 -1.0465  0.5373
 3311TIP3    H2 9898   3.830   5.092   1.642  0.3524 -1.4118  0.3974
 3312TIP3   OH2 9899   3.649   3.870   0.763  0.1850 -0.6421  0.5400
 3312TIP3    H1 9900   3.623   3.821   0.685  1.1222 -1.8046  0.9226
 3312TIP3    H2 9901   3.673   3.957   0.730  1.7588 -1.4892 -0.6662
 3313TIP3   OH2 9902   5.625   2.596   2.308  0.1176  0.0465  0.6539
 3313TIP3    H1 9903   5.586   2.509   2.306  0.4652 -0.0987 -1.2144
 3313TIP3    H2 9904   5.718   2.581   2.289 -0.0808  0.9215 -1.1613
 3314TIP3   OH2 9905   0.835   6.199   0.027 -0.4097 -0.4965 -0.0079
 3314TIP3    H1 9906   0.864   6.124   0.078 -0.4539 -0.5981 -0.1333
 3314TIP3    H2 9907   0.801   6.260   0.092  2.8342  0.9571  0.5352
 3315TIP3   OH2 9908   5.239   1.408   3.242 -0.1085  0.4331  0.2158
 3315TIP3    H1 9909   5.250   1.502   3.226  0.2805  0.7088  1.8769
 3315TIP3    H2 9910   5.185   1.403   3.321 -1.4589 -0.7827 -0.7475
 3316TIP3   OH2 9911   6.634   5.361   0.258 -0.5627 -0.6335 -0.3691
 3316TIP3    H1 9912   6.552   5.408   0.248  1.2493  2.5896 -1.7331
 3316TIP3    H2 9913   6.648   5.356   0.353 -1.8999 -0.4555 -0.1522
 3317TIP3   OH2 9914   4.423   4.408   0.828 -0.3731  0.5556  0.1608
 3317TIP3    H1 9915   4.382   4.450   0.752  0.5132  0.9815 -0.0984
 3317TIP3    H2 9916   4.449   4.321   0.797 -2.5153 -0.3755  0.7929
 3318TIP3   OH2 9917   3.726   6.024   0.639  0.1208  0.0285  0.5257
 3318TIP3    H1 9918   3.664   6.062   0.702  1.1172  1.2045  0.8357
 3318TIP3    H2 9919   3.776   5.960   0.690 -0.9912 -1.1406  0.2058
 3319TIP3   OH2 9920   2.923   2.070   3.803  0.4030  0.5349 -0.4138
 3319TIP3    H1 9921   2.948   1.980   3.782 -1.5617 -0.5676  1.5917
 3319TIP3    H2 9922   2.874   2.100   3.727  1.7291  0.2459 -1.4228
 3320TIP3   OH2 9923   3.444   5.309   5.012  0.2003 -0.3576  0.3646
 3320TIP3    H1 9924   3.519   5.366   5.027  1.6819 -1.9509 -0.6701
 3320TIP3    H2 9925   3.369   5.359   5.044  1.4360  2.0961 -0.3894
 3321TIP3   OH2 9926   1.794   5.979   0.940 -0.0819  0.1473  1.3293
 3321TIP3    H1 9927   1.711   5.944   0.906  0.2698  0.1789  0.4169
 3321TIP3    H2 9928   1.849   5.990   0.862  0.1030  1.9812  1.6968
 3322TIP3   OH2 9929   0.281   6.207   4.227  0.7982  0.3340  0.1614
 3322TIP3    H1 9930   0.245   6.291   4.199  0.8135  0.1433 -0.4494
 3322TIP3    H2 9931   0.376   6.223   4.233  0.7364  0.5347  0.6976
 3323TIP3   OH2 9932   4.766   2.274   3.471  0.1890  0.3676 -0.6227
 3323TIP3    H1 9933   4.671   2.284   3.467 -0.0367 -1.7354 -1.8511
 3323TIP3    H2 9934   4.793   2.262   3.380  1.3792 -0.7978 -0.1562
 3324TIP3   OH2 9935   1.219   2.325   1.463 -0.3129 -0.0696  0.3708
 3324TIP3    H1 9936   1.124   2.328   1.457 -0.3115  0.6018  0.5502
 3324TIP3    H2 9937   1.237   2.321   1.557 -0.2061 -3.5763  0.3131
 3325TIP3   OH2 9938   0.008   5.499   0.856  0.1512 -0.2973  0.2273
 3325TIP3    H1 9939  -0.055   5.560   0.817  0.1577 -0.4154  0.0335
 3325TIP3    H2 9940   0.059   5.553   0.917  0.9214  0.1339 -0.7849
 3326TIP3   OH2 9941   4.539   1.757   1.074 -0.6869  0.1085  0.1817
 3326TIP3    H1 9942   4.542   1.823   1.005  1.2153  1.1767  1.1978
 3326TIP3    H2 9943   4.489   1.797   1.145  1.0029  0.7912  1.0482
 3327TIP3   OH2 9944   1.825   2.939   0.423  0.1379  0.4128  0.0043
 3327TIP3    H1 9945   1.893   2.873   0.440  0.4447 -0.1486 -2.9031
 3327TIP3    H2 9946   1.870   3.023   0.435  0.7052  0.0578  0.4163
 3328TIP3   OH2 9947   3.244   0.266   1.636  0.5009  0.0323 -0.3128
 3328TIP3    H1 9948   3.235   0.188   1.581 -0.7869  1.6986 -2.6355
 3328TIP3    H2 9949   3.154   0.293   1.654  0.8430  2.5242 -1.9573
 3329TIP3   OH2 9950   1.427   1.111   0.036 -0.1434  0.9717  0.2062
 3329TIP3    H1 9951   1.512   1.114   0.080  0.2552  0.2121 -0.4735
 3329TIP3    H2 9952   1.389   1.028   0.065 -0.0587  0.6666 -0.5147
 3330TIP3   OH2 9953   6.959   4.371   0.795 -0.2365  0.2750 -0.0113
 3330TIP3    H1 9954   7.006   4.448   0.828  1.2891 -0.1519 -1.0733
 3330TIP3    H2 9955   6.875   4.373   0.841  0.7993  1.0709  1.9798
 3331TIP3   OH2 9956   0.495   1.504   1.794  0.2720 -1.2261  0.4242
 3331TIP3    H1 9957   0.521   1.591   1.764  0.6358 -0.8982  1.6367
 3331TIP3    H2 9958   0.571   1.449   1.777 -0.1469 -1.4663 -0.8501
 3332TIP3   OH2 9959   3.442   5.230   3.510  0.2892 -0.1514 -0.6654
 3332TIP3    H1 9960   3.488   5.168   3.566  1.5745 -0.4745 -2.0255
 3332TIP3    H2 9961   3.507   5.257   3.445 -0.3362  2.3208 -0.3726
 3333TIP3   OH2 9962   3.900   6.355   2.154 -0.4328  0.4124  0.4552
 3333TIP3    H1 9963   3.986   6.396   2.145  0.0547 -0.5904  0.5142
 3333TIP3    H2 9964   3.914   6.263   2.134 -1.7263  0.4322 -0.7099
 3334TIP3   OH2 9965   3.197   1.124   0.356 -0.4055 -0.3606 -0.5413
 3334TIP3    H1 9966   3.241   1.181   0.293  1.0526 -0.6495  0.1629
 3334TIP3    H2 9967   3.207   1.036   0.320 -1.1533 -0.3559 -0.7789
 3335TIP3   OH2 9968   6.357   2.136   0.821 -0.0499 -0.2555  0.0832
 3335TIP3    H1 9969   6.377   2.142   0.915 -0.4600  2.5779  0.0641
 3335TIP3    H2 9970   6.434   2.094   0.783  0.9046  0.1962  1.4488
 3336TIP3   OH2 9971   3.348   0.682   3.592 -0.4637 -0.0000  0.3718
 3336TIP3    H1 9972   3.347   0.776   3.609 -0.0467 -0.0842  0.8950
 3336TIP3    H2 9973   3.384   0.674   3.504 -2.9502  0.4664 -0.7706
 3337TIP3   OH2 9974   4.064   5.420   5.416  0.4164 -0.1950  0.1002
 3337TIP3    H1 9975   4.082   5.444   5.325 -0.1704 -1.7591 -0.4554
 3337TIP3    H2 9976   4.106   5.335   5.428 -0.5382 -0.5727  0.9138
 3338TIP3   OH2 9977   4.440   5.765   0.598  0.0721 -0.2110 -0.0461
 3338TIP3    H1 9978   4.407   5.818   0.525  0.8318  2.8757  1.6547
 3338TIP3    H2 9979   4.429   5.821   0.675  0.7351 -2.7075  1.9909
 3339TIP3   OH2 9980   5.449   1.581   0.355 -0.5820  0.7621  0.3366
 3339TIP3    H1 9981   5.509   1.591   0.429 -0.0027  2.7156 -0.3487
 3339TIP3    H2 9982   5.371   1.541   0.393  0.4501 -0.1574  1.5929
 3340TIP3   OH2 9983   1.648   2.432   0.133  0.7081 -0.2624  0.2782
 3340TIP3    H1 9984   1.641   2.396   0.221  0.4678 -2.6944 -0.6562
 3340TIP3    H2 9985   1.576   2.495   0.127  1.2636  0.5945  2.0651
 3341TIP3   OH2 9986   6.485   0.878   1.500 -0.1451  0.4366  0.2739
 3341TIP3    H1 9987   6.489   0.857   1.594 -1.2329 -2.6947 -0.2649
 3341TIP3    H2 9988   6.407   0.934   1.492 -0.4034  0.2294  1.1429
 3342TIP3   OH2 9989   4.965   4.456   0.830  0.2532  0.2608 -0.0946
 3342TIP3    H1 9990   5.020   4.402   0.774  0.8301  0.1518  0.5631
 3342TIP3    H2 9991   4.953   4.403   0.909  2.2716  1.7506  1.3129
 3343TIP3   OH2 9992   6.175   2.989   0.672  0.1587 -0.2299 -0.2614
 3343TIP3    H1 9993   6.133   3.073   0.657  0.7972  0.1329 -0.0529
 3343TIP3    H2 9994   6.104   2.930   0.697 -0.0145  0.8091  1.8867
 3344TIP3   OH2 9995   6.615   2.044   5.530 -0.4192  0.3428  0.1807
 3344TIP3    H1 9996   6.551   2.059   5.599 -1.1926 -0.1278 -0.4270
 3344TIP3    H2 9997   6.684   2.108   5.548 -1.3337  1.2747  0.4893
 3345TIP3   OH2 9998   3.415   2.142   0.455  0.1353 -0.2415 -0.2362
 3345TIP3    H1 9999   3.438   2.063   0.407  0.3570 -0.6609  0.5450
 3345TIP3    H210000   3.357   2.112   0.525 -1.0112  0.4929 -0.8180
 3346TIP3   OH210001   1.972   6.461   5.390 -0.4581 -0.1758  0.0346
 3346TIP3    H110002   1.987   6.396   5.322 -0.5499 -0.5380  0.3627
 3346TIP3    H210003   2.019   6.539   5.358  0.9367 -0.8496  0.3559
 3347TIP3   OH210004   1.087   1.264   0.845  0.4067 -0.0287 -0.1236
 3347TIP3    H110005   1.119   1.279   0.757  0.2467 -1.4080 -0.4539
 3347TIP3    H210006   1.071   1.351   0.881  0.3635  0.5515 -1.4923
 3348TIP3   OH210007   7.181   1.982   0.575 -0.3767 -0.0166 -0.5341
 3348TIP3    H110008   7.086   1.972   0.565 -0.8821  0.4874  2.6154
 3348TIP3    H210009   7.194   2.077   0.583  0.3591 -0.1017 -0.6905
 3349TIP3   OH210010   0.844   4.654   2.760  0.6212 -0.0934 -0.2670
 3349TIP3    H110011   0.903   4.583   2.731  2.6766  1.4893 -0.1845
 3349TIP3    H210012   0.833   4.638   2.854  1.1875 -0.2437 -0.2180
 3350TIP3   OH210013   4.235   4.004   4.885  0.4561 -0.4318 -0.1516
 3350TIP3    H110014   4.291   3.931   4.911 -1.2443 -0.8841  2.7089
 3350TIP3    H210015   4.295   4.069   4.849  2.5952 -1.5373  1.2160
 3351TIP3   OH210016   4.779   6.653   0.077  0.6497 -0.5200 -0.1285
 3351TIP3    H110017   4.710   6.667   0.012  1.8319  0.8410 -1.1494
 3351TIP3    H210018   4.843   6.597   0.033  1.0657 -0.2568  0.1267
 3352TIP3   OH210019   3.473   1.297   3.648 -1.2177 -0.3685 -0.2222
 3352TIP3    H110020   3.551   1.348   3.626 -0.4673 -1.3780  0.0593
 3352TIP3    H210021   3.427   1.287   3.565 -1.1757  0.4146 -0.3523
 3353TIP3   OH210022   1.389   5.154   0.134  0.0831  0.0903  0.2358
 3353TIP3    H110023   1.351   5.227   0.182  0.2072  0.3775 -0.1017
 3353TIP3    H210024   1.346   5.077   0.171  0.3258  0.2861  0.9488
 3354TIP3   OH210025   2.149   6.011   0.420  0.1141  0.4344  0.5926
 3354TIP3    H110026   2.105   5.944   0.368  0.6756  0.3992  0.1537
 3354TIP3    H210027   2.195   5.962   0.488  2.0347  0.1775 -0.8090
 3355TIP3   OH210028   6.400   1.739   0.080  0.4376  0.0887 -0.1130
 3355TIP3    H110029   6.435   1.664   0.032 -0.5510  0.0415 -0.7875
 3355TIP3    H210030   6.347   1.700   0.150 -1.4252  0.1035 -1.4498
 3356TIP3   OH210031   2.968   2.315   4.340 -0.4993 -0.4388 -0.3761
 3356TIP3    H110032   2.905   2.324   4.411  0.5088  0.0249  0.4801
 3356TIP3    H210033   2.966   2.399   4.295 -0.1530 -0.2560 -0.0546
 3357TIP3   OH210034   1.390   1.481   2.731  0.0111  0.0953  0.3593
 3357TIP3    H110035   1.301   1.505   2.708  0.1451 -0.4497 -0.8474
 3357TIP3    H210036   1.445   1.544   2.684  0.3173 -1.5218 -1.6422
 3358TIP3   OH210037   2.462   0.339   4.140  0.5939  0.0841 -0.0134
 3358TIP3    H110038   2.373   0.304   4.135  0.1212  1.3974 -1.6697
 3358TIP3    H210039   2.499   0.299   4.219 -1.4187 -0.5736  0.6598
 3359TIP3   OH210040   3.244   3.648   1.412 -0.4839  0.0382 -0.6251
 3359TIP3    H110041   3.160   3.628   1.369 -1.4960  0.3213  1.1176
 3359TIP3    H210042   3.249   3.743   1.411 -0.1557  0.0173 -0.7899
 3360TIP3   OH210043   3.203   1.263   5.309  0.6034  0.3483  0.3333
 3360TIP3    H110044   3.297   1.279   5.318  0.9148 -1.4731  0.5779
 3360TIP3    H210045   3.171   1.260   5.400  0.6930 -1.0864  0.3290
 3361TIP3   OH210046   4.414   2.892   3.028  0.3751  0.1314  0.2790
 3361TIP3    H110047   4.325   2.870   3.002  1.0981 -1.6744 -0.8153
 3361TIP3    H210048   4.467   2.879   2.950  1.7561  0.2152  1.1587
 3362TIP3   OH210049   5.323   6.161   0.242  0.3209 -0.0977 -0.6298
 3362TIP3    H110050   5.292   6.250   0.229  0.7626  0.1349 -0.1062
 3362TIP3    H210051   5.249   6.106   0.216 -0.5211  0.4420  0.5367
 3363TIP3   OH210052   1.631   1.099   4.993  0.7368  0.3049  0.2207
 3363TIP3    H110053   1.564   1.052   5.043  0.8773  0.3603  0.4653
 3363TIP3    H210054   1.709   1.042   4.998  0.7272  0.2702 -0.0086
 3364TIP3   OH210055   6.839   2.707   3.218 -0.1253  0.0619 -0.3249
 3364TIP3    H110056   6.752   2.744   3.201 -0.1124 -0.4598 -1.6134
 3364TIP3    H210057   6.900   2.769   3.179 -0.0970 -1.1368 -2.3507
 3365TIP3   OH210058   3.696   1.405   3.528  0.4190 -0.0919  0.3592
 3365TIP3    H110059   3.766   1.362   3.479 -0.5246 -0.3495 -0.7973
 3365TIP3    H210060   3.705   1.498   3.508  1.3149  0.0689  1.3914
 3366TIP3   OH210061   5.980   1.202   4.225 -0.0566 -0.4740  0.3185
 3366TIP3    H110062   5.925   1.175   4.152 -0.0961 -0.0654  0.1993
 3366TIP3    H210063   5.928   1.181   4.303  0.2334 -1.4752  0.2571
 3367TIP3   OH210064   2.197   5.904   1.388  0.3539  0.2471 -0.0563
 3367TIP3    H110065   2.102   5.905   1.378  0.2279  1.2665  1.0183
 3367TIP3    H210066   2.228   5.976   1.334  0.4229  0.4751  0.2813
 3368TIP3   OH210067   0.059   0.365   5.398  0.1743  0.2752  0.8082
 3368TIP3    H110068   0.137   0.345   5.346 -1.2804 -1.3645 -0.8449
 3368TIP3    H210069   0.067   0.459   5.417  2.1393  0.3181  0.0329
 3369TIP3   OH210070   0.710   2.776   3.755 -0.1101  0.2001  0.5997
 3369TIP3    H110071   0.642   2.737   3.699  0.9928  1.8730 -2.1157
 3369TIP3    H210072   0.670   2.856   3.789  0.0644  0.5591 -0.0173
 3370TIP3   OH210073   1.699   3.567   3.716  0.4212 -0.2291 -0.3728
 3370TIP3    H110074   1.782   3.610   3.736  1.4765 -2.3042 -0.0214
 3370TIP3    H210075   1.663   3.544   3.802 -0.1779  0.0690 -0.5448
 3371TIP3   OH210076   3.216   5.315   0.488  0.7619  0.1890 -0.4515
 3371TIP3    H110077   3.169   5.359   0.559 -0.6378 -0.6071 -0.8632
 3371TIP3    H210078   3.246   5.233   0.526  1.5830  0.5511 -0.2848
 3372TIP3   OH210079   7.078   4.854   0.076  0.7994 -0.0346  0.3134
 3372TIP3    H110080   7.056   4.942   0.107  0.0302 -0.6974  1.7316
 3372TIP3    H210081   7.166   4.863   0.039  0.4227  1.4910 -0.2864
 3373TIP3   OH210082   4.825   3.060   2.228  0.3640 -0.4423  0.6308
 3373TIP3    H110083   4.876   3.010   2.292  0.5521 -1.6491 -0.4252
 3373TIP3    H210084   4.789   2.994   2.170 -3.6588  0.1639  2.1234
 3374TIP3   OH210085   1.056   6.093   4.683  0.0538  0.1153  1.0788
 3374TIP3    H110086   1.028   6.037   4.612  2.4392 -0.4525  0.4932
 3374TIP3    H210087   1.050   6.182   4.648 -1.1260  0.0359  1.0564
 3375TIP3   OH210088   3.767   2.941   5.538 -0.1427 -0.1000  0.5961
 3375TIP3    H110089   3.855   2.905   5.522 -0.8869 -0.9292 -2.0988
 3375TIP3    H210090   3.782   3.036   5.543  0.8281 -0.1225 -0.9637
 3376TIP3   OH210091   2.278   4.634   4.535  0.2294 -0.0216 -0.1423
 3376TIP3    H110092   2.331   4.672   4.604 -0.4211 -0.0987  0.4134
 3376TIP3    H210093   2.200   4.601   4.580  0.2278 -0.9277 -0.7730
 3377TIP3   OH210094   2.718   1.654   2.290 -0.1599 -0.6593  0.0088
 3377TIP3    H110095   2.645   1.657   2.352  0.6303  0.0359  0.9601
 3377TIP3    H210096   2.786   1.707   2.332  0.2885  0.1304 -1.6276
 3378TIP3   OH210097   2.527   4.341   0.737 -0.1599 -0.4037  0.3176
 3378TIP3    H110098   2.523   4.350   0.832  1.1706  0.2398  0.3289
 3378TIP3    H210099   2.598   4.279   0.721  0.8155  0.8209 -0.2885
 3379TIP3   OH210100   3.009   1.152   1.700 -0.3188 -0.5082 -0.0592
 3379TIP3    H110101   3.029   1.059   1.710 -0.9573 -0.7643 -0.9976
 3379TIP3    H210102   2.918   1.154   1.669 -0.2180  0.4080 -0.3246
 3380TIP3   OH210103   4.639   4.659   2.882 -1.0588 -0.2797  0.4831
 3380TIP3    H110104   4.640   4.635   2.975 -1.1173  0.2112  0.6164
 3380TIP3    H210105   4.584   4.594   2.840 -3.0549  0.8767  1.1892
 3381TIP3   OH210106   3.960   2.686   4.180 -0.1793 -0.0076  0.4053
 3381TIP3    H110107   3.869   2.662   4.162 -0.5207  1.2686  0.3578
 3381TIP3    H210108   4.007   2.660   4.100 -1.1793  2.8077 -1.2586
 3382TIP3   OH210109   6.794   0.324   0.972  0.2396 -0.0796 -0.5127
 3382TIP3    H110110   6.772   0.414   0.947 -1.0407 -0.2970 -0.2334
 3382TIP3    H210111   6.716   0.292   1.017  1.4544 -0.6259  1.3043
 3383TIP3   OH210112   5.097   0.326   4.809 -0.1737 -0.6588  0.9797
 3383TIP3    H110113   5.118   0.289   4.894 -0.3773 -1.4048  0.7134
 3383TIP3    H210114   5.022   0.384   4.826 -0.2241 -0.8155  1.3008
 3384TIP3   OH210115   3.230   4.168   5.848 -0.1582 -0.1932 -0.1560
 3384TIP3    H110116   3.213   4.144   5.939 -0.0761  0.5967  0.0745
 3384TIP3    H210117   3.192   4.097   5.797 -0.7079 -0.3674  0.4837
 3385TIP3   OH210118   1.159   3.426   5.761 -0.6434 -0.4793 -0.2554
 3385TIP3    H110119   1.187   3.432   5.670  0.6186  2.1553  0.1999
 3385TIP3    H210120   1.241   3.434   5.811 -1.5899  2.4077  1.0807
 3386TIP3   OH210121   0.204   0.884   1.043  0.0902 -0.2921  0.3914
 3386TIP3    H110122   0.116   0.864   1.010 -0.0542  0.5419  0.2594
 3386TIP3    H210123   0.205   0.979   1.051  0.9298 -0.3143  0.5533
 3387TIP3   OH210124   1.644   2.394   2.052 -0.0463  0.0915  0.3367
 3387TIP3    H110125   1.587   2.444   1.993 -2.2600 -1.7430  0.8032
 3387TIP3    H210126   1.603   2.402   2.138 -0.1074 -1.9662  0.5441
 3388TIP3   OH210127   0.227   4.372   0.282  0.0942  0.3232 -0.4880
 3388TIP3    H110128   0.211   4.285   0.247  1.3446 -0.2887  0.3847
 3388TIP3    H210129   0.321   4.386   0.271 -0.0714  1.5150 -0.5118
 3389TIP3   OH210130   5.407   1.001   4.551 -0.1304  0.1654  0.5816
 3389TIP3    H110131   5.432   1.020   4.461  1.3030 -1.3921  0.6245
 3389TIP3    H210132   5.445   1.073   4.602  1.7946 -0.6006  0.2882
 3390TIP3   OH210133   2.295   0.383   2.299  0.1768  0.3877 -0.0572
 3390TIP3    H110134   2.382   0.397   2.262  0.2701 -1.4506 -0.6122
 3390TIP3    H210135   2.300   0.297   2.340 -1.4100  0.2035 -0.1914
 3391TIP3   OH210136   2.276   6.063   2.527 -0.2860  0.2952  0.5240
 3391TIP3    H110137   2.304   6.011   2.603  2.4307  2.7197  1.3286
 3391TIP3    H210138   2.325   6.026   2.453 -0.7565 -0.2305  0.4637
 3392TIP3   OH210139   6.085   0.444   5.570  0.5981  0.0043 -0.0887
 3392TIP3    H110140   6.075   0.539   5.569  0.3934 -0.0149  0.0598
 3392TIP3    H210141   6.023   0.414   5.636 -0.0984 -0.3315 -0.8809
 3393TIP3   OH210142   5.445   3.629   0.447 -0.3239 -0.6896 -0.0205
 3393TIP3    H110143   5.538   3.643   0.467 -0.8194  1.8351  0.8200
 3393TIP3    H210144   5.402   3.632   0.532 -1.4918  1.2428 -0.6383
 3394TIP3   OH210145   4.833   2.561   2.601 -0.3194 -0.3048  0.2097
 3394TIP3    H110146   4.893   2.560   2.526 -0.5406 -0.2947  0.0312
 3394TIP3    H210147   4.746   2.560   2.562 -0.4417  0.3970  0.4510
 3395TIP3   OH210148   0.178   6.083   5.482  0.0145 -0.4026 -0.2913
 3395TIP3    H110149   0.237   6.075   5.407 -0.4049 -0.8533 -0.5781
 3395TIP3    H210150   0.181   5.997   5.524  1.1378  0.1885  0.8945
 3396TIP3   OH210151   3.064   4.450   4.750  0.2147  0.1345 -0.3895
 3396TIP3    H110152   3.029   4.537   4.731  1.5478  0.1087 -3.4669
 3396TIP3    H210153   3.154   4.453   4.718  0.5777 -2.1539  0.2354
 3397TIP3   OH210154   1.428   0.416   0.489  0.1111  0.6047  0.1825
 3397TIP3    H110155   1.450   0.392   0.580 -1.4744  0.5431  0.5839
 3397TIP3    H210156   1.338   0.385   0.478  0.8271 -0.8668 -1.9736
 3398TIP3   OH210157   6.671   4.589   3.918  0.1744 -0.1882  0.2207
 3398TIP3    H110158   6.763   4.604   3.943  1.0772 -2.0711 -1.6221
 3398TIP3    H210159   6.627   4.566   3.999  1.3772  0.5882  1.1175
 3399TIP3   OH210160   1.970   6.095   0.204  0.0603  0.4062  0.4886
 3399TIP3    H110161   1.971   6.126   0.295 -0.5821  1.2394  0.2219
 3399TIP3    H210162   1.884   6.054   0.194  0.1412  0.2911  0.2634
 3400TIP3   OH210163   0.232   0.836   4.643  0.2706 -0.2558 -0.0123
 3400TIP3    H110164   0.169   0.791   4.698  0.9710 -0.0105  1.0164
 3400TIP3    H210165   0.317   0.818   4.683  0.7391  0.4256 -0.6644
 3401TIP3   OH210166   5.579   5.971   5.815  0.2837  0.0581 -0.2066
 3401TIP3    H110167   5.521   5.987   5.741  0.9555  1.3876 -0.4748
 3401TIP3    H210168   5.585   5.875   5.820 -0.6986 -0.0746 -1.1168
 3402TIP3   OH210169   4.432   3.660   0.205  0.4661 -0.5144 -0.4382
 3402TIP3    H110170   4.508   3.610   0.173  1.1249 -0.0948  0.4334
 3402TIP3    H210171   4.413   3.621   0.291 -1.1613 -1.5039 -1.1884
 3403TIP3   OH210172   3.229   5.452   3.087 -0.1786  0.0304 -0.0125
 3403TIP3    H110173   3.308   5.486   3.044 -0.8561  2.0392  0.1990
 3403TIP3    H210174   3.243   5.472   3.180 -0.4392 -0.6615  0.1755
 3404TIP3   OH210175   3.260   1.415   5.852 -0.0695  0.6446  0.0578
 3404TIP3    H110176   3.296   1.368   5.928  0.5958  0.5528 -0.3014
 3404TIP3    H210177   3.334   1.466   5.819 -0.5972  1.3885  0.0063
 3405TIP3   OH210178   1.899   3.179   5.856  0.2103 -0.0951  0.6437
 3405TIP3    H110179   1.918   3.226   5.937  0.3504 -0.8855  1.0892
 3405TIP3    H210180   1.819   3.130   5.875 -0.4081  0.6018 -0.0939
 3406TIP3   OH210181   4.732   3.783   3.944  0.1573  0.0628  0.3154
 3406TIP3    H110182   4.663   3.730   3.983  1.1943 -1.5097  0.0873
 3406TIP3    H210183   4.767   3.835   4.017 -1.3237  0.9871  0.4034
 3407TIP3   OH210184   4.066   5.172   5.192  0.1157 -0.2500 -0.2544
 3407TIP3    H110185   4.107   5.110   5.131  0.6448 -1.0991  0.9230
 3407TIP3    H210186   4.136   5.195   5.253 -0.6973 -0.3516  0.7436
 3408TIP3   OH210187   2.622   3.336   2.538  0.1100 -0.8595  0.2273
 3408TIP3    H110188   2.571   3.304   2.464 -0.9322 -1.2778  1.1058
 3408TIP3    H210189   2.557   3.370   2.599  0.9978  0.0695  0.6789
 3409TIP3   OH210190   0.432   2.060   4.045 -0.0725 -0.6365  0.2840
 3409TIP3    H110191   0.395   2.140   4.007 -0.7525 -1.4220 -0.7469
 3409TIP3    H210192   0.527   2.074   4.043 -0.2059  0.3989  0.7087
 3410TIP3   OH210193   2.910   2.592   3.490 -0.4665  0.0793  0.1640
 3410TIP3    H110194   2.871   2.673   3.524  1.8783  1.9660 -1.2732
 3410TIP3    H210195   2.997   2.589   3.530 -0.8591 -2.3334  0.9582
 3411TIP3   OH210196   7.035   1.927   3.930 -0.4671 -0.2357 -0.2600
 3411TIP3    H110197   7.021   1.899   3.840 -2.7079  1.7772 -0.6732
 3411TIP3    H210198   6.968   1.880   3.980  1.1517 -1.8035  0.5351
 3412TIP3   OH210199   6.957   0.234   1.813  0.3743 -0.0760  0.4661
 3412TIP3    H110200   6.977   0.221   1.906 -0.4324 -0.2524  0.6216
 3412TIP3    H210201   7.036   0.206   1.767  1.2311  1.1364  1.1492
 3413TIP3   OH210202   4.172   0.022   3.845 -0.3724 -0.2131 -0.0734
 3413TIP3    H110203   4.210   0.040   3.759 -0.5743  1.9970  0.2462
 3413TIP3    H210204   4.206   0.091   3.901 -0.6594 -1.3156  1.5222
 3414TIP3   OH210205   5.084   1.039   3.608  0.5501 -0.1084 -0.3079
 3414TIP3    H110206   4.999   1.062   3.646  0.8887  1.0324 -0.2070
 3414TIP3    H210207   5.064   0.967   3.548 -0.3027 -0.6287  0.5620
 3415TIP3   OH210208   3.134   1.822   0.238  0.5436 -0.8839  0.0108
 3415TIP3    H110209   3.107   1.913   0.241 -1.0352 -1.2498  4.5725
 3415TIP3    H210210   3.225   1.824   0.206  1.4097  2.5914  2.2331
 3416TIP3   OH210211   2.162   2.460   2.102  0.0358  0.1179 -0.2575
 3416TIP3    H110212   2.138   2.492   2.189  0.8180  0.0151 -0.0040
 3416TIP3    H210213   2.080   2.423   2.067  0.0514 -1.2156  1.0369
 3417TIP3   OH210214   0.670   5.165   0.692 -0.0547 -0.0636 -0.1697
 3417TIP3    H110215   0.588   5.181   0.645  0.6948  0.3063 -1.3892
 3417TIP3    H210216   0.704   5.084   0.653  0.6074  0.2811 -0.3078
 3418TIP3   OH210217   1.242   5.937   4.263 -0.3045 -0.0735 -0.0047
 3418TIP3    H110218   1.267   5.854   4.305 -3.0752 -1.0336 -0.0445
 3418TIP3    H210219   1.303   5.946   4.190  0.2562 -1.9280  0.1737
 3419TIP3   OH210220   1.513   6.314   3.581 -0.1596  0.3295  0.2631
 3419TIP3    H110221   1.600   6.278   3.561  0.3017  1.8232 -0.5447
 3419TIP3    H210222   1.453   6.260   3.529  0.6384  1.4511 -1.9652
 3420TIP3   OH210223   4.979   0.454   1.652  0.8152  0.5535 -1.0185
 3420TIP3    H110224   5.056   0.478   1.600 -0.5126  1.1177 -2.8597
 3420TIP3    H210225   4.920   0.529   1.643 -0.0485  0.0461  0.1601
 3421TIP3   OH210226   4.230   2.373   5.509  0.4170  0.4092  0.0169
 3421TIP3    H110227   4.267   2.441   5.454 -0.6451  1.0013  0.0196
 3421TIP3    H210228   4.195   2.419   5.585  0.6048 -0.2545  0.5209
 3422TIP3   OH210229   2.570   2.422   0.529  0.0600  0.1682  0.5244
 3422TIP3    H110230   2.562   2.443   0.436 -0.3572 -1.7256  0.0859
 3422TIP3    H210231   2.507   2.481   0.572 -0.3937  0.4489 -0.4937
 3423TIP3   OH210232   3.062   4.409   3.960 -1.0083  0.1043 -0.7474
 3423TIP3    H110233   3.079   4.451   3.876  0.3191 -1.0936 -1.1185
 3423TIP3    H210234   3.105   4.464   4.025 -1.5604  0.7310 -0.9051
 3424TIP3   OH210235   2.833   4.392   2.575 -0.6451  0.5338 -0.3207
 3424TIP3    H110236   2.884   4.353   2.504 -1.6157 -0.6239 -0.4201
 3424TIP3    H210237   2.765   4.442   2.530  0.3033  1.9894 -0.1895
 3425TIP3   OH210238   0.930   6.534   1.044 -0.1467 -0.2765 -0.2502
 3425TIP3    H110239   1.005   6.477   1.060  0.2679  0.8400  2.4262
 3425TIP3    H210240   0.874   6.520   1.121 -2.5057 -0.7321 -1.9547
 3426TIP3   OH210241   1.823   2.506   1.814  0.5547 -0.0128  0.8518
 3426TIP3    H110242   1.890   2.456   1.768  1.1047 -0.0442  1.6744
 3426TIP3    H210243   1.815   2.463   1.899 -0.4798  0.0132  0.7854
 3427TIP3   OH210244   4.353   1.393   0.270  0.0577 -0.0793  0.0139
 3427TIP3    H110245   4.429   1.383   0.214  0.9434 -1.1119  1.3245
 3427TIP3    H210246   4.281   1.353   0.222  0.9287 -1.5045 -0.1387
 3428TIP3   OH210247   1.663   2.611   1.298 -0.3098  0.0822 -0.3958
 3428TIP3    H110248   1.574   2.587   1.273 -0.5774  1.2088 -0.5828
 3428TIP3    H210249   1.694   2.537   1.351 -1.7513  0.1426  0.5911
 3429TIP3   OH210250   2.151   5.526   3.281 -0.1752  0.4872 -0.0918
 3429TIP3    H110251   2.142   5.607   3.231 -0.1349  0.3548 -0.3169
 3429TIP3    H210252   2.063   5.487   3.278 -0.5459  1.1695  1.1488
 3430TIP3   OH210253   0.070   3.786   1.059  0.3606 -0.5112 -0.7556
 3430TIP3    H110254   0.152   3.737   1.070  0.3865 -0.2669  0.2751
 3430TIP3    H210255   0.074   3.819   0.969  0.3270 -2.4102 -1.5088
 3431TIP3   OH210256   4.281   3.550   1.200 -0.1008  0.1313 -0.2467
 3431TIP3    H110257   4.193   3.577   1.225  0.0403 -0.5889  1.1232
 3431TIP3    H210258   4.302   3.478   1.260  1.5144  0.4669 -0.3566
 3432TIP3   OH210259   5.244   1.434   1.940  0.0201 -0.6986 -0.1489
 3432TIP3    H110260   5.253   1.443   2.034 -2.1406 -0.4486  0.0818
 3432TIP3    H210261   5.161   1.389   1.927 -0.8332  1.2116 -1.9614
 3433TIP3   OH210262   2.567   3.996   2.352 -0.1215  1.1629  0.0794
 3433TIP3    H110263   2.619   4.053   2.409  1.7423  1.2416 -1.6180
 3433TIP3    H210264   2.587   3.907   2.382  1.3733  1.1711 -0.8329
 3434TIP3   OH210265   3.578   3.939   2.695 -0.3270 -0.0422  0.0964
 3434TIP3    H110266   3.613   3.868   2.641  0.3867 -0.7330  1.4117
 3434TIP3    H210267   3.489   3.910   2.718 -0.1819 -0.3318  0.3024
 3435TIP3   OH210268   5.162   6.554   3.067 -0.1803 -0.4431  0.4948
 3435TIP3    H110269   5.085   6.595   3.027  0.3134 -0.6940 -0.7263
 3435TIP3    H210270   5.214   6.523   2.994  0.4262 -1.5142  1.3547
 3436TIP3   OH210271   6.172   1.825   3.575  0.3262  0.2751 -0.3975
 3436TIP3    H110272   6.090   1.851   3.617  1.5497  0.6012  1.9310
 3436TIP3    H210273   6.193   1.898   3.516 -1.4447 -0.2032 -1.6994
 3437TIP3   OH210274   3.310   1.761   1.973  0.4539 -0.2540 -0.2263
 3437TIP3    H110275   3.285   1.767   1.881  0.0940  0.5659 -0.0810
 3437TIP3    H210276   3.230   1.782   2.022  0.4744 -1.3156  0.2886
 3438TIP3   OH210277   2.898   2.456   4.808  0.5283 -0.5279 -0.8997
 3438TIP3    H110278   2.917   2.363   4.821  1.5964 -0.2365 -0.2810
 3438TIP3    H210279   2.899   2.493   4.896 -3.5832 -0.5388 -0.6470
 3439TIP3   OH210280   1.991   3.090   5.310 -0.2829 -0.3459 -0.1291
 3439TIP3    H110281   2.073   3.107   5.265  0.5041  0.5094  1.5203
 3439TIP3    H210282   1.989   2.995   5.321 -0.2575 -0.5169 -1.4855
 3440TIP3   OH210283   3.531   3.539   4.107 -0.0335 -0.1302  0.4779
 3440TIP3    H110284   3.441   3.516   4.125 -0.4711  1.5103  0.5862
 3440TIP3    H210285   3.565   3.571   4.191 -0.3254  2.0919 -0.1640
 3441TIP3   OH210286   5.978   6.477   5.739  0.1030 -0.3444 -0.5317
 3441TIP3    H110287   5.986   6.500   5.647  2.9162  0.2793 -0.2155
 3441TIP3    H210288   5.943   6.555   5.781 -0.1641 -0.2593 -0.9144
 3442TIP3   OH210289   2.938   3.317   0.851 -0.2202  0.2548  0.1349
 3442TIP3    H110290   3.025   3.314   0.890  0.4812  3.7305 -0.8363
 3442TIP3    H210291   2.923   3.228   0.819  2.8121 -0.5393  0.6341
 3443TIP3   OH210292   1.788   0.104   0.522  0.0252  0.0028  0.3380
 3443TIP3    H110293   1.721   0.136   0.462  0.9363  1.2379 -0.0604
 3443TIP3    H210294   1.749   0.113   0.609 -0.5772  0.0303  0.0700
 3444TIP3   OH210295   4.203   3.571   3.983  0.2179  0.5389 -0.0007
 3444TIP3    H110296   4.244   3.486   3.996  0.2578  0.0248 -2.8534
 3444TIP3    H210297   4.109   3.553   3.985  0.2020  0.0190 -2.2133
 3445TIP3   OH210298   2.825   2.931   4.283  0.2838  0.2593 -0.3897
 3445TIP3    H110299   2.810   2.923   4.377 -0.6489  0.5581 -0.4958
 3445TIP3    H210300   2.906   2.883   4.267 -0.0175 -0.5555  0.4293
 3446TIP3   OH210301   0.335   6.476   0.015 -0.4735  0.2168  0.0169
 3446TIP3    H110302   0.376   6.541   0.072 -1.6788 -0.6215  1.9494
 3446TIP3    H210303   0.404   6.451  -0.046  0.8148  1.3274  0.9492
 3447TIP3   OH210304   3.953   4.175   5.579  0.0190 -0.4037  0.1331
 3447TIP3    H110305   3.876   4.128   5.607  0.8362 -1.2286  1.0655
 3447TIP3    H210306   4.008   4.180   5.657  0.9066  0.1678 -0.5062
 3448TIP3   OH210307   4.942   5.118   5.226  0.4781 -0.2410  0.3929
 3448TIP3    H110308   4.992   5.191   5.193  0.5803 -0.1435  0.7568
 3448TIP3    H210309   4.932   5.059   5.151  1.1746 -0.2859  0.3329
 3449TIP3   OH210310   2.864   4.315   2.820 -0.1037 -0.3598 -0.1690
 3449TIP3    H110311   2.857   4.354   2.733  2.1650  0.5935  0.0191
 3449TIP3    H210312   2.780   4.334   2.861 -1.3476 -1.1041 -2.2109
 3450TIP3   OH210313   1.678   6.423   1.896  0.0505 -0.0426 -0.5193
 3450TIP3    H110314   1.668   6.507   1.940 -0.2920  0.3522 -1.3443
 3450TIP3    H210315   1.746   6.378   1.947 -1.1369 -0.0797  1.1239
 3451TIP3   OH210316   0.795   2.175   3.509  0.1230 -0.4082 -0.2399
 3451TIP3    H110317   0.789   2.240   3.438  0.0037  0.3070  0.4054
 3451TIP3    H210318   0.761   2.221   3.586  1.6445 -0.6725  0.6216
 3452TIP3   OH210319   1.213   4.297   3.958 -0.4771 -0.3265  0.2530
 3452TIP3    H110320   1.233   4.389   3.972  0.3409 -0.4040 -0.3831
 3452TIP3    H210321   1.246   4.253   4.037 -0.8580 -0.0786  0.5504
 3453TIP3   OH210322   0.153   2.582   0.610 -0.3953  0.2855  0.5146
 3453TIP3    H110323   0.134   2.531   0.532  0.8303  0.3301  0.1711
 3453TIP3    H210324   0.161   2.517   0.680 -1.6626  0.2583  0.6663
 3454TIP3   OH210325   5.812   0.989   3.290  0.0102 -0.4264 -0.2607
 3454TIP3    H110326   5.771   0.981   3.204  0.2509  1.1569 -0.5384
 3454TIP3    H210327   5.780   1.071   3.325  1.4850 -0.0603  0.3030
 3455TIP3   OH210328   1.186   2.897   2.506  0.4669  0.1670  0.4129
 3455TIP3    H110329   1.250   2.827   2.518  0.6530  0.0603 -1.0709
 3455TIP3    H210330   1.177   2.936   2.593  0.5786 -1.4914  1.2008
 3456TIP3   OH210331   1.010   4.512   1.693  0.4358 -0.5496  0.2507
 3456TIP3    H110332   1.029   4.469   1.776 -1.9775 -2.5345 -0.1040
 3456TIP3    H210333   1.036   4.448   1.626  2.0524  0.8906 -0.5808
 3457TIP3   OH210334   2.100   0.304   2.117 -0.2930 -0.3231  0.0098
 3457TIP3    H110335   2.152   0.356   2.179  1.2068 -0.4358 -1.1043
 3457TIP3    H210336   2.035   0.261   2.171  0.1623  0.5817  1.3370
 3458TIP3   OH210337   6.446   6.184   2.130  0.1149  0.2916 -0.4178
 3458TIP3    H110338   6.529   6.138   2.118  0.3442  0.6620 -0.2496
 3458TIP3    H210339   6.391   6.152   2.059  0.0924 -0.6510  0.0032
 3459TIP3   OH210340   5.047   6.245   3.498 -0.1697  0.5010 -0.2319
 3459TIP3    H110341   4.989   6.171   3.482  1.1014 -0.7237  0.5905
 3459TIP3    H210342   5.072   6.276   3.410 -0.9303  0.1409 -0.5766
 3460TIP3   OH210343   1.287   5.059   3.030  0.2738  1.1075  0.3318
 3460TIP3    H110344   1.309   4.981   2.978 -1.6430 -0.2594  1.4677
 3460TIP3    H210345   1.371   5.087   3.068  1.0327 -0.2483 -0.2824
 3461TIP3   OH210346   3.821   5.059   4.165 -0.2145  0.6381 -0.4964
 3461TIP3    H110347   3.875   5.136   4.147  0.4804  0.2528 -0.1168
 3461TIP3    H210348   3.849   4.994   4.101  1.0050 -0.1303  0.7417
 3462TIP3   OH210349   3.829   4.229   1.807 -0.1776  0.5152 -0.3444
 3462TIP3    H110350   3.863   4.317   1.792  0.6289  0.7536  2.4013
 3462TIP3    H210351   3.868   4.202   1.890 -1.0278 -2.1405 -0.7155
 3463TIP3   OH210352   6.224   2.953   2.407 -0.0869 -0.0455 -0.0435
 3463TIP3    H110353   6.187   2.913   2.328 -0.1486  2.5564 -1.4629
 3463TIP3    H210354   6.319   2.948   2.394 -0.1000  0.6409 -0.4614
 3464TIP3   OH210355   6.605   5.573   1.639 -0.8070 -0.3884 -0.0028
 3464TIP3    H110356   6.617   5.512   1.567 -0.0753  1.7065 -1.7653
 3464TIP3    H210357   6.691   5.578   1.681 -0.9069 -0.6565  0.2399
 3465TIP3   OH210358   5.350   3.533   5.208 -0.0734  0.2374  0.3579
 3465TIP3    H110359   5.339   3.600   5.140 -0.4789  0.1732  0.3573
 3465TIP3    H210360   5.279   3.550   5.270  1.2719  1.3525  1.6772
 3466TIP3   OH210361   0.824   2.538   1.917  0.6087  0.0360 -0.6142
 3466TIP3    H110362   0.835   2.518   2.010 -0.8953 -1.9121 -0.7944
 3466TIP3    H210363   0.817   2.633   1.914  2.7522  0.3346  0.9921
 3467TIP3   OH210364   7.008   2.125   5.794 -0.0961  0.1061 -0.2863
 3467TIP3    H110365   7.057   2.165   5.722 -0.1599  0.6202 -0.0452
 3467TIP3    H210366   7.008   2.031   5.773 -2.0721  0.4364 -2.2090
 3468TIP3   OH210367   2.963   5.722   1.063  0.2419  0.1466 -0.0965
 3468TIP3    H110368   2.886   5.778   1.052 -0.1578 -0.4970 -0.6206
 3468TIP3    H210369   3.023   5.750   0.994  1.3690  2.0509  1.5464
 3469TIP3   OH210370   5.732   4.210   1.332  0.4554  0.3076  0.0703
 3469TIP3    H110371   5.779   4.221   1.415  0.8112  0.1834 -0.1159
 3469TIP3    H210372   5.765   4.128   1.296  0.0830  0.2092 -0.0545
 3470TIP3   OH210373   5.114   0.891   5.264  0.3465  0.8344  0.5212
 3470TIP3    H110374   5.052   0.955   5.299  0.0442  1.3072 -0.8041
 3470TIP3    H210375   5.144   0.930   5.182  0.0105 -0.7960 -0.4191
 3471TIP3   OH210376   3.755   6.075   3.177  0.0701  0.1922 -0.1247
 3471TIP3    H110377   3.815   6.050   3.247 -0.0694 -0.7848 -0.3336
 3471TIP3    H210378   3.668   6.073   3.218  0.1142  0.9667  0.0141
 3472TIP3   OH210379   6.899   3.854   1.554 -0.4771 -0.3516  0.6729
 3472TIP3    H110380   6.888   3.809   1.637 -1.6820 -2.5328 -0.5577
 3472TIP3    H210381   6.956   3.797   1.502  1.3136  1.5868  0.3772
 3473TIP3   OH210382   5.602   5.073   1.057 -0.0040  0.1552  0.9919
 3473TIP3    H110383   5.569   5.085   1.146  1.9349 -0.4953  1.8407
 3473TIP3    H210384   5.677   5.132   1.051  0.6705 -0.7668  0.2164
 3474TIP3   OH210385   6.276   3.807   1.068  0.2748 -0.2007 -0.4423
 3474TIP3    H110386   6.291   3.756   1.147 -1.3672 -1.6904 -1.0133
 3474TIP3    H210387   6.269   3.897   1.098  1.3920 -0.5174  0.8554
 3475TIP3   OH210388   5.201   0.473   1.499  0.0641 -0.1371  0.0213
 3475TIP3    H110389   5.274   0.429   1.455  1.3670  1.5534  0.4124
 3475TIP3    H210390   5.187   0.552   1.448 -0.9828 -0.0488  0.4301
 3476TIP3   OH210391   4.913   5.644   2.257  0.0661 -0.4183 -0.4903
 3476TIP3    H110392   4.823   5.619   2.238 -0.4406  0.3687  0.7892
 3476TIP3    H210393   4.951   5.666   2.171 -1.8407  2.1081 -0.7956
 3477TIP3   OH210394   2.342   2.289   3.541  0.0172 -0.8023 -0.2163
 3477TIP3    H110395   2.369   2.300   3.632  0.2947 -1.5323 -0.2045
 3477TIP3    H210396   2.387   2.360   3.494 -0.6742  0.0033  0.3106
 3478TIP3   OH210397   7.182   1.345   0.596  0.3298  0.5346 -0.0315
 3478TIP3    H110398   7.137   1.365   0.514  1.3128 -1.0068 -1.0079
 3478TIP3    H210399   7.187   1.429   0.642 -1.6725  1.1357 -0.7875
 3479TIP3   OH210400   6.942   1.626   0.225 -0.4505 -0.5721  0.5160
 3479TIP3    H110401   6.936   1.590   0.137  2.3382 -0.7612  0.3205
 3479TIP3    H210402   6.968   1.717   0.213 -1.0374 -0.3121  1.1352
 3480TIP3   OH210403   4.100   4.673   1.031  0.2464  0.7501 -0.6479
 3480TIP3    H110404   4.087   4.682   1.126  0.8620 -0.6534 -0.3965
 3480TIP3    H210405   4.138   4.756   1.004  0.1311  1.1436  0.3531
 3481TIP3   OH210406   3.418   2.408   0.380 -0.4437 -0.7485  0.5637
 3481TIP3    H110407   3.398   2.317   0.400  0.5247 -0.9170  0.7950
 3481TIP3    H210408   3.511   2.408   0.357 -0.3585  0.2300  0.8780
 3482TIP3   OH210409   2.614   3.782   2.564 -0.4067 -0.1381  0.0809
 3482TIP3    H110410   2.662   3.705   2.534 -0.5169 -0.0594 -0.2918
 3482TIP3    H210411   2.682   3.840   2.600  0.2328  1.2773 -3.0445
 3483TIP3   OH210412   0.084   2.439   0.345 -0.1758  0.2870  0.3699
 3483TIP3    H110413   0.030   2.360   0.348 -1.0710  0.9020  1.1050
 3483TIP3    H210414   0.173   2.408   0.328 -0.7233 -0.7708 -0.6641
 3484TIP3   OH210415   1.635   0.649   2.616 -0.3609 -0.0659 -0.2058
 3484TIP3    H110416   1.687   0.570   2.601  3.8348  2.4957 -0.4514
 3484TIP3    H210417   1.619   0.684   2.528 -1.3812 -0.0802 -0.0439
 3485TIP3   OH210418   5.177   6.763   4.930 -0.0482 -0.2157 -0.4451
 3485TIP3    H110419   5.239   6.694   4.953 -0.6326 -0.1126  1.6353
 3485TIP3    H210420   5.126   6.777   5.010 -3.1390 -0.6879 -2.1755
 3486TIP3   OH210421   4.921   4.558   2.163 -0.0662 -0.0473 -0.2458
 3486TIP3    H110422   4.845   4.509   2.133 -0.8789  0.5486  0.7865
 3486TIP3    H210423   4.888   4.646   2.180  0.2308 -0.3976  2.6530
 3487TIP3   OH210424   4.356   3.516   5.403  0.0058  0.4789 -0.1971
 3487TIP3    H110425   4.310   3.596   5.376 -0.9593  0.3035  0.8178
 3487TIP3    H210426   4.447   3.542   5.412 -0.5184  1.9141  1.6549
 3488TIP3   OH210427   3.456   2.031   3.181 -0.0230  0.0123 -0.1669
 3488TIP3    H110428   3.407   1.985   3.113  1.0276 -0.6028 -0.5346
 3488TIP3    H210429   3.485   1.961   3.240 -0.4821  0.4848  0.6457
 3489TIP3   OH210430   3.133   3.300   3.496 -0.0363 -0.1988 -0.1658
 3489TIP3    H110431   3.175   3.314   3.411 -0.9989 -0.3674 -0.6944
 3489TIP3    H210432   3.118   3.389   3.530 -1.6749 -0.0003 -1.2433
 3490TIP3   OH210433   5.670   5.747   3.728 -0.0072  0.1973  0.1198
 3490TIP3    H110434   5.585   5.729   3.768 -0.8002  2.5112 -0.3717
 3490TIP3    H210435   5.688   5.838   3.750  2.2405 -0.1638 -0.0219
 3491TIP3   OH210436   5.918   2.093   3.796 -0.9347  0.0423  0.3729
 3491TIP3    H110437   5.921   2.189   3.805 -0.8713  0.0586  0.1848
 3491TIP3    H210438   5.919   2.061   3.886  0.0130  0.1937  0.4297
 3492TIP3   OH210439   0.604   3.102   4.396  0.0790  0.2028 -0.2841
 3492TIP3    H110440   0.628   3.102   4.489  1.1212  0.3442 -0.5481
 3492TIP3    H210441   0.671   3.049   4.353 -1.7268 -1.9803 -0.6496
 3493TIP3   OH210442   1.275   3.759   5.622 -0.4628  0.1509  0.0274
 3493TIP3    H110443   1.353   3.809   5.601  0.2407 -0.6700  0.6215
 3493TIP3    H210444   1.307   3.672   5.647 -1.2796  0.5932  3.0782
 3494TIP3   OH210445   6.747   2.491   3.707  0.1911  0.4616 -0.3816
 3494TIP3    H110446   6.745   2.587   3.707 -1.6535  0.4491 -0.4507
 3494TIP3    H210447   6.704   2.466   3.788  0.6179 -0.3283 -0.3912
 3495TIP3   OH210448   1.049   6.481   1.382  0.0222  0.3845 -0.5200
 3495TIP3    H110449   1.118   6.547   1.388  0.6711 -0.4189  1.4267
 3495TIP3    H210450   1.093   6.397   1.394 -1.3494 -0.1026  1.6469
 3496TIP3   OH210451   0.999   1.521   3.770 -0.0870  0.0705  0.1374
 3496TIP3    H110452   1.093   1.510   3.757 -0.0966 -0.9713  0.8946
 3496TIP3    H210453   0.978   1.603   3.724  1.4233  1.0241  1.0467
 3497TIP3   OH210454   4.557   2.585   2.585  0.7509 -0.1184  0.0810
 3497TIP3    H110455   4.528   2.675   2.570  0.8076  0.2588  2.0187
 3497TIP3    H210456   4.597   2.586   2.672  1.3927 -1.8727 -0.1455
 3498TIP3   OH210457   0.798   5.957   1.013 -0.3107 -1.0250  0.1055
 3498TIP3    H110458   0.739   6.028   0.987  0.6978  0.3853  1.4929
 3498TIP3    H210459   0.744   5.900   1.067 -0.6655 -0.2457  0.5976
 3499TIP3   OH210460   2.170   0.434   3.974 -0.1386  0.3600  0.6335
 3499TIP3    H110461   2.092   0.474   4.013 -0.7864 -2.2003  2.2172
 3499TIP3    H210462   2.220   0.400   4.048  1.5163  0.2211 -0.4793
 3500TIP3   OH210463   3.448   2.386   4.467 -0.3072 -0.0781 -1.1496
 3500TIP3    H110464   3.539   2.413   4.475 -0.2361 -0.4056 -0.8289
 3500TIP3    H210465   3.444   2.300   4.509 -0.7006 -0.2000 -1.4221
 3501TIP3   OH210466   3.014   0.208   5.336 -0.6463  0.0899 -0.0864
 3501TIP3    H110467   3.103   0.224   5.369 -0.8777 -0.1724  0.6900
 3501TIP3    H210468   2.987   0.292   5.300 -0.3909  0.4109  0.4470
 3502TIP3   OH210469   1.175   4.878   1.281  0.1756  0.3727 -0.6149
 3502TIP3    H110470   1.193   4.954   1.225 -1.6068  1.8767  0.7436
 3502TIP3    H210471   1.095   4.841   1.245 -0.3948  0.7199  0.2633
 3503TIP3   OH210472   1.712   6.743   3.086  0.3088 -0.0872  0.3011
 3503TIP3    H110473   1.619   6.733   3.105  0.2873 -0.8496 -0.1707
 3503TIP3    H210474   1.725   6.837   3.078 -0.3425  0.0479  0.7469
 3504TIP3   OH210475   3.644   1.277   2.862  0.3631  0.0517  0.1240
 3504TIP3    H110476   3.596   1.272   2.944 -1.4361 -0.1395 -0.8872
 3504TIP3    H210477   3.634   1.190   2.823  0.0476  0.5321 -0.8963
 3505TIP3   OH210478   5.704   2.137   2.342 -0.0260 -0.0186 -0.1880
 3505TIP3    H110479   5.655   2.067   2.298 -1.0239  1.4741 -1.5750
 3505TIP3    H210480   5.719   2.104   2.431 -1.1511 -1.6526 -0.5595
 3506TIP3   OH210481   5.097   1.161   0.217 -0.4678 -0.2750 -0.4370
 3506TIP3    H110482   5.130   1.211   0.143 -0.2326 -0.4691 -0.4633
 3506TIP3    H210483   5.128   1.208   0.294  2.1867 -1.8856 -0.4050
 3507TIP3   OH210484   5.620   1.679   5.199  0.0343 -0.7277  0.1684
 3507TIP3    H110485   5.658   1.764   5.221  0.2262 -0.8136  0.1694
 3507TIP3    H210486   5.694   1.618   5.203 -0.1385 -0.9253  0.3499
 3508TIP3   OH210487   2.420   5.413   1.731 -0.2512  0.1738 -0.9965
 3508TIP3    H110488   2.495   5.366   1.767 -0.5959 -0.1392 -0.6802
 3508TIP3    H210489   2.429   5.404   1.636  1.1126  1.6912 -1.0609
 3509TIP3   OH210490   1.013   4.420   4.272  0.1387 -0.7237 -0.4049
 3509TIP3    H110491   0.979   4.473   4.199 -0.6798 -1.0800 -0.2971
 3509TIP3    H210492   0.984   4.331   4.252 -1.4943 -0.6001  1.1337
 3510TIP3   OH210493   3.802   1.859   2.897  0.0627  0.2189  0.1302
 3510TIP3    H110494   3.873   1.900   2.946 -0.5423 -0.3056  1.5014
 3510TIP3    H210495   3.728   1.858   2.958 -0.6554 -0.6598 -0.7154
 3511TIP3   OH210496   0.638   1.761   3.240 -0.0617 -0.3924 -0.0701
 3511TIP3    H110497   0.643   1.852   3.271  2.8367  0.0302 -1.4767
 3511TIP3    H210498   0.604   1.768   3.151 -0.4727 -0.7796  0.0523
 3512TIP3   OH210499   2.628   3.892   3.988 -0.2476  0.8161  0.5077
 3512TIP3    H110500   2.589   3.813   4.025 -0.3354 -0.2179 -1.6941
 3512TIP3    H210501   2.555   3.942   3.953 -0.1287  1.6493  1.3802
 3513TIP3   OH210502   0.598   5.180   4.642 -0.2311 -0.2814  0.2439
 3513TIP3    H110503   0.519   5.161   4.693 -0.7267 -1.3218 -0.8604
 3513TIP3    H210504   0.641   5.095   4.632  0.0646 -0.0308 -0.7181
 3514TIP3   OH210505   1.543   2.907   2.255  0.1244  0.1536  0.0049
 3514TIP3    H110506   1.569   2.956   2.332  1.6070 -1.5911  0.6883
 3514TIP3    H210507   1.515   2.822   2.289  0.2022 -0.4306 -1.3192
 3515TIP3   OH210508   5.726   3.857   1.415  0.4587  0.7420  0.6031
 3515TIP3    H110509   5.682   3.894   1.339  0.4945 -0.5037 -0.0422
 3515TIP3    H210510   5.805   3.910   1.425  0.5398  0.8171 -0.3412
 3516TIP3   OH210511   2.545   0.329   5.196 -0.1681 -0.0413 -0.0293
 3516TIP3    H110512   2.554   0.263   5.128  1.5343 -0.4629  0.5554
 3516TIP3    H210513   2.588   0.406   5.160  0.5758 -0.2092  0.4863
 3517TIP3   OH210514   5.993   0.165   4.575 -0.0251  0.6970  0.0755
 3517TIP3    H110515   5.963   0.086   4.621  0.1349  0.1959 -0.6614
 3517TIP3    H210516   6.075   0.188   4.619  0.8446 -0.5823 -0.8129
 3518TIP3   OH210517   2.325   4.726   4.913  0.1435 -0.6079 -0.3251
 3518TIP3    H110518   2.270   4.719   4.991 -1.7102 -0.3492 -1.5243
 3518TIP3    H210519   2.393   4.789   4.936 -1.0838  0.3921  0.7032
 3519TIP3   OH210520   3.051   4.652   5.784 -0.0464 -0.6784  0.0761
 3519TIP3    H110521   3.139   4.675   5.813  0.5832 -1.9450 -0.7385
 3519TIP3    H210522   3.038   4.703   5.704  0.1093 -0.7856 -0.0184
 3520TIP3   OH210523   6.952   2.765   1.529  0.3299 -0.3311  0.1258
 3520TIP3    H110524   6.938   2.817   1.450 -0.0512 -0.9919 -0.2501
 3520TIP3    H210525   6.874   2.710   1.535  0.7747 -0.9319  0.4538
 3521TIP3   OH210526   5.197   3.353   4.477 -0.0388  0.5758  0.1412
 3521TIP3    H110527   5.276   3.326   4.430 -0.0315  1.4803 -0.3862
 3521TIP3    H210528   5.145   3.273   4.485  0.2509  0.2727 -0.8387
 3522TIP3   OH210529   3.338   5.617   4.554  0.4422 -0.2324 -0.0054
 3522TIP3    H110530   3.354   5.540   4.609 -1.1014  0.6190  1.7416
 3522TIP3    H210531   3.339   5.690   4.616 -0.1929  0.9090 -1.3116
 3523TIP3   OH210532   7.109   0.326   3.646  0.6310 -0.4047  0.2975
 3523TIP3    H110533   7.099   0.332   3.551 -0.2691  0.3295  0.4190
 3523TIP3    H210534   7.204   0.329   3.661  0.7473  0.4266 -0.5298
 3524TIP3   OH210535   0.746   1.752   0.481  0.0092  0.1609  0.1049
 3524TIP3    H110536   0.837   1.754   0.512  0.2097  0.1283 -0.4613
 3524TIP3    H210537   0.722   1.659   0.484 -0.9903  0.4205  2.9770
 3525TIP3   OH210538   0.922   2.859   5.065  0.6356 -0.2747 -0.3475
 3525TIP3    H110539   0.858   2.929   5.056  1.2593  0.5356  1.2099
 3525TIP3    H210540   1.007   2.903   5.059  1.0576 -0.5653  2.2738
 3526TIP3   OH210541   3.054   2.441   1.421 -0.2629 -0.3405 -0.0009
 3526TIP3    H110542   3.085   2.390   1.346  0.6092  1.0888 -0.6521
 3526TIP3    H210543   2.974   2.395   1.450  1.3116 -3.0165  0.5040
 3527TIP3   OH210544   0.745   4.069   3.141 -0.1251 -0.2470  0.1634
 3527TIP3    H110545   0.732   4.162   3.159  1.0691 -0.3136  1.6371
 3527TIP3    H210546   0.682   4.048   3.072 -2.6575  0.9178  1.9580
 3528TIP3   OH210547   4.182   6.084   1.330  0.0685 -0.0945  0.5737
 3528TIP3    H110548   4.087   6.090   1.343 -0.1659  0.2101 -1.1178
 3528TIP3    H210549   4.202   5.991   1.342 -0.4295 -0.1586  0.9583
 3529TIP3   OH210550   0.626   2.993   0.670 -0.0388  0.3577 -0.0454
 3529TIP3    H110551   0.575   2.958   0.742 -0.3597  1.8389  0.4777
 3529TIP3    H210552   0.705   3.029   0.711  0.2573  0.3108 -0.5582
 3530TIP3   OH210553   1.404   4.936   3.803 -0.3805 -0.0247 -0.5313
 3530TIP3    H110554   1.388   4.848   3.835  0.5240  0.3047  0.9182
 3530TIP3    H210555   1.440   4.983   3.878 -2.0357  1.9612 -0.8826
 3531TIP3   OH210556   3.272   6.053   3.460  0.6288 -0.3227 -0.2967
 3531TIP3    H110557   3.306   6.059   3.550  2.1253 -1.9031 -0.7095
 3531TIP3    H210558   3.260   5.959   3.445 -1.6814  0.0423 -1.0462
 3532TIP3   OH210559   4.025   4.546   2.311 -0.4229  0.0815  0.1331
 3532TIP3    H110560   4.001   4.455   2.331 -1.2680  0.4513  0.8293
 3532TIP3    H210561   3.969   4.599   2.367 -0.4696  1.0668 -0.8148
 3533TIP3   OH210562   5.690   5.477   4.368 -0.2643  0.0145 -0.1062
 3533TIP3    H110563   5.639   5.425   4.431  0.2779  0.6449  0.8918
 3533TIP3    H210564   5.781   5.458   4.390 -0.0657  0.3323 -0.6384
 3534TIP3   OH210565   6.328   4.211   4.419 -0.1033  0.9142  0.8265
 3534TIP3    H110566   6.407   4.225   4.366  0.0379 -0.6227  0.5892
 3534TIP3    H210567   6.257   4.207   4.355 -0.2199  1.1473  0.9417
 3535TIP3   OH210568   6.562   3.545   3.941 -0.1636  0.0311  0.1469
 3535TIP3    H110569   6.519   3.532   4.025  0.6258  0.7790  0.6745
 3535TIP3    H210570   6.556   3.639   3.924  1.3515  0.1747  0.2942
 3536TIP3   OH210571   3.932   2.981   4.212 -0.2354  0.4812 -0.4487
 3536TIP3    H110572   3.840   3.005   4.197  0.0097  0.8772 -1.3413
 3536TIP3    H210573   3.927   2.904   4.269 -1.0736  1.8529  1.4689
 3537TIP3   OH210574   6.371   5.347   0.587  0.0050 -0.3615  0.0264
 3537TIP3    H110575   6.367   5.417   0.522 -1.6164 -1.8325 -1.5896
 3537TIP3    H210576   6.348   5.390   0.670 -1.4061  0.9500 -0.9856
 3538TIP3   OH210577   5.338   1.227   1.788 -0.0380 -0.4471 -0.1277
 3538TIP3    H110578   5.389   1.264   1.716 -1.0393 -1.4790 -1.4257
 3538TIP3    H210579   5.308   1.304   1.837  1.9269  0.2169  0.1295
 3539TIP3   OH210580   2.503   0.760   3.969 -0.3793  0.1436 -0.2221
 3539TIP3    H110581   2.598   0.758   3.958 -0.6116  0.9957 -3.3584
 3539TIP3    H210582   2.490   0.763   4.063  2.7056  0.6662  0.2965
 3540TIP3   OH210583   4.617   0.542   1.876  0.1978  0.7072  0.5432
 3540TIP3    H110584   4.551   0.473   1.873 -0.2942  1.1153  1.6390
 3540TIP3    H210585   4.615   0.580   1.788  0.2835 -0.4819  0.0111
 3541TIP3   OH210586   6.185   5.402   3.340 -0.3259  0.1546  0.3195
 3541TIP3    H110587   6.103   5.407   3.290 -0.8318  0.5644  1.1707
 3541TIP3    H210588   6.243   5.465   3.296 -0.6771  0.3207  0.0839
 3542TIP3   OH210589   2.730   5.441   0.229 -0.0187  0.5633  1.0416
 3542TIP3    H110590   2.768   5.362   0.267 -0.0556  0.1069  0.1488
 3542TIP3    H210591   2.732   5.505   0.300  1.8658  0.3886  1.2076
 3543TIP3   OH210592   2.819   4.558   3.731 -0.0457  0.6063  0.0412
 3543TIP3    H110593   2.777   4.477   3.701  0.3605  0.8345 -1.2288
 3543TIP3    H210594   2.775   4.580   3.813  1.2355 -2.0163  1.5415
 3544TIP3   OH210595   1.560   1.912   1.943  0.5818 -0.0228 -0.2441
 3544TIP3    H110596   1.642   1.910   1.991  0.2993 -0.5554  0.2249
 3544TIP3    H210597   1.543   2.005   1.928  1.7516  0.0549 -1.1959
 3545TIP3   OH210598   4.781   3.436   2.803  0.3136 -0.5952 -0.4572
 3545TIP3    H110599   4.689   3.451   2.780  0.4545  0.1912 -0.5597
 3545TIP3    H210600   4.778   3.391   2.887 -0.1702 -0.8389 -0.5994
 3546TIP3   OH210601   1.284   4.465   4.325 -0.3769 -0.0410  0.5092
 3546TIP3    H110602   1.279   4.415   4.406 -0.9124 -0.3651  0.2849
 3546TIP3    H210603   1.196   4.459   4.287 -0.0385 -0.2284 -0.2847
 3547TIP3   OH210604   4.224   1.607   3.487 -0.1199  0.5996  0.3201
 3547TIP3    H110605   4.319   1.619   3.491  0.2052 -1.3905 -0.1317
 3547TIP3    H210606   4.192   1.644   3.570  1.1236  0.7482  0.7601
 3548TIP3   OH210607   3.216   2.940   0.315 -0.9744 -0.2137  0.3293
 3548TIP3    H110608   3.300   2.910   0.350 -0.2387  1.8078  0.4140
 3548TIP3    H210609   3.203   2.889   0.235  0.9639  0.3061 -0.3693
 3549TIP3   OH210610   4.167   6.063   3.835  0.1382 -0.3155  0.7632
 3549TIP3    H110611   4.108   6.035   3.906 -1.3333  0.3509 -0.1586
 3549TIP3    H210612   4.149   6.156   3.825  1.8558  0.0590  0.8865
 3550TIP3   OH210613   6.118   5.090   1.537  0.3538 -0.1648 -0.1654
 3550TIP3    H110614   6.120   5.069   1.631 -0.2649 -0.7230 -0.2720
 3550TIP3    H210615   6.184   5.031   1.499 -0.9623 -1.5705 -0.3793
 3551TIP3   OH210616   2.661   2.034   2.270  0.1722 -0.5817 -1.1378
 3551TIP3    H110617   2.702   2.111   2.230  2.0880 -0.8883  0.1114
 3551TIP3    H210618   2.625   1.985   2.196  0.9104  0.3846 -2.1800
 3552TIP3   OH210619   5.756   3.678   0.598  0.0014 -0.5103  0.4404
 3552TIP3    H110620   5.817   3.734   0.549 -1.8807  0.6617 -0.6482
 3552TIP3    H210621   5.760   3.594   0.553 -0.2548 -0.0141 -0.5355
 3553TIP3   OH210622   5.942   4.809   2.551  0.6127 -0.1930  0.0797
 3553TIP3    H110623   5.991   4.798   2.469 -0.4261  1.4605 -0.8068
 3553TIP3    H210624   5.992   4.758   2.615  1.0385 -2.2037 -1.7106
 3554TIP3   OH210625   1.133   2.009   1.881  0.1584 -0.9961 -0.1771
 3554TIP3    H110626   1.138   1.913   1.877  1.7032 -0.9836  0.5571
 3554TIP3    H210627   1.048   2.027   1.920 -0.4258 -2.0402 -0.9130
 3555TIP3   OH210628   0.748   5.765   2.579 -0.0277 -0.0387  0.4748
 3555TIP3    H110629   0.754   5.756   2.674 -0.1918  0.6892  0.5629
 3555TIP3    H210630   0.654   5.763   2.561 -0.0264  0.4030  0.3996
 3556TIP3   OH210631   0.887   0.238   2.743 -0.1029 -0.1938 -0.3346
 3556TIP3    H110632   0.852   0.175   2.806  0.2194 -0.1420 -0.0991
 3556TIP3    H210633   0.930   0.304   2.797  0.8181 -0.5406 -0.6310
 3557TIP3   OH210634   3.593   0.946   4.499 -0.2654 -0.2455  0.0195
 3557TIP3    H110635   3.609   0.923   4.407  0.3359  0.5808 -0.1037
 3557TIP3    H210636   3.670   0.999   4.523 -0.4398 -0.4294  0.9877
 3558TIP3   OH210637   3.785   5.245   5.816  0.2823  0.2621 -0.0008
 3558TIP3    H110638   3.798   5.332   5.778 -1.0034  0.8361  0.8095
 3558TIP3    H210639   3.871   5.203   5.810  0.4556  0.8445 -2.2003
 3559TIP3   OH210640   3.532   2.838   5.300 -0.6512 -0.1576 -0.0173
 3559TIP3    H110641   3.545   2.817   5.207 -1.1907  0.4075 -0.2266
 3559TIP3    H210642   3.572   2.924   5.311 -2.4657  0.7790 -0.2508
 3560TIP3   OH210643   1.938   2.257   0.518  0.1604 -0.2090  0.1096
 3560TIP3    H110644   1.963   2.165   0.516  0.1709 -0.2023 -0.1927
 3560TIP3    H210645   1.882   2.266   0.595 -1.1304 -0.8043 -0.7265
 3561TIP3   OH210646   3.659   4.716   2.059 -0.0792 -0.2593 -0.3562
 3561TIP3    H110647   3.656   4.771   1.981 -2.3579  2.1487  1.2675
 3561TIP3    H210648   3.658   4.777   2.133 -1.1984 -2.4201  1.5703
 3562TIP3   OH210649   4.360   6.159   2.733 -0.0876  0.8938  0.2147
 3562TIP3    H110650   4.436   6.112   2.700  0.2145  1.3325  0.2817
 3562TIP3    H210651   4.298   6.160   2.660 -0.3141 -0.0618  0.3739
 3563TIP3   OH210652   5.595   1.933   5.912  0.6765  0.0226 -0.1770
 3563TIP3    H110653   5.615   2.005   5.852  2.3348 -1.9751 -2.2288
 3563TIP3    H210654   5.599   1.854   5.858 -2.8010 -1.5870  1.5619
 3564TIP3   OH210655   3.058   5.518   4.883 -0.4032 -0.1733 -0.5426
 3564TIP3    H110656   2.996   5.494   4.952  0.4080 -1.7579 -0.3159
 3564TIP3    H210657   3.056   5.444   4.822  0.8539 -0.0160 -0.8078
 3565TIP3   OH210658   7.163   5.978   0.248 -0.0029  0.6232 -0.0177
 3565TIP3    H110659   7.165   5.886   0.274 -0.8604  0.4872 -0.3873
 3565TIP3    H210660   7.070   5.997   0.234  0.1617  1.5578  0.0885
 3566TIP3   OH210661   3.059   2.320   2.294 -0.3885  0.2070 -0.1168
 3566TIP3    H110662   3.043   2.253   2.361  0.1082  1.1207  0.9383
 3566TIP3    H210663   3.137   2.289   2.248 -0.8101 -0.4936 -0.3764
 3567TIP3   OH210664   5.895   6.004   3.089 -0.1482 -0.2748  0.6174
 3567TIP3    H110665   5.800   5.990   3.087 -0.5036  1.1659  3.2609
 3567TIP3    H210666   5.905   6.094   3.120  2.0777 -0.8533  1.7574
 3568TIP3   OH210667   6.111  -0.000   5.046 -0.1949  0.5086  0.1209
 3568TIP3    H110668   6.161  -0.003   4.964 -1.2182  2.4162 -0.6160
 3568TIP3    H210669   6.148   0.074   5.093 -1.3742  1.0480  0.2046
 3569TIP3   OH210670   4.739   1.519   2.435 -0.3350 -0.0154 -0.2416
 3569TIP3    H110671   4.728   1.599   2.382  3.1431  1.2679  0.6799
 3569TIP3    H210672   4.688   1.535   2.514  0.8253  1.7076  0.2239
 3570TIP3   OH210673   1.595   6.251   1.496  0.2427  0.3689 -0.6358
 3570TIP3    H110674   1.554   6.185   1.439  0.6862  0.5150 -1.1326
 3570TIP3    H210675   1.683   6.262   1.460  0.9923 -0.4594  0.8379
 3571TIP3   OH210676   4.246   6.380   4.585  0.9940 -0.3326  0.1827
 3571TIP3    H110677   4.189   6.431   4.642 -0.6440  0.4538 -1.9786
 3571TIP3    H210678   4.229   6.289   4.609  0.0533 -0.0391  0.6816
 3572TIP3   OH210679   0.174   5.801   5.561  0.5564  0.2007 -0.1307
 3572TIP3    H110680   0.246   5.812   5.499 -0.3571 -0.6669 -1.4052
 3572TIP3    H210681   0.214   5.810   5.647  2.3549 -1.0458 -0.7807
 3573TIP3   OH210682   1.485   6.296   5.475 -0.3626 -0.8277  0.3871
 3573TIP3    H110683   1.433   6.323   5.398  1.7001 -0.3771 -0.9336
 3573TIP3    H210684   1.478   6.201   5.477 -0.6626 -0.8241 -0.2019
 3574TIP3   OH210685   3.247   1.719   1.084 -0.3964  0.6630  0.1161
 3574TIP3    H110686   3.156   1.697   1.101 -0.1894  0.1628  0.6383
 3574TIP3    H210687   3.276   1.764   1.164  0.3162 -0.8245  0.7339
 3575TIP3   OH210688   2.715   1.793   5.155  0.8902  0.5410  0.0712
 3575TIP3    H110689   2.802   1.764   5.126  0.3947 -0.6374 -0.3153
 3575TIP3    H210690   2.664   1.712   5.161  0.2978  0.9958  2.0160
 3576TIP3   OH210691   1.182   5.887   5.230 -0.4911  0.2514  0.0930
 3576TIP3    H110692   1.111   5.859   5.171  0.4004 -1.1387 -0.3761
 3576TIP3    H210693   1.147   5.964   5.275 -3.1377 -1.5956  1.4668
 3577TIP3   OH210694   2.949   5.750   4.741 -0.6711 -0.9197 -0.3437
 3577TIP3    H110695   3.010   5.706   4.799  0.6598  1.1316 -0.0714
 3577TIP3    H210696   2.962   5.708   4.656  3.2666  1.1566 -0.9964
 3578TIP3   OH210697   5.798   5.627   2.148 -0.4134  0.1624 -0.0743
 3578TIP3    H110698   5.870   5.569   2.122 -1.5857 -0.4512 -2.1481
 3578TIP3    H210699   5.842   5.702   2.188  1.3676 -0.4203 -0.8093
 3579TIP3   OH210700   0.896   4.469   2.017  0.1753 -0.1569 -0.2585
 3579TIP3    H110701   0.908   4.469   2.112 -0.7097  2.2093 -0.0897
 3579TIP3    H210702   0.984   4.454   1.982  0.6001 -0.5372  0.9249
 3580TIP3   OH210703   0.920   2.995   5.469  0.2609 -0.1497 -0.1699
 3580TIP3    H110704   0.825   2.992   5.477  0.3459  1.1190  1.9792
 3580TIP3    H210705   0.949   2.909   5.499 -0.1542  0.0468  0.8449
 3581TIP3   OH210706   0.815   1.646   2.200 -0.0828 -0.6313  0.2722
 3581TIP3    H110707   0.725   1.671   2.181  0.3245  0.4075 -0.3860
 3581TIP3    H210708   0.822   1.647   2.295 -0.5419  0.1336  0.3049
 3582TIP3   OH210709   6.762   1.271   0.887  0.0319  0.0990 -0.7326
 3582TIP3    H110710   6.813   1.338   0.931  0.8918 -0.2941 -1.1218
 3582TIP3    H210711   6.734   1.212   0.958 -1.5431  1.3424 -0.2418
 3583TIP3   OH210712   7.175   4.310   3.505  0.3531  0.6752  0.1429
 3583TIP3    H110713   7.214   4.223   3.516 -0.1021  0.4545  0.0144
 3583TIP3    H210714   7.191   4.332   3.414 -1.4833 -0.2445 -0.4547
 3584TIP3   OH210715   4.104   1.832   0.259  0.2549 -0.6352  0.0871
 3584TIP3    H110716   4.084   1.875   0.176 -0.2315  1.9246  1.4332
 3584TIP3    H210717   4.180   1.777   0.240  0.4313  0.2289 -1.9543
 3585TIP3   OH210718   7.094   4.523   3.030 -0.3377 -0.2667 -0.0764
 3585TIP3    H110719   7.113   4.481   2.946  1.8689 -1.0004  0.7072
 3585TIP3    H210720   7.128   4.612   3.020  0.8890 -0.6733  0.3549
 3586TIP3   OH210721   6.974   4.322   4.545  0.4528 -0.3131 -0.0175
 3586TIP3    H110722   6.968   4.239   4.592  1.2959 -0.0246  0.6268
 3586TIP3    H210723   6.978   4.298   4.453 -1.7856 -0.8637 -0.0149
 3587TIP3   OH210724   6.168   3.548   1.797 -0.2561 -0.5461 -0.5244
 3587TIP3    H110725   6.113   3.554   1.719 -0.0273 -1.0829 -0.7320
 3587TIP3    H210726   6.228   3.476   1.779  0.0554 -0.4244 -0.0105
 3588TIP3   OH210727   6.369   3.986   5.334  0.0035 -0.5566  0.1971
 3588TIP3    H110728   6.357   4.030   5.419 -1.1401  0.1808 -0.3227
 3588TIP3    H210729   6.355   3.893   5.353 -0.2622 -0.3951  0.8228
 3589TIP3   OH210730   5.231   4.146   0.244 -0.4302  0.1924  0.8415
 3589TIP3    H110731   5.148   4.161   0.290 -0.5065  1.6955  0.2714
 3589TIP3    H210732   5.217   4.182   0.157  0.5924 -0.1945  0.4989
 3590TIP3   OH210733   1.086   4.987   3.208  0.1691 -0.0832  0.1921
 3590TIP3    H110734   1.135   5.003   3.288  2.4676 -3.4723 -0.3052
 3590TIP3    H210735   1.137   5.030   3.139  0.4498 -0.5400  0.1087
 3591TIP3   OH210736   5.902   0.192   5.360  0.6749  0.2449  0.2429
 3591TIP3    H110737   5.888   0.105   5.399 -1.5574 -0.2806 -1.4823
 3591TIP3    H210738   5.818   0.236   5.371  0.9067  1.1373 -1.3071
 3592TIP3   OH210739   0.919   3.679   4.384 -0.0201 -0.1197 -0.1418
 3592TIP3    H110740   0.830   3.709   4.399  0.0932  1.4380 -2.0545
 3592TIP3    H210741   0.912   3.616   4.313  0.5068  1.0517 -1.2617
 3593TIP3   OH210742   3.979   0.905   2.554  0.2342  0.1055 -0.5882
 3593TIP3    H110743   3.915   0.977   2.553  0.8059  0.6184 -1.1081
 3593TIP3    H210744   4.045   0.931   2.490  0.3585 -0.9754 -0.9150
 3594TIP3   OH210745   5.187   5.025   1.569 -0.0556  0.4675 -0.0341
 3594TIP3    H110746   5.223   5.074   1.495 -0.5970  1.4958  0.3586
 3594TIP3    H210747   5.159   4.942   1.532  1.5210  0.1560 -0.5891
 3595TIP3   OH210748   0.387   6.201   5.597 -0.1353  0.5427  0.1078
 3595TIP3    H110749   0.303   6.183   5.555  0.0513  1.2712 -0.5959
 3595TIP3    H210750   0.407   6.121   5.647 -0.6435 -0.1119 -0.7244
 3596TIP3   OH210751   3.669   4.088   1.656 -0.3024 -0.0622  0.0974
 3596TIP3    H110752   3.740   4.119   1.712 -0.9672  0.6281  0.5733
 3596TIP3    H210753   3.591   4.130   1.691 -1.3640 -2.7114  1.1367
 3597TIP3   OH210754   1.249   1.085   4.264  0.3429  0.1990 -0.1564
 3597TIP3    H110755   1.242   0.991   4.277 -2.3535 -0.0342 -2.2662
 3597TIP3    H210756   1.177   1.122   4.314  1.4120  1.1883  0.7076
 3598TIP3   OH210757   5.878   6.070   4.372  0.2071  0.1461 -0.2840
 3598TIP3    H110758   5.935   5.994   4.386  1.7594  1.4546  0.7539
 3598TIP3    H210759   5.880   6.084   4.277 -2.5139 -2.8283 -0.9656
 3599TIP3   OH210760   0.633   4.571   5.597 -0.3546 -0.4237 -0.2466
 3599TIP3    H110761   0.719   4.542   5.628 -0.9271 -0.7217  1.1627
 3599TIP3    H210762   0.586   4.598   5.677 -1.1671  0.8480 -1.1100
 3600TIP3   OH210763   1.015   2.451   3.431 -0.0410 -0.1071  0.0824
 3600TIP3    H110764   1.045   2.524   3.485 -2.6277  2.5884 -1.8082
 3600TIP3    H210765   0.950   2.406   3.485 -0.9314  1.1523  0.1085
 3601TIP3   OH210766   5.650   2.631   1.485 -0.0898  0.1081  0.0489
 3601TIP3    H110767   5.674   2.721   1.461 -0.5326  0.5291  1.1113
 3601TIP3    H210768   5.638   2.586   1.401 -2.2992  1.6892 -0.5780
 3602TIP3   OH210769   1.292   3.545   4.022 -0.6338  0.0675 -0.0522
 3602TIP3    H110770   1.201   3.515   4.021 -0.3264 -1.0085 -2.2675
 3602TIP3    H210771   1.285   3.641   4.030 -2.0523  0.1276 -1.5047
 3603TIP3   OH210772   0.913   1.853   5.339  0.0094 -0.7866  0.1127
 3603TIP3    H110773   0.840   1.812   5.293 -0.0590 -0.4092 -0.1156
 3603TIP3    H210774   0.895   1.946   5.335  1.7248 -0.4551 -2.1127
 3604TIP3   OH210775   0.083   2.223   2.280 -0.6715  0.2490  0.2796
 3604TIP3    H110776   0.062   2.316   2.274 -0.4950  0.2695 -0.0256
 3604TIP3    H210777   0.010   2.185   2.328 -1.2658  0.3716 -0.5086
 3605TIP3   OH210778   6.700   5.226   4.268  0.8493 -0.2315 -0.1568
 3605TIP3    H110779   6.716   5.139   4.232 -0.3432 -1.1496  1.4164
 3605TIP3    H210780   6.646   5.211   4.346  1.0376  1.8760  0.4525
 3606TIP3   OH210781   3.175   2.014   2.407 -0.0045  0.4402 -0.2524
 3606TIP3    H110782   3.204   2.053   2.490 -0.6933 -2.1394  1.3076
 3606TIP3    H210783   3.214   2.070   2.340  1.7363  1.8428  1.7821
 3607TIP3   OH210784   6.631   5.047   0.221  0.0748 -0.0178 -0.2596
 3607TIP3    H110785   6.558   5.038   0.281 -2.0219  2.3303 -2.2332
 3607TIP3    H210786   6.615   4.982   0.153 -1.7374  2.0919 -2.0037
 3608TIP3   OH210787   4.127   3.288   5.629  0.2508  0.0752  0.4714
 3608TIP3    H110788   4.067   3.283   5.704 -1.5222  0.4661 -0.8561
 3608TIP3    H210789   4.172   3.372   5.640  0.9931 -0.4607  1.7678
 3609TIP3   OH210790   0.785   0.071   2.031  0.2863 -0.1069  0.0214
 3609TIP3    H110791   0.749   0.159   2.022  0.9476  0.0847 -0.8457
 3609TIP3    H210792   0.846   0.077   2.104 -0.5139 -0.1335  0.7021
 3610TIP3   OH210793   4.993   6.150   1.652 -0.0610 -0.3583 -0.3054
 3610TIP3    H110794   5.067   6.164   1.593 -0.9943 -0.5011 -1.5553
 3610TIP3    H210795   5.009   6.208   1.726  0.7917  0.3466 -1.0298
 3611TIP3   OH210796   4.552   0.604   3.928 -0.4449 -0.2553  0.1422
 3611TIP3    H110797   4.527   0.527   3.980  1.6361 -1.5485 -0.6714
 3611TIP3    H210798   4.528   0.581   3.838 -0.8322  0.5254  0.0388
 3612TIP3   OH210799   4.177   0.244   3.621 -0.0929 -0.2976 -0.2282
 3612TIP3    H110800   4.254   0.238   3.677 -1.7809 -1.8599  2.1472
 3612TIP3    H210801   4.170   0.157   3.581 -2.0770 -1.2166  1.8625
 3613TIP3   OH210802   3.266   4.769   2.075  0.0127  0.2967 -0.5615
 3613TIP3    H110803   3.305   4.704   2.134  0.5653  0.0984 -1.1318
 3613TIP3    H210804   3.270   4.851   2.124 -2.6484 -0.4164  1.0427
 3614TIP3   OH210805   1.422   0.038   2.598 -0.3566  0.0677  0.3688
 3614TIP3    H110806   1.454  -0.046   2.565 -1.2731 -0.3951  0.6247
 3614TIP3    H210807   1.374   0.076   2.525  1.2023  1.0206 -0.1987
 3615TIP3   OH210808   6.914   1.582   3.948  0.4853 -0.2165  0.4358
 3615TIP3    H110809   6.866   1.510   3.907  0.1509 -0.0955  0.6141
 3615TIP3    H210810   6.849   1.628   4.000  0.8484 -0.1938  0.8716
 3616TIP3   OH210811   2.025   5.153   5.103 -0.2172  0.2422 -0.2098
 3616TIP3    H110812   2.009   5.214   5.030  0.8467  0.4966 -0.2496
 3616TIP3    H210813   1.941   5.109   5.116 -0.5985  0.6463 -1.1759
 3617TIP3   OH210814   4.363   1.271   4.073 -0.0814  0.4941  0.3714
 3617TIP3    H110815   4.282   1.233   4.106  0.0884 -0.4044 -0.2031
 3617TIP3    H210816   4.360   1.254   3.978  1.7864 -1.6088  0.6018
 3618TIP3   OH210817   6.012   3.163   4.912  0.1987 -0.2559  0.6006
 3618TIP3    H110818   6.007   3.095   4.844  0.2345 -0.1861  0.5282
 3618TIP3    H210819   5.931   3.213   4.901  0.1631 -0.2988  0.6669
 3619TIP3   OH210820   2.244   2.645   3.169 -0.1184  0.4810  0.0128
 3619TIP3    H110821   2.224   2.618   3.259  0.4729  2.2810  0.7114
 3619TIP3    H210822   2.217   2.737   3.164  0.8828  0.7323 -1.3218
 3620TIP3   OH210823   2.053   3.899   5.557  0.3619 -0.1584  0.4232
 3620TIP3    H110824   2.083   3.980   5.599  0.3038  0.9976 -1.6541
 3620TIP3    H210825   1.981   3.926   5.500  1.3943 -1.3514 -1.5604
 3621TIP3   OH210826   6.151   4.208   2.478  0.0439  0.0735 -0.1335
 3621TIP3    H110827   6.236   4.226   2.519 -0.3326  0.0925  0.6516
 3621TIP3    H210828   6.117   4.294   2.453  0.0066  0.1127  0.0533
 3622TIP3   OH210829   5.847   5.472   0.193  0.1398 -0.3511 -0.1531
 3622TIP3    H110830   5.932   5.452   0.233 -0.2594 -2.0079 -0.0604
 3622TIP3    H210831   5.791   5.494   0.267 -0.0295 -1.2452 -0.0128
 3623TIP3   OH210832   1.453   0.060   0.609 -1.0847 -0.0502 -0.6127
 3623TIP3    H110833   1.472   0.142   0.654 -0.3649 -0.8465  0.6189
 3623TIP3    H210834   1.493   0.069   0.523  1.6329 -0.1673  0.5262
 3624TIP3   OH210835   1.351   1.264   0.611 -0.2255  0.2703 -0.0056
 3624TIP3    H110836   1.402   1.197   0.657  0.9682  0.8597 -0.4347
 3624TIP3    H210837   1.334   1.227   0.525 -0.1478  0.2528 -0.0128
 3625TIP3   OH210838   6.064   6.373   0.396 -0.2927 -0.5642 -0.3101
 3625TIP3    H110839   5.982   6.408   0.431 -0.0786  0.1613 -0.5304
 3625TIP3    H210840   6.114   6.345   0.473 -0.5200 -0.5157 -0.1446
 3626TIP3   OH210841   2.165   3.711   0.962 -0.8439  0.5087 -0.6038
 3626TIP3    H110842   2.069   3.712   0.956 -0.8932 -0.0737 -0.0043
 3626TIP3    H210843   2.184   3.637   1.019 -0.0866  1.4016  0.3244
 3627TIP3   OH210844   1.913   0.029   1.318  0.1909  0.5356 -0.1808
 3627TIP3    H110845   1.981   0.051   1.381 -0.9186  1.6174  0.6785
 3627TIP3    H210846   1.866  -0.044   1.357 -0.1768  0.8770  0.0282
 3628TIP3   OH210847   5.592   4.999   0.280  0.6550  0.3088 -0.9416
 3628TIP3    H110848   5.654   5.063   0.314 -0.0798  0.8676 -0.6027
 3628TIP3    H210849   5.638   4.916   0.281  0.2217 -0.0300  2.9058
 3629TIP3   OH210850   6.147   0.326   3.136  0.1058 -0.5116  0.0257
 3629TIP3    H110851   6.080   0.257   3.137  1.1442 -1.5893 -1.3863
 3629TIP3    H210852   6.229   0.281   3.154  0.7504  0.4217 -0.4649
 3630TIP3   OH210853   6.996   0.577   3.240 -0.3859  0.5642 -0.3976
 3630TIP3    H110854   6.905   0.562   3.216 -0.3441  1.0351 -0.8803
 3630TIP3    H210855   7.041   0.594   3.157  0.5595 -1.6235 -0.3899
 3631TIP3   OH210856   4.494   1.907   0.799  0.6167  0.5512  0.0162
 3631TIP3    H110857   4.480   1.972   0.731  0.2392 -0.5610 -0.9966
 3631TIP3    H210858   4.492   1.823   0.754 -0.8242 -0.3056  1.5460
 3632TIP3   OH210859   2.472   2.200   0.694  0.2478 -0.0375  0.0609
 3632TIP3    H110860   2.457   2.271   0.632 -0.6272 -0.6198 -0.4178
 3632TIP3    H210861   2.561   2.171   0.676  0.2165  0.2077 -0.4999
 3633TIP3   OH210862   5.904   2.122   5.336 -0.4207  0.0692  0.3095
 3633TIP3    H110863   5.947   2.063   5.397  1.0156 -0.8392 -1.4834
 3633TIP3    H210864   5.913   2.209   5.376 -0.4875 -0.6085  1.8691
 3634TIP3   OH210865   2.349   5.962   3.768  0.0423 -0.1190  0.2074
 3634TIP3    H110866   2.442   5.966   3.748 -0.1252  2.4011 -0.3389
 3634TIP3    H210867   2.344   5.977   3.863  0.1572  0.5788  0.1064
 3635TIP3   OH210868   3.576   0.301   2.467 -0.1509  0.0263  0.0789
 3635TIP3    H110869   3.605   0.348   2.545  0.2487  1.0961 -0.7014
 3635TIP3    H210870   3.557   0.369   2.403  0.0298 -0.8503 -0.9365
 3636TIP3   OH210871   1.172   3.633   5.247 -0.5443 -0.4732  0.0868
 3636TIP3    H110872   1.148   3.593   5.331  0.1604  0.4606  0.7538
 3636TIP3    H210873   1.220   3.565   5.201 -0.5360 -0.8489  0.6324
 3637TIP3   OH210874   0.647   5.730   4.737  0.2481  0.2011 -0.1221
 3637TIP3    H110875   0.572   5.788   4.750  1.1055  1.2681  0.1534
 3637TIP3    H210876   0.607   5.647   4.711 -1.0892  0.4792  0.8761
 3638TIP3   OH210877   4.405   1.241   1.173 -0.8301 -0.0202 -0.4094
 3638TIP3    H110878   4.441   1.326   1.145  0.3797 -0.1284  0.6760
 3638TIP3    H210879   4.341   1.218   1.106 -0.8091  1.5086 -0.9979
 3639TIP3   OH210880   5.256   6.500   4.780  0.3896  0.7275 -0.3003
 3639TIP3    H110881   5.191   6.475   4.714  0.4497  2.1695 -0.9402
 3639TIP3    H210882   5.313   6.562   4.735  0.7032  1.4112  0.9805
 3640TIP3   OH210883   5.994   6.229   5.892 -0.3722 -0.1596  0.3133
 3640TIP3    H110884   5.902   6.223   5.867 -0.3573  2.8104 -0.8130
 3640TIP3    H210885   6.027   6.305   5.844  2.9918 -1.7935 -0.2473
 3641TIP3   OH210886   4.642   2.813   4.480 -0.4210 -0.1032 -0.1977
 3641TIP3    H110887   4.547   2.816   4.489 -0.4747  0.6234 -0.9766
 3641TIP3    H210888   4.672   2.779   4.564 -1.2504  1.4487  0.7726
 3642TIP3   OH210889   4.468   4.311   2.175 -0.4707  0.0721 -0.0772
 3642TIP3    H110890   4.383   4.334   2.136 -0.7789 -0.0188  0.5384
 3642TIP3    H210891   4.532   4.337   2.109 -0.9567  0.4716 -0.3959
 3643TIP3   OH210892   6.977   3.835   2.042 -0.0973 -0.0129 -0.7710
 3643TIP3    H110893   6.986   3.742   2.022  2.5478 -0.0399  0.1795
 3643TIP3    H210894   7.016   3.845   2.129  0.3837  2.0813 -1.1731
 3644TIP3   OH210895   4.738   6.341   0.237  0.0070  0.0759 -0.2631
 3644TIP3    H110896   4.670   6.370   0.298  1.2983  0.6968  0.9027
 3644TIP3    H210897   4.781   6.268   0.281  0.0097 -0.4243 -1.0672
 3645TIP3   OH210898   1.691   0.075   4.233  0.3917  0.2972 -0.4795
 3645TIP3    H110899   1.618   0.135   4.250  0.1124 -0.2350  0.2420
 3645TIP3    H210900   1.754   0.128   4.183  0.3495  1.3362  0.5248
 3646TIP3   OH210901   2.509   4.832   0.215  0.1229 -0.1219  0.0603
 3646TIP3    H110902   2.575   4.896   0.243  1.5857 -1.3974 -0.2920
 3646TIP3    H210903   2.545   4.747   0.243 -3.2388 -0.6770  3.4022
 3647TIP3   OH210904   4.929   5.002   0.049  0.3417  0.0589  0.2324
 3647TIP3    H110905   5.016   4.963   0.051  0.4757  0.0576 -2.5556
 3647TIP3    H210906   4.943   5.094   0.070  0.9768 -0.0044  0.0959
 3648TIP3   OH210907   3.821   3.328   0.552  0.6483 -0.5052 -0.5777
 3648TIP3    H110908   3.853   3.250   0.506 -2.1220 -1.1847 -1.5202
 3648TIP3    H210909   3.781   3.381   0.484  1.0364  0.9960  0.3151
 3649TIP3   OH210910   0.748   6.013   3.623  0.0680  0.5851  0.1784
 3649TIP3    H110911   0.704   5.933   3.595  0.9624  1.0500 -2.9183
 3649TIP3    H210912   0.820   5.983   3.678  0.2928 -0.7603 -0.7971
 3650TIP3   OH210913   5.852   0.423   5.697  0.0054 -0.1735  0.6181
 3650TIP3    H110914   5.799   0.352   5.733  1.9118 -1.1666  1.6032
 3650TIP3    H210915   5.826   0.501   5.746  0.4690 -0.9360  2.1137
 3651TIP3   OH210916   3.310   5.087   0.581  0.2606  0.7713 -0.3123
 3651TIP3    H110917   3.394   5.050   0.554  0.7067  2.8287 -2.0645
 3651TIP3    H210918   3.299   5.057   0.671  1.1046 -2.4755 -1.1480
 3652TIP3   OH210919   0.549   6.619   4.617  0.0123 -0.1544  0.1272
 3652TIP3    H110920   0.533   6.713   4.606  0.5435  0.1430  1.5866
 3652TIP3    H210921   0.551   6.607   4.712 -0.7539 -1.7843 -0.0418
 3653TIP3   OH210922   0.368   1.149   5.009  0.1268  0.9734  0.1772
 3653TIP3    H110923   0.430   1.150   4.935  0.6389  1.5448  0.6023
 3653TIP3    H210924   0.285   1.121   4.970  1.4300 -4.0294  0.2252
 3654TIP3   OH210925   3.144   1.115   1.974  0.7664 -0.3375  0.1051
 3654TIP3    H110926   3.187   1.059   1.908 -0.6431 -0.3008 -0.8838
 3654TIP3    H210927   3.118   1.193   1.925  0.4742  0.0773  0.9141
 3655TIP3   OH210928   2.943   5.356   2.014  0.2111  0.0393  0.5057
 3655TIP3    H110929   2.879   5.308   2.066 -1.8546 -0.1613 -1.9927
 3655TIP3    H210930   2.916   5.448   2.022  0.7270  0.1576  0.8865
 3656TIP3   OH210931   4.437   1.846   0.526  0.4674  0.4938 -0.6588
 3656TIP3    H110932   4.471   1.933   0.548  0.6087  0.5654 -1.1614
 3656TIP3    H210933   4.464   1.832   0.435  1.7215 -0.6858 -0.1410
 3657TIP3   OH210934   5.267   2.979   3.926 -0.0942  0.0339 -0.2430
 3657TIP3    H110935   5.222   3.064   3.930  1.9740  1.3693 -2.6052
 3657TIP3    H210936   5.222   2.926   3.992 -0.0612  3.6028  3.0480
 3658TIP3   OH210937   2.219   0.685   4.372  0.1086  0.1578 -0.0820
 3658TIP3    H110938   2.197   0.595   4.395 -1.7200  0.0434 -1.9944
 3658TIP3    H210939   2.315   0.687   4.369  0.4512 -0.4864  4.3435
 3659TIP3   OH210940   4.347   0.896   4.622 -0.2828  0.1722 -0.5730
 3659TIP3    H110941   4.255   0.917   4.609  0.0723  0.8096 -2.2851
 3659TIP3    H210942   4.394   0.966   4.578  1.0279 -0.3708 -0.0911
 3660TIP3   OH210943   6.801   1.947   4.459  0.6087  0.7523  0.6329
 3660TIP3    H110944   6.866   1.914   4.398 -1.1282 -0.4194 -0.6992
 3660TIP3    H210945   6.817   1.898   4.540  1.6379  0.8062  0.4762
 3661TIP3   OH210946   5.307   6.366   5.700  0.1515 -0.2095 -0.8380
 3661TIP3    H110947   5.339   6.403   5.618  0.1486  0.8549 -0.3754
 3661TIP3    H210948   5.241   6.428   5.730  0.6539 -0.2015  0.3209
 3662TIP3   OH210949   1.191   6.317   3.800  0.0335 -0.1068 -0.4390
 3662TIP3    H110950   1.151   6.309   3.713  0.1444  2.6784 -0.8351
 3662TIP3    H210951   1.271   6.368   3.785  0.2498  0.0987  1.2259
 3663TIP3   OH210952   2.255   2.925   2.879  0.2693 -0.3097  0.1505
 3663TIP3    H110953   2.237   2.864   2.808 -1.3669 -0.8215  0.9662
 3663TIP3    H210954   2.329   2.886   2.926 -1.3955 -2.2563  1.2779
 3664TIP3   OH210955   1.028   5.806   0.959  0.0889  0.0834 -0.1539
 3664TIP3    H110956   0.939   5.841   0.959 -0.8474 -2.1489  0.2552
 3664TIP3    H210957   1.059   5.818   0.869 -0.6509  0.7806 -0.3265
 3665TIP3   OH210958   1.708   2.058   0.127 -0.2372  0.3040 -0.3913
 3665TIP3    H110959   1.762   2.128   0.164 -0.0607  0.4049 -0.8444
 3665TIP3    H210960   1.764   1.981   0.126 -0.0498  0.4430 -0.9948
 3666TIP3   OH210961   0.928   0.892   2.408 -0.2517 -0.0028 -0.3240
 3666TIP3    H110962   0.974   0.945   2.473  1.0458  1.7057 -2.4831
 3666TIP3    H210963   0.837   0.894   2.435  0.4286 -0.9184  2.4064
 3667TIP3   OH210964   0.580   2.991   3.807 -0.5316  0.2979  0.3057
 3667TIP3    H110965   0.570   3.061   3.871 -0.0595  2.8237 -2.1757
 3667TIP3    H210966   0.529   3.020   3.731 -0.6807 -2.2883 -0.6822
 3668TIP3   OH210967   5.230   5.198   0.447  0.4177  0.2498 -0.2563
 3668TIP3    H110968   5.248   5.255   0.521  0.2885  1.1552 -0.9040
 3668TIP3    H210969   5.137   5.213   0.428 -0.2156 -1.7849  0.8902
 3669TIP3   OH210970   4.415   1.643   4.797 -0.4756 -0.1296  0.5026
 3669TIP3    H110971   4.331   1.603   4.820 -0.5986 -0.3336 -0.3031
 3669TIP3    H210972   4.392   1.733   4.772 -0.3432  0.0840  1.1250
 3670TIP3   OH210973   4.823   1.477   5.556  0.1095 -0.6394 -0.9114
 3670TIP3    H110974   4.757   1.500   5.490 -0.2749 -0.4323 -0.4575
 3670TIP3    H210975   4.809   1.539   5.627  0.7218 -0.6710 -0.7614
 3671TIP3   OH210976   4.602   3.634   5.473  0.3241 -0.4372 -0.2306
 3671TIP3    H110977   4.531   3.694   5.494  1.1185  0.0869  1.0750
 3671TIP3    H210978   4.677   3.667   5.522  1.2448 -1.4889 -0.8707
 3672TIP3   OH210979   3.119   6.625   1.288  0.0135 -0.0237 -0.1786
 3672TIP3    H110980   3.201   6.657   1.249  0.1880  1.0443  1.0105
 3672TIP3    H210981   3.053   6.688   1.262  0.3022  1.2603  1.9108
 3673TIP3   OH210982   2.063   5.687   5.829  0.4151  0.3460 -0.2261
 3673TIP3    H110983   2.004   5.754   5.864 -1.3551 -0.2178 -1.9622
 3673TIP3    H210984   2.077   5.713   5.738 -1.6957 -2.4396 -1.4726
 3674TIP3   OH210985   6.646   2.798   3.507 -0.6121  0.0609 -0.3251
 3674TIP3    H110986   6.610   2.740   3.439  0.2706 -0.0737 -0.6980
 3674TIP3    H210987   6.738   2.772   3.513  0.1404  2.2478 -1.3943
 3675TIP3   OH210988   4.055   4.057   2.525 -0.5534 -0.0599  0.2989
 3675TIP3    H110989   4.139   4.038   2.483 -1.8324 -0.6402 -2.1415
 3675TIP3    H210990   4.006   3.975   2.519 -1.7363  0.6038  0.5889
 3676TIP3   OH210991   5.391   2.494   3.657  0.1696  0.3858  0.0965
 3676TIP3    H110992   5.326   2.521   3.721  0.6173  0.1568  0.6585
 3676TIP3    H210993   5.375   2.400   3.644  0.5875  0.2571  0.4820
 3677TIP3   OH210994   2.286   1.875   1.782  0.0052 -0.5457  0.7275
 3677TIP3    H110995   2.352   1.859   1.714  0.5729  0.1934  1.0931
 3677TIP3    H210996   2.209   1.827   1.752  0.6207 -1.1972  0.1548
 3678TIP3   OH210997   3.514   4.477   5.434 -0.0960  0.7316 -0.1069
 3678TIP3    H110998   3.558   4.392   5.429 -0.2129  0.7254 -1.2529
 3678TIP3    H210999   3.489   4.485   5.526  0.5039 -0.1726  0.1553
 3679TIP3   OH211000   6.935   1.259   2.517  0.3220 -0.2968 -0.0731
 3679TIP3    H111001   6.857   1.231   2.468  0.6666 -0.2441 -0.6628
 3679TIP3    H211002   6.975   1.178   2.548  0.5718 -0.3810 -0.6128
 3680TIP3   OH211003   7.083   2.507   1.635 -0.0458 -0.3973  0.3008
 3680TIP3    H111004   7.106   2.575   1.572  0.4710 -1.8902 -1.2134
 3680TIP3    H211005   7.026   2.551   1.698  0.0180  1.3487 -0.7820
 3681TIP3   OH211006   2.446   3.459   2.697 -0.0685  0.1123  0.5392
 3681TIP3    H111007   2.354   3.461   2.722  0.0868  0.4538  1.1014
 3681TIP3    H211008   2.465   3.547   2.666 -0.2718 -0.3211 -0.8575
 3682TIP3   OH211009   3.149   1.194   2.963 -0.3149 -0.1845  0.0108
 3682TIP3    H111010   3.115   1.110   2.930  0.6421  0.1106 -1.8532
 3682TIP3    H211011   3.085   1.220   3.030 -0.9187 -2.1304  0.2727
 3683TIP3   OH211012   2.895   6.217   4.461 -0.2130 -0.2271 -1.0919
 3683TIP3    H111013   2.866   6.126   4.456  0.3555 -0.4380 -0.6124
 3683TIP3    H211014   2.855   6.251   4.541  2.0571 -0.9820  0.4700
 3684TIP3   OH211015   4.235   2.098   5.638  0.3042 -0.3077 -0.1642
 3684TIP3    H111016   4.255   2.020   5.691  1.1894  0.2389  0.3446
 3684TIP3    H211017   4.246   2.171   5.699 -0.7018  0.2069 -0.5892
 3685TIP3   OH211018   2.492   2.583   3.107 -0.4125 -0.2231  0.4509
 3685TIP3    H111019   2.535   2.662   3.139 -0.3826 -0.3839  0.8207
 3685TIP3    H211020   2.399   2.603   3.110 -0.3908 -0.0865  0.2271
 3686TIP3   OH211021   4.377   0.404   5.006 -0.0543 -0.3354 -0.0910
 3686TIP3    H111022   4.388   0.483   4.953 -0.6943  1.0396  1.6970
 3686TIP3    H211023   4.466   0.370   5.018  0.2905  0.4139 -0.4639
 3687TIP3   OH211024   1.233   3.042   2.288 -0.5607  0.1565 -0.7380
 3687TIP3    H111025   1.215   3.010   2.377 -1.8788  0.7461 -0.7728
 3687TIP3    H211026   1.328   3.048   2.284 -0.4835  0.4624  0.7787
 3688TIP3   OH211027   5.593   4.363   1.666 -0.9084  0.2755  0.1392
 3688TIP3    H111028   5.616   4.429   1.601 -0.3791 -2.6717 -2.9889
 3688TIP3    H211029   5.677   4.328   1.697 -1.1583 -0.0819  0.4318
 3689TIP3   OH211030   0.057   5.190   1.694 -0.2032  0.1584  0.1361
 3689TIP3    H111031   0.064   5.121   1.629  0.2070  0.0619  0.2807
 3689TIP3    H211032   0.146   5.198   1.731  0.6560  3.0318 -2.2060
 3690TIP3   OH211033   2.919   1.941   4.474  0.2658 -0.3539 -0.0340
 3690TIP3    H111034   2.938   1.972   4.385 -0.4511  0.9775  0.2548
 3690TIP3    H211035   3.004   1.914   4.508  0.9438  1.2798 -0.3348
 3691TIP3   OH211036   0.415   1.326   4.141 -0.2663  0.3097 -0.2989
 3691TIP3    H111037   0.362   1.405   4.148 -0.4564  0.2249 -0.7389
 3691TIP3    H211038   0.503   1.358   4.119 -0.2618  0.4194 -0.1192
 3692TIP3   OH211039   4.076   5.768   2.855  0.3005  0.3692 -0.7736
 3692TIP3    H111040   4.105   5.790   2.766  0.2857 -0.5108 -1.0080
 3692TIP3    H211041   4.072   5.672   2.855  0.2503  0.3686  0.1652
 3693TIP3   OH211042   1.848   2.217   2.963 -0.8247 -0.0944 -0.1025
 3693TIP3    H111043   1.883   2.182   3.045 -0.1498 -1.7525 -1.0429
 3693TIP3    H211044   1.754   2.196   2.966 -0.6741 -0.7955 -0.0400
 3694TIP3   OH211045   6.143   4.648   3.632  0.1165  0.3431  0.2945
 3694TIP3    H111046   6.057   4.685   3.649 -0.2233  0.2923 -1.1705
 3694TIP3    H211047   6.127   4.554   3.622  0.2823  0.3735 -0.2978
 3695TIP3   OH211048   0.241   2.099   5.269  0.0855  0.4673 -0.1484
 3695TIP3    H111049   0.170   2.038   5.251 -0.3226  0.6395  0.8161
 3695TIP3    H211050   0.237   2.114   5.363  2.5947 -0.9894  0.2680
 3696TIP3   OH211051   4.727   3.753   5.702  0.1499 -0.2034 -0.0878
 3696TIP3    H111052   4.692   3.670   5.734 -1.8760  0.8982  0.7473
 3696TIP3    H211053   4.700   3.817   5.768 -0.0401  1.4229 -1.6791
 3697TIP3   OH211054   4.423   1.884   5.138  0.2340 -0.4662  0.5722
 3697TIP3    H111055   4.403   1.886   5.232 -1.3440 -1.3020  0.2838
 3697TIP3    H211056   4.519   1.891   5.134  0.2732  0.6968  2.1818
 3698TIP3   OH211057   6.601   3.871   0.114 -0.0080  0.0446 -0.2489
 3698TIP3    H111058   6.662   3.938   0.085 -0.1049  0.8479  1.2792
 3698TIP3    H211059   6.624   3.793   0.063  2.9469  0.0190  0.9296
 3699TIP3   OH211060   2.097   2.190   4.937  0.0024 -0.2659 -0.6734
 3699TIP3    H111061   2.183   2.201   4.896 -0.5726  1.8050 -1.4835
 3699TIP3    H211062   2.109   2.218   5.027  0.7378 -2.5937  0.0216
 3700TIP3   OH211063   3.494   3.112   3.148  0.1778 -0.0647 -0.3362
 3700TIP3    H111064   3.548   3.146   3.077 -0.0003  2.1482  0.5095
 3700TIP3    H211065   3.554   3.098   3.220  0.0483 -0.3576 -0.2826
 3701TIP3   OH211066   5.095   5.342   5.184 -0.1061  0.0841 -0.0510
 3701TIP3    H111067   5.072   5.434   5.179 -1.3115 -0.2098 -0.1142
 3701TIP3    H211068   5.185   5.342   5.218 -0.4824  1.2434  1.0276
 3702TIP3   OH211069   6.439   4.518   3.478 -0.0822 -0.4703 -0.1263
 3702TIP3    H111070   6.363   4.460   3.477 -0.9950  0.7115 -0.6994
 3702TIP3    H211071   6.403   4.606   3.479  1.2742  0.1305 -0.8091
 3703TIP3   OH211072   6.979   2.723   4.849  0.3959  0.7744  0.0611
 3703TIP3    H111073   7.026   2.795   4.890 -2.2193  2.1150  0.9105
 3703TIP3    H211074   6.888   2.751   4.846 -0.7044 -2.3285  0.0495
 3704TIP3   OH211075   0.126   2.661   1.779  0.2944 -0.3919 -0.9258
 3704TIP3    H111076   0.077   2.683   1.700 -0.4168 -0.1197 -0.4206
 3704TIP3    H211077   0.212   2.702   1.766 -0.0575  0.2595 -1.2465
 3705TIP3   OH211078   5.942   1.454   1.330  0.0139 -0.3338 -0.1029
 3705TIP3    H111079   5.888   1.378   1.311  0.4005 -0.3420 -1.2356
 3705TIP3    H211080   6.029   1.418   1.350 -0.4661 -0.3595  2.2317
 3706TIP3   OH211081   5.874   0.576   2.844 -0.1714 -0.5147 -0.2341
 3706TIP3    H111082   5.844   0.667   2.851  0.4375 -0.1871 -1.5380
 3706TIP3    H211083   5.844   0.547   2.758  0.0004 -1.4076  0.0014
 3707TIP3   OH211084   3.643   5.737   4.177 -0.0997 -0.1957  0.4021
 3707TIP3    H111085   3.607   5.748   4.088  0.6437  1.1433  0.2288
 3707TIP3    H211086   3.572   5.697   4.227 -0.3203 -1.5561 -0.9291
 3708TIP3   OH211087   3.610   5.641   1.401 -0.0936  0.0370  0.5894
 3708TIP3    H111088   3.524   5.678   1.421  0.1481  1.7000 -1.1425
 3708TIP3    H211089   3.650   5.704   1.341  1.7601 -1.4138  0.1951
 3709TIP3   OH211090   0.983   0.875   3.031  0.1200  0.6485 -1.3459
 3709TIP3    H111091   1.060   0.879   3.087 -0.7377  0.3438 -0.0938
 3709TIP3    H211092   0.921   0.937   3.070 -0.6285  0.1615 -1.7308
 3710TIP3   OH211093   5.559   1.765   1.945  0.0848  0.4592  1.1237
 3710TIP3    H111094   5.500   1.748   2.019 -0.5624  0.4572  0.6120
 3710TIP3    H211095   5.577   1.678   1.909  0.2214  0.4800  1.1419
 3711TIP3   OH211096   0.851   0.340   5.413 -0.6899  0.2505 -0.0298
 3711TIP3    H111097   0.821   0.323   5.324 -1.0373  0.6291  0.0146
 3711TIP3    H211098   0.881   0.431   5.412 -0.8960  0.3247  0.2928
 3712TIP3   OH211099   6.366   2.128   4.240 -0.7928 -0.1979 -0.2982
 3712TIP3    H111100   6.282   2.120   4.286 -0.2010 -0.5010  0.7602
 3712TIP3    H211101   6.429   2.086   4.298  0.1778  0.4526 -0.8611
 3713TIP3   OH211102   4.461   4.078   5.268 -0.7054  0.1735  0.2878
 3713TIP3    H111103   4.366   4.068   5.273 -0.4771 -2.0163  0.8830
 3713TIP3    H211104   4.483   4.055   5.178 -0.8017  1.6319 -0.1356
 3714TIP3   OH211105   5.902   2.333   2.655 -0.1444 -0.2129 -0.0517
 3714TIP3    H111106   5.844   2.406   2.676 -1.1547 -1.0343  0.1067
 3714TIP3    H211107   5.922   2.344   2.562 -4.3961 -2.4066 -1.4876
 3715TIP3   OH211108   1.549   5.526   1.465  0.3543 -0.2218 -0.2257
 3715TIP3    H111109   1.571   5.465   1.394 -0.9057 -0.2401 -0.6296
 3715TIP3    H211110   1.613   5.596   1.457  0.4944 -0.4340 -1.1211
 3716TIP3   OH211111   5.496   2.788   2.763  0.1912 -0.2004 -0.2816
 3716TIP3    H111112   5.417   2.762   2.715 -0.0595  0.3582 -0.1814
 3716TIP3    H211113   5.530   2.862   2.713  1.0306 -0.8422 -0.7011
 3717TIP3   OH211114   0.472   1.122   3.979 -0.0663  0.3105  0.6323
 3717TIP3    H111115   0.423   1.140   3.899  1.0286  1.2073  0.1275
 3717TIP3    H211116   0.443   1.189   4.040 -2.0384 -1.2866  1.5630
 3718TIP3   OH211117   1.170   4.120   2.863  0.1000  0.2316 -0.1055
 3718TIP3    H111118   1.128   4.197   2.902  2.6988  0.6853  2.1500
 3718TIP3    H211119   1.125   4.046   2.901 -1.2826  0.6130 -0.9360
 3719TIP3   OH211120   2.462   5.856   0.710 -0.8976 -0.2155  0.4127
 3719TIP3    H111121   2.424   5.939   0.739 -0.1131 -0.5681  2.7382
 3719TIP3    H211122   2.516   5.879   0.634  0.1016  1.6473  1.5973
 3720TIP3   OH211123   5.275   5.912   5.201 -0.0921  0.1986 -0.1393
 3720TIP3    H111124   5.313   5.832   5.165 -2.8074 -2.4947  2.3989
 3720TIP3    H211125   5.187   5.915   5.164 -1.2009  0.0313  2.3056
 3721TIP3   OH211126   2.163   4.513   5.588  0.0485  0.5711  0.4320
 3721TIP3    H111127   2.147   4.471   5.504  0.8425 -0.3844  0.7340
 3721TIP3    H211128   2.235   4.463   5.626  0.4556  1.6965  1.1912
 3722TIP3   OH211129   6.806   0.606   2.835  0.5780 -0.3300  0.1073
 3722TIP3    H111130   6.821   0.520   2.874 -2.0165 -2.3413 -2.8314
 3722TIP3    H211131   6.728   0.639   2.881 -0.5731 -1.2652 -1.0892
 3723TIP3   OH211132   1.840   3.553   5.461  0.3198  0.7746 -0.0328
 3723TIP3    H111133   1.818   3.528   5.371 -2.5765 -0.7769  0.9740
 3723TIP3    H211134   1.820   3.475   5.512 -1.1542  2.5835  2.3306
 3724TIP3   OH211135   0.270   6.388   2.317  0.2151 -0.1658 -0.1060
 3724TIP3    H111136   0.335   6.402   2.249  0.4802 -1.2175 -0.0907
 3724TIP3    H211137   0.320   6.359   2.393 -0.2124 -0.4811  0.0645
 3725TIP3   OH211138   0.448   0.709   4.787 -0.6192  0.4529 -0.3391
 3725TIP3    H111139   0.537   0.745   4.797 -0.3544 -0.3467  0.2641
 3725TIP3    H211140   0.420   0.690   4.877 -2.0028  2.0872 -0.3658
 3726TIP3   OH211141   1.697   0.861   1.559 -0.2732 -0.1171  0.1916
 3726TIP3    H111142   1.680   0.870   1.653  0.6249  1.7440  0.2103
 3726TIP3    H211143   1.788   0.832   1.553 -0.7391 -1.6296 -0.1113
 3727TIP3   OH211144   6.761   2.228   4.390 -0.3869 -0.2784  0.7248
 3727TIP3    H111145   6.709   2.266   4.461 -1.2125  0.4822 -0.2682
 3727TIP3    H211146   6.779   2.139   4.420  0.4875  0.4574  2.5063
 3728TIP3   OH211147   0.583   5.779   0.669 -0.2826 -0.5369  0.1725
 3728TIP3    H111148   0.524   5.836   0.619  0.3317  0.4850  0.5699
 3728TIP3    H211149   0.669   5.821   0.662 -0.0191 -0.8298  1.3624
 3729TIP3   OH211150   4.186   4.359   2.098  0.2663 -0.1481  0.2510
 3729TIP3    H111151   4.109   4.345   2.154  1.7581 -0.1958  2.3784
 3729TIP3    H211152   4.183   4.286   2.036 -0.6264 -0.9620  1.2119
 3730TIP3   OH211153   1.543   3.354   5.498 -0.1055 -0.6924  0.0139
 3730TIP3    H111154   1.525   3.264   5.472 -1.2273 -0.7461  0.8565
 3730TIP3    H211155   1.540   3.352   5.594  1.6977 -0.0970  0.1268
 3731TIP3   OH211156   4.619   0.627   1.613 -0.6379 -0.4018  0.1596
 3731TIP3    H111157   4.605   0.654   1.522  1.1835 -0.3482 -0.1585
 3731TIP3    H211158   4.610   0.532   1.611 -3.0552 -0.2310  0.4627
 3732TIP3   OH211159   2.726   2.688   1.371 -0.0600  0.1555 -0.1374
 3732TIP3    H111160   2.791   2.748   1.407 -1.9460  1.2729  1.5605
 3732TIP3    H211161   2.721   2.617   1.435 -0.7844  0.2897 -0.0338
 3733TIP3   OH211162   3.494   2.293   1.504  0.0428  0.0849  0.3538
 3733TIP3    H111163   3.585   2.287   1.476 -0.3521  0.5526 -1.1282
 3733TIP3    H211164   3.499   2.310   1.598  1.4916  0.5240  0.2243
 3734TIP3   OH211165   5.720   3.694   5.511  0.0900  0.3589  0.4526
 3734TIP3    H111166   5.705   3.789   5.512  1.9995  0.8501 -2.8025
 3734TIP3    H211167   5.815   3.685   5.518  0.0334 -1.2224 -0.3381
 3735TIP3   OH211168   5.028   0.763   5.507  0.3032  0.6844 -0.2824
 3735TIP3    H111169   5.007   0.854   5.484  0.4075  0.4721 -1.2360
 3735TIP3    H211170   5.045   0.720   5.423  1.5429  0.0976  0.2540
 3736TIP3   OH211171   7.006   4.920   3.716  0.4765 -0.0623 -0.1425
 3736TIP3    H111172   6.991   4.847   3.776 -0.3616 -1.2203 -1.6897
 3736TIP3    H211173   7.032   4.993   3.773  0.1899 -1.2271  1.5576
 3737TIP3   OH211174   4.716   1.788   2.573  0.1958  0.0943  0.2240
 3737TIP3    H111175   4.712   1.836   2.491  0.4423 -0.8546 -0.3529
 3737TIP3    H211176   4.626   1.759   2.589 -0.0295  1.0464  0.7719
 3738TIP3   OH211177   1.027   5.284   4.354  0.7683  0.5553  0.0982
 3738TIP3    H111178   1.114   5.253   4.330 -0.5541 -0.5551 -4.2217
 3738TIP3    H211179   1.032   5.379   4.346  1.4195  0.4492 -1.0966
 3739TIP3   OH211180   2.080   4.893   4.815  0.2918 -0.1314  0.0112
 3739TIP3    H111181   2.013   4.955   4.787 -0.4011 -0.6779  0.4455
 3739TIP3    H211182   2.093   4.836   4.740  0.5144  0.1764 -0.1878
 3740TIP3   OH211183   2.625   0.311   3.507  0.4991 -0.0524 -0.0482
 3740TIP3    H111184   2.586   0.256   3.574  0.2540  0.7605  0.4931
 3740TIP3    H211185   2.581   0.285   3.426 -1.7826  1.3577  0.6490
 3741TIP3   OH211186   1.123   0.329   5.078  0.9654 -0.1191 -0.3460
 3741TIP3    H111187   1.216   0.351   5.084  0.8076  0.1833  2.5508
 3741TIP3    H211188   1.084   0.399   5.025  2.3588 -0.2588 -1.5916
 3742TIP3   OH211189   0.169   3.835   0.151 -0.0203  0.1498 -0.7834
 3742TIP3    H111190   0.146   3.905   0.089  1.0704  1.4958  0.2799
 3742TIP3    H211191   0.180   3.879   0.235  2.3684 -1.0062 -0.4020
 3743TIP3   OH211192   0.059   5.488   4.698  0.3854  0.2399  0.2724
 3743TIP3    H111193   0.063   5.582   4.715  2.2481  0.2873 -0.2480
 3743TIP3    H211194  -0.023   5.477   4.649 -0.1934  1.4764  0.9059
 3744TIP3   OH211195   6.605   4.473   0.304 -0.1888 -0.1379  0.7069
 3744TIP3    H111196   6.665   4.460   0.378 -0.0800  0.8507  0.8082
 3744TIP3    H211197   6.656   4.523   0.240  0.1785 -2.1410 -0.6603
 3745TIP3   OH211198   4.986   4.971   3.657 -0.0263 -0.4487 -0.0827
 3745TIP3    H111199   4.901   5.014   3.664  0.2521  1.0319 -3.5243
 3745TIP3    H211200   5.049   5.041   3.674  0.4302 -0.6132 -1.0089
 3746TIP3   OH211201   0.204   0.848   3.056  0.8201 -0.6778  0.0363
 3746TIP3    H111202   0.298   0.865   3.059  0.7004  0.0841 -0.3623
 3746TIP3    H211203   0.164   0.935   3.055  0.0943 -0.9946  0.5440
 3747TIP3   OH211204   6.112   6.402   4.937 -0.2835 -0.1675 -0.3982
 3747TIP3    H111205   6.194   6.399   4.889  0.7540  0.7447  1.2134
 3747TIP3    H211206   6.070   6.483   4.907 -0.4131 -0.4253 -0.9237
 3748TIP3   OH211207   6.543   1.702   4.533  0.1826  0.4507  0.2161
 3748TIP3    H111208   6.476   1.688   4.466  0.7216 -1.2253 -0.0045
 3748TIP3    H211209   6.493   1.709   4.615 -0.4552  2.2392 -0.2629
 3749TIP3   OH211210   5.978   4.072   2.321 -0.0725  0.1074 -0.3205
 3749TIP3    H111211   5.908   4.104   2.379  0.1728 -1.9251  1.2004
 3749TIP3    H211212   6.059   4.094   2.367  0.1665 -0.4665 -0.4582
 3750TIP3   OH211213   2.379   5.852   3.441 -0.3039 -0.0794  0.2746
 3750TIP3    H111214   2.336   5.767   3.453  1.5841 -1.4319 -1.7344
 3750TIP3    H211215   2.393   5.884   3.530 -1.6762 -1.5214  1.0728
 3751TIP3   OH211216   4.423   2.521   1.651 -0.1517  0.3933  0.2673
 3751TIP3    H111217   4.491   2.458   1.629 -0.0738  0.5132  0.1615
 3751TIP3    H211218   4.399   2.561   1.567 -1.7812 -1.0683 -0.0260
 3752TIP3   OH211219   2.834   1.486   3.924  0.1331 -0.3744 -0.0326
 3752TIP3    H111220   2.792   1.564   3.960 -1.4063 -1.1363 -0.0899
 3752TIP3    H211221   2.845   1.505   3.831 -1.6477 -0.7771 -0.3532
 3753TIP3   OH211222   4.110   2.762   2.408  0.0324 -0.3255  0.2105
 3753TIP3    H111223   4.193   2.751   2.361 -0.4100 -2.1684 -0.2199
 3753TIP3    H211224   4.052   2.696   2.370 -1.3279  0.2355  1.2220
 3754TIP3   OH211225   6.842   4.674   5.806  0.0421  0.3159 -0.0183
 3754TIP3    H111226   6.914   4.737   5.818 -0.6880  1.1403  0.1439
 3754TIP3    H211227   6.885   4.594   5.777  1.1867  0.3449  1.4686
 3755TIP3   OH211228   0.591   5.992   1.838 -0.6073  0.4544  0.3270
 3755TIP3    H111229   0.559   6.006   1.749 -0.8177 -0.5115  0.2322
 3755TIP3    H211230   0.590   5.896   1.849  0.7236  0.4714  0.8752
 3756TIP3   OH211231   2.333   3.210   3.026 -0.1547  0.0439 -0.2883
 3756TIP3    H111232   2.239   3.230   3.030 -0.0008  0.7414 -0.1105
 3756TIP3    H211233   2.374   3.292   3.000  0.6011  0.3014  1.5521
 3757TIP3   OH211234   0.355   4.047   3.756  0.4989 -0.5846 -0.4703
 3757TIP3    H111235   0.305   4.000   3.689 -1.7313 -0.6367  1.1228
 3757TIP3    H211236   0.291   4.066   3.825  1.9777  2.2490  0.2768
 3758TIP3   OH211237   1.528   4.863   0.443  0.5245  0.4139  0.3430
 3758TIP3    H111238   1.442   4.842   0.479 -0.2068  0.3744 -1.3173
 3758TIP3    H211239   1.533   4.958   0.448  1.3150  0.3047  2.3891
 3759TIP3   OH211240   6.361   0.655   5.895  0.6288  0.1836 -0.3187
 3759TIP3    H111241   6.326   0.584   5.950 -1.5262  1.8303  0.5755
 3759TIP3    H211242   6.348   0.624   5.806 -0.7563 -0.3821  0.0484
 3760TIP3   OH211243   5.690   4.727   0.249  0.3637  0.3339  0.4839
 3760TIP3    H111244   5.683   4.635   0.275  0.5614  0.2868  0.3732
 3760TIP3    H211245   5.784   4.741   0.237  0.2822  0.3752 -0.1369
 3761TIP3   OH211246   1.298   5.883   1.090  0.4634  0.3735 -0.8569
 3761TIP3    H111247   1.206   5.881   1.063 -0.4453 -1.5980  1.9791
 3761TIP3    H211248   1.298   5.927   1.175  2.5663  2.4850 -1.8333
 3762TIP3   OH211249   4.512   1.396   1.399 -0.3000 -0.2513  0.2939
 3762TIP3    H111250   4.425   1.364   1.376 -0.5028  0.2555  0.3481
 3762TIP3    H211251   4.508   1.490   1.385  0.3150 -0.2533  0.0614
 3763TIP3   OH211252   3.901   5.375   5.121  0.3661  0.4272 -0.5692
 3763TIP3    H111253   3.971   5.436   5.100  0.8137  0.0034 -0.3365
 3763TIP3    H211254   3.946   5.296   5.153 -0.2263  0.3678  0.1619
 3764TIP3   OH211255   7.198   3.705   4.691  0.4790 -0.3448 -0.2153
 3764TIP3    H111256   7.233   3.655   4.616  0.3020  0.4366 -0.8305
 3764TIP3    H211257   7.106   3.678   4.696  0.9130 -1.7749  0.8871
 3765TIP3   OH211258   1.462   2.205   3.987 -0.4905  0.4253  0.2354
 3765TIP3    H111259   1.486   2.271   4.052  0.1528 -0.1456  0.5868
 3765TIP3    H211260   1.545   2.181   3.945 -0.9401  1.0504 -1.0603
 3766TIP3   OH211261   1.837   2.159   1.566  0.2553  0.3178  0.0603
 3766TIP3    H111262   1.804   2.084   1.516  0.3324  0.3897 -0.0982
 3766TIP3    H211263   1.913   2.126   1.613  0.7732  0.5012 -0.6359
 3767TIP3   OH211264   3.777   4.449   5.233 -0.0183 -0.4503  0.0814
 3767TIP3    H111265   3.733   4.419   5.313 -1.0189 -0.6124 -0.5039
 3767TIP3    H211266   3.861   4.404   5.234  1.4452  2.0258  2.6707
 3768TIP3   OH211267   3.177   0.031   2.967  0.1900 -0.0923  0.4864
 3768TIP3    H111268   3.218   0.085   2.899 -0.0044 -0.1126  0.3521
 3768TIP3    H211269   3.097   0.078   2.990  1.2128  0.9751  2.1315
 3769TIP3   OH211270   4.879   5.077   1.636  0.1489 -0.2032  0.3763
 3769TIP3    H111271   4.885   5.053   1.729  1.4158 -0.4771  0.2410
 3769TIP3    H211272   4.952   5.137   1.623  0.3436 -0.6335 -0.5798
 3770TIP3   OH211273   4.800   5.083   3.957 -0.1312  0.4593 -0.0920
 3770TIP3    H111274   4.784   5.132   4.038 -0.3237  2.0190 -1.0244
 3770TIP3    H211275   4.766   4.996   3.974 -1.9906  1.3058  0.8508
 3771TIP3   OH211276   2.537   6.596   4.538  0.5384  0.5066 -0.8483
 3771TIP3    H111277   2.443   6.612   4.534  0.1954 -0.5961  1.3836
 3771TIP3    H211278   2.574   6.682   4.561 -0.3836  0.2257  2.1431
 3772TIP3   OH211279   5.520   1.715   3.868  0.7080  0.1737 -0.0335
 3772TIP3    H111280   5.529   1.728   3.962  0.6736  1.1135 -0.1543
 3772TIP3    H211281   5.516   1.620   3.858 -0.9634  0.0745  1.0676
 3773TIP3   OH211282   5.104   3.024   4.182 -0.3802 -0.0115  0.0676
 3773TIP3    H111283   5.106   3.040   4.276  1.6753 -0.3426  0.1113
 3773TIP3    H211284   5.014   3.047   4.156 -0.4784  1.8207  1.7854
 3774TIP3   OH211285   3.177   3.638   0.412 -0.1363  0.0815  0.2859
 3774TIP3    H111286   3.194   3.696   0.338 -0.7727  0.5049  0.4630
 3774TIP3    H211287   3.134   3.561   0.374  0.2459 -0.0476  0.1161
 3775TIP3   OH211288   3.036   3.882   3.995 -0.3145 -0.2157  0.0869
 3775TIP3    H111289   2.969   3.929   4.044 -0.6560 -0.7818  0.1688
 3775TIP3    H211290   3.095   3.950   3.963 -1.0868  0.3148 -0.2285
 3776TIP3   OH211291   3.072   1.415   1.565 -0.2218  0.8127  0.2908
 3776TIP3    H111292   2.978   1.399   1.551  0.1679 -0.5725 -1.0107
 3776TIP3    H211293   3.115   1.358   1.502  1.5511  0.3849  1.8168
 3777TIP3   OH211294   0.183   2.317   4.835  0.2240 -0.2550  0.6305
 3777TIP3    H111295   0.189   2.390   4.897 -0.1825  0.5120 -0.2084
 3777TIP3    H211296   0.207   2.240   4.886  2.2408  0.6566  1.1549
 3778TIP3   OH211297   2.421   4.680   5.308 -0.0507 -0.4518 -0.1428
 3778TIP3    H111298   2.338   4.689   5.260 -1.1834 -0.4697  1.7273
 3778TIP3    H211299   2.441   4.586   5.302 -0.3707 -0.5148 -0.2607
 3779TIP3   OH211300   5.278   4.238   2.258 -0.3660 -0.3681  0.3401
 3779TIP3    H111301   5.227   4.157   2.259 -0.2762 -0.4249  0.3131
 3779TIP3    H211302   5.264   4.277   2.344  0.7238 -1.1200  0.8725
 3780TIP3   OH211303   4.737   2.071   4.693  0.0499 -0.0931  0.4448
 3780TIP3    H111304   4.690   2.025   4.762  1.8764 -1.4002  0.8982
 3780TIP3    H211305   4.669   2.107   4.636 -1.5025 -3.0895  0.2586
 3781TIP3   OH211306   3.447   6.062   1.198  0.0628  0.4495 -0.2459
 3781TIP3    H111307   3.486   6.149   1.206 -0.7938  0.7931  0.3324
 3781TIP3    H211308   3.397   6.051   1.279  1.1463 -1.0855  0.2704
 3782TIP3   OH211309   1.645   2.702   4.822 -0.5571  0.3143  0.2244
 3782TIP3    H111310   1.712   2.646   4.861 -0.4034  0.4674  0.1790
 3782TIP3    H211311   1.580   2.641   4.788 -1.0805  0.1945  1.4117
 3783TIP3   OH211312   6.762   3.034   4.302  0.4752  0.0058 -0.1446
 3783TIP3    H111313   6.729   2.973   4.369 -0.7428  0.5182 -0.2411
 3783TIP3    H211314   6.702   3.023   4.228  1.3440  0.0099 -0.8523
 3784TIP3   OH211315   6.474   0.663   1.165  0.0194 -0.1477  0.3737
 3784TIP3    H111316   6.492   0.610   1.087  0.9142  0.5236  0.1172
 3784TIP3    H211317   6.379   0.660   1.174 -0.4327  2.0204 -2.3748
 3785TIP3   OH211318   2.137   0.314   2.624 -0.5284  0.1760 -0.4083
 3785TIP3    H111319   2.140   0.408   2.640 -0.1227  0.4898 -2.1198
 3785TIP3    H211320   2.065   0.283   2.679 -0.7877  1.5094  0.0483
 3786TIP3   OH211321   6.388   5.064   3.963  0.2748 -0.4357 -0.8081
 3786TIP3    H111322   6.432   5.016   4.033  0.6631 -1.4097 -1.6942
 3786TIP3    H211323   6.459   5.092   3.905  0.1571  1.9864  0.0936
 3787TIP3   OH211324   5.287   5.551   5.855 -0.4271  0.0176 -0.8247
 3787TIP3    H111325   5.205   5.550   5.806 -0.6413 -0.5924 -0.4812
 3787TIP3    H211326   5.260   5.569   5.945 -0.5381 -2.6823 -0.2051
 3788TIP3   OH211327   4.802   3.875   5.115 -0.5581 -0.3362  0.4300
 3788TIP3    H111328   4.778   3.793   5.072  1.8605 -0.1588 -1.5549
 3788TIP3    H211329   4.837   3.848   5.200 -2.4305 -1.0422  1.0127
 3789TIP3   OH211330   4.239   0.944   5.719  0.0198  0.3611 -0.2361
 3789TIP3    H111331   4.166   0.885   5.736  0.4615 -0.5246 -1.3224
 3789TIP3    H211332   4.317   0.896   5.749  0.3872  0.3464 -1.1840
 3790TIP3   OH211333   3.448   2.891   3.788 -0.1262 -0.0643  0.4840
 3790TIP3    H111334   3.452   2.852   3.701  2.0306 -1.4022  1.1153
 3790TIP3    H211335   3.469   2.984   3.774  0.0436 -0.2342 -0.4329
 3791TIP3   OH211336   2.785   6.275   2.812 -0.7356 -0.0461  0.0438
 3791TIP3    H111337   2.811   6.233   2.730 -2.2277 -3.1772  1.0104
 3791TIP3    H211338   2.692   6.254   2.821 -0.9320  1.3610  1.9175
 3792TIP3   OH211339   0.319   5.854   0.526  0.0310 -0.1330  0.0605
 3792TIP3    H111340   0.310   5.919   0.456 -1.4152  1.1209  1.3275
 3792TIP3    H211341   0.362   5.780   0.484  1.5603  1.5388 -1.5005
 3793TIP3   OH211342   6.992   4.494   5.660 -0.4231  0.0825 -0.6607
 3793TIP3    H111343   7.086   4.477   5.667 -0.5650 -1.2501 -1.6540
 3793TIP3    H211344   6.983   4.552   5.585 -0.4827 -0.9551 -1.4858
 3794TIP3   OH211345   1.682   5.312   4.095  0.6083  0.0665 -0.1984
 3794TIP3    H111346   1.637   5.233   4.126  0.8666 -0.4076 -1.0055
 3794TIP3    H211347   1.649   5.324   4.006  1.7697 -0.0598 -0.6592
 3795TIP3   OH211348   6.472   4.539   2.307  0.2089  0.6341  0.0481
 3795TIP3    H111349   6.428   4.622   2.326  0.5968  1.5100 -2.5578
 3795TIP3    H211350   6.565   4.559   2.314  0.3807  1.0296 -2.5765
 3796TIP3   OH211351   1.972   3.626   2.396 -0.3129  0.0715 -0.4315
 3796TIP3    H111352   2.045   3.576   2.434 -1.1053 -1.1995 -0.5242
 3796TIP3    H211353   2.009   3.713   2.378  0.8967 -0.2353  0.4477
 3797TIP3   OH211354   4.303   5.697   3.349 -0.0394  0.3971  0.2041
 3797TIP3    H111355   4.341   5.707   3.261  1.1294 -0.8602  0.5287
 3797TIP3    H211356   4.274   5.785   3.373 -1.1995  0.6116 -1.7873
 3798TIP3   OH211357   4.040   2.922   4.841 -0.2565 -0.8293 -0.0766
 3798TIP3    H111358   4.085   2.995   4.885  0.4191 -2.0681  1.3730
 3798TIP3    H211359   4.008   2.867   4.913 -3.3642 -0.4948 -1.0665
 3799TIP3   OH211360   1.159   6.152   5.321  0.0027 -0.3337  0.0438
 3799TIP3    H111361   1.072   6.187   5.343  0.4507  0.5105  0.5488
 3799TIP3    H211362   1.213   6.230   5.309  0.8590 -0.8554  0.4405
 3800TIP3   OH211363   4.293   3.271   4.709 -0.3377  0.5491 -0.1331
 3800TIP3    H111364   4.281   3.182   4.675 -1.8518  1.1020 -1.1772
 3800TIP3    H211365   4.239   3.326   4.651 -0.0417  2.0462  0.9521
 3801TIP3   OH211366   5.664   0.616   3.636 -0.1282 -0.2634 -0.1392
 3801TIP3    H111367   5.583   0.566   3.643  0.2027 -0.6807  0.9778
 3801TIP3    H211368   5.724   0.560   3.587 -0.3737 -0.1207 -0.6129
 3802TIP3   OH211369   4.118   1.726   3.743  0.4716 -0.0037  0.8297
 3802TIP3    H111370   4.160   1.799   3.790  0.6682  0.6815 -0.3791
 3802TIP3    H211371   4.045   1.767   3.697  1.3049 -0.3398 -0.8308
 3803TIP3   OH211372   5.028   4.257   5.221  0.2716 -0.0962 -0.2397
 3803TIP3    H111373   4.959   4.298   5.170 -0.3202  0.6223  1.0828
 3803TIP3    H211374   5.109   4.278   5.174 -0.1570  1.3603 -0.3774
 3804TIP3   OH211375   1.166   0.364   5.364 -0.4324 -0.2976 -0.2691
 3804TIP3    H111376   1.202   0.375   5.276  1.6937 -0.8897  0.4497
 3804TIP3    H211377   1.089   0.308   5.352  0.7804 -1.7715 -1.5952
 3805TIP3   OH211378   1.505   3.075   1.641  0.8919 -0.0153 -0.0605
 3805TIP3    H111379   1.527   2.983   1.652  1.0255 -0.1881 -1.5448
 3805TIP3    H211380   1.474   3.082   1.550  0.9660  1.4149 -0.0060
 3806TIP3   OH211381   6.678   0.427   5.473  0.1533  0.1151  0.1760
 3806TIP3    H111382   6.745   0.410   5.407  0.9941 -0.1734  1.0748
 3806TIP3    H211383   6.726   0.465   5.547 -0.7078  0.1149  0.7575
 3807TIP3   OH211384   2.744   3.568   2.461  0.0988  0.0425  0.3394
 3807TIP3    H111385   2.799   3.587   2.385  0.1835  0.4140  0.4894
 3807TIP3    H211386   2.709   3.480   2.445  0.7722 -0.2184  0.2617
 3808TIP3   OH211387   5.848   6.709   5.443  0.3350  0.0319 -0.2574
 3808TIP3    H111388   5.797   6.758   5.508  0.7636  0.0436  0.0782
 3808TIP3    H211389   5.794   6.633   5.422 -0.8945  1.2683 -1.7161
 3809TIP3   OH211390   0.550   1.191   5.884  0.5930 -0.0758 -0.1184
 3809TIP3    H111391   0.537   1.258   5.817 -0.6433  1.3236  1.4326
 3809TIP3    H211392   0.462   1.158   5.903  1.0483 -1.2544  0.0541
 3810TIP3   OH211393   1.425   5.940   5.097 -0.2188 -0.0966 -0.4569
 3810TIP3    H111394   1.330   5.928   5.096 -0.2978  0.3614  0.2488
 3810TIP3    H211395   1.437   6.035   5.107  0.2873 -0.3181  1.3002
 3811TIP3   OH211396   6.352   6.285   5.888 -0.5459  0.5519  0.7853
 3811TIP3    H111397   6.377   6.206   5.935  0.6928  0.2764 -0.2687
 3811TIP3    H211398   6.300   6.254   5.814  0.4011  0.6400  0.0585
 3812TIP3   OH211399   6.435   4.806   5.484 -0.8140  0.0090 -0.4025
 3812TIP3    H111400   6.344   4.775   5.484 -1.1174  0.8813 -0.2755
 3812TIP3    H211401   6.481   4.745   5.542 -1.6596  0.5071  0.8418
 3813TIP3   OH211402   2.692   0.858   0.327  0.8652 -0.2689 -0.2768
 3813TIP3    H111403   2.646   0.779   0.354  0.8261 -0.2655 -0.3337
 3813TIP3    H211404   2.695   0.853   0.232  0.7904 -0.1610 -0.2846
 3814TIP3   OH211405   0.901   2.350   5.571 -0.3152 -0.4462  0.3877
 3814TIP3    H111406   0.945   2.431   5.544 -2.6334  1.1518  1.1372
 3814TIP3    H211407   0.948   2.324   5.651  0.2062  0.3697  0.3662
 3815TIP3   OH211408   3.804   2.615   5.778 -0.3440  0.3908 -0.4478
 3815TIP3    H111409   3.869   2.621   5.848 -0.7770 -1.9748  0.2257
 3815TIP3    H211410   3.723   2.648   5.816  0.2211  2.7902 -1.1121
 3816TIP3   OH211411   5.316   3.068   3.101 -0.3120 -0.1839 -0.4137
 3816TIP3    H111412   5.290   3.038   3.188 -1.3934 -1.1491 -1.0451
 3816TIP3    H211413   5.241   3.049   3.045 -0.5032  2.3953 -1.1676
 3817TIP3   OH211414   5.799   5.203   2.178 -0.2885 -0.1566 -0.0349
 3817TIP3    H111415   5.733   5.154   2.226 -0.7854  0.1702 -0.3794
 3817TIP3    H211416   5.878   5.196   2.232 -0.5171 -0.8164  0.2126
 3818TIP3   OH211417   2.319   0.537   1.976 -0.6493  0.1744 -0.0476
 3818TIP3    H111418   2.272   0.606   2.022  0.7614  0.1864  1.4769
 3818TIP3    H211419   2.251   0.490   1.927 -2.0727  0.8766  1.1548
 3819TIP3   OH211420   2.524   1.016   0.778  0.2047 -0.2903  0.0458
 3819TIP3    H111421   2.516   1.111   0.763 -0.5421 -0.2820  0.4768
 3819TIP3    H211422   2.615   0.996   0.754  0.2218  0.4423 -0.5424
 3820TIP3   OH211423   1.019   0.053   3.403 -0.2714 -0.4244 -0.4961
 3820TIP3    H111424   1.020  -0.019   3.465  0.1541 -1.8674 -2.0925
 3820TIP3    H211425   0.957   0.116   3.440  0.7097 -0.7443  1.8367
 3821TIP3   OH211426   2.681   3.551   1.292 -0.4128  0.5751 -0.0718
 3821TIP3    H111427   2.641   3.466   1.310 -0.0773  0.5085  0.3818
 3821TIP3    H211428   2.617   3.597   1.239 -1.2583  0.6132  0.9490
 3822TIP3   OH211429   4.203   3.108   3.584 -0.6581  0.2039 -0.2755
 3822TIP3    H111430   4.212   3.198   3.551  0.9599  0.2336  0.1786
 3822TIP3    H211431   4.292   3.073   3.585 -1.0675 -0.9047  0.9518
 3823TIP3   OH211432   3.412   0.892   2.178 -0.0527 -0.7699  0.1783
 3823TIP3    H111433   3.348   0.962   2.168 -1.5630 -2.0703  0.4910
 3823TIP3    H211434   3.426   0.884   2.272  0.7027 -0.4028  0.1089
 3824TIP3   OH211435   4.594   4.400   4.666 -0.1841 -0.5471  0.1889
 3824TIP3    H111436   4.507   4.430   4.638 -0.9082 -1.1386  1.6638
 3824TIP3    H211437   4.586   4.304   4.670 -0.4931 -0.4919  3.2550
 3825TIP3   OH211438   4.116   1.433   2.404 -0.0955  0.2277 -0.5347
 3825TIP3    H111439   4.046   1.421   2.341  1.1320 -1.0353 -1.7216
 3825TIP3    H211440   4.134   1.345   2.437  0.4714  0.6325  0.2584
 3826TIP3   OH211441   2.624   4.757   3.169  0.7322 -0.0656 -0.1719
 3826TIP3    H111442   2.671   4.708   3.101  0.0104 -0.0489 -0.6916
 3826TIP3    H211443   2.590   4.834   3.124  2.2508  1.1898  0.7347
 3827TIP3   OH211444   0.876   3.802   5.215 -0.2935 -0.4102  0.1777
 3827TIP3    H111445   0.935   3.826   5.286  0.9069 -0.7886 -0.6742
 3827TIP3    H211446   0.825   3.881   5.198  1.5409  0.6674 -0.5861
 3828TIP3   OH211447   6.633   6.308   0.409 -0.4743 -0.3925  0.0741
 3828TIP3    H111448   6.728   6.304   0.423 -0.1244  0.4014 -1.7349
 3828TIP3    H211449   6.610   6.399   0.425 -0.9953 -0.6406  0.7786
 3829TIP3   OH211450   3.466   5.494   1.093 -0.2244  0.2278 -0.3134
 3829TIP3    H111451   3.549   5.538   1.111  0.5273 -1.6058  0.9409
 3829TIP3    H211452   3.484   5.438   1.018 -0.3538 -0.1171 -0.0854
 3830TIP3   OH211453   0.674   6.408   0.527  0.2517  0.1383  0.2398
 3830TIP3    H111454   0.733   6.334   0.541 -1.0606 -1.1615 -0.7448
 3830TIP3    H211455   0.683   6.461   0.606  0.4826 -1.6103  1.4610
 3831TIP3   OH211456   1.448   2.075   3.207  0.2315 -0.0514  0.4432
 3831TIP3    H111457   1.374   2.135   3.194  0.8727  0.5259 -0.6560
 3831TIP3    H211458   1.521   2.133   3.232  1.3832 -0.0461 -2.5120
 3832TIP3   OH211459   5.347   5.238   5.842  0.3327  0.4023 -0.2154
 3832TIP3    H111460   5.365   5.327   5.871 -1.1805  0.0512  2.1274
 3832TIP3    H211461   5.268   5.246   5.788  1.4587  0.7097 -1.8566
 3833TIP3   OH211462   5.333   5.820   3.655 -0.5850 -0.0311  0.4018
 3833TIP3    H111463   5.290   5.820   3.569 -0.2912  0.2579  0.2521
 3833TIP3    H211464   5.314   5.734   3.691 -0.7538 -0.1360  0.0674
 3834TIP3   OH211465   0.837   3.897   1.081  0.3476  0.2296 -0.0474
 3834TIP3    H111466   0.873   3.811   1.103  0.4508  0.8171  2.3857
 3834TIP3    H211467   0.865   3.954   1.153 -1.2904  1.8599 -0.6160
 3835TIP3   OH211468   0.592   5.457   2.726 -0.0471  0.0547  0.1857
 3835TIP3    H111469   0.677   5.498   2.742  0.6375 -1.1225 -0.3895
 3835TIP3    H211470   0.587   5.448   2.631 -1.3810  1.2505  0.0994
 3836TIP3   OH211471   3.616   3.993   0.160 -0.4089  0.1042 -0.6062
 3836TIP3    H111472   3.592   4.085   0.167 -1.8546 -0.3397  0.6050
 3836TIP3    H211473   3.712   3.995   0.150 -0.5126  1.7567 -1.6922
 3837TIP3   OH211474   3.663   6.210   2.913  0.1930 -0.4932  0.3683
 3837TIP3    H111475   3.695   6.234   2.826 -0.4392 -0.4461  0.1488
 3837TIP3    H211476   3.690   6.119   2.924  1.7450 -0.0144  0.8091
 3838TIP3   OH211477   6.185   5.407   0.871 -0.0817 -0.1110 -0.6080
 3838TIP3    H111478   6.188   5.326   0.922  0.3893 -1.0510 -2.0734
 3838TIP3    H211479   6.198   5.476   0.936 -1.9081 -1.0813  0.9166
 3839TIP3   OH211480   1.059   4.676   5.057 -0.1624 -0.1330 -0.3141
 3839TIP3    H111481   1.087   4.682   5.149  0.4990 -1.2714 -0.4214
 3839TIP3    H211482   1.119   4.612   5.018 -0.2885  0.5171 -1.6073
 3840TIP3   OH211483   2.084   2.735   0.327  0.6095  0.1633 -0.3024
 3840TIP3    H111484   2.178   2.746   0.309  0.4707  0.6430 -0.7408
 3840TIP3    H211485   2.068   2.792   0.403  0.5877  0.3967 -0.4823
 3841TIP3   OH211486   0.099   3.292   4.365  0.0270 -0.3578 -0.0530
 3841TIP3    H111487   0.090   3.198   4.380  2.1621 -0.8490 -1.3863
 3841TIP3    H211488   0.009   3.324   4.359 -0.7728 -1.9944  2.0618
 3842TIP3   OH211489   3.341   5.813   4.757  0.5740  0.1485 -0.6113
 3842TIP3    H111490   3.282   5.872   4.710  0.4576  0.4602 -0.0799
 3842TIP3    H211491   3.427   5.854   4.749  0.2166  1.3682  1.2913
 3843TIP3   OH211492   5.765   1.639   0.234 -0.0386  0.1239  0.9251
 3843TIP3    H111493   5.685   1.638   0.181  0.4856  0.9640  0.0698
 3843TIP3    H211494   5.806   1.723   0.212  0.9414 -0.1803  1.5522
 3844TIP3   OH211495   4.580   3.901   4.185  0.3860 -0.3372  0.5808
 3844TIP3    H111496   4.530   3.954   4.247  0.2124 -0.9862  1.0015
 3844TIP3    H211497   4.599   3.961   4.113 -2.5103 -0.4908 -0.4508
 3845TIP3   OH211498   2.476   0.904   5.494 -0.0739  0.2643  0.2837
 3845TIP3    H111499   2.514   0.927   5.409 -0.2648 -0.3025  0.0456
 3845TIP3    H211500   2.392   0.864   5.473  0.1330 -0.4147  0.7089
 3846TIP3   OH211501   3.329   3.060   2.272  0.2656  0.2088 -0.4746
 3846TIP3    H111502   3.398   3.118   2.305  1.4165 -1.0873 -0.5315
 3846TIP3    H211503   3.368   3.016   2.196 -0.9426  0.1072 -1.0644
 3847TIP3   OH211504   5.332   2.107   2.878 -0.0685  0.1406  0.1015
 3847TIP3    H111505   5.399   2.172   2.898  0.3417 -0.6423  1.4081
 3847TIP3    H211506   5.328   2.105   2.782 -0.3938  2.3454  0.0281
 3848TIP3   OH211507   5.205   4.895   3.861 -0.6735  0.1112 -0.3987
 3848TIP3    H111508   5.218   4.990   3.858  0.9397 -0.0968 -1.4275
 3848TIP3    H211509   5.291   4.860   3.885 -1.3333 -1.0867  0.3167
 3849TIP3   OH211510   1.558   2.189   2.286  0.0956 -0.0880 -0.2683
 3849TIP3    H111511   1.489   2.244   2.248 -0.6265 -0.0548  1.0465
 3849TIP3    H211512   1.530   2.174   2.376  1.1348 -1.2168 -0.1098
 3850TIP3   OH211513   0.895   3.532   5.789 -0.4403  0.3990  0.7699
 3850TIP3    H111514   0.988   3.516   5.804 -0.4395  0.0173  0.3658
 3850TIP3    H211515   0.881   3.621   5.821  0.3341  0.9344 -0.3374
 3851TIP3   OH211516   6.841   3.308   1.917 -0.4803  0.4374  0.4786
 3851TIP3    H111517   6.879   3.279   1.834 -0.6686  0.3516  0.4226
 3851TIP3    H211518   6.768   3.364   1.892 -1.0176 -0.2080  0.5837
 3852TIP3   OH211519   6.484   0.428   2.337 -1.1275 -0.4086  0.0103
 3852TIP3    H111520   6.536   0.502   2.370 -0.6045  0.4016 -2.4611
 3852TIP3    H211521   6.397   0.442   2.374 -0.3100 -0.2742  2.0252
 3853TIP3   OH211522   5.307   3.361   5.501  0.2586 -0.2225  0.7644
 3853TIP3    H111523   5.400   3.341   5.513  0.5709 -0.3110 -1.3822
 3853TIP3    H211524   5.301   3.455   5.520  0.7788 -0.2253  0.9781
 3854TIP3   OH211525   6.543   1.057   2.610  0.4713  0.3388  0.2699
 3854TIP3    H111526   6.482   1.024   2.544 -0.2466  1.8070  0.1459
 3854TIP3    H211527   6.588   0.979   2.643 -0.1090 -0.5662 -0.9950
 3855TIP3   OH211528   1.900   6.522   1.216 -0.1925  0.4502 -0.1785
 3855TIP3    H111529   1.853   6.578   1.278  1.7273  3.6313 -1.3770
 3855TIP3    H211530   1.984   6.504   1.259  0.3111  0.9160 -0.9341
 3856TIP3   OH211531   0.363   0.480   4.045 -0.2178 -0.5557  0.0145
 3856TIP3    H111532   0.444   0.529   4.029 -1.1017  0.7210 -0.7604
 3856TIP3    H211533   0.391   0.402   4.092  1.5511 -0.5060 -0.8778
 3857TIP3   OH211534   1.012   5.634   3.076 -0.4562 -0.1260 -0.5250
 3857TIP3    H111535   1.023   5.549   3.121  0.3312 -0.4496 -1.2974
 3857TIP3    H211536   0.943   5.678   3.125 -1.1024 -1.3436 -0.2915
 3858TIP3   OH211537   4.496   5.296   4.017  0.1735  0.0568  0.0395
 3858TIP3    H111538   4.584   5.328   3.996 -0.9707  3.3342 -0.3090
 3858TIP3    H211539   4.469   5.248   3.938  0.2336  2.4590 -1.5366
 3859TIP3   OH211540   2.799   5.817   3.717  0.4136  0.0576  0.4775
 3859TIP3    H111541   2.864   5.805   3.786  2.5908 -2.3185 -1.7418
 3859TIP3    H211542   2.720   5.774   3.750  1.2209 -0.5164  1.7174
 3860TIP3   OH211543   3.326   4.110   0.128 -0.1873 -0.8245  0.0354
 3860TIP3    H111544   3.367   4.107   0.042 -0.6654 -1.8193 -0.1739
 3860TIP3    H211545   3.392   4.152   0.184 -0.0153  0.1651 -0.8727
 3861TIP3   OH211546   4.044   1.463   0.852  0.0187  0.1554  0.0218
 3861TIP3    H111547   3.984   1.503   0.789 -0.2016 -1.4704 -0.8343
 3861TIP3    H211548   4.087   1.393   0.804 -0.5036 -1.4725  1.7903
 3862TIP3   OH211549   6.909   4.242   1.414 -0.3191 -0.1372 -0.3453
 3862TIP3    H111550   6.912   4.195   1.497  0.4995  0.2293 -0.1538
 3862TIP3    H211551   6.872   4.328   1.436  0.6982  0.2840 -0.1679
 3863TIP3   OH211552   6.247   0.619   4.481  0.0741  0.2871  0.4113
 3863TIP3    H111553   6.302   0.585   4.551 -0.5952 -1.1567  0.2670
 3863TIP3    H211554   6.295   0.600   4.401  0.2523  0.8021  0.3887
 3864TIP3   OH211555   5.113   3.102   1.593 -0.1283 -0.0195  0.4878
 3864TIP3    H111556   5.021   3.088   1.572 -0.5070  0.7361  1.5383
 3864TIP3    H211557   5.157   3.022   1.565 -1.2795 -0.8270  0.9158
 3865TIP3   OH211558   3.870   6.597   5.585  0.1846  0.0277 -0.1262
 3865TIP3    H111559   3.869   6.629   5.495  0.8866  1.1312  0.2410
 3865TIP3    H211560   3.929   6.656   5.632 -1.0326  0.1835  1.3120
 3866TIP3   OH211561   2.201   3.722   4.754  0.1262  1.0395  0.2865
 3866TIP3    H111562   2.135   3.726   4.685  0.6542  1.3451 -0.2084
 3866TIP3    H211563   2.164   3.775   4.825 -0.1679  1.1867  0.0254
 3867TIP3   OH211564   4.543   6.492   4.257  0.2467 -0.1424  0.0393
 3867TIP3    H111565   4.560   6.529   4.344 -0.0151  0.0798 -0.0016
 3867TIP3    H211566   4.461   6.443   4.267 -0.0087  0.2352 -0.1835
 3868TIP3   OH211567   5.398   4.766   0.085  0.3106  0.0766 -0.1214
 3868TIP3    H111568   5.393   4.757   0.180 -2.4206 -1.6706 -0.3132
 3868TIP3    H211569   5.489   4.789   0.067  0.9828  0.0803  2.8715
 3869TIP3   OH211570   0.358   1.818   5.687  0.2610 -0.0192  0.2679
 3869TIP3    H111571   0.325   1.877   5.755 -2.0467  1.9160 -2.3267
 3869TIP3    H211572   0.438   1.860   5.655 -0.2318  0.5945 -0.1603
 3870TIP3   OH211573   6.760   2.926   1.050  0.3125  0.2684 -0.0373
 3870TIP3    H111574   6.738   2.998   1.110 -2.2032 -0.8743  0.5193
 3870TIP3    H211575   6.687   2.923   0.989  1.0640 -0.9584 -0.9125
 3871TIP3   OH211576   2.352   1.193   2.859 -0.3943  0.4721 -0.4897
 3871TIP3    H111577   2.391   1.106   2.863 -0.0107  0.5761 -1.5426
 3871TIP3    H211578   2.390   1.240   2.934  1.9828  0.7292 -1.7602
 3872TIP3   OH211579   4.577   5.537   1.540 -0.1298 -0.0737 -0.0995
 3872TIP3    H111580   4.527   5.616   1.562 -0.0673 -0.5956  2.1663
 3872TIP3    H211581   4.668   5.560   1.557  0.4810  0.6368 -3.5258
 3873TIP3   OH211582   0.711   5.317   5.829 -0.2308 -0.3311 -0.1001
 3873TIP3    H111583   0.756   5.253   5.774  1.2070 -0.0975  0.7589
 3873TIP3    H211584   0.737   5.295   5.918 -2.1805 -0.4371  0.4776
 3874TIP3   OH211585   4.725   6.178   4.090 -0.5064  0.1394  0.1147
 3874TIP3    H111586   4.755   6.229   4.165 -0.1986  0.9915 -0.5771
 3874TIP3    H211587   4.670   6.238   4.040 -1.3017 -0.6407  0.0255
 3875TIP3   OH211588   3.176   0.802   2.381 -0.1632 -0.0916  0.3129
 3875TIP3    H111589   3.231   0.822   2.457  1.3377 -1.5011 -0.3376
 3875TIP3    H211590   3.207   0.862   2.313 -0.8365  0.5002  0.5221
 3876TIP3   OH211591   2.833   5.509   3.787  0.0821 -0.2918  0.1094
 3876TIP3    H111592   2.881   5.563   3.850  0.7821 -0.3066 -0.4080
 3876TIP3    H211593   2.900   5.465   3.736 -0.4812 -0.2149 -0.7130
 3877TIP3   OH211594   7.152   4.092   5.634  0.4527  0.1075 -0.2200
 3877TIP3    H111595   7.221   4.026   5.633  3.1595  2.6321  2.4461
 3877TIP3    H211596   7.137   4.111   5.726 -2.3431  1.2202 -0.7896
 3878TIP3   OH211597   0.487   4.713   1.870  0.0081  0.4006 -1.0918
 3878TIP3    H111598   0.464   4.621   1.861 -2.9775  0.3770  3.2666
 3878TIP3    H211599   0.580   4.713   1.891 -0.4315 -2.0878  1.4880
 3879TIP3   OH211600   1.015   0.380   1.705 -0.0522 -0.2598  0.0958
 3879TIP3    H111601   0.953   0.451   1.723  0.4095  0.0460  0.4876
 3879TIP3    H211602   1.091   0.400   1.758 -0.0111 -1.1888  0.4128
 3880TIP3   OH211603   1.555   1.885   5.180 -0.8038 -0.1395 -0.3947
 3880TIP3    H111604   1.651   1.888   5.188 -0.9504  0.8334  1.6926
 3880TIP3    H211605   1.536   1.937   5.103  0.2945  1.2640  0.2248
 3881TIP3   OH211606   5.680   2.155   4.287  0.6046 -0.2509  0.2154
 3881TIP3    H111607   5.767   2.115   4.281  0.5369 -0.2352 -1.4514
 3881TIP3    H211608   5.627   2.106   4.224 -0.1552  0.7972  0.0171
 3882TIP3   OH211609   1.963   5.875   2.730  0.2076  0.1125 -0.1503
 3882TIP3    H111610   1.879   5.921   2.736 -0.0964 -0.2760 -1.1524
 3882TIP3    H211611   1.939   5.784   2.715  0.8055 -0.4117  1.8246
 3883TIP3   OH211612   1.391   2.183   1.733  0.3736  0.3195 -0.4663
 3883TIP3    H111613   1.434   2.268   1.722 -1.1971  1.0283 -1.4297
 3883TIP3    H211614   1.364   2.180   1.825  0.7923  0.6728 -0.3303
 3884TIP3   OH211615   1.756   4.673   4.271  0.2625 -0.2697  0.3741
 3884TIP3    H111616   1.747   4.713   4.185  0.8954 -1.3671 -0.2295
 3884TIP3    H211617   1.840   4.628   4.267 -0.0913 -1.0320  1.2763
 3885TIP3   OH211618   1.396   3.937   0.643  0.2475  0.3531 -0.5961
 3885TIP3    H111619   1.400   3.998   0.569  0.0063  0.2010 -0.7386
 3885TIP3    H211620   1.392   3.994   0.720 -1.6077  0.5707 -0.8002
 3886TIP3   OH211621   7.100   3.607   3.531 -0.2030  0.0241 -0.2357
 3886TIP3    H111622   7.059   3.527   3.566 -0.7290  0.3015 -0.2090
 3886TIP3    H211623   7.120   3.585   3.440  0.5914 -0.4827  0.0494
 3887TIP3   OH211624   6.451   0.462   0.913  0.2338  0.2609  0.4235
 3887TIP3    H111625   6.483   0.372   0.911 -1.4932 -0.4903  2.4045
 3887TIP3    H211626   6.493   0.504   0.839  1.7284 -1.9555 -0.0892
 3888TIP3   OH211627   0.218   3.103   3.050  0.3084  0.5910  0.1089
 3888TIP3    H111628   0.232   3.198   3.055 -1.5982  0.8929  0.2907
 3888TIP3    H211629   0.306   3.066   3.045  1.1282  2.3051  1.1024
 3889TIP3   OH211630   1.441   4.181   2.874  0.5177  0.0304 -0.4011
 3889TIP3    H111631   1.438   4.277   2.884 -0.0008  0.1502 -1.5626
 3889TIP3    H211632   1.352   4.156   2.853  0.7760 -0.6472 -0.7123
 3890TIP3   OH211633   6.952   4.557   3.295  0.0737  0.5022  0.4479
 3890TIP3    H111634   6.939   4.545   3.201  0.6484  2.0354  0.1376
 3890TIP3    H211635   6.864   4.550   3.332 -0.3535  1.1389 -0.3828
 3891TIP3   OH211636   5.009   0.845   3.014  0.7532 -0.6431  0.1224
 3891TIP3    H111637   4.922   0.863   2.978  1.8523  1.2642 -1.8569
 3891TIP3    H211638   5.019   0.908   3.085  0.3353 -1.2375  0.7183
 3892TIP3   OH211639   1.717   0.143   0.812 -0.4862  0.2725 -0.0411
 3892TIP3    H111640   1.691   0.095   0.890 -3.6296  0.6425 -0.7430
 3892TIP3    H211641   1.740   0.230   0.844  1.4765 -0.4897  0.7768
 3893TIP3   OH211642   4.500   1.577   2.926 -0.0278  0.5826 -0.2622
 3893TIP3    H111643   4.581   1.610   2.886  0.2778  1.5649  1.0755
 3893TIP3    H211644   4.485   1.492   2.885  2.1588 -0.0184  0.0648
 3894TIP3   OH211645   2.689   4.168   3.731  0.1641  0.1132 -0.3815
 3894TIP3    H111646   2.599   4.135   3.734  0.2923 -0.2087 -0.0176
 3894TIP3    H211647   2.704   4.205   3.818  0.5754 -0.3595 -0.2440
 3895TIP3   OH211648   4.231   6.105   0.296  0.2126 -0.4792 -0.3339
 3895TIP3    H111649   4.151   6.154   0.275 -0.3192 -2.2368 -2.8500
 3895TIP3    H211650   4.242   6.116   0.390 -2.5461  0.4986 -0.0429
 3896TIP3   OH211651   7.176   5.518   2.427 -0.2639  0.5188 -0.0040
 3896TIP3    H111652   7.112   5.503   2.357  0.1029  0.2201 -0.2755
 3896TIP3    H211653   7.136   5.480   2.505 -1.9183  3.2105  0.5889
 3897TIP3   OH211654   0.352   4.089   0.555  0.7379  0.7215 -0.3807
 3897TIP3    H111655   0.354   4.084   0.651  0.9793  0.3489 -0.4011
 3897TIP3    H211656   0.444   4.081   0.529  0.7639  1.6829 -0.6112
 3898TIP3   OH211657   6.621   1.506   2.953 -0.2530 -0.1164 -0.2984
 3898TIP3    H111658   6.614   1.461   2.869 -2.0508  0.2133 -0.3639
 3898TIP3    H211659   6.665   1.588   2.933  1.1931 -0.9097 -0.5271
 3899TIP3   OH211660   0.121   0.831   5.143  0.0565 -0.0861 -0.4526
 3899TIP3    H111661   0.064   0.897   5.105 -1.1296 -1.1539 -0.6181
 3899TIP3    H211662   0.161   0.874   5.219 -2.3305  0.2053  0.7216
 3900TIP3   OH211663   6.513   4.477   5.659 -0.5969 -0.0785 -0.3254
 3900TIP3    H111664   6.485   4.408   5.600  0.1320 -0.5645 -0.1098
 3900TIP3    H211665   6.534   4.433   5.741 -0.7392  0.4784  0.0220
 3901TIP3   OH211666   3.064   1.845   2.177  0.3954 -0.3072 -0.6343
 3901TIP3    H111667   3.028   1.879   2.258 -1.2531 -1.2443 -0.9366
 3901TIP3    H211668   3.065   1.750   2.188  0.0331 -0.4593 -1.7469
 3902TIP3   OH211669   5.736   4.573   3.784 -0.0909 -0.1252  0.2583
 3902TIP3    H111670   5.779   4.507   3.838  1.0752  0.6307  0.3011
 3902TIP3    H211671   5.664   4.527   3.741 -0.1885 -1.0641  1.3820
 3903TIP3   OH211672   6.125   0.960   2.134 -0.7073  0.0077 -0.0923
 3903TIP3    H111673   6.051   1.013   2.104  0.1260  1.1841 -0.1613
 3903TIP3    H211674   6.172   1.017   2.194  2.0804  0.6694 -2.6344
 3904TIP3   OH211675   0.118   4.309   1.580 -0.4633  0.4794  1.0416
 3904TIP3    H111676   0.064   4.282   1.506 -0.3152  0.5645  0.8984
 3904TIP3    H211677   0.183   4.239   1.588 -0.2224  0.6735  0.8197
 3905TIP3   OH211678   6.333   5.643   4.341  0.2523 -0.4544  0.0690
 3905TIP3    H111679   6.340   5.579   4.271  2.1695 -1.5891  1.2090
 3905TIP3    H211680   6.263   5.609   4.398  0.1841 -0.6831 -0.1521
 3906TIP3   OH211681   0.098   3.159   2.457  0.1828 -0.3678  0.0659
 3906TIP3    H111682   0.123   3.185   2.369  1.7785  0.2609  0.6572
 3906TIP3    H211683   0.013   3.116   2.447 -0.6011  1.4409 -1.4895
 3907TIP3   OH211684   1.034   4.985   5.714  0.1097 -0.8412  0.1913
 3907TIP3    H111685   0.943   5.009   5.694  0.1107 -0.1361  0.9532
 3907TIP3    H211686   1.073   4.965   5.630  0.2141  2.2524 -0.6057
 3908TIP3   OH211687   4.532   4.280   1.885  0.1294  0.1200  0.8605
 3908TIP3    H111688   4.503   4.190   1.872  0.6892 -0.2660  2.1171
 3908TIP3    H211689   4.580   4.302   1.805 -1.2985 -0.1457 -0.1032
 3909TIP3   OH211690   4.938   1.423   2.729 -0.3955  0.1582  0.2113
 3909TIP3    H111691   4.956   1.438   2.822 -1.0449  0.9823  0.2192
 3909TIP3    H211692   5.008   1.468   2.683  0.8564 -1.6047  0.2943
 3910TIP3   OH211693   2.814   0.866   0.729  0.4471 -0.1278 -0.2842
 3910TIP3    H111694   2.889   0.818   0.693  0.4158 -0.3593 -0.0456
 3910TIP3    H211695   2.843   0.958   0.731  1.4360 -0.4265  1.5049
 3911TIP3   OH211696   4.768   3.909   3.163  0.3558  0.1322 -0.4818
 3911TIP3    H111697   4.783   3.846   3.234  1.5460  1.3287  0.3935
 3911TIP3    H211698   4.829   3.883   3.094  2.7871  1.7472  0.9010
 3912TIP3   OH211699   6.506   1.234   0.291 -0.3581 -0.0475 -0.4365
 3912TIP3    H111700   6.565   1.217   0.364 -0.4513  0.9583 -0.1182
 3912TIP3    H211701   6.420   1.246   0.331 -0.7167 -1.0720 -0.8604
 3913TIP3   OH211702   5.494   1.579   1.375  0.1039  0.1500  0.0051
 3913TIP3    H111703   5.579   1.623   1.378  1.1997 -1.4114 -3.0935
 3913TIP3    H211704   5.430   1.650   1.381  1.6878  1.6765 -0.2006
 3914TIP3   OH211705   1.011   5.440   1.951  0.0712 -0.5758  0.3018
 3914TIP3    H111706   0.939   5.403   1.900  1.5590 -1.6908 -1.1119
 3914TIP3    H211707   1.061   5.364   1.981  0.2761  0.1434  1.8963
 3915TIP3   OH211708   0.697   2.593   5.771  0.2180  0.3682  0.0181
 3915TIP3    H111709   0.647   2.545   5.706 -2.5700  2.1158  0.7135
 3915TIP3    H211710   0.647   2.585   5.852  1.4692  1.5761  0.9763
 3916TIP3   OH211711   1.444   5.158   4.646 -0.2468 -0.2215 -0.2628
 3916TIP3    H111712   1.521   5.143   4.591 -0.2559  1.4665 -0.7883
 3916TIP3    H211713   1.443   5.084   4.706  2.1447  0.0279  0.1628
 3917TIP3   OH211714   3.359   4.273   5.592  0.3909  0.3185 -0.5398
 3917TIP3    H111715   3.294   4.262   5.661  0.9244 -2.4267 -0.3915
 3917TIP3    H211716   3.324   4.343   5.537 -1.8431  0.0626  0.4801
 3918TIP3   OH211717   5.578   1.230   0.968 -0.2053  0.4488  0.2676
 3918TIP3    H111718   5.607   1.289   1.038 -0.0080 -0.2411  0.7804
 3918TIP3    H211719   5.502   1.184   1.005  0.1398 -0.2026  0.1766
 3919TIP3   OH211720   3.472   4.176   2.563  0.2325  0.1979 -0.1988
 3919TIP3    H111721   3.439   4.156   2.476  0.1849 -1.0186  0.0909
 3919TIP3    H211722   3.490   4.091   2.603 -0.2131  0.7146  1.1644
 3920TIP3   OH211723   1.000   3.973   2.237  0.1563 -0.6863 -0.3537
 3920TIP3    H111724   1.095   3.978   2.242  0.1496  0.4279 -0.9660
 3920TIP3    H211725   0.973   4.060   2.207 -1.0614 -0.9598 -0.1006
 3921TIP3   OH211726   0.068   1.966   0.836  0.2156  0.4090  0.3846
 3921TIP3    H111727   0.113   2.050   0.827 -1.1719  1.1188 -0.1546
 3921TIP3    H211728   0.019   1.956   0.755 -1.3304  0.1171  1.3209
 3922TIP3   OH211729   0.493   2.172   3.019  0.0783  0.3648 -0.1101
 3922TIP3    H111730   0.561   2.124   3.065  0.7268  1.7566  0.4083
 3922TIP3    H211731   0.471   2.116   2.944  1.2959 -0.4210  0.0993
 3923TIP3   OH211732   2.047   1.058   4.588  0.1841  0.3501 -0.0547
 3923TIP3    H111733   1.971   1.026   4.539  0.9325  2.0204 -2.4809
 3923TIP3    H211734   2.014   1.133   4.637  0.4657  1.9259 -2.1686
 3924TIP3   OH211735   0.924   1.946   2.130  0.4331 -0.2529  0.3315
 3924TIP3    H111736   0.888   1.864   2.164 -0.4347  0.0057  0.0621
 3924TIP3    H211737   0.857   1.978   2.070  0.8843  0.5265  0.2354
 3925TIP3   OH211738   3.690   4.906   3.080  0.5614 -0.1458 -0.7339
 3925TIP3    H111739   3.609   4.942   3.113  1.6304  0.9352  0.8476
 3925TIP3    H211740   3.683   4.915   2.985 -1.4843 -0.8846 -0.7019
 3926TIP3   OH211741   6.944   0.072   5.145  0.2025 -0.4412 -0.0295
 3926TIP3    H111742   6.854   0.057   5.116  0.1967 -0.6352  0.0824
 3926TIP3    H211743   6.976  -0.016   5.169  0.6327 -0.4679 -0.6824
 3927TIP3   OH211744   2.868   2.791   2.690 -0.6502  0.1421 -0.2214
 3927TIP3    H111745   2.809   2.858   2.724 -0.8245  0.8074 -1.7197
 3927TIP3    H211746   2.913   2.835   2.617 -0.0526 -1.0844 -0.6147
 3928TIP3   OH211747   6.400   1.609   4.262 -0.6479  0.0991 -0.0117
 3928TIP3    H111748   6.324   1.632   4.315 -0.1267 -1.8768  1.7608
 3928TIP3    H211749   6.386   1.516   4.241  1.3638 -0.3895  0.6153
 3929TIP3   OH211750   4.446   0.141   3.024  0.0970  0.6023 -0.2692
 3929TIP3    H111751   4.451   0.053   2.986 -0.9441  0.6302 -0.5174
 3929TIP3    H211752   4.401   0.193   2.957  0.8862  1.3750 -0.2042
 3930TIP3   OH211753   0.108   4.652   2.199  0.0252 -0.2467 -0.1725
 3930TIP3    H111754   0.113   4.601   2.118 -0.5449 -0.6616  0.0477
 3930TIP3    H211755   0.123   4.588   2.268  0.1563  0.0422  0.0687
 3931TIP3   OH211756   3.213   1.046   5.130  0.7628 -0.4906 -0.3079
 3931TIP3    H111757   3.219   1.113   5.197 -0.5665 -1.4944  0.8786
 3931TIP3    H211758   3.230   0.964   5.176  0.0265 -1.1842 -1.2231
 3932TIP3   OH211759   6.806   3.273   4.417 -0.0412  0.9250  0.1746
 3932TIP3    H111760   6.777   3.256   4.507  0.1026  0.7936  0.1980
 3932TIP3    H211761   6.800   3.188   4.374  1.6384  0.5704  0.5648
 3933TIP3   OH211762   5.529   1.598   0.025  0.0623 -0.6799  0.4915
 3933TIP3    H111763   5.489   1.550  -0.048 -0.0988  2.3290 -1.6110
 3933TIP3    H211764   5.456   1.637   0.072  0.2318 -1.6689  1.6285
 3934TIP3   OH211765   1.974   3.483   3.982 -0.3159  0.1817  0.1578
 3934TIP3    H111766   2.050   3.425   3.983  1.2390  2.1009  1.1144
 3934TIP3    H211767   1.899   3.425   3.970  1.2765 -1.7992 -0.7146
 3935TIP3   OH211768   6.360   4.755   4.883 -0.1014 -0.1243 -0.8152
 3935TIP3    H111769   6.338   4.774   4.792 -0.8952 -0.9243 -0.8050
 3935TIP3    H211770   6.453   4.733   4.881 -0.3158 -1.0263 -1.5864
 3936TIP3   OH211771   3.165   0.170   5.110  0.0035 -0.2177  0.1207
 3936TIP3    H111772   3.165   0.085   5.067  1.2528 -0.0288 -0.2866
 3936TIP3    H211773   3.086   0.170   5.164 -1.0626 -0.8654 -1.3689
 3937TIP3   OH211774   3.958   0.217   1.872 -0.1201  0.7309 -0.2566
 3937TIP3    H111775   4.051   0.197   1.884 -0.3494 -1.9156 -2.0350
 3937TIP3    H211776   3.945   0.214   1.778 -2.2713 -0.3917  0.0254
 3938TIP3   OH211777   4.104   5.207   2.007 -0.3274 -0.3304  0.1654
 3938TIP3    H111778   4.033   5.250   1.960 -1.6515 -2.3783  0.1944
 3938TIP3    H211779   4.172   5.195   1.941 -1.2413 -1.0646 -0.6768
 3939TIP3   OH211780   4.740   0.712   0.009  0.8538 -0.4280  0.1455
 3939TIP3    H111781   4.699   0.639   0.056  0.1082 -0.7415 -0.9494
 3939TIP3    H211782   4.809   0.743   0.067  0.0952 -0.9390  1.3408
 3940TIP3   OH211783   2.831   2.457   1.861 -0.2770 -0.5776 -0.0889
 3940TIP3    H111784   2.787   2.473   1.778 -0.0189 -0.6228 -0.2368
 3940TIP3    H211785   2.799   2.526   1.919  1.3667  0.9688 -0.9267
 3941TIP3   OH211786   1.810   2.444   1.448  0.1789 -0.0234 -0.1232
 3941TIP3    H111787   1.761   2.370   1.486 -0.4880 -0.2021 -1.2806
 3941TIP3    H211788   1.901   2.415   1.449 -0.1150 -1.0132 -0.8721
 3942TIP3   OH211789   2.474   2.298   2.245 -0.2862 -0.3309  0.3785
 3942TIP3    H111790   2.434   2.369   2.296  0.2818 -0.7284  1.4106
 3942TIP3    H211791   2.452   2.219   2.294 -1.3731 -0.9591 -1.0492
 3943TIP3   OH211792   1.694   0.928   1.274  0.6496 -0.0386  0.1725
 3943TIP3    H111793   1.702   0.845   1.226  1.7808  0.3163 -0.2806
 3943TIP3    H211794   1.711   0.904   1.365  0.1758 -0.4360  0.1592
 3944TIP3   OH211795   6.095   3.553   3.286 -0.3314  0.7926 -1.1200
 3944TIP3    H111796   6.059   3.465   3.302 -0.5676  0.1707 -4.3528
 3944TIP3    H211797   6.178   3.554   3.334 -0.6141 -0.9451 -0.5048
 3945TIP3   OH211798   2.577   5.270   2.490 -0.1653  0.8443  0.2627
 3945TIP3    H111799   2.528   5.259   2.408  0.6451  0.0729 -0.1321
 3945TIP3    H211800   2.525   5.224   2.556  1.4363 -2.6516 -0.7072
 3946TIP3   OH211801   7.126   6.297   0.840  0.0467 -0.8834 -0.3401
 3946TIP3    H111802   7.209   6.342   0.854  0.0277 -1.4168  1.8646
 3946TIP3    H211803   7.065   6.366   0.814  0.2658  0.2886  1.9613
 3947TIP3   OH211804   0.737   0.857   5.320  0.4505  0.7599  0.4063
 3947TIP3    H111805   0.660   0.877   5.267  1.9162  1.4915 -1.5584
 3947TIP3    H211806   0.702   0.838   5.407 -1.8822  1.8144 -0.2308
 3948TIP3   OH211807   1.640   4.709   1.363  0.1789 -0.4368  0.2700
 3948TIP3    H111808   1.571   4.751   1.415 -1.0554 -1.1160 -0.7528
 3948TIP3    H211809   1.674   4.778   1.307  1.4803  0.2915  1.8583
 3949TIP3   OH211810   3.677   4.256   5.410 -0.1154 -0.1282  0.2444
 3949TIP3    H111811   3.674   4.199   5.333  0.3519  0.8637 -0.5330
 3949TIP3    H211812   3.691   4.196   5.484  1.4520 -0.9537 -0.6550
 3950TIP3   OH211813   3.484   2.909   4.047 -0.2117 -0.2982 -0.2877
 3950TIP3    H111814   3.459   2.932   3.957 -1.7870  2.8756  0.8431
 3950TIP3    H211815   3.414   2.850   4.076  1.0549 -2.5275 -1.5018
 3951TIP3   OH211816   6.733   4.310   0.571 -0.0191 -0.5402  0.5976
 3951TIP3    H111817   6.743   4.256   0.649  0.0382 -0.0635  0.9287
 3951TIP3    H211818   6.810   4.291   0.518  0.0819 -0.6621  0.7870
 3952TIP3   OH211819   3.911   6.707   4.492  0.0567 -0.0928 -0.0295
 3952TIP3    H111820   3.996   6.693   4.452 -0.2081  0.0252 -0.6386
 3952TIP3    H211821   3.853   6.645   4.447  0.1479 -1.4210  1.5382
 3953TIP3   OH211822   1.415   5.131   3.390  0.2139  0.7682 -1.0863
 3953TIP3    H111823   1.482   5.194   3.364  0.7368  0.3820 -0.6878
 3953TIP3    H211824   1.451   5.046   3.367 -0.5336  0.6086 -1.7125
 3954TIP3   OH211825   2.097   4.737   1.938  0.4388 -0.5307 -0.2907
 3954TIP3    H111826   2.022   4.678   1.937 -0.6840  0.8359 -0.6855
 3954TIP3    H211827   2.130   4.735   1.848 -1.1595  1.2500 -1.0055
 3955TIP3   OH211828   5.380   0.825   0.648 -0.2758  0.3628  0.1607
 3955TIP3    H111829   5.387   0.782   0.733  0.9231 -0.7877 -0.4685
 3955TIP3    H211830   5.460   0.877   0.641  0.1109 -0.3061 -0.6308
 3956TIP3   OH211831   2.541   0.744   2.594 -0.1403  0.5156 -0.0517
 3956TIP3    H111832   2.589   0.770   2.515 -0.4000 -1.3835 -0.8883
 3956TIP3    H211833   2.533   0.649   2.587 -1.2187  0.4336  1.6894
 3957TIP3   OH211834   2.497   1.893   2.068  0.1736 -0.0341  0.3429
 3957TIP3    H111835   2.463   1.922   1.983  2.3709 -0.1774 -0.6367
 3957TIP3    H211836   2.548   1.815   2.047  0.3542 -0.3546  1.8927
 3958TIP3   OH211837   4.197   0.635   2.032 -0.2951 -0.3213  0.2421
 3958TIP3    H111838   4.226   0.545   2.049 -0.8982 -0.1741  2.3527
 3958TIP3    H211839   4.249   0.688   2.093  3.4129  1.4676 -3.9750
 3959TIP3   OH211840   1.638   0.696   2.309 -0.1124  0.6371 -0.1635
 3959TIP3    H111841   1.682   0.611   2.305  0.1360  0.6424  1.7956
 3959TIP3    H211842   1.668   0.742   2.230  2.0566 -0.0013  0.2354
 3960TIP3   OH211843   2.617   1.992   4.244  0.2514 -0.2031  0.2557
 3960TIP3    H111844   2.699   2.034   4.218 -0.0579  0.4095  0.2596
 3960TIP3    H211845   2.615   2.002   4.339 -0.7760  1.5662  0.0806
 3961TIP3   OH211846   4.009   5.348   3.910  0.2372  0.3802 -0.5325
 3961TIP3    H111847   4.066   5.294   3.964 -1.1217 -0.9667 -0.3752
 3961TIP3    H211848   3.983   5.420   3.968  1.1721  0.6009 -0.3753
 3962TIP3   OH211849   5.170   0.292   5.056  0.7562 -0.5105 -0.3765
 3962TIP3    H111850   5.189   0.362   5.119  3.8072  0.0994 -1.7757
 3962TIP3    H211851   5.256   0.261   5.028 -0.4302 -1.4293 -3.4510
 3963TIP3   OH211852   3.250   5.096   0.284  0.3518 -0.0532 -0.3998
 3963TIP3    H111853   3.251   5.161   0.355  2.0483 -1.4905  0.9825
 3963TIP3    H211854   3.206   5.020   0.322  0.6593 -0.5990 -1.1179
 3964TIP3   OH211855   1.017   6.080   1.149 -0.3451  0.2903  0.2035
 3964TIP3    H111856   1.009   6.073   1.244  1.7518 -1.4869  0.3333
 3964TIP3    H211857   0.932   6.051   1.116 -1.2498  1.3299  1.5003
 3965TIP3   OH211858   0.148   5.054   5.534  0.3419 -0.0852 -0.2419
 3965TIP3    H111859   0.063   5.025   5.567 -0.1300  1.3324 -0.1253
 3965TIP3    H211860   0.201   5.070   5.612  0.2725  0.2713 -0.2643
 3966TIP3   OH211861   6.784   3.125   0.692 -0.2070 -0.1053  0.3564
 3966TIP3    H111862   6.736   3.164   0.619  1.8338  1.1912 -0.3904
 3966TIP3    H211863   6.845   3.064   0.651 -0.1193 -0.5433  1.1234
 3967TIP3   OH211864   6.378   0.440   4.008 -0.0911 -0.6705  1.5568
 3967TIP3    H111865   6.346   0.350   4.003  0.2239 -0.7254 -0.9265
 3967TIP3    H211866   6.472   0.433   3.993 -0.4285  0.1969 -1.7616
 3968TIP3   OH211867   1.556   2.876   5.262 -0.4479 -0.3293 -0.0470
 3968TIP3    H111868   1.640   2.895   5.302 -1.2670  0.3718  1.4147
 3968TIP3    H211869   1.567   2.789   5.222  1.3307  0.2894 -1.0249
 3969TIP3   OH211870   0.594   2.687   4.596  0.1317  0.6159  0.1044
 3969TIP3    H111871   0.626   2.637   4.671 -3.2311 -0.1060  1.2307
 3969TIP3    H211872   0.625   2.776   4.612  2.3135 -0.1478  0.4863
 3970TIP3   OH211873   2.752   0.090   1.599  0.1930  0.2823 -0.3378
 3970TIP3    H111874   2.702   0.019   1.558  1.1011 -0.3499 -0.3899
 3970TIP3    H211875   2.710   0.104   1.683  0.0373 -0.3767 -0.2995
 3971TIP3   OH211876   3.254   0.287   4.881 -0.3813  0.2404 -0.3430
 3971TIP3    H111877   3.218   0.257   4.964  0.1650 -0.0759 -0.2161
 3971TIP3    H211878   3.328   0.229   4.864 -2.1167 -1.5324 -2.4307
 3972TIP3   OH211879   3.598   0.624   0.467 -0.0357  0.3778 -0.4519
 3972TIP3    H111880   3.603   0.569   0.546 -3.9947 -0.0971 -0.3388
 3972TIP3    H211881   3.624   0.566   0.396  0.8466 -0.0291  0.1768
 3973TIP3   OH211882   0.194   0.125   3.318  0.4206 -0.2758 -0.4973
 3973TIP3    H111883   0.289   0.126   3.312  0.3940  0.4218 -0.8776
 3973TIP3    H211884   0.164   0.162   3.234 -0.1460  0.8893  0.1930
 3974TIP3   OH211885   3.743   4.775   0.640 -0.2654 -0.0026  0.2304
 3974TIP3    H111886   3.707   4.854   0.599  1.5018  1.1416  0.7539
 3974TIP3    H211887   3.807   4.808   0.703  2.7444 -1.8756 -1.5893
 3975TIP3   OH211888   1.779   1.569   5.037  0.3387  0.0002  0.4642
 3975TIP3    H111889   1.803   1.585   5.129  0.8624 -1.3335  0.5732
 3975TIP3    H211890   1.849   1.612   4.987  0.8248 -0.4925  0.7144
 3976TIP3   OH211891   0.227   3.726   4.140 -0.0618  0.7042 -0.1516
 3976TIP3    H111892   0.255   3.751   4.228  1.8459 -0.1189 -0.4663
 3976TIP3    H211893   0.211   3.632   4.146  1.8205  0.2891 -1.0551
 3977TIP3   OH211894   6.991   6.781   0.412  0.3309 -0.0044 -0.2927
 3977TIP3    H111895   6.929   6.799   0.483  0.1188 -2.2101  0.1514
 3977TIP3    H211896   6.939   6.792   0.332  0.3306  1.5756 -0.1081
 3978TIP3   OH211897   0.882   5.197   3.472 -0.5871 -0.2038  0.4995
 3978TIP3    H111898   0.884   5.213   3.566  0.6410  0.5253  0.3735
 3978TIP3    H211899   0.974   5.178   3.449 -0.9735 -1.0595 -0.4433
 3979TIP3   OH211900   3.214   1.066   2.240 -0.3324 -0.1832 -0.4422
 3979TIP3    H111901   3.195   1.103   2.154  1.0240  2.0939  0.1509
 3979TIP3    H211902   3.156   1.114   2.299  1.9971  1.8051  0.4444
 3980TIP3   OH211903   4.912   5.192   0.625  0.5909 -0.5617 -0.2809
 3980TIP3    H111904   4.823   5.157   0.634  0.2574  0.6289  1.4872
 3980TIP3    H211905   4.938   5.215   0.714  1.2046  2.5823 -1.1520
 3981TIP3   OH211906   6.422   5.410   2.774 -0.3761  0.3749 -0.0576
 3981TIP3    H111907   6.460   5.498   2.774 -0.7476  0.6313 -2.9142
 3981TIP3    H211908   6.480   5.360   2.832  1.5575  1.8417 -0.5961
 3982TIP3   OH211909   4.886   4.183   3.976 -0.0251  0.5369  0.1721
 3982TIP3    H111910   4.981   4.189   3.969 -0.0290  1.0927  0.4851
 3982TIP3    H211911   4.853   4.240   3.907 -0.1381  0.0318 -0.1939
 3983TIP3   OH211912   5.598   4.893   5.269 -0.0236  0.3090 -0.0812
 3983TIP3    H111913   5.637   4.847   5.194 -0.7363 -2.0129  0.8734
 3983TIP3    H211914   5.668   4.897   5.333  0.3071  1.4321 -0.4985
 3984TIP3   OH211915   6.318   0.063   0.305  0.4321  0.4575  0.1795
 3984TIP3    H111916   6.328   0.155   0.326  0.8062  0.7774 -1.3386
 3984TIP3    H211917   6.408   0.030   0.298  0.3132  0.2655 -0.4709
 3985TIP3   OH211918   4.561   1.135   4.530  0.0011 -0.4173 -0.2413
 3985TIP3    H111919   4.646   1.105   4.496  0.5951 -0.0200  0.8322
 3985TIP3    H211920   4.497   1.094   4.472  0.9035 -1.2210 -0.7192
 3986TIP3   OH211921   7.127   4.118   3.989 -0.0895 -0.5194  0.5409
 3986TIP3    H111922   7.212   4.097   4.025 -0.0057 -3.0199 -0.9060
 3986TIP3    H211923   7.082   4.165   4.060  2.5640  1.2858  1.1786
 3987TIP3   OH211924   5.471   2.350   2.596 -1.0441 -0.0301 -0.2775
 3987TIP3    H111925   5.450   2.362   2.688 -0.1275  0.3422 -0.0965
 3987TIP3    H211926   5.545   2.409   2.581  0.2116 -1.6408 -0.7135
 3988TIP3   OH211927   3.684   2.658   1.629  0.0510 -0.0640  0.6230
 3988TIP3    H111928   3.726   2.741   1.607 -0.6495  0.5638  1.5638
 3988TIP3    H211929   3.608   2.653   1.571  0.5283 -0.4444  0.0158
 3989TIP3   OH211930   0.370   3.027   4.521  0.0664  0.1883  0.8493
 3989TIP3    H111931   0.436   3.059   4.459 -0.3628  1.3628  0.9697
 3989TIP3    H211932   0.377   2.932   4.517 -0.9304  0.1472 -2.0983
 3990TIP3   OH211933   5.176   3.693   5.746 -0.2650 -0.2465  0.3874
 3990TIP3    H111934   5.244   3.697   5.679 -1.0449 -1.6045 -0.5439
 3990TIP3    H211935   5.126   3.774   5.735 -1.1123 -0.9769 -1.5290
 3991TIP3   OH211936   2.897   0.181   5.792 -0.0114  0.0587  0.0924
 3991TIP3    H111937   2.954   0.128   5.736  1.8306  1.7569  0.2688
 3991TIP3    H211938   2.823   0.123   5.813 -0.7729 -0.7358 -3.9630
 3992TIP3   OH211939   1.619   4.218   5.687  0.2443  0.5135  0.0996
 3992TIP3    H111940   1.617   4.221   5.591  0.0576  1.4896  0.1162
 3992TIP3    H211941   1.574   4.299   5.714  1.1193  0.7191  0.9944
 3993TIP3   OH211942   4.598   4.874   4.609  0.3285 -0.0475 -0.3423
 3993TIP3    H111943   4.522   4.920   4.644  1.2329 -0.3876  2.2940
 3993TIP3    H211944   4.669   4.896   4.669  1.8873 -1.1783 -1.6913
 3994TIP3   OH211945   1.914   5.516   5.607  0.1256 -0.0360  0.0759
 3994TIP3    H111946   1.851   5.549   5.671  0.6422  0.3298  0.3973
 3994TIP3    H211947   1.997   5.513   5.654  0.4519 -0.0391 -0.4925
 3995TIP3   OH211948   4.775   0.148   4.131 -0.1934  0.4892  0.3136
 3995TIP3    H111949   4.719   0.165   4.207  1.6902  3.5102  1.1956
 3995TIP3    H211950   4.863   0.141   4.167  0.3507 -2.1222 -1.2584
 3996TIP3   OH211951   3.948   4.209   4.994  0.3480 -0.1482  0.5762
 3996TIP3    H111952   3.955   4.201   4.899 -1.5297  0.3589  0.3499
 3996TIP3    H211953   4.004   4.283   5.017 -1.7267  1.9281 -0.6220
 3997TIP3   OH211954   1.700   5.433   0.194  0.4144 -0.7439  0.1694
 3997TIP3    H111955   1.738   5.351   0.224 -0.2213 -0.7898  0.8666
 3997TIP3    H211956   1.646   5.408   0.119  1.2496 -0.7605 -0.4486
 3998TIP3   OH211957   5.685   5.981   0.796  0.0505  0.8197 -0.2119
 3998TIP3    H111958   5.617   5.951   0.857  0.5840  1.1204  0.5571
 3998TIP3    H211959   5.638   6.030   0.729 -0.3023  3.0593  1.5790
 3999TIP3   OH211960   6.974   4.169   2.525  0.5875  0.2710 -0.0489
 3999TIP3    H111961   7.005   4.085   2.560 -0.4409  0.0962  0.4830
 3999TIP3    H211962   6.914   4.145   2.454  1.4730  0.6002 -0.9228
 4000TIP3   OH211963   1.029   1.972   2.581 -0.4129 -0.4454  0.2059
 4000TIP3    H111964   1.001   1.974   2.673 -1.4183  0.3423 -0.1001
 4000TIP3    H211965   1.107   2.026   2.579  0.6354 -1.8788  0.9003
 4001TIP3   OH211966   2.316   4.906   0.407  0.0266 -0.0151 -0.4231
 4001TIP3    H111967   2.278   4.823   0.438  0.2258 -0.4390 -1.2846
 4001TIP3    H211968   2.402   4.882   0.373 -0.5802  0.2258 -2.2691
 4002TIP3   OH211969   1.588   5.024   2.559 -0.1901  0.6733  0.0362
 4002TIP3    H111970   1.588   4.998   2.467  0.1523  1.3813 -0.1668
 4002TIP3    H211971   1.672   5.068   2.572 -0.8249  1.8395  0.3254
 4003TIP3   OH211972   6.040   3.433   0.500  0.1029  0.1052  0.1100
 4003TIP3    H111973   5.973   3.470   0.442  1.6067  0.4481 -1.4974
 4003TIP3    H211974   6.088   3.509   0.534  0.4434 -0.1826  0.2795
 4004TIP3   OH211975   1.767   1.924   1.050  0.2458  0.7965 -0.0695
 4004TIP3    H111976   1.728   1.872   0.980  1.6947  0.0992 -0.3924
 4004TIP3    H211977   1.772   1.864   1.125 -1.2767  1.5320  0.6521
 4005TIP3   OH211978   6.603   2.700   2.371 -0.2771  0.6239  0.1378
 4005TIP3    H111979   6.693   2.668   2.384  0.0487  2.0653  1.8895
 4005TIP3    H211980   6.554   2.663   2.445 -1.6812 -1.7484 -1.8256
 4006TIP3   OH211981   6.204   5.596   5.367 -0.1219 -0.1864  0.0095
 4006TIP3    H111982   6.134   5.549   5.321 -1.1983  0.0788  1.3084
 4006TIP3    H211983   6.213   5.551   5.450 -0.5021  1.2820  0.8850
 4007TIP3   OH211984   0.420   0.226   3.855  0.5623  0.4530 -0.0491
 4007TIP3    H111985   0.451   0.220   3.946  1.1150 -2.8956 -0.3364
 4007TIP3    H211986   0.496   0.201   3.803 -0.3451  0.2572 -1.3079
 4008TIP3   OH211987   1.281   3.364   5.158 -0.3258 -0.0001  0.7437
 4008TIP3    H111988   1.367   3.348   5.120 -0.1395  1.1399  0.6521
 4008TIP3    H211989   1.229   3.288   5.131  0.7904 -0.9951  1.3041
 4009TIP3   OH211990   7.040   5.145   0.144  0.7671 -0.1858 -0.3893
 4009TIP3    H111991   7.019   5.236   0.121  2.4853  0.5702  0.7642
 4009TIP3    H211992   6.991   5.130   0.225 -0.0903 -0.5742 -0.9601
 4010TIP3   OH211993   6.045   1.551   0.593  0.5730 -0.6380  0.6708
 4010TIP3    H111994   6.007   1.577   0.677  0.5420  0.8848  0.2202
 4010TIP3    H211995   6.131   1.593   0.592  0.3423 -0.1517 -0.2811
 4011TIP3   OH211996   0.290   6.671   1.265  0.4059  0.5702 -0.1672
 4011TIP3    H111997   0.238   6.602   1.224 -1.8694  2.3501 -0.4875
 4011TIP3    H211998   0.311   6.732   1.193 -1.2171  2.2878  0.7278
 4012TIP3   OH211999   6.951   4.505   1.807  0.3888  0.8083 -0.2722
 4012TIP3    H112000   6.956   4.598   1.787  1.3409  0.5972 -1.1157
 4012TIP3    H212001   7.042   4.478   1.818  0.0879  0.1319  0.7650
 4013TIP3   OH212002   1.135   6.439   3.002  0.6443  0.5741  0.2252
 4013TIP3    H112003   1.137   6.348   2.972  1.7932  0.4451  0.6499
 4013TIP3    H212004   1.059   6.443   3.061  0.4100 -0.0317 -0.0303
 4014TIP3   OH212005   2.826   2.712   4.715 -0.3320  0.3192  0.5961
 4014TIP3    H112006   2.836   2.619   4.734 -0.7937  0.1861  0.1681
 4014TIP3    H212007   2.868   2.756   4.790  2.2008 -0.2228 -0.4169
 4015TIP3   OH212008   2.006   0.608   4.824  0.0793 -0.3993 -0.7659
 4015TIP3    H112009   1.949   0.535   4.798  1.1546 -0.8486 -1.9434
 4015TIP3    H212010   2.034   0.647   4.742  1.8304 -0.4853 -0.2439
 4016TIP3   OH212011   3.290   6.104   0.249  0.5248  0.4637 -0.0264
 4016TIP3    H112012   3.296   6.148   0.333  2.2403 -1.3145  0.8573
 4016TIP3    H212013   3.197   6.079   0.242 -0.3461  3.4188 -0.2433
 4017TIP3   OH212014   3.507   5.594   1.707  0.0830  0.2723  0.0161
 4017TIP3    H112015   3.429   5.649   1.699 -1.1692 -1.3594  0.5283
 4017TIP3    H212016   3.476   5.505   1.694  1.7687 -0.4839  0.7752
 4018TIP3   OH212017   1.144   1.354   5.578 -0.3731 -0.1227 -0.4129
 4018TIP3    H112018   1.208   1.283   5.584  0.1854  0.3094 -1.0521
 4018TIP3    H212019   1.061   1.311   5.561 -0.5868 -0.8158  2.0595
 4019TIP3   OH212020   3.001   3.967   4.955  0.1828 -0.2013 -0.2265
 4019TIP3    H112021   2.934   3.921   4.904 -0.5301 -0.4140  0.8539
 4019TIP3    H212022   3.006   4.054   4.915 -1.3914  0.1188  0.2000
 4020TIP3   OH212023   2.845   3.534   4.737  0.2453  0.4431 -0.2705
 4020TIP3    H112024   2.904   3.586   4.683 -0.1119 -0.0910 -1.2153
 4020TIP3    H212025   2.888   3.449   4.744 -0.7394 -0.2242 -1.6669
 4021TIP3   OH212026   2.407   2.322   1.576 -0.0041 -0.2461 -0.0150
 4021TIP3    H112027   2.371   2.243   1.537 -0.1040 -0.2016 -0.0148
 4021TIP3    H212028   2.409   2.304   1.670 -1.5313  0.3367  0.1552
 4022TIP3   OH212029   3.068   0.389   4.387  0.0039  0.7717 -0.0692
 4022TIP3    H112030   2.973   0.378   4.384  0.1841 -1.2341  0.4969
 4022TIP3    H212031   3.099   0.354   4.303  0.4580 -1.7616  1.0692
 4023TIP3   OH212032   3.040   4.438   0.715 -0.0195 -0.1389  0.2112
 4023TIP3    H112033   2.959   4.433   0.665  0.0738 -0.4755  0.0936
 4023TIP3    H212034   3.098   4.493   0.662  0.9939 -2.5595 -1.3507
 4024TIP3   OH212035   0.599   4.088   0.481 -0.3294  0.3819  0.2660
 4024TIP3    H112036   0.642   4.022   0.427 -1.3217 -0.6128  0.6525
 4024TIP3    H212037   0.667   4.118   0.541 -0.1452 -1.1671  0.8735
 4025TIP3   OH212038   3.763   4.019   4.731  0.0354 -0.1111 -0.1687
 4025TIP3    H112039   3.702   3.974   4.672 -1.9686  2.7862 -0.5265
 4025TIP3    H212040   3.717   4.022   4.815  0.1510  1.1126 -0.1319
 4026TIP3   OH212041   6.681   5.266  -0.017  0.0886  0.3101  0.0033
 4026TIP3    H112042   6.593   5.242  -0.046 -0.0733  1.2982 -0.3715
 4026TIP3    H212043   6.678   5.256   0.078 -0.2993 -0.0762 -0.0448
 4027TIP3   OH212044   0.950   6.491   3.186 -0.5089  0.5015  0.7636
 4027TIP3    H112045   0.922   6.424   3.248  0.4776 -0.1002  0.5879
 4027TIP3    H212046   0.917   6.574   3.222 -2.1663 -0.1146  0.7300
 4028TIP3   OH212047   2.944   0.960   2.404  0.2199  0.0661 -0.0012
 4028TIP3    H112048   2.952   1.025   2.334  2.0245  1.0040  0.9989
 4028TIP3    H212049   2.994   0.885   2.373  0.8093  0.3865  0.1529
 4029TIP3   OH212050   3.687   0.873   5.164 -0.2810 -0.1688 -0.0574
 4029TIP3    H112051   3.651   0.960   5.147  0.7076  0.8061  2.3604
 4029TIP3    H212052   3.782   0.884   5.155  0.0382 -0.3580  2.3919
 4030TIP3   OH212053   0.469   0.489   1.514 -0.5552  0.3851  0.1527
 4030TIP3    H112054   0.443   0.474   1.423 -0.1772  0.7268 -0.0189
 4030TIP3    H212055   0.561   0.515   1.508 -0.4518  0.1381  0.6572
 4031TIP3   OH212056   5.762   4.805   2.929 -0.0309 -0.2189 -0.1300
 4031TIP3    H112057   5.847   4.844   2.946 -1.2379  1.6212  2.5742
 4031TIP3    H212058   5.711   4.876   2.889 -0.5325 -1.0603 -1.0233
 4032TIP3   OH212059   1.571   0.827   4.425  0.0217 -0.3826 -0.3792
 4032TIP3    H112060   1.496   0.817   4.484  0.1566 -0.6675 -0.2564
 4032TIP3    H212061   1.532   0.828   4.338 -0.3315  1.4853 -0.2444
 4033TIP3   OH212062   0.903   5.503   1.651 -0.3062  0.0398 -0.3300
 4033TIP3    H112063   0.898   5.577   1.592 -0.3903  0.5481  0.3040
 4033TIP3    H212064   0.901   5.541   1.739 -2.5317 -0.7893  0.0556
 4034TIP3   OH212065   4.569   4.317   2.428 -0.5387  0.0512 -0.4286
 4034TIP3    H112066   4.492   4.317   2.484  0.3335 -0.0570  0.8063
 4034TIP3    H212067   4.538   4.352   2.344 -1.4659  2.1353  0.6987
 4035TIP3   OH212068   3.107   6.782   2.041  0.1694  0.1578 -0.0721
 4035TIP3    H112069   3.196   6.749   2.052 -0.3114 -1.0108  0.4947
 4035TIP3    H212070   3.110   6.872   2.072  0.8785 -0.2595  1.1065
 4036TIP3   OH212071   0.712   1.451   1.991  0.6279 -0.1075 -0.2955
 4036TIP3    H112072   0.636   1.419   2.040  0.9526 -2.1280 -1.0347
 4036TIP3    H212073   0.734   1.534   2.034 -0.1722 -0.9182  1.8340
 4037TIP3   OH212074   3.366   1.071   3.448  0.1703  0.0937 -0.2038
 4037TIP3    H112075   3.325   1.069   3.535  1.2653 -1.7615  0.3522
 4037TIP3    H212076   3.294   1.056   3.387 -0.5277  0.8007  0.4181
 4038TIP3   OH212077   6.178   2.357   2.708  0.0299  0.4681  0.2854
 4038TIP3    H112078   6.205   2.449   2.702 -0.6907  0.7993  1.7458
 4038TIP3    H212079   6.083   2.360   2.705 -0.2055  0.1408  3.6795
 4039TIP3   OH212080   1.585   2.069   5.839  0.2886  0.1560 -0.4952
 4039TIP3    H112081   1.667   2.068   5.888 -0.3750 -1.6132  0.6886
 4039TIP3    H212082   1.521   2.031   5.899 -1.9250  3.3779 -0.5652
 4040TIP3   OH212083   1.631   3.779   4.599  0.3259  0.0785 -0.6172
 4040TIP3    H112084   1.588   3.693   4.594 -0.0233  0.1478  0.7656
 4040TIP3    H212085   1.704   3.773   4.538  1.8808 -2.1362  1.2793
 4041TIP3   OH212086   5.367   4.954   0.448 -0.3184  0.0503  0.3625
 4041TIP3    H112087   5.436   4.982   0.388  0.2029  0.0486  0.9568
 4041TIP3    H212088   5.301   5.023   0.443 -0.0936  0.2462  0.0889
 4042TIP3   OH212089   5.612   5.811   2.855  1.0190  0.3887 -0.4484
 4042TIP3    H112090   5.613   5.906   2.863  0.1679  0.3524  0.1545
 4042TIP3    H212091   5.703   5.785   2.865  1.1262  1.0614  0.4038
 4043TIP3   OH212092   2.447   4.970   4.619 -0.0097 -0.4447 -0.4751
 4043TIP3    H112093   2.428   4.878   4.637  0.8111 -0.5405 -0.0329
 4043TIP3    H212094   2.443   5.013   4.705  2.0864 -0.5519 -0.2638
 4044TIP3   OH212095   1.283   1.519   3.697 -0.1590  0.5557 -1.0530
 4044TIP3    H112096   1.301   1.589   3.634  2.2868 -0.6414 -1.7827
 4044TIP3    H212097   1.364   1.468   3.701  0.0158  0.7937  3.4133
 4045TIP3   OH212098   6.581   6.635   3.887  0.6478  0.2077 -0.0127
 4045TIP3    H112099   6.558   6.557   3.835  1.5506  0.4903 -0.8612
 4045TIP3    H212100   6.574   6.605   3.978  0.6953 -0.7861 -0.3172
 4046TIP3   OH212101   2.724   2.157   4.775  0.1243 -0.1806 -0.0041
 4046TIP3    H112102   2.725   2.077   4.827  1.9815 -0.4210 -0.3204
 4046TIP3    H212103   2.812   2.193   4.785 -0.4829  1.5065 -0.3671
 4047TIP3   OH212104   5.493   1.394   5.250 -0.6120 -1.1747 -0.0025
 4047TIP3    H112105   5.565   1.354   5.298  0.2681 -2.4603 -2.2459
 4047TIP3    H212106   5.512   1.488   5.252 -0.4839 -1.1960  1.8435
 4048TIP3   OH212107   4.772   0.423   0.975  0.4997  0.1192  0.3063
 4048TIP3    H112108   4.857   0.422   1.019  0.7875  2.9895  0.0359
 4048TIP3    H212109   4.780   0.492   0.909 -2.1194  0.7311  0.4861
 4049TIP3   OH212110   2.574   0.637   5.590  0.3870  0.3704  0.4156
 4049TIP3    H112111   2.648   0.583   5.563 -0.0573  0.9762 -2.3200
 4049TIP3    H212112   2.571   0.708   5.526 -2.7947  0.1041  0.0748
 4050TIP3   OH212113   5.606   1.964   3.786 -0.5116 -0.4058 -0.5144
 4050TIP3    H112114   5.668   1.955   3.713 -0.9761  0.1275 -0.9894
 4050TIP3    H212115   5.589   1.875   3.815 -1.1764 -0.7312 -1.8059
 4051TIP3   OH212116   3.500   2.331   3.612  0.1454 -0.0252 -0.0043
 4051TIP3    H112117   3.543   2.261   3.661  0.4015  0.4700  0.4985
 4051TIP3    H212118   3.512   2.409   3.666 -2.2460 -0.0324  0.6349
 4052TIP3   OH212119   6.570   4.815   3.771  0.5164 -0.6177 -0.3157
 4052TIP3    H112120   6.640   4.875   3.745  0.5128 -0.4153  0.1197
 4052TIP3    H212121   6.587   4.798   3.864 -1.0221  0.8917  0.3130
 4053TIP3   OH212122   4.496   4.351   0.344 -0.3894  0.3352 -0.7779
 4053TIP3    H112123   4.489   4.446   0.342  0.1280  0.3590 -1.4822
 4053TIP3    H212124   4.457   4.322   0.262 -0.7310 -0.0818 -0.4788
 4054TIP3   OH212125   7.045   1.730   0.881  0.1350 -0.5331 -0.3939
 4054TIP3    H112126   7.012   1.734   0.791  2.4968  0.0261 -1.3113
 4054TIP3    H212127   7.002   1.803   0.925  1.4927  1.4332 -2.0773
 4055TIP3   OH212128   1.622   4.825   4.641 -0.1257 -0.0679 -0.0680
 4055TIP3    H112129   1.651   4.744   4.599 -1.5794 -0.8047  0.2712
 4055TIP3    H212130   1.587   4.797   4.726  0.4762  1.0781  0.5857
 4056TIP3   OH212131   6.408   6.049   1.485 -0.8048  0.5863  0.3136
 4056TIP3    H112132   6.478   6.105   1.451 -1.3749  0.5530 -0.9832
 4056TIP3    H212133   6.452   5.966   1.504 -0.4606  0.5704 -0.4727
 4057TIP3   OH212134   3.563   6.519   4.557 -0.3446  0.5022 -0.4798
 4057TIP3    H112135   3.632   6.463   4.523  0.8523  2.0178 -0.6923
 4057TIP3    H212136   3.576   6.518   4.652  0.6493  1.5330 -0.5719
 4058TIP3   OH212137   3.832   2.391   0.213 -0.0278  0.0190  0.1979
 4058TIP3    H112138   3.865   2.328   0.276  0.7459  1.3653  1.1808
 4058TIP3    H212139   3.794   2.461   0.266 -0.5925  0.5375 -0.8518
 4059TIP3   OH212140   5.571   5.092   2.964  0.2114  0.2945 -0.1618
 4059TIP3    H112141   5.491   5.134   2.996  0.1374 -0.6480  0.9608
 4059TIP3    H212142   5.589   5.135   2.881 -0.3662  1.8812  0.5062
 4060TIP3   OH212143   2.580   1.823   1.683  0.0238 -0.0192 -0.3220
 4060TIP3    H112144   2.632   1.834   1.604 -1.1235  1.1552 -0.9491
 4060TIP3    H212145   2.553   1.911   1.707 -0.4507 -0.4502  0.8284
 4061TIP3   OH212146   4.833   3.966   4.408 -0.0231  0.3172 -0.0245
 4061TIP3    H112147   4.757   3.939   4.459 -0.6134  0.6875 -0.6783
 4061TIP3    H212148   4.825   4.061   4.402 -1.5891  0.1401 -3.1494
 4062TIP3   OH212149   6.537   6.192   5.547  0.0926 -0.0094  0.4151
 4062TIP3    H112150   6.472   6.137   5.589  1.0031 -1.4425 -0.0017
 4062TIP3    H212151   6.617   6.178   5.598  0.7652 -0.4089 -0.7158
 4063TIP3   OH212152   3.619   1.543   1.565  0.1211 -0.2303 -0.6880
 4063TIP3    H112153   3.561   1.508   1.634 -0.8419  1.5076 -0.5597
 4063TIP3    H212154   3.560   1.591   1.507  1.5756  3.0631  0.3736
 4064TIP3   OH212155   5.061   5.068   1.264 -0.3399  0.4091 -0.3504
 4064TIP3    H112156   5.099   5.019   1.191  2.2620  1.4517  0.1941
 4064TIP3    H212157   5.012   5.003   1.314  0.7889 -1.0709 -1.1024
 4065TIP3   OH212158   4.804   4.246   0.194 -0.3481 -0.3189 -0.9555
 4065TIP3    H112159   4.761   4.163   0.216  0.4483  0.0027  2.4321
 4065TIP3    H212160   4.867   4.223   0.126  0.0518 -2.6198  0.0798
 4066TIP3   OH212161   2.425   5.368   5.424  0.3415 -0.2720 -0.0539
 4066TIP3    H112162   2.435   5.320   5.507 -0.9671 -0.1262  0.2172
 4066TIP3    H212163   2.486   5.325   5.364  0.7135 -0.9171  0.7583
 4067TIP3   OH212164   2.209   3.314   2.740  0.4019 -0.1495  0.2164
 4067TIP3    H112165   2.192   3.321   2.834  1.1133 -0.9045  0.4130
 4067TIP3    H212166   2.293   3.268   2.735  0.3203 -0.1966 -0.7934
 4068TIP3   OH212167   5.705   2.634   4.112  0.1423 -0.2505  0.3216
 4068TIP3    H112168   5.688   2.586   4.193  1.0072  0.0187  0.6754
 4068TIP3    H212169   5.635   2.700   4.107  0.5134  0.2172  1.2336
 4069TIP3   OH212170   4.996   0.327   1.093 -0.4577  0.0381 -0.2083
 4069TIP3    H112171   5.039   0.246   1.121 -1.9021 -0.6861 -0.0020
 4069TIP3    H212172   5.062   0.395   1.107  1.5424 -1.3104 -2.2858
 4070TIP3   OH212173   3.717   2.620   3.478 -0.0820  0.2523 -0.4564
 4070TIP3    H112174   3.643   2.610   3.539  0.9551 -0.5512  0.7369
 4070TIP3    H212175   3.753   2.531   3.471 -0.0958  0.3616 -2.1677
 4071TIP3   OH212176   5.218   0.784   0.177  0.3791 -0.1574  0.1580
 4071TIP3    H112177   5.221   0.859   0.118  2.6930  1.0891  1.7088
 4071TIP3    H212178   5.220   0.822   0.265  1.9236 -1.9994  0.9997
 4072TIP3   OH212179   7.080   6.725   3.476  0.0536  0.2366 -0.6182
 4072TIP3    H112180   6.992   6.694   3.458  0.9536 -1.7074 -1.9873
 4072TIP3    H212181   7.092   6.712   3.570 -0.2917 -1.8394 -0.8224
 4073TIP3   OH212182   4.481   4.260   5.526 -0.3190 -0.2793  0.1186
 4073TIP3    H112183   4.470   4.215   5.610 -0.1608 -2.2664 -0.8619
 4073TIP3    H212184   4.489   4.189   5.462  0.6367  1.1633 -1.4450
 4074TIP3   OH212185   1.019   4.470   2.264 -0.6384 -0.0076  0.1066
 4074TIP3    H112186   0.949   4.517   2.310 -1.1889  0.4257 -1.1338
 4074TIP3    H212187   1.086   4.536   2.247 -0.3146 -0.2261  0.5164
 4075TIP3   OH212188   6.547   3.898   4.564  0.6248  0.0397 -0.0291
 4075TIP3    H112189   6.579   3.951   4.492  1.1025 -0.2214 -0.0150
 4075TIP3    H212190   6.586   3.937   4.642  1.4348 -0.6452 -0.0666
 4076TIP3   OH212191   3.666   3.046   4.221  0.4939 -0.3744  0.3961
 4076TIP3    H112192   3.600   2.998   4.171  0.1226 -0.9755  1.4276
 4076TIP3    H212193   3.615   3.109   4.273  0.9975  1.4599 -1.2126
 4077TIP3   OH212194   3.313   4.541   3.310  0.0778 -0.3650  0.0310
 4077TIP3    H112195   3.337   4.448   3.311  1.2834 -0.1500  3.0166
 4077TIP3    H212196   3.384   4.583   3.262 -0.6253 -0.9788 -1.5971
 4078TIP3   OH212197   6.735   0.146   2.567 -0.4036 -0.2293 -0.3842
 4078TIP3    H112198   6.694   0.228   2.594 -0.7666 -0.9494  1.3747
 4078TIP3    H212199   6.696   0.080   2.623  1.6225 -1.2576 -0.1077
 4079TIP3   OH212200   5.095   4.875   0.400  0.2114 -0.3932 -0.2219
 4079TIP3    H112201   5.190   4.871   0.404  0.2218 -2.7580 -1.1027
 4079TIP3    H212202   5.068   4.785   0.379 -2.2240  0.1701  0.1510
 4080TIP3   OH212203   5.775   4.575   0.569  0.3283  0.0414  0.1183
 4080TIP3    H112204   5.683   4.586   0.592  0.4059  0.5306  0.1998
 4080TIP3    H212205   5.812   4.527   0.643  0.1317 -0.1959  0.0656
 4081TIP3   OH212206   3.689   1.287   1.189  0.1359  0.5780 -0.2994
 4081TIP3    H112207   3.653   1.371   1.163 -1.3722 -0.1459 -0.6112
 4081TIP3    H212208   3.680   1.286   1.285 -1.2662  0.1677 -0.4151
 4082TIP3   OH212209   5.718   3.983   1.178 -0.6033  0.0921 -0.1575
 4082TIP3    H112210   5.658   4.005   1.107  0.7980  0.3686 -1.3165
 4082TIP3    H212211   5.779   3.920   1.139 -1.6058 -2.2015  1.6988
 4083TIP3   OH212212   5.283   4.422   2.479 -0.3103 -0.0725 -0.0213
 4083TIP3    H112213   5.301   4.513   2.455  0.8242 -0.4506 -0.6985
 4083TIP3    H212214   5.191   4.422   2.506 -0.9227  0.8939 -1.9230
 4084TIP3   OH212215   1.795   2.232   0.999 -0.2972  0.2077  0.4076
 4084TIP3    H112216   1.848   2.301   1.039  1.2418 -0.8835  0.3712
 4084TIP3    H212217   1.827   2.151   1.040 -1.5268 -0.5554 -0.0867
 4085TIP3   OH212218   0.321   3.730   5.369  0.0272  0.3969  0.1883
 4085TIP3    H112219   0.385   3.711   5.300 -0.9485  2.3309 -1.3498
 4085TIP3    H212220   0.375   3.760   5.443  1.0457 -1.0381  0.0877
 4086TIP3   OH212221   1.899   0.471   4.093 -0.3917  0.4549  0.2455
 4086TIP3    H112222   1.808   0.467   4.067 -0.3598  2.0011 -0.2138
 4086TIP3    H212223   1.897   0.505   4.183 -0.2376  3.0717 -0.6445
 4087TIP3   OH212224   4.199   5.795   2.631  0.4966 -0.4492 -0.2450
 4087TIP3    H112225   4.166   5.855   2.564  0.1373 -0.5672 -0.1769
 4087TIP3    H212226   4.291   5.817   2.640 -0.1119  1.8548  1.5699
 4088TIP3   OH212227   0.440   5.152   3.168 -0.2709 -0.1594 -0.4825
 4088TIP3    H112228   0.489   5.136   3.249 -0.8346 -1.2325 -0.3460
 4088TIP3    H212229   0.502   5.133   3.098 -0.6227 -2.0797 -0.3179
 4089TIP3   OH212230   0.201   3.232   0.337  0.3221  0.1350 -0.3063
 4089TIP3    H112231   0.111   3.264   0.334  0.0301 -0.1706  2.6595
 4089TIP3    H212232   0.202   3.169   0.408  2.4616 -1.4326 -1.5883
 4090TIP3   OH212233   4.657   2.989   0.001 -0.0951 -0.0373  0.2555
 4090TIP3    H112234   4.653   2.959   0.092  1.4388  1.0521  0.7311
 4090TIP3    H212235   4.607   3.071   0.000  0.1370  0.1061  0.1993
 4091TIP3   OH212236   4.926   5.327   3.609  0.2004  0.0339  0.0986
 4091TIP3    H112237   4.937   5.281   3.525  0.5798 -3.1758  1.7416
 4091TIP3    H212238   4.831   5.333   3.620  0.1175 -1.1348  0.1771
 4092TIP3   OH212239   2.163   4.597   1.121  0.0567 -0.4185  0.0128
 4092TIP3    H112240   2.145   4.571   1.030  1.8977 -0.8005 -0.2724
 4092TIP3    H212241   2.256   4.617   1.122  0.0515 -0.3641  1.8358
 4093TIP3   OH212242   6.480   3.113   5.544 -0.0403 -0.3423 -0.0065
 4093TIP3    H112243   6.488   3.169   5.621  0.1546  1.7245 -1.4489
 4093TIP3    H212244   6.570   3.106   5.510 -0.2978 -0.1355 -0.7581
 4094TIP3   OH212245   2.190   6.686   1.814 -0.0759  0.2620 -0.3816
 4094TIP3    H112246   2.244   6.658   1.740 -0.4584  1.6550 -1.2189
 4094TIP3    H212247   2.224   6.636   1.888  1.7224  0.3964 -1.0649
 4095TIP3   OH212248   2.663   6.459   3.968  0.3050 -0.2268  0.4007
 4095TIP3    H112249   2.609   6.400   3.916 -0.0554  1.2026 -0.9195
 4095TIP3    H212250   2.751   6.449   3.932  0.9617 -2.3225  2.3464
 4096TIP3   OH212251   1.881   4.492   4.840 -0.0611  0.2580 -0.4820
 4096TIP3    H112252   1.908   4.557   4.904  1.4383  1.0035 -1.8243
 4096TIP3    H212253   1.918   4.410   4.871  0.6556  0.6162 -0.3877
 4097TIP3   OH212254   1.661   3.236   2.182  0.2926  0.5775  0.1458
 4097TIP3    H112255   1.571   3.251   2.210  0.1113 -1.0044  0.5482
 4097TIP3    H212256   1.709   3.312   2.213 -0.7494  1.0196  0.7266
 4098TIP3   OH212257   3.884   5.460   1.598  0.2376  0.4252  0.7940
 4098TIP3    H112258   3.793   5.440   1.576  0.2142  1.9079 -0.6704
 4098TIP3    H212259   3.925   5.374   1.608 -0.2492 -0.4903 -3.2787
 4099TIP3   OH212260   4.394   1.301   2.577  0.0077  0.3585  0.2486
 4099TIP3    H112261   4.431   1.272   2.660 -0.5279  1.6084  0.9665
 4099TIP3    H212262   4.304   1.267   2.578 -1.5033  3.8002  2.2561
 4100TIP3   OH212263   3.064   6.741   2.985  0.5284  0.6053 -0.4884
 4100TIP3    H112264   3.049   6.651   3.014 -0.7178  0.7559 -0.6205
 4100TIP3    H212265   3.102   6.732   2.897  0.7011  0.2117 -0.3769
 4101TIP3   OH212266   3.988   2.922   2.598  0.0081  0.0181 -0.2266
 4101TIP3    H112267   4.082   2.933   2.611  0.0591 -0.1792 -0.4182
 4101TIP3    H212268   3.981   2.850   2.535 -0.3853 -2.5907  2.5688
 4102TIP3   OH212269   3.165   4.004   1.956  0.2236  1.0193 -0.4926
 4102TIP3    H112270   3.139   3.931   1.899 -0.0502  1.4535 -0.9352
 4102TIP3    H212271   3.109   4.077   1.928  1.3100  1.7399 -0.8621
 4103TIP3   OH212272   0.544   4.247   3.699 -0.3117 -0.1556 -0.6948
 4103TIP3    H112273   0.602   4.219   3.628  2.1935  0.4642  1.0016
 4103TIP3    H212274   0.481   4.174   3.707  0.8480 -1.3646 -1.8961
 4104TIP3   OH212275   2.327   5.549   0.148 -0.3287  0.5117 -0.6344
 4104TIP3    H112276   2.393   5.616   0.131 -0.2046  0.2661 -1.1249
 4104TIP3    H212277   2.272   5.549   0.069  0.5200 -0.9569 -1.2542
 4105TIP3   OH212278   3.186   2.817   0.700  0.4076  0.6079 -0.0462
 4105TIP3    H112279   3.248   2.819   0.773 -0.7313  0.0574  0.9715
 4105TIP3    H212280   3.142   2.902   0.703 -0.8592 -0.0413  1.0473
 4106TIP3   OH212281   6.307   4.725   5.817 -0.3188 -0.5891  0.1982
 4106TIP3    H112282   6.223   4.737   5.772 -0.2654  2.0212  0.6230
 4106TIP3    H212283   6.349   4.811   5.812  1.4826 -1.3139  1.7015
 4107TIP3   OH212284   3.214   5.642   3.580  0.3283 -0.1582 -0.0182
 4107TIP3    H112285   3.269   5.567   3.600 -0.2146 -0.1253  1.8180
 4107TIP3    H212286   3.141   5.607   3.529 -0.3386 -1.0499  1.4980
 4108TIP3   OH212287   3.128   2.702   5.923 -0.0915  0.2346 -0.1994
 4108TIP3    H112288   3.137   2.620   5.874  0.4431 -0.1457  0.5218
 4108TIP3    H212289   3.157   2.770   5.862  2.6977 -0.4297  0.2890
 4109TIP3   OH212290   6.874   2.731   0.792 -0.2686  0.1182 -0.0383
 4109TIP3    H112291   6.870   2.661   0.856  1.2067 -0.5697 -0.6634
 4109TIP3    H212292   6.920   2.802   0.837 -1.2260  0.4927  0.3879
 4110TIP3   OH212293   3.291   4.226   4.529  0.1629 -0.3090 -0.3695
 4110TIP3    H112294   3.271   4.244   4.437 -1.2448  2.5384  0.3862
 4110TIP3    H212295   3.234   4.153   4.552  0.6011 -1.1155 -1.7546
 4111TIP3   OH212296   0.685   4.218   4.050  0.4856 -0.0283 -0.5836
 4111TIP3    H112297   0.650   4.137   4.012  0.4431 -0.1996 -0.1793
 4111TIP3    H212298   0.671   4.284   3.982 -1.6088  0.1532 -0.0472
 4112TIP3   OH212299   4.180   1.295   0.704 -0.7981  0.2852  0.5524
 4112TIP3    H112300   4.232   1.343   0.639 -0.4376 -0.0160  0.6153
 4112TIP3    H212301   4.130   1.232   0.653  0.4788 -0.8642  0.6665
 4113TIP3   OH212302   7.131   0.312   1.187  0.4977 -0.1410 -0.1042
 4113TIP3    H112303   7.098   0.248   1.250  2.3484 -1.4641 -0.3774
 4113TIP3    H212304   7.101   0.280   1.102 -0.6982  0.7905 -0.0554
 4114TIP3   OH212305   1.583   0.199   4.933 -0.1615 -0.8140 -0.0089
 4114TIP3    H112306   1.510   0.159   4.979 -0.2969 -2.0451 -1.2255
 4114TIP3    H212307   1.645   0.127   4.918  1.3685  0.2112  1.0673
 4115TIP3   OH212308   2.424   6.289   0.179  0.0388  0.2813 -0.0885
 4115TIP3    H112309   2.396   6.380   0.168  0.6498  0.7213  1.6180
 4115TIP3    H212310   2.385   6.263   0.263  0.9327 -0.5984  0.0650
 4116TIP3   OH212311   1.287   0.098   4.733  0.1292  0.5908  0.3540
 4116TIP3    H112312   1.246   0.067   4.653  0.4991 -0.4304  0.5371
 4116TIP3    H212313   1.241   0.052   4.804  1.0213  0.0487  0.6030
 4117TIP3   OH212314   4.692   0.566   5.076 -0.0189  0.1403 -0.0064
 4117TIP3    H112315   4.676   0.472   5.065 -1.2443  0.3319  0.0045
 4117TIP3    H212316   4.739   0.572   5.159  0.4426 -0.4953 -0.2132
 4118TIP3   OH212317   1.396   2.594   1.166 -0.3156 -0.3212 -0.1507
 4118TIP3    H112318   1.406   2.671   1.111 -0.9266  0.0022  0.1843
 4118TIP3    H212319   1.425   2.521   1.111 -2.7707 -0.2782 -1.6564
 4119TIP3   OH212320   2.260   0.965   0.794  0.1476 -0.2042 -0.2926
 4119TIP3    H112321   2.232   0.961   0.703 -0.2527  0.1546 -0.1879
 4119TIP3    H212322   2.356   0.969   0.790  0.1353 -0.2927 -0.6913
 4120TIP3   OH212323   2.972   2.168   2.508 -0.4817 -0.0036  0.0487
 4120TIP3    H112324   2.978   2.094   2.447  0.2137 -0.6102  0.8243
 4120TIP3    H212325   2.881   2.169   2.536 -1.0674  0.9094 -1.7284
 4121TIP3   OH212326   6.717   1.747   1.372 -0.1539 -0.1088  0.1675
 4121TIP3    H112327   6.713   1.705   1.459  0.6919 -0.7486 -0.0925
 4121TIP3    H212328   6.700   1.676   1.311 -0.1587  0.2264 -0.2206
 4122TIP3   OH212329   6.393   5.122   0.801  0.3290 -0.6164 -0.1501
 4122TIP3    H112330   6.445   5.179   0.858  2.2384 -0.7542 -1.6520
 4122TIP3    H212331   6.401   5.160   0.714 -0.6414 -1.6562 -0.7271
 4123TIP3   OH212332   4.596   0.161   3.543 -0.4386 -0.1296  0.0720
 4123TIP3    H112333   4.614   0.067   3.552  1.1433 -0.0997 -2.1458
 4123TIP3    H212334   4.612   0.180   3.451 -1.5866  2.1778  0.2815
 4124TIP3   OH212335   3.021   0.669   4.935 -0.1375  0.0802  0.1043
 4124TIP3    H112336   3.060   0.703   4.855  0.0068 -0.4932 -0.0725
 4124TIP3    H212337   2.928   0.691   4.926 -0.0719  0.3049 -0.0657
 4125TIP3   OH212338   1.627   1.017   3.533  0.2542  0.0053 -0.3078
 4125TIP3    H112339   1.560   0.949   3.535 -1.0380  1.2549 -0.0610
 4125TIP3    H212340   1.707   0.971   3.504 -0.6147 -1.5615 -0.3068
 4126TIP3   OH212341   2.328   4.297   3.979 -0.1747 -0.1552 -0.3247
 4126TIP3    H112342   2.397   4.355   4.012 -2.2449  2.3202  0.0361
 4126TIP3    H212343   2.310   4.329   3.890 -2.1373  0.5998  0.2892
 4127TIP3   OH212344   4.059   2.981   3.950  0.1774  0.1459 -0.0466
 4127TIP3    H112345   4.121   2.907   3.952  0.0111 -0.0586 -1.4313
 4127TIP3    H212346   4.025   2.986   4.039 -0.4602 -2.0164 -0.1078
 4128TIP3   OH212347   2.724   6.501   1.598 -0.5988  0.1569  0.0289
 4128TIP3    H112348   2.730   6.524   1.691  0.2967  1.5783 -0.3479
 4128TIP3    H212349   2.629   6.498   1.581 -0.7841  1.3906  0.6633
 4129TIP3   OH212350   1.088   6.221   0.323  0.4277 -0.3802 -0.0653
 4129TIP3    H112351   1.054   6.140   0.360 -1.0153  0.6116  0.8742
 4129TIP3    H212352   1.175   6.198   0.290  0.6521 -1.9509  1.4903
 4130TIP3   OH212353   1.965   2.148   5.495  0.5551 -0.0099  0.1503
 4130TIP3    H112354   1.943   2.179   5.583 -0.7719  1.7565 -0.7420
 4130TIP3    H212355   1.983   2.228   5.445 -1.6786 -0.6921 -1.9336
 4131TIP3   OH212356   3.500   4.395   1.793 -0.2264 -0.0281  0.2858
 4131TIP3    H112357   3.581   4.403   1.844 -0.5191 -0.2129  0.7770
 4131TIP3    H212358   3.481   4.302   1.792 -0.5166  0.0310  0.2955
 4132TIP3   OH212359   3.952   6.255   5.822  0.4950  0.1322  0.0169
 4132TIP3    H112360   3.878   6.257   5.761  0.4517 -0.3714  0.0491
 4132TIP3    H212361   3.921   6.305   5.897  0.2414  0.0587 -0.0342
 4133TIP3   OH212362   1.969   2.293   4.703  0.2667 -0.7173 -0.1339
 4133TIP3    H112363   2.033   2.234   4.744 -0.3294 -0.6598  0.9230
 4133TIP3    H212364   2.007   2.380   4.716 -0.9348 -0.4658  2.4007
 4134TIP3   OH212365   4.314   2.841   4.275 -0.8099 -0.1217 -0.4306
 4134TIP3    H112366   4.359   2.770   4.229  1.2969  1.6948 -1.3289
 4134TIP3    H212367   4.241   2.798   4.319 -0.8983 -2.4960 -2.6613
 4135TIP3   OH212368   6.762   0.213   1.628  0.1401 -0.0551 -0.6730
 4135TIP3    H112369   6.817   0.213   1.706 -1.0338 -2.6058  0.2605
 4135TIP3    H212370   6.698   0.283   1.644 -0.5538 -1.0315  1.0680
 4136TIP3   OH212371   6.074   3.388   5.111 -0.3468  0.5671  0.0891
 4136TIP3    H112372   6.117   3.309   5.079 -1.2438 -0.0847  0.4256
 4136TIP3    H212373   5.994   3.355   5.153 -2.0554  1.8403 -2.0121
 4137TIP3   OH212374   5.632   2.463   1.941  0.6175  0.0173 -0.2756
 4137TIP3    H112375   5.704   2.435   1.998  0.8935 -1.9524 -1.4725
 4137TIP3    H212376   5.584   2.382   1.922 -1.7767  1.2345  0.2427
 4138TIP3   OH212377   4.254   1.267   4.685 -0.6413  0.6706 -0.5562
 4138TIP3    H112378   4.232   1.248   4.594 -0.0872 -0.8330 -0.4057
 4138TIP3    H212379   4.340   1.228   4.698 -0.4064  1.4774  0.4277
 4139TIP3   OH212380   1.997   4.831   5.845  0.0749  0.0573  0.0088
 4139TIP3    H112381   2.008   4.869   5.758 -2.6379 -2.0452 -1.4007
 4139TIP3    H212382   2.022   4.739   5.834  0.1191 -0.1546  1.6125
 4140TIP3   OH212383   1.174   3.642   2.009  0.0051  0.2803 -0.4969
 4140TIP3    H112384   1.224   3.560   2.020 -0.3013 -0.0889 -1.7652
 4140TIP3    H212385   1.144   3.662   2.098  0.5997 -0.6505 -0.0558
 4141TIP3   OH212386   2.292   1.286   2.303  0.2222 -0.3710 -0.5361
 4141TIP3    H112387   2.207   1.322   2.274 -0.4574 -1.3233  0.2154
 4141TIP3    H212388   2.302   1.318   2.393  0.6457 -0.3086 -0.6031
 4142TIP3   OH212389   6.658   3.012   5.839 -0.0616 -0.5436 -0.1454
 4142TIP3    H112390   6.723   3.023   5.908  0.9262 -0.2560 -1.0869
 4142TIP3    H212391   6.599   3.087   5.849  2.8907  2.3906 -2.5230
 4143TIP3   OH212392   5.610   4.963   1.970  0.1549 -0.0034  0.5354
 4143TIP3    H112393   5.603   5.047   1.924 -2.7974 -0.6054 -0.3770
 4143TIP3    H212394   5.631   4.900   1.901  0.6449 -0.2627  0.9154
 4144TIP3   OH212395   5.837   5.858   1.944 -0.2787 -0.2759 -0.2378
 4144TIP3    H112396   5.850   5.820   2.032 -1.2189  3.1897  1.5669
 4144TIP3    H212397   5.922   5.895   1.922 -0.4047  0.0570 -0.1615
 4145TIP3   OH212398   3.218   4.538   0.089 -0.0116  0.4647 -0.0741
 4145TIP3    H112399   3.214   4.449   0.124  1.8380 -0.2256 -1.4616
 4145TIP3    H212400   3.132   4.550   0.048 -0.1332 -0.8878 -0.2936
 4146TIP3   OH212401   0.660   4.566   0.436  0.4781  0.7174 -0.6355
 4146TIP3    H112402   0.737   4.622   0.446  0.7560  0.3944 -0.9400
 4146TIP3    H212403   0.640   4.538   0.525  1.5161 -0.2587 -0.6917
 4147TIP3   OH212404   6.758   1.347   4.812  0.1780  0.3127  0.4444
 4147TIP3    H112405   6.751   1.440   4.791 -1.0437  0.5651  1.7715
 4147TIP3    H212406   6.705   1.303   4.745  0.5617  0.5836 -0.0413
 4148TIP3   OH212407   5.199   2.604   5.710  0.2636  0.2012 -0.0261
 4148TIP3    H112408   5.179   2.695   5.688  0.4384 -0.0072 -1.1191
 4148TIP3    H212409   5.288   2.608   5.746  1.0435  0.2652 -1.8375
 4149TIP3   OH212410   5.736   4.518   4.929 -0.4491 -0.3461  0.5558
 4149TIP3    H112411   5.739   4.557   4.841 -1.4532 -2.2911 -0.4081
 4149TIP3    H212412   5.752   4.591   4.988  0.5208  0.9843 -1.2468
 4150TIP3   OH212413   2.833   2.066   5.256  0.0652  0.3343 -0.4949
 4150TIP3    H112414   2.749   2.021   5.246 -2.1841  3.5846  1.6336
 4150TIP3    H212415   2.875   2.022   5.330  0.3203 -1.2684 -1.5314
 4151TIP3   OH212416   5.343   4.035   5.274  0.5151  0.1856 -0.8848
 4151TIP3    H112417   5.315   4.123   5.249 -0.8339 -0.2390 -0.9572
 4151TIP3    H212418   5.438   4.041   5.281  0.4185  1.7123 -0.5993
 4152TIP3   OH212419   3.147   2.768   3.299  0.2733 -0.3024  0.0041
 4152TIP3    H112420   3.124   2.778   3.392  0.2889 -0.5451  0.0349
 4152TIP3    H212421   3.135   2.855   3.262 -0.3080 -0.3312  0.1103
 4153TIP3   OH212422   7.127   6.746   4.773 -0.0314 -0.2985 -0.0747
 4153TIP3    H112423   7.080   6.672   4.811 -0.2456  0.0552  0.3647
 4153TIP3    H212424   7.192   6.707   4.716 -0.2040 -0.8233  0.0832
 4154TIP3   OH212425   2.159   5.608   4.045  0.7050  0.6297 -0.4040
 4154TIP3    H112426   2.155   5.563   4.130 -1.2738 -1.1927 -1.3794
 4154TIP3    H212427   2.169   5.700   4.068 -0.2878  0.2521  1.8405
 4155TIP3   OH212428   4.718   4.908   1.189  0.1717  1.2857 -0.5409
 4155TIP3    H112429   4.627   4.879   1.191 -0.3596  2.8086  2.0326
 4155TIP3    H212430   4.748   4.889   1.100 -1.7918 -1.7129 -0.7014
 4156TIP3   OH212431   6.464   1.429   0.993 -0.6611  0.1032 -0.1362
 4156TIP3    H112432   6.438   1.433   0.901  1.3018 -0.3093 -0.7390
 4156TIP3    H212433   6.511   1.511   1.008 -0.6488 -0.0010  0.4147
 4157TIP3   OH212434   5.795   4.256   5.709  0.1445 -0.6369  0.0117
 4157TIP3    H112435   5.835   4.324   5.764  0.5047 -0.8269 -0.0124
 4157TIP3    H212436   5.728   4.216   5.766 -0.0374 -0.2959  0.0408
 4158TIP3   OH212437   6.733   3.634   0.026  0.2366  0.0071  0.0954
 4158TIP3    H112438   6.644   3.600   0.029  0.8185 -1.5957  0.3714
 4158TIP3    H212439   6.768   3.616   0.113  0.9251  0.3488 -0.1028
 4159TIP3   OH212440   1.787   3.848   1.934 -0.3647 -0.1988 -0.0037
 4159TIP3    H112441   1.784   3.830   1.840 -0.5510  1.1768 -0.2812
 4159TIP3    H212442   1.804   3.942   1.941  1.0968 -0.5075  1.3660
 4160TIP3   OH212443   4.001   4.591   4.316 -0.4673  0.2515  0.6112
 4160TIP3    H112444   4.034   4.534   4.385 -0.4518 -0.2594  0.1914
 4160TIP3    H212445   3.926   4.544   4.280 -0.6999  0.6841  0.5238
 4161TIP3   OH212446   3.402   0.025   3.893 -0.4389  0.0927 -0.1054
 4161TIP3    H112447   3.402   0.017   3.798  0.2844  0.8425 -0.1775
 4161TIP3    H212448   3.495   0.029   3.917 -0.5670 -1.3823  0.7507
 4162TIP3   OH212449   3.106   1.155   4.587  0.1739 -0.3621 -0.2576
 4162TIP3    H112450   3.015   1.137   4.610 -0.1173 -0.9968 -1.8028
 4162TIP3    H212451   3.156   1.092   4.639 -0.6185 -3.4738 -2.8851
 4163TIP3   OH212452   1.561   6.383   5.722 -0.0257 -0.0415  0.4553
 4163TIP3    H112453   1.635   6.422   5.675 -0.0794  0.5525  0.8380
 4163TIP3    H212454   1.502   6.352   5.654 -0.4814  1.5168  0.0810
 4164TIP3   OH212455   5.843   1.993   4.051  0.1960 -0.3295 -0.4068
 4164TIP3    H112456   5.871   1.909   4.088 -1.6429 -0.6612  0.3363
 4164TIP3    H212457   5.747   1.987   4.048 -0.0137  1.9003  0.0556
 4165TIP3   OH212458   2.265   4.872   2.642  0.1916  0.1420  0.9064
 4165TIP3    H112459   2.190   4.932   2.642 -0.5462 -0.7406  0.2704
 4165TIP3    H212460   2.284   4.858   2.734  0.0467  0.9679  1.0628
 4166TIP3   OH212461   2.256   2.697   0.870 -0.0965  0.1541  0.6930
 4166TIP3    H112462   2.321   2.684   0.939 -0.1729 -1.4990  0.5031
 4166TIP3    H212463   2.172   2.681   0.912 -0.2865  0.9354  0.6208
 4167TIP3   OH212464   2.505   1.832   3.096 -0.1537  0.2010 -0.0454
 4167TIP3    H112465   2.554   1.772   3.153  1.0895  0.8955 -0.3328
 4167TIP3    H212466   2.414   1.821   3.122  0.0365 -1.7537 -0.0572
 4168TIP3   OH212467   0.400   4.467   2.052 -0.4887 -0.2639  0.2514
 4168TIP3    H112468   0.346   4.435   1.979 -0.3109 -1.4565  0.6237
 4168TIP3    H212469   0.340   4.522   2.103 -1.0148 -0.5738 -0.0193
 4169TIP3   OH212470   3.701   2.195   2.892 -0.4128  0.0425 -0.0180
 4169TIP3    H112471   3.782   2.152   2.866 -0.8904 -0.2784 -1.0238
 4169TIP3    H212472   3.719   2.288   2.879 -0.6059 -0.1018 -1.4795
 4170TIP3   OH212473   6.169   0.101   0.039 -0.4300 -0.3927  0.1792
 4170TIP3    H112474   6.203   0.189   0.024 -0.4064 -0.3547  0.4504
 4170TIP3    H212475   6.230   0.062   0.100 -0.8442 -0.3365  0.6400
 4171TIP3   OH212476   4.270   1.981   2.935 -0.3277  0.0706  0.4251
 4171TIP3    H112477   4.292   1.932   2.856  0.5371  0.1159  0.6233
 4171TIP3    H212478   4.177   1.962   2.950  0.1641 -2.2417  0.9742
 4172TIP3   OH212479   6.872   3.756   2.656 -0.0693  0.0826  0.2881
 4172TIP3    H112480   6.941   3.751   2.722  1.4254  1.6787 -1.0675
 4172TIP3    H212481   6.887   3.681   2.599  0.8625  0.6773 -0.2657
 4173TIP3   OH212482   6.363   1.084   5.569  0.3503 -0.3330 -0.0020
 4173TIP3    H112483   6.439   1.041   5.530 -0.0524  0.7250 -2.1184
 4173TIP3    H212484   6.369   1.174   5.537 -1.7640 -0.2158 -0.1656
 4174TIP3   OH212485   6.363   5.920   2.992 -0.3395 -0.3650  0.3649
 4174TIP3    H112486   6.361   5.824   2.985 -2.6270 -0.3657  0.3302
 4174TIP3    H212487   6.400   5.949   2.908  1.2617 -1.2056  0.7377
 4175TIP3   OH212488   2.405   1.989   3.338 -0.2913 -0.1824  0.5071
 4175TIP3    H112489   2.437   2.069   3.379 -1.0330 -0.2388  1.2489
 4175TIP3    H212490   2.314   1.982   3.369 -0.4471 -0.9484 -0.0946
 4176TIP3   OH212491   5.827   5.309   4.911  0.8656  0.0194  0.5032
 4176TIP3    H112492   5.917   5.279   4.923  1.7953  2.1283 -0.5948
 4176TIP3    H212493   5.792   5.317   4.999  0.6931 -3.5838  0.9020
 4177TIP3   OH212494   0.037   2.552   5.650  0.3046 -0.1688 -0.2501
 4177TIP3    H112495   0.042   2.637   5.606 -0.6895  0.4734  0.7989
 4177TIP3    H212496   0.048   2.573   5.743 -2.5730 -0.7768  0.3333
 4178TIP3   OH212497   4.772   4.120   3.374 -0.0796  0.1848  0.0710
 4178TIP3    H112498   4.678   4.114   3.394  0.1974 -1.3464  1.0485
 4178TIP3    H212499   4.786   4.057   3.303 -0.0010  1.3867 -1.0196
 4179TIP3   OH212500   6.352   1.430   4.675 -0.1204 -0.5597 -0.8418
 4179TIP3    H112501   6.376   1.471   4.758 -0.9752  0.1929 -0.9512
 4179TIP3    H212502   6.413   1.356   4.666  0.9729  0.2489 -0.2856
 4180TIP3   OH212503   3.275   6.164   0.692  0.0539  0.0127 -0.8230
 4180TIP3    H112504   3.257   6.076   0.660 -0.5106 -0.0444 -0.3521
 4180TIP3    H212505   3.225   6.222   0.635 -0.5253 -0.0543 -0.3914
 4181TIP3   OH212506   7.023   2.503   3.729  0.2505 -0.0130  0.2477
 4181TIP3    H112507   7.050   2.426   3.780  1.9010 -0.2302 -0.8599
 4181TIP3    H212508   6.929   2.511   3.745  0.5770 -0.4498  2.7623
 4182TIP3   OH212509   0.733   2.604   2.631  0.2474 -0.1825  0.2811
 4182TIP3    H112510   0.717   2.577   2.721 -2.0113 -3.1535 -0.8233
 4182TIP3    H212511   0.782   2.531   2.593 -1.5643 -0.4887 -1.6167
 4183TIP3   OH212512   1.458   5.943   3.774 -0.5056  0.2029  0.0863
 4183TIP3    H112513   1.538   5.918   3.727 -0.7092  0.3681 -0.3544
 4183TIP3    H212514   1.387   5.911   3.718 -0.7763 -2.3442  1.7192
 4184TIP3   OH212515   3.794   0.966   3.482  0.5386 -0.3641 -0.2870
 4184TIP3    H112516   3.754   1.009   3.558  0.8650 -1.5181  0.5705
 4184TIP3    H212517   3.720   0.937   3.429  0.3137  1.8034 -1.2364
 4185TIP3   OH212518   4.904   0.373   4.572 -0.0459 -0.3864  0.4170
 4185TIP3    H112519   4.969   0.444   4.569  1.1612 -1.3553  2.0611
 4185TIP3    H212520   4.836   0.406   4.630  1.1105 -0.9852  2.1840
 4186TIP3   OH212521   2.083   6.230   3.959 -0.1064 -0.3320  0.8417
 4186TIP3    H112522   2.168   6.238   3.917 -0.6016  1.3119  0.0824
 4186TIP3    H212523   2.102   6.197   4.047  1.1872 -1.1119  0.2952
 4187TIP3   OH212524   1.535   2.674   1.958 -0.2738 -0.1237 -0.2152
 4187TIP3    H112525   1.473   2.663   2.031 -0.8879  1.2716 -0.4895
 4187TIP3    H212526   1.601   2.734   1.992 -0.2454  0.0677 -0.6018
 4188TIP3   OH212527   4.788   6.474   4.945 -0.4579 -0.3998  0.0590
 4188TIP3    H112528   4.762   6.392   4.902 -0.6509 -0.7449  0.8277
 4188TIP3    H212529   4.800   6.535   4.872  0.6138 -1.3545 -0.6208
 4189TIP3   OH212530   6.874   0.588   0.642  0.4707 -0.3439 -0.0082
 4189TIP3    H112531   6.869   0.520   0.575  0.0527 -0.6301  0.3103
 4189TIP3    H212532   6.957   0.632   0.625  0.2156 -0.1940 -0.9272
 4190TIP3   OH212533   0.188   4.279   5.571  0.3900 -0.0280 -0.0647
 4190TIP3    H112534   0.183   4.213   5.640  0.2264  0.6636  0.6017
 4190TIP3    H212535   0.281   4.283   5.549  0.7250  0.9960  1.3830
 4191TIP3   OH212536   2.684   0.505   5.035  0.4479  0.2570  0.2821
 4191TIP3    H112537   2.718   0.593   5.016  3.5474 -0.3531  2.2255
 4191TIP3    H212538   2.706   0.454   4.956 -0.8002  1.0337 -0.5988
 4192TIP3   OH212539   5.771   2.850   1.639  0.4429  0.4775  0.1575
 4192TIP3    H112540   5.830   2.924   1.623  1.4138 -0.5588 -1.3752
 4192TIP3    H212541   5.830   2.776   1.655 -0.4666 -0.3822 -0.3883
 4193TIP3   OH212542   6.185   0.118   1.856 -0.0337  0.5317  0.0850
 4193TIP3    H112543   6.215   0.076   1.937 -0.0586  0.4972  0.0759
 4193TIP3    H212544   6.141   0.049   1.808 -0.9885  0.8119  0.5337
 4194TIP3   OH212545   1.526   6.181   4.790  0.0587 -0.3837 -0.2727
 4194TIP3    H112546   1.475   6.262   4.793 -1.7955 -1.5270  1.2998
 4194TIP3    H212547   1.548   6.170   4.697 -1.4133  0.8607 -0.8033
 4195TIP3   OH212548   6.632   1.034   3.131  0.8656  0.4900  0.1271
 4195TIP3    H112549   6.543   1.000   3.126  1.4270 -1.3134  1.3681
 4195TIP3    H212550   6.629   1.103   3.197  0.7335 -0.9063  1.6336
 4196TIP3   OH212551   5.689   0.050   0.939 -0.1827 -0.1119 -0.3124
 4196TIP3    H112552   5.742  -0.011   0.991  0.6458  0.8110 -0.0336
 4196TIP3    H212553   5.736   0.133   0.945 -2.2778  1.0693  0.9286
 4197TIP3   OH212554   2.659   2.491   1.600  0.0880 -0.0200 -0.4668
 4197TIP3    H112555   2.594   2.433   1.640 -1.1029  0.1128 -2.1303
 4197TIP3    H212556   2.698   2.438   1.530  1.7575 -0.0672  0.4461
 4198TIP3   OH212557   5.226   1.208   4.162 -0.0412  0.3053 -0.6894
 4198TIP3    H112558   5.247   1.235   4.073 -0.9430 -1.0280 -1.3373
 4198TIP3    H212559   5.206   1.114   4.155 -0.7981  0.3235  0.7900
 4199TIP3   OH212560   2.973   3.155   4.496 -0.4010  0.3882  0.0123
 4199TIP3    H112561   2.984   3.116   4.410 -0.4480 -1.7805  0.9196
 4199TIP3    H212562   2.930   3.087   4.548  0.9723  1.0573  2.1627
 4200TIP3   OH212563   1.984   6.139   5.507 -0.6499 -0.0837  0.5086
 4200TIP3    H112564   2.019   6.227   5.519  0.7412 -0.5808  0.2791
 4200TIP3    H212565   1.954   6.137   5.416  0.8737 -0.3319 -0.0244
 4201TIP3   OH212566   3.508   4.641   3.140  0.2720 -0.0898  0.0622
 4201TIP3    H112567   3.531   4.610   3.052 -0.6637 -1.1365  0.1757
 4201TIP3    H212568   3.579   4.702   3.162  0.4336  0.3399 -1.4799
 4202TIP3   OH212569   2.570   3.578   3.481  0.2238 -0.2238  0.6833
 4202TIP3    H112570   2.535   3.655   3.526  0.9274  1.4044 -1.3829
 4202TIP3    H212571   2.650   3.557   3.528  0.2193  0.5381  1.0491
 4203TIP3   OH212572   7.014   6.433   1.830  0.2631 -0.0027 -0.4022
 4203TIP3    H112573   7.029   6.526   1.815  0.0111  0.2400  0.7391
 4203TIP3    H212574   7.097   6.400   1.864  0.0796  0.0004  0.0493
 4204TIP3   OH212575   4.905   6.030   3.035 -1.0651 -0.8548  0.4630
 4204TIP3    H112576   4.872   5.988   2.956  0.1790 -0.8555 -0.0919
 4204TIP3    H212577   4.993   5.995   3.045 -1.2583 -0.9510  1.9402
 4205TIP3   OH212578   0.567   1.292   2.221  0.2140 -0.4769 -0.0739
 4205TIP3    H112579   0.566   1.246   2.137 -1.0786  0.5924 -0.6720
 4205TIP3    H212580   0.529   1.230   2.283 -2.3940  0.0507 -1.0538
 4206TIP3   OH212581   1.852   4.563   1.891  0.0574 -0.3160 -0.3229
 4206TIP3    H112582   1.836   4.620   1.816  1.4501 -0.0027 -0.4131
 4206TIP3    H212583   1.900   4.488   1.855 -1.4426 -1.3985 -0.1449
 4207TIP3   OH212584   2.442   5.233   0.057  0.0965 -0.4632 -0.6866
 4207TIP3    H112585   2.508   5.169   0.082  1.1317  1.1081  0.8704
 4207TIP3    H212586   2.405   5.264   0.140 -0.2298  1.0736 -1.3614
 4208TIP3   OH212587   0.165   5.140   4.231  0.3123  0.0728 -0.4047
 4208TIP3    H112588   0.204   5.151   4.144  0.5314 -0.7770 -0.4157
 4208TIP3    H212589   0.234   5.100   4.283 -0.4372 -1.1982 -0.3504
 4209TIP3   OH212590   1.672   3.944   0.987 -0.1109  0.6265  0.1405
 4209TIP3    H112591   1.578   3.941   0.966 -0.4301 -0.1062  1.5430
 4209TIP3    H212592   1.679   3.900   1.071  1.6513 -0.3088 -0.4362
 4210TIP3   OH212593   2.796   4.291   3.984 -0.5657  0.2840 -0.4574
 4210TIP3    H112594   2.826   4.236   4.057 -1.6968  1.2993  0.8336
 4210TIP3    H212595   2.876   4.325   3.945  0.1952 -2.3497 -1.4262
 4211TIP3   OH212596   4.477   4.630   4.986  0.3340  0.3089 -0.1700
 4211TIP3    H112597   4.485   4.611   4.893  1.4049  1.0011 -0.2311
 4211TIP3    H212598   4.541   4.572   5.028  0.1478  0.2969  0.0991
 4212TIP3   OH212599   4.678   4.912   2.433 -0.0607 -0.5044 -0.1776
 4212TIP3    H112600   4.638   4.830   2.461 -2.1360 -0.0287 -1.5682
 4212TIP3    H212601   4.605   4.968   2.409  1.4078  0.1385 -3.7409
 4213TIP3   OH212602   2.086   2.035   1.026 -0.1177 -0.1561  0.4265
 4213TIP3    H112603   2.011   1.976   1.034  0.0010 -0.4212 -0.3267
 4213TIP3    H212604   2.094   2.075   1.113 -0.8652 -0.4388  0.6389
 4214TIP3   OH212605   2.726   3.382   2.968  0.4214  0.4239  0.8907
 4214TIP3    H112606   2.783   3.458   2.956 -1.8856  2.1701  0.2282
 4214TIP3    H212607   2.637   3.418   2.970 -0.9354 -2.3746 -1.0442
 4215TIP3   OH212608   0.328   1.477   3.848 -0.5183  0.0041 -0.3959
 4215TIP3    H112609   0.345   1.384   3.864 -0.6828 -0.0505 -0.5307
 4215TIP3    H212610   0.326   1.517   3.935  0.0284 -0.0341 -0.3625
 4216TIP3   OH212611   7.039   2.102   1.646 -0.4608 -0.2984  0.2840
 4216TIP3    H112612   7.002   2.190   1.651 -0.4315 -0.1313 -1.6335
 4216TIP3    H212613   7.130   2.116   1.619 -0.2683 -0.9014  0.5970
 4217TIP3   OH212614   5.565   5.051   5.563 -0.2855  0.1205 -0.1030
 4217TIP3    H112615   5.602   5.064   5.651  1.2822 -3.8800  0.0542
 4217TIP3    H212616   5.603   5.121   5.510  1.3736  0.6961  1.7306
 4218TIP3   OH212617   5.854   5.519   1.593  0.0346 -0.0016  0.2451
 4218TIP3    H112618   5.813   5.534   1.508 -0.4048  0.1639  0.4872
 4218TIP3    H212619   5.937   5.475   1.572 -0.8497 -1.5464 -0.1807
 4219TIP3   OH212620   1.526   5.990   4.505 -0.1714  0.2727 -0.2347
 4219TIP3    H112621   1.474   5.913   4.484  2.5986 -1.2562 -2.0214
 4219TIP3    H212622   1.531   6.039   4.423  1.7356  0.0017 -0.3066
 4220TIP3   OH212623   2.430   4.995   1.894 -0.2474 -0.3160 -0.1417
 4220TIP3    H112624   2.498   5.026   1.834 -1.3135 -1.0125 -1.7654
 4220TIP3    H212625   2.348   5.008   1.846 -1.0640 -1.7140  0.8115
 4221TIP3   OH212626   1.924   6.791   2.128  0.5679 -0.0265  0.1593
 4221TIP3    H112627   1.927   6.702   2.163  1.5408 -0.7645 -1.6680
 4221TIP3    H212628   2.015   6.820   2.128  0.3996  0.5248 -0.3409
 4222TIP3   OH212629   4.921   5.092   0.993  0.9232  0.5495 -0.1434
 4222TIP3    H112630   4.883   5.018   0.945 -0.9075 -0.4274  2.5670
 4222TIP3    H212631   5.011   5.065   1.012 -0.3807 -2.3618  2.9854
 4223TIP3   OH212632   3.990   2.174   4.025 -0.3686  0.0968 -0.1334
 4223TIP3    H112633   4.067   2.208   4.071 -0.9071 -0.8620  1.5918
 4223TIP3    H212634   3.928   2.247   4.027 -0.1465  0.2837  0.1109
 4224TIP3   OH212635   4.904   1.962   0.089 -0.1703  0.7793 -0.1578
 4224TIP3    H112636   4.999   1.973   0.089  0.0242 -0.6474  0.3431
 4224TIP3    H212637   4.891   1.869   0.070 -1.4236  0.6816  1.0302
 4225TIP3   OH212638   6.750   5.217   2.977  0.2498 -0.4147 -0.3376
 4225TIP3    H112639   6.714   5.130   2.992  0.7654 -0.3539  1.5382
 4225TIP3    H212640   6.678   5.277   2.998  1.3736 -0.2635  4.1470
 4226TIP3   OH212641   6.521   3.662   2.857  0.1207 -0.1015 -0.3992
 4226TIP3    H112642   6.444   3.718   2.866  1.3239  1.9245 -1.9886
 4226TIP3    H212643   6.569   3.675   2.939 -0.8980 -0.9364  0.3602
 4227TIP3   OH212644   0.113   0.929   3.937 -0.3514  0.0959 -0.3869
 4227TIP3    H112645   0.132   0.883   4.019  3.0467  1.6235 -0.1925
 4227TIP3    H212646   0.062   1.006   3.964  0.1453  0.2220  0.2094
 4228TIP3   OH212647   2.953   6.187   3.817  0.0258  0.2734  0.7666
 4228TIP3    H112648   2.980   6.276   3.838 -0.8160  0.3181  1.7572
 4228TIP3    H212649   2.890   6.197   3.745 -1.3433  0.6670  1.9626
 4229TIP3   OH212650   3.916   5.072   3.870 -0.5432 -0.4304 -0.0278
 4229TIP3    H112651   3.939   5.163   3.883  0.3930 -0.5555 -0.6996
 4229TIP3    H212652   3.978   5.040   3.805 -1.2044 -1.3998 -0.2206
 4230TIP3   OH212653   2.313   4.245   0.329 -0.3093 -0.4044  0.1967
 4230TIP3    H112654   2.274   4.166   0.367 -0.7170  0.3274  1.3435
 4230TIP3    H212655   2.407   4.229   0.332 -0.4295 -1.3481 -0.7135
 4231TIP3   OH212656   6.330   2.382   4.799  0.1568  0.6242  0.1301
 4231TIP3    H112657   6.424   2.370   4.786 -0.0463 -0.8876 -0.1104
 4231TIP3    H212658   6.302   2.434   4.724  0.6732  0.4645 -0.1799
 4232TIP3   OH212659   5.190   2.417   4.968  0.6639 -0.2812 -0.7396
 4232TIP3    H112660   5.236   2.446   5.046  0.8816 -1.0673 -0.5675
 4232TIP3    H212661   5.140   2.340   4.997 -1.8371  1.2821 -0.5690
 4233TIP3   OH212662   5.584   3.249   0.880  0.4660 -0.0627 -1.0386
 4233TIP3    H112663   5.591   3.247   0.975  0.2288 -0.1578 -1.0216
 4233TIP3    H212664   5.514   3.312   0.863  0.6090  0.0650 -1.1565
 4234TIP3   OH212665   4.993   0.098   4.610 -0.0089  0.4006  0.5398
 4234TIP3    H112666   4.949   0.177   4.580  1.5694  0.3462 -2.2601
 4234TIP3    H212667   5.063   0.129   4.667 -0.0542  0.9285  0.3086
 4235TIP3   OH212668   5.282   6.012   2.235  0.0464  0.2305  0.0404
 4235TIP3    H112669   5.376   6.033   2.232  0.1751  0.3512  2.8767
 4235TIP3    H212670   5.248   6.063   2.308 -2.1804 -0.1293 -0.6787
 4236TIP3   OH212671   3.509   5.463   2.596 -0.9545 -0.2878  0.5674
 4236TIP3    H112672   3.534   5.553   2.578 -2.3697 -0.1475 -0.8350
 4236TIP3    H212673   3.540   5.413   2.521 -1.6342 -0.7012  0.5532
 4237TIP3   OH212674   2.945   2.184   1.277 -0.2970 -0.0566 -0.2609
 4237TIP3    H112675   2.930   2.225   1.192  1.1119  0.3354 -0.3469
 4237TIP3    H212676   2.930   2.090   1.262  0.1400 -0.0126 -0.9979
 4238TIP3   OH212677   1.124   0.206   2.580 -0.4085 -0.4313  0.3177
 4238TIP3    H112678   1.046   0.213   2.635 -0.9837 -0.6062 -0.4584
 4238TIP3    H212679   1.096   0.238   2.495  0.2065 -1.0689 -0.1344
 4239TIP3   OH212680   0.452   2.046   0.124  0.3050  0.2423  0.2512
 4239TIP3    H112681   0.464   2.053   0.219  0.4213  0.4485  0.2232
 4239TIP3    H212682   0.402   2.124   0.100  2.0093  1.2655 -0.1339
 4240TIP3   OH212683   3.591   5.562   0.587  0.2646 -0.0683 -0.0258
 4240TIP3    H112684   3.524   5.534   0.524 -0.7276 -0.1203  1.0274
 4240TIP3    H212685   3.669   5.578   0.533 -0.9045  1.1095 -1.4559
 4241TIP3   OH212686   3.218   4.976   1.757 -0.1662  0.2753 -0.5597
 4241TIP3    H112687   3.302   5.014   1.785  0.4533 -1.5227  0.1450
 4241TIP3    H212688   3.156   5.005   1.823  0.2648  0.1919 -0.1131
 4242TIP3   OH212689   5.858   4.458   3.996  0.0536  0.2893  0.2799
 4242TIP3    H112690   5.918   4.471   4.069  0.1330 -0.3498  0.3401
 4242TIP3    H212691   5.772   4.479   4.031  0.3419  2.3643 -0.1323
 4243TIP3   OH212692   6.204   4.668   5.490 -0.3650  0.1941 -0.8332
 4243TIP3    H112693   6.152   4.628   5.560  1.4235  0.1193  0.4990
 4243TIP3    H212694   6.155   4.646   5.410 -1.9223 -0.5935  0.2638
 4244TIP3   OH212695   3.109   0.211   2.295  0.2160  0.1306 -0.0269
 4244TIP3    H112696   3.094   0.118   2.307 -0.1704  0.2086  0.1096
 4244TIP3    H212697   3.147   0.219   2.207  0.3326 -0.1612 -0.0030
 4245TIP3   OH212698   7.150   4.253   4.849 -0.5494  0.1816 -0.7316
 4245TIP3    H112699   7.122   4.297   4.768 -0.9802 -0.6325 -1.0458
 4245TIP3    H212700   7.135   4.160   4.831  1.5329 -0.2344 -0.5761
 4246TIP3   OH212701   1.183   1.500   0.682  0.4078  0.0775 -0.4991
 4246TIP3    H112702   1.240   1.428   0.654 -0.5850 -0.9955  0.1252
 4246TIP3    H212703   1.239   1.557   0.734  0.6859 -1.5924  1.1439
 4247TIP3   OH212704   5.884   6.686   5.860 -0.2694 -0.0682 -0.3934
 4247TIP3    H112705   5.811   6.737   5.823  0.3140 -0.0146 -1.5332
 4247TIP3    H212706   5.960   6.743   5.848 -0.2321  0.4951  2.1185
 4248TIP3   OH212707   7.007   4.898   5.579  0.2845  0.0694  0.7113
 4248TIP3    H112708   6.977   4.972   5.631 -0.9395 -0.1806  0.3917
 4248TIP3    H212709   6.932   4.876   5.523  1.2597 -0.2457 -0.5068
 4249TIP3   OH212710   3.580   2.883   2.493 -0.4492  0.1653 -0.2210
 4249TIP3    H112711   3.541   2.798   2.516  0.0446 -0.1656 -0.5886
 4249TIP3    H212712   3.535   2.946   2.550 -1.2887 -0.2504 -0.4015
 4250TIP3   OH212713   5.982   5.397   3.171  0.7517  0.2345 -0.7309
 4250TIP3    H112714   6.039   5.412   3.096  0.7170  1.4328 -0.5262
 4250TIP3    H212715   5.898   5.371   3.133  0.6142  1.2300 -1.1300
 4251TIP3   OH212716   5.324   0.664   3.636  0.3066  0.2229  0.2886
 4251TIP3    H112717   5.246   0.712   3.664  0.5125  1.4290 -1.0855
 4251TIP3    H212718   5.338   0.599   3.705 -1.3508  0.6008  1.0354
 4252TIP3   OH212719   0.332   1.293   5.214 -0.9979 -0.3761 -0.3154
 4252TIP3    H112720   0.350   1.231   5.143 -0.8146 -1.1370  0.3825
 4252TIP3    H212721   0.264   1.351   5.178  0.1551  0.2144 -1.6418
 4253TIP3   OH212722   5.704   5.519   0.422 -0.0892 -0.4792  0.7765
 4253TIP3    H112723   5.661   5.437   0.445  0.0746 -0.7828  0.0477
 4253TIP3    H212724   5.659   5.586   0.474 -1.4303 -0.7866  0.0584
 4254TIP3   OH212725   4.941   0.442   4.236 -0.3063 -0.0134 -0.3140
 4254TIP3    H112726   4.912   0.473   4.322  1.8765  1.4962 -0.0496
 4254TIP3    H212727   5.035   0.430   4.245 -0.4249 -2.6862 -1.7056
 4255TIP3   OH212728   1.428   5.529   0.677  0.0298  0.4162  0.0754
 4255TIP3    H112729   1.412   5.451   0.624  1.3216  0.5924 -0.6145
 4255TIP3    H212730   1.347   5.540   0.728 -1.0042 -0.1423 -1.3599
 4256TIP3   OH212731   4.940   2.724   2.156 -0.7505  0.0393 -0.0978
 4256TIP3    H112732   4.980   2.776   2.226  0.7649 -1.1830  0.0121
 4256TIP3    H212733   4.915   2.788   2.089  1.0262  0.9351  0.0368
 4257TIP3   OH212734   4.277   5.134   1.141 -0.6583 -0.8162 -0.3199
 4257TIP3    H112735   4.335   5.129   1.217 -1.6961 -0.1726  0.5320
 4257TIP3    H212736   4.310   5.208   1.090 -0.6279 -0.5717  0.0588
 4258TIP3   OH212737   0.373   5.301   2.504  0.3561 -0.1870  0.4704
 4258TIP3    H112738   0.447   5.362   2.508 -1.2090  1.8961 -0.3857
 4258TIP3    H212739   0.311   5.333   2.569  0.2465 -2.0475  1.3487
 4259TIP3   OH212740   2.329   2.927   1.918  0.3725 -0.2635 -0.1488
 4259TIP3    H112741   2.309   2.845   1.964 -1.5857  0.2352 -0.0565
 4259TIP3    H212742   2.251   2.945   1.866  0.7348  1.6065 -0.0900
 4260TIP3   OH212743   6.043   0.163   4.107  0.0493  0.3868 -0.5491
 4260TIP3    H112744   6.045   0.218   4.029  0.7880  2.1792  0.6991
 4260TIP3    H212745   6.074   0.219   4.178  3.2267 -2.2715  0.4101
 4261TIP3   OH212746   1.073   2.815   1.312 -0.4479  0.8452  0.2069
 4261TIP3    H112747   0.997   2.808   1.370 -0.3908  1.7469  0.4057
 4261TIP3    H212748   1.075   2.732   1.265  1.5237 -1.5011  3.9525
 4262TIP3   OH212749   5.864   5.201   1.051  0.1475  0.0879 -0.5677
 4262TIP3    H112750   5.957   5.197   1.075  0.0733  1.2904 -0.0045
 4262TIP3    H212751   5.839   5.292   1.067 -0.6140  0.3001 -2.6781
 4263TIP3   OH212752   1.501   5.445   3.522  0.4858 -0.3532 -0.0355
 4263TIP3    H112753   1.589   5.462   3.554  0.7035 -1.3627 -0.0851
 4263TIP3    H212754   1.444   5.484   3.588  0.9572 -0.5603  0.4958
 4264TIP3   OH212755   6.381   6.536   1.772  0.3757 -0.0507  0.2487
 4264TIP3    H112756   6.340   6.584   1.844  0.4660  0.5320 -0.0778
 4264TIP3    H212757   6.427   6.464   1.814 -0.0194 -0.0329  0.7234
 4265TIP3   OH212758   3.765   4.986   5.205  0.0532 -0.1000  0.0026
 4265TIP3    H112759   3.731   4.897   5.214  1.7577 -1.0826 -2.3288
 4265TIP3    H212760   3.692   5.036   5.168 -1.1537 -0.2671  2.0110
 4266TIP3   OH212761   5.606   5.512   5.212  0.3153 -0.4328  0.2400
 4266TIP3    H112762   5.597   5.523   5.117  0.2105 -0.3116  0.2640
 4266TIP3    H212763   5.662   5.584   5.239 -1.3285  0.7751  0.5670
 4267TIP3   OH212764   3.573   0.888   3.315 -0.0046  0.2629 -0.5841
 4267TIP3    H112765   3.553   0.800   3.346  0.3268  0.3634 -0.0579
 4267TIP3    H212766   3.491   0.936   3.326 -0.3713 -0.1404 -1.4904
 4268TIP3   OH212767   7.133   2.059   4.466  0.3615  0.3387 -0.2866
 4268TIP3    H112768   7.129   2.155   4.474 -0.7066  0.2446  0.5282
 4268TIP3    H212769   7.123   2.028   4.556  1.2020 -0.5450 -0.4820
 4269TIP3   OH212770   6.112   5.343   4.235  0.5060  0.6201  0.1811
 4269TIP3    H112771   6.163   5.345   4.316 -0.6544 -0.0544  0.9614
 4269TIP3    H212772   6.129   5.257   4.198  1.1712  0.9919 -0.4046
 4270TIP3   OH212773   5.149   3.673   2.646 -0.1113  0.7929  0.4103
 4270TIP3    H112774   5.093   3.736   2.600  0.8487  1.2547 -0.1594
 4270TIP3    H212775   5.101   3.590   2.640 -1.8307  1.5910  1.9492
 4271TIP3   OH212776   4.706   5.114   3.231  0.3118  0.1773 -0.0189
 4271TIP3    H112777   4.683   5.032   3.188  0.2737  0.1515  0.0518
 4271TIP3    H212778   4.685   5.182   3.166 -1.5662  0.2846  0.6555
 4272TIP3   OH212779   2.656   3.360   4.137 -0.1257  0.3843 -0.0845
 4272TIP3    H112780   2.691   3.406   4.060 -0.5997 -0.0284 -0.5545
 4272TIP3    H212781   2.722   3.293   4.156  0.0572  0.5729 -0.0426
 4273TIP3   OH212782   0.933   3.330   1.182 -0.0011  0.2287  0.1149
 4273TIP3    H112783   0.987   3.254   1.206 -0.3825 -0.5415 -1.3571
 4273TIP3    H212784   0.884   3.350   1.262  0.5245 -0.7165  0.7001
 4274TIP3   OH212785   6.835   0.027   0.157 -0.1253 -0.5717  0.1335
 4274TIP3    H112786   6.800   0.103   0.111  0.9529 -1.3190 -2.0544
 4274TIP3    H212787   6.901   0.063   0.216  0.9705  0.1610 -1.4872
 4275TIP3   OH212788   1.182   3.213   2.989 -0.3646  0.4417  0.2220
 4275TIP3    H112789   1.276   3.231   2.982 -0.6155  1.9306  0.2096
 4275TIP3    H212790   1.166   3.141   2.928  0.6852  0.5510 -0.1972
 4276TIP3   OH212791   0.797   6.688   2.018 -0.1407  0.3413  0.0066
 4276TIP3    H112792   0.846   6.750   2.072  1.7670 -3.2619  2.8958
 4276TIP3    H212793   0.865   6.644   1.966 -1.4405  0.6187 -2.0378
 4277TIP3   OH212794   5.439   0.663   4.068  0.7255  0.1876 -0.2861
 4277TIP3    H112795   5.497   0.606   4.118  0.2853  0.3687  0.4400
 4277TIP3    H212796   5.361   0.673   4.123 -1.6599 -3.0276 -2.7154
 4278TIP3   OH212797   5.807   4.223   2.096 -0.2366  0.5331 -0.2557
 4278TIP3    H112798   5.716   4.237   2.122 -0.4440 -1.2993  0.1408
 4278TIP3    H212799   5.844   4.171   2.167  0.9299  0.6514 -0.7601
 4279TIP3   OH212800   5.492   1.098   5.446  0.0969  0.0461  0.2293
 4279TIP3    H112801   5.446   1.050   5.377 -0.2714  0.0066  0.4958
 4279TIP3    H212802   5.439   1.178   5.458 -0.3236 -0.3355  1.0388
 4280TIP3   OH212803   4.014   2.585   3.696  0.1147  0.2278  0.5057
 4280TIP3    H112804   4.061   2.503   3.686 -3.1092 -1.8394  0.8600
 4280TIP3    H212805   3.997   2.614   3.606 -0.9954 -0.9860  0.2885
 4281TIP3   OH212806   7.184   6.180   5.622 -0.2050 -0.5445 -0.0610
 4281TIP3    H112807   7.275   6.151   5.613 -0.1142 -0.6229  0.9487
 4281TIP3    H212808   7.133   6.113   5.577  0.3077  0.2997 -2.0208
 4282TIP3   OH212809   3.806   2.148   1.741  0.9114  0.0625  0.6636
 4282TIP3    H112810   3.802   2.230   1.692 -1.2282 -0.0396  0.5527
 4282TIP3    H212811   3.740   2.158   1.809  1.4905 -1.1072  1.4305
 4283TIP3   OH212812   6.695   4.941   0.636 -0.1948 -0.4207 -0.0983
 4283TIP3    H112813   6.678   4.932   0.730  1.0858 -1.5731  0.0441
 4283TIP3    H212814   6.784   4.974   0.630 -0.5746  0.5097 -0.9134
 4284TIP3   OH212815   4.740   6.698   4.799 -0.5093  0.3050 -0.5447
 4284TIP3    H112816   4.736   6.782   4.845 -0.1768  0.5876 -1.0268
 4284TIP3    H212817   4.747   6.722   4.706  0.9705 -0.2238 -0.5977
 4285TIP3   OH212818   4.826   3.038   4.492 -0.5324 -0.3407  0.5416
 4285TIP3    H112819   4.830   3.070   4.402 -0.5264 -0.4991  0.4841
 4285TIP3    H212820   4.781   2.954   4.485 -2.1849  0.4696  0.9099
 4286TIP3   OH212821   0.095   4.558   0.767  0.2720 -0.2240 -0.5517
 4286TIP3    H112822   0.113   4.476   0.812 -0.9591 -0.3050 -0.1722
 4286TIP3    H212823   0.095   4.535   0.674  1.3725 -0.3458 -0.5378
 4287TIP3   OH212824   4.425   2.430   3.533 -0.3401  0.1056  0.4373
 4287TIP3    H112825   4.341   2.423   3.487 -0.3436  0.5899  0.3721
 4287TIP3    H212826   4.449   2.339   3.552 -1.8559  0.0331  2.2366
 4288TIP3   OH212827   6.105   2.731   4.868 -0.3103  0.3848 -0.0469
 4288TIP3    H112828   6.094   2.642   4.901  0.3096  0.6141  0.8279
 4288TIP3    H212829   6.199   2.738   4.850 -0.5572  0.4448 -1.3625
 4289TIP3   OH212830   2.826   6.133   2.536 -0.1880 -0.1008  0.1297
 4289TIP3    H112831   2.904   6.159   2.486 -0.6009 -0.0791 -0.5244
 4289TIP3    H212832   2.790   6.059   2.486 -0.7625  0.0995  0.2447
 4290TIP3   OH212833   3.280   2.758   5.378  0.0664  0.0632 -0.1872
 4290TIP3    H112834   3.372   2.770   5.355  0.3434 -0.1424  0.7760
 4290TIP3    H212835   3.232   2.788   5.301  0.9853 -3.2050 -2.2190
 4291TIP3   OH212836   0.803   1.044   2.161  0.0368 -0.2059 -0.1564
 4291TIP3    H112837   0.803   0.961   2.114  1.1754 -0.8282  0.9109
 4291TIP3    H212838   0.766   1.024   2.247  2.6469 -0.2206  1.0561
 4292TIP3   OH212839   0.596   2.160   1.158 -0.5508  0.3598 -0.1928
 4292TIP3    H112840   0.506   2.151   1.190 -0.6419  0.1735 -0.4985
 4292TIP3    H212841   0.649   2.113   1.223 -0.7252  0.0533 -0.2713
 4293TIP3   OH212842   2.616   6.410   3.564 -0.4738 -0.0323  0.0243
 4293TIP3    H112843   2.557   6.481   3.540  1.1695  1.2719 -0.3561
 4293TIP3    H212844   2.569   6.362   3.632 -1.6787  1.3385  0.2166
 4294TIP3   OH212845   2.068   4.902   5.326  0.1474 -0.0479  0.0525
 4294TIP3    H112846   2.023   4.936   5.248 -1.4850  0.9554  1.3761
 4294TIP3    H212847   2.153   4.944   5.324 -0.3339  0.9355 -0.5285
 4295TIP3   OH212848   4.390   0.249   1.545 -0.1996  0.5104  0.8645
 4295TIP3    H112849   4.476   0.283   1.521 -0.5013  1.3618  0.9321
 4295TIP3    H212850   4.354   0.213   1.463 -1.2936  3.5398 -0.1364
 4296TIP3   OH212851   6.686   1.422   4.401  0.2075 -0.3903  0.2388
 4296TIP3    H112852   6.780   1.419   4.419 -0.1213 -0.0328  2.1899
 4296TIP3    H212853   6.676   1.495   4.340  1.4472 -2.0210 -2.0624
 4297TIP3   OH212854   0.721   0.479   4.660  0.7174  0.2712  0.0774
 4297TIP3    H112855   0.691   0.427   4.585  0.0389  1.6579 -0.6580
 4297TIP3    H212856   0.814   0.494   4.644  0.7973 -0.2675  0.0295
 4298TIP3   OH212857   1.145   4.439   1.935  0.4825 -0.1489 -0.3247
 4298TIP3    H112858   1.205   4.511   1.954  0.8735 -0.5354 -0.0858
 4298TIP3    H212859   1.202   4.363   1.924 -0.0715 -0.9006  1.7061
 4299TIP3   OH212860   5.012   5.749   0.091 -0.2022 -0.5676  0.0643
 4299TIP3    H112861   5.096   5.793   0.078 -0.0780 -1.1065 -1.0287
 4299TIP3    H212862   4.959   5.812   0.141  0.9470 -0.3540  1.0497
 4300TIP3   OH212863   0.265   3.081   3.356  0.4404 -0.1527 -0.4122
 4300TIP3    H112864   0.204   3.154   3.358 -0.2621 -0.7005 -1.2586
 4300TIP3    H212865   0.251   3.039   3.271  0.8074 -1.2817  0.0617
 4301TIP3   OH212866   5.126   4.920   2.327 -0.6600  0.0082 -0.0916
 4301TIP3    H112867   5.130   4.848   2.264  0.1079 -0.4643  0.4926
 4301TIP3    H212868   5.178   4.891   2.402 -0.2832  1.1902  0.1346
 4302TIP3   OH212869   0.092   2.495   2.278  0.0755  0.0107  0.2184
 4302TIP3    H112870   0.094   2.506   2.183  1.3782  2.0207  0.4061
 4302TIP3    H212871   0.016   2.545   2.307  0.3237  0.3490  0.2998
 4303TIP3   OH212872   1.076   2.344   4.138  0.1366  0.6821 -0.0094
 4303TIP3    H112873   0.993   2.373   4.099 -0.0845  1.0667  0.7344
 4303TIP3    H212874   1.057   2.256   4.171 -0.6007  1.5363  1.9847
 4304TIP3   OH212875   0.259   4.260   2.907  0.0560 -0.2614  0.3888
 4304TIP3    H112876   0.265   4.355   2.902  2.1541 -0.3895 -0.4109
 4304TIP3    H212877   0.285   4.229   2.820 -1.8651 -1.5597  0.2143
 4305TIP3   OH212878   0.782   0.558   5.682 -0.1999  0.4234 -0.3460
 4305TIP3    H112879   0.832   0.553   5.600 -0.0596 -0.3196 -0.2164
 4305TIP3    H212880   0.847   0.545   5.751 -0.6314 -1.1043 -0.1929
 4306TIP3   OH212881   4.253   2.400   4.784  0.3774  0.1793  0.1177
 4306TIP3    H112882   4.314   2.364   4.849  0.3401  0.8631  0.5382
 4306TIP3    H212883   4.214   2.476   4.827 -0.8066 -0.2601 -0.1208
 4307TIP3   OH212884   2.538   0.731   4.696  0.4809 -0.5101  0.3354
 4307TIP3    H112885   2.448   0.760   4.706  0.7268  0.1514  0.7138
 4307TIP3    H212886   2.563   0.758   4.608  0.3235 -0.6641  0.2426
 4308TIP3   OH212887   1.759   4.820   3.136 -0.2959  0.0571  0.0271
 4308TIP3    H112888   1.786   4.739   3.180  2.0506  0.0586 -1.2417
 4308TIP3    H212889   1.776   4.888   3.201  2.4509 -0.0226 -0.4612
 4309TIP3   OH212890   3.289   2.109   1.423  0.2263  0.3970  0.0308
 4309TIP3    H112891   3.246   2.164   1.358  0.2203 -0.1053 -0.3945
 4309TIP3    H212892   3.366   2.160   1.449  0.5583  0.3495 -0.8105
 4310TIP3   OH212893   2.893   4.838   3.388 -0.1359 -0.4158 -0.7020
 4310TIP3    H112894   2.917   4.746   3.399 -0.0266 -0.4170 -0.9528
 4310TIP3    H212895   2.852   4.862   3.472  0.2065 -0.5780 -0.4867
 4311TIP3   OH212896   6.683   4.717   2.035 -0.0273 -0.2845 -0.6615
 4311TIP3    H112897   6.645   4.712   1.947 -1.6758 -0.3687  0.0298
 4311TIP3    H212898   6.704   4.626   2.057 -2.2781 -0.6821  0.1153
 4312TIP3   OH212899   6.812   3.732   3.638  0.3363  0.8436  0.0209
 4312TIP3    H112900   6.907   3.723   3.635  0.4077  1.0699  1.0848
 4312TIP3    H212901   6.780   3.643   3.652  0.5698  1.0664  2.3398
 4313TIP3   OH212902   6.036   2.385   2.402  0.5648 -0.0310 -0.4642
 4313TIP3    H112903   6.019   2.473   2.369  1.9716 -0.1633 -1.6479
 4313TIP3    H212904   6.129   2.370   2.385  0.0944 -2.2091 -1.4774
 4314TIP3   OH212905   3.194   5.375   1.497 -0.1097 -0.5883  0.0234
 4314TIP3    H112906   3.188   5.469   1.478 -1.2314 -1.0067 -1.9719
 4314TIP3    H212907   3.216   5.335   1.412  0.8191 -2.1152  0.9300
 4315TIP3   OH212908   5.643   2.181   5.806  0.0414 -0.1699  0.3109
 4315TIP3    H112909   5.694   2.236   5.747 -1.4573 -0.5799 -1.4681
 4315TIP3    H212910   5.676   2.202   5.893  2.1831  0.6438 -0.6285
 4316TIP3   OH212911   4.391   3.108   5.800  0.1989  0.1889  0.4911
 4316TIP3    H112912   4.431   3.094   5.714 -0.8046  0.4014 -0.0234
 4316TIP3    H212913   4.464   3.104   5.861  0.6271 -2.3164 -0.1042
 4317TIP3   OH212914   5.194   0.098   0.723  0.1286 -0.4042 -0.4363
 4317TIP3    H112915   5.140   0.027   0.758 -1.9202  0.9935 -0.5651
 4317TIP3    H212916   5.186   0.169   0.787 -0.3848  0.7635 -1.7388
 4318TIP3   OH212917   2.766   0.193   4.016  0.5737  0.1198 -0.1273
 4318TIP3    H112918   2.707   0.249   3.964  0.8675 -0.2438 -0.8579
 4318TIP3    H212919   2.761   0.230   4.104  0.6664  1.2345 -0.5698
 4319TIP3   OH212920   1.531   3.951   4.377  0.1598 -0.2418 -0.1320
 4319TIP3    H112921   1.537   3.925   4.285  0.3527 -1.6769  0.2677
 4319TIP3    H212922   1.441   3.932   4.401  0.2750 -0.4508  0.1373
 4320TIP3   OH212923   3.625   1.763   5.034 -0.3847  0.1148 -0.2163
 4320TIP3    H112924   3.581   1.695   5.086 -2.2184  0.1208 -1.6626
 4320TIP3    H212925   3.613   1.843   5.086 -0.5013 -0.2003  0.2536
 4321TIP3   OH212926   4.518   1.507   3.361  0.0334  0.0117  0.1826
 4321TIP3    H112927   4.559   1.551   3.436  0.3921 -0.3240  0.1825
 4321TIP3    H212928   4.512   1.575   3.294 -1.1844  0.5950  0.8299
 4322TIP3   OH212929   1.880   4.950   4.214 -0.3934 -0.4978 -0.0421
 4322TIP3    H112930   1.810   4.993   4.264 -0.2225  0.4257 -0.5728
 4322TIP3    H212931   1.921   4.891   4.277 -1.7890 -1.2438  0.2221
 4323TIP3   OH212932   2.864   1.637   4.514  0.1254 -0.1881 -1.2001
 4323TIP3    H112933   2.801   1.576   4.553  2.5443 -2.3589 -0.4468
 4323TIP3    H212934   2.904   1.682   4.588  1.9928 -1.5104 -1.3435
 4324TIP3   OH212935   3.865   2.323   4.987  0.3519  0.1661  0.4194
 4324TIP3    H112936   3.909   2.299   4.905  1.1352 -2.8251  1.5829
 4324TIP3    H212937   3.802   2.252   5.001 -0.6611  1.2958  1.7938
 4325TIP3   OH212938   1.306   4.337   0.595  0.3963  0.4434  0.1927
 4325TIP3    H112939   1.340   4.403   0.535 -0.6595  0.7375 -0.1013
 4325TIP3    H212940   1.241   4.289   0.543  2.0759 -1.7212 -0.0349
 4326TIP3   OH212941   4.286   0.314   2.864  0.1502  0.0918 -0.5733
 4326TIP3    H112942   4.318   0.349   2.781 -0.3987 -0.4258 -1.0162
 4326TIP3    H212943   4.295   0.386   2.926 -1.8620  1.3914 -1.6865
 4327TIP3   OH212944   7.123   0.376   3.390 -0.5246  0.1667 -0.5128
 4327TIP3    H112945   7.191   0.328   3.344  0.4090  0.5754  0.4099
 4327TIP3    H212946   7.077   0.425   3.322 -0.5352 -0.8710 -1.2658
 4328TIP3   OH212947   1.932   0.411   0.548  0.4832 -0.3119  0.1131
 4328TIP3    H112948   1.866   0.432   0.614 -1.7304  0.0353 -2.0727
 4328TIP3    H212949   2.001   0.365   0.597 -2.5955 -3.2254  2.1654
 4329TIP3   OH212950   4.318   1.464   0.528 -0.0810 -0.4318 -0.2817
 4329TIP3    H112951   4.329   1.422   0.443  0.1261 -0.0689 -0.4376
 4329TIP3    H212952   4.406   1.493   0.552 -0.4561  1.3919 -0.9575
 4330TIP3   OH212953   5.201   6.371   3.690  0.0238 -0.4615 -0.3259
 4330TIP3    H112954   5.133   6.327   3.638  0.9413 -0.8437 -1.2205
 4330TIP3    H212955   5.259   6.301   3.719 -1.1221 -0.4278  2.3036
 4331TIP3   OH212956   4.830   3.776   5.380 -0.4264  0.1164  0.0923
 4331TIP3    H112957   4.900   3.793   5.444 -0.7384 -3.1763  1.4790
 4331TIP3    H212958   4.753   3.817   5.417 -0.0429  0.5064  0.4717
 4332TIP3   OH212959   4.584   5.842   1.938  0.0715  0.5580  0.2437
 4332TIP3    H112960   4.598   5.928   1.897  0.6281  0.2953 -0.1217
 4332TIP3    H212961   4.595   5.858   2.032 -0.4764  1.0132  0.2401
 4333TIP3   OH212962   3.420   0.460   3.754 -0.7147 -0.3858 -0.0654
 4333TIP3    H112963   3.381   0.524   3.695 -1.5825 -1.1964 -0.4063
 4333TIP3    H212964   3.495   0.426   3.706  1.0829  1.8663  0.9725
 4334TIP3   OH212965   2.994   2.195   4.842 -0.1668 -0.4901  0.1150
 4334TIP3    H112966   2.987   2.162   4.932  1.4728  1.2304  0.9318
 4334TIP3    H212967   3.083   2.172   4.815  0.4670  1.7049  0.1329
 4335TIP3   OH212968   4.228   0.582   4.050  0.3323  0.1176 -0.6415
 4335TIP3    H112969   4.140   0.548   4.066  0.2509  0.2142 -0.8700
 4335TIP3    H212970   4.233   0.589   3.954  0.3637  0.7013 -0.5994
 4336TIP3   OH212971   2.084   5.059   2.818 -0.2462 -0.0812 -0.4133
 4336TIP3    H112972   2.091   5.008   2.898  1.8106  1.3722  0.4231
 4336TIP3    H212973   2.072   5.149   2.847 -0.3063  0.3712 -1.7455
 4337TIP3   OH212974   6.621   4.687   4.959 -0.1226  0.8274 -0.2246
 4337TIP3    H112975   6.714   4.667   4.951 -0.6932 -2.2208 -0.1891
 4337TIP3    H212976   6.598   4.664   5.049 -0.8847  1.8479 -0.1282
 4338TIP3   OH212977   3.460   2.843   0.425  0.4042  0.2100 -0.0296
 4338TIP3    H112978   3.545   2.811   0.394 -0.2179 -0.6258 -0.9201
 4338TIP3    H212979   3.415   2.764   0.455  0.2712  0.7661  1.2793
 4339TIP3   OH212980   1.815   1.963   5.221 -0.7023  0.1167 -0.0314
 4339TIP3    H112981   1.824   1.961   5.126 -2.6507  0.6822 -0.2652
 4339TIP3    H212982   1.891   2.014   5.251  0.4124 -0.7927 -1.1755
 4340TIP3   OH212983   6.038   4.963   4.702  0.1251  0.4530 -0.4998
 4340TIP3    H112984   6.078   4.882   4.669 -1.9235  0.2835 -2.7697
 4340TIP3    H212985   6.112   5.023   4.712  1.3329 -0.7671 -1.6027
 4341TIP3   OH212986   6.904   1.103   0.672 -0.0295 -0.3170  0.8243
 4341TIP3    H112987   6.831   1.158   0.699  1.4348  1.9300  0.5036
 4341TIP3    H212988   6.950   1.082   0.753 -0.7142 -1.2624  0.9701
 4342TIP3   OH212989   7.015   2.246   3.898 -0.3576 -0.6581 -0.1548
 4342TIP3    H112990   7.075   2.196   3.953 -0.3755  0.5470  1.0195
 4342TIP3    H212991   6.934   2.195   3.898 -0.1738 -0.9596  0.4753
 4343TIP3   OH212992   4.245   5.811   5.812  0.5820  0.1846  0.2391
 4343TIP3    H112993   4.217   5.898   5.785 -0.8929 -0.7668 -1.5303
 4343TIP3    H212994   4.186   5.788   5.884  0.9685  0.6236  0.7040
 4344TIP3   OH212995   0.531   4.998   3.586  0.3522 -0.2236 -0.5208
 4344TIP3    H112996   0.503   4.991   3.678  0.8978  2.5005 -0.0474
 4344TIP3    H212997   0.596   4.928   3.576 -0.6067 -1.3569  0.7853
 4345TIP3   OH212998   5.079   4.224   1.840 -0.6253  0.1362 -0.8622
 4345TIP3    H112999   5.150   4.163   1.861 -0.7146  0.4303  0.3953
 4345TIP3    H213000   5.122   4.309   1.829 -0.7233  0.2239 -0.5814
 4346TIP3   OH213001   5.745   1.773   4.376 -0.1623 -1.0562  0.0003
 4346TIP3    H113002   5.730   1.773   4.471 -1.4525 -0.0843 -0.1797
 4346TIP3    H213003   5.817   1.835   4.364 -1.1149  0.1155  0.2066
 4347TIP3   OH213004   4.860   4.880   5.075 -0.2433  0.3112 -0.0931
 4347TIP3    H113005   4.809   4.873   4.994 -2.4601  1.0487  1.1720
 4347TIP3    H213006   4.837   4.802   5.125 -0.2509  0.7301  0.5693
 4348TIP3   OH213007   0.055   5.637   4.451  0.0463 -0.8136  0.1468
 4348TIP3    H113008   0.148   5.641   4.472  0.2572  1.4080 -0.9317
 4348TIP3    H213009   0.052   5.590   4.367  0.4248  0.5636 -0.6779
 4349TIP3   OH213010   3.016   2.611   4.423 -1.0192 -0.1748  0.0694
 4349TIP3    H113011   2.940   2.640   4.473 -1.0884  4.7348 -2.2953
 4349TIP3    H213012   2.996   2.633   4.332  2.3002 -0.7804 -0.9676
 4350TIP3   OH213013   3.520   1.205   5.209 -0.0561 -0.4492 -0.1172
 4350TIP3    H113014   3.502   1.279   5.151 -0.0885 -1.0462 -0.8823
 4350TIP3    H213015   3.568   1.243   5.282 -3.2566  1.0451  1.4401
 4351TIP3   OH213016   6.479   5.211   1.565 -0.7888 -0.5061 -0.3097
 4351TIP3    H113017   6.487   5.299   1.526 -2.2239  0.3947  1.2853
 4351TIP3    H213018   6.562   5.169   1.546  0.6330  1.8310  0.3281
 4352TIP3   OH213019   7.038   5.104   4.958  0.1619 -0.0395  0.0611
 4352TIP3    H113020   7.026   5.011   4.937 -0.6352 -0.4322  2.0243
 4352TIP3    H213021   6.986   5.151   4.893 -0.5851 -1.0459 -0.0851
 4353TIP3   OH213022   6.646   1.033   4.592  0.1673  0.0450 -0.5737
 4353TIP3    H113023   6.601   0.986   4.521 -1.6152  1.3705 -0.3785
 4353TIP3    H213024   6.638   0.974   4.667 -0.1875 -0.2637 -0.8441
 4354TIP3   OH213025   0.121   6.469   0.856  0.2839  0.1296 -0.1098
 4354TIP3    H113026   0.115   6.564   0.856  1.0448  0.2195  1.5271
 4354TIP3    H213027   0.212   6.451   0.833  0.2764 -0.1700  0.0881
 4355TIP3   OH213028   2.646   6.311   1.028 -0.4061  0.0478  0.0478
 4355TIP3    H113029   2.715   6.265   0.980 -0.2416 -0.0618  0.3897
 4355TIP3    H213030   2.689   6.345   1.106 -0.4394  1.1129 -0.3825
 4356TIP3   OH213031   0.578   2.779   5.221 -0.1996  0.0076  0.2330
 4356TIP3    H113032   0.656   2.734   5.253  0.0226  0.7167  0.7202
 4356TIP3    H213033   0.609   2.830   5.145 -0.2955 -0.0964  0.1234
 4357TIP3   OH213034   7.195   1.784   3.303 -0.1345 -0.0039 -0.0648
 4357TIP3    H113035   7.158   1.697   3.314 -0.5814 -0.2828 -2.9216
 4357TIP3    H213036   7.211   1.815   3.392 -0.3835 -2.7890  1.0499
 4358TIP3   OH213037   0.094   6.605   5.420 -0.3169  0.1474  0.2962
 4358TIP3    H113038   0.001   6.627   5.410 -0.3078  1.2147  2.0604
 4358TIP3    H213039   0.104   6.521   5.377 -1.3360  1.5386 -2.9502
 4359TIP3   OH213040   6.703   2.742   5.485 -0.1214 -0.4301 -0.2202
 4359TIP3    H113041   6.738   2.660   5.520 -0.1213 -0.6120 -0.6466
 4359TIP3    H213042   6.629   2.716   5.431  0.4092 -0.2339 -1.0704
 4360TIP3   OH213043   6.089   4.900   5.014  0.2425  0.1804  0.5734
 4360TIP3    H113044   6.184   4.898   5.022  0.3174  0.6780 -0.0967
 4360TIP3    H213045   6.070   4.849   4.935 -0.2122 -1.6520  1.8015
 4361TIP3   OH213046   0.490   4.413   4.133  0.7741  0.5114 -0.1428
 4361TIP3    H113047   0.525   4.334   4.175  0.0501  0.3732  0.2143
 4361TIP3    H213048   0.396   4.399   4.130  0.5681  1.6021  0.4490
 4362TIP3   OH213049   6.701   3.279   0.448 -0.5074 -0.3011 -0.5820
 4362TIP3    H113050   6.629   3.216   0.442 -1.5702  0.6818  0.9764
 4362TIP3    H213051   6.713   3.310   0.359 -0.6478 -1.9493 -1.2123
 4363TIP3   OH213052   5.303   3.471   4.200 -0.0751 -0.1544 -0.7909
 4363TIP3    H113053   5.271   3.383   4.180  0.1334  0.0432 -2.0587
 4363TIP3    H213054   5.251   3.499   4.276  1.0560 -2.0491  0.8003
 4364TIP3   OH213055   3.780   0.152   5.080  0.1706  0.3514  0.6078
 4364TIP3    H113056   3.818   0.180   5.163  0.8207  1.3143 -0.0082
 4364TIP3    H213057   3.764   0.233   5.032 -1.8657 -0.0611  0.4790
 4365TIP3   OH213058   1.474   0.536   4.434 -0.4954 -0.3225 -0.0883
 4365TIP3    H113059   1.556   0.518   4.479 -0.6108 -1.3764 -0.2678
 4365TIP3    H213060   1.426   0.595   4.492  0.0731 -0.2977  0.3569
 4366TIP3   OH213061   1.370   5.439   1.844 -0.3012 -0.1604 -0.0508
 4366TIP3    H113062   1.349   5.354   1.806  0.9769 -0.3064 -0.4731
 4366TIP3    H213063   1.288   5.489   1.838 -0.3024 -0.3392 -2.5363
 4367TIP3   OH213064   1.810   6.058   5.680  0.2420 -0.5682 -0.2778
 4367TIP3    H113065   1.802   6.145   5.720 -0.8362 -0.7280 -0.1244
 4367TIP3    H213066   1.855   6.075   5.597 -0.8004  0.2855 -0.6991
 4368TIP3   OH213067   0.617   1.222   5.309 -0.2397  0.2226 -0.2660
 4368TIP3    H113068   0.575   1.137   5.321  2.0457 -0.9693 -0.1406
 4368TIP3    H213069   0.576   1.259   5.231 -2.8946  0.1059  0.9739
 4369TIP3   OH213070   1.098   2.712   2.060 -0.0189  0.5954 -0.3998
 4369TIP3    H113071   1.155   2.649   2.103 -2.2453 -0.9914  0.3868
 4369TIP3    H213072   1.151   2.746   1.988  1.4179 -1.8941 -0.6455
 4370TIP3   OH213073   4.125   5.428   2.190 -0.2214  0.2285 -0.4030
 4370TIP3    H113074   4.139   5.506   2.136 -0.3602  0.8530  0.4363
 4370TIP3    H213075   4.146   5.354   2.132 -0.5742  0.8630 -1.3623
 4371TIP3   OH213076   5.664   4.285   2.777 -0.2258  0.4444  0.3552
 4371TIP3    H113077   5.572   4.302   2.754 -0.7006  0.2734  1.9669
 4371TIP3    H213078   5.714   4.344   2.721 -1.3194  0.5248 -0.5741
 4372TIP3   OH213079   2.704   4.420   1.576 -0.3397  0.0364 -0.0910
 4372TIP3    H113080   2.767   4.492   1.589 -1.2146  0.6175  1.1444
 4372TIP3    H213081   2.619   4.462   1.578 -0.9301 -1.1358  1.7009
 4373TIP3   OH213082   6.362   1.288   5.199 -0.3119  0.0123  0.4862
 4373TIP3    H113083   6.343   1.227   5.127  0.7556  0.1569  0.0609
 4373TIP3    H213084   6.458   1.287   5.206 -0.3199  1.1650  0.8929
 4374TIP3   OH213085   2.914   3.316   1.972  0.0749 -0.4403 -0.0014
 4374TIP3    H113086   2.894   3.235   1.926 -0.4797  1.3297 -3.1285
 4374TIP3    H213087   3.002   3.303   2.008 -0.8542 -3.1538  1.5899
 4375TIP3   OH213088   1.208   4.203   4.449 -0.6096  0.4055 -0.3433
 4375TIP3    H113089   1.300   4.209   4.474 -0.6218 -0.3881 -0.0778
 4375TIP3    H213090   1.160   4.234   4.526 -0.6021 -0.7130  0.1388
 4376TIP3   OH213091   5.241   0.508   0.036 -0.0120 -0.3495  0.1361
 4376TIP3    H113092   5.228   0.457   0.116 -4.2122  0.8235  0.4633
 4376TIP3    H213093   5.300   0.579   0.062 -0.1847 -0.7756  1.8291
 4377TIP3   OH213094   5.838   0.503   4.473 -0.0640  0.1675  0.4299
 4377TIP3    H113095   5.912   0.564   4.478 -0.3151  0.6225 -0.9251
 4377TIP3    H213096   5.852   0.455   4.392 -1.1972  0.1783  0.2125
 4378TIP3   OH213097   6.375   4.933   4.450 -0.0895  0.1252  0.1895
 4378TIP3    H113098   6.469   4.952   4.450 -0.0987  0.2998  1.7532
 4378TIP3    H213099   6.347   4.951   4.360  1.1799  1.0178 -0.0544
 4379TIP3   OH213100   3.492   2.080   2.772  0.7413  0.4314  0.3196
 4379TIP3    H113101   3.459   2.154   2.722  1.9615  1.5879  1.1351
 4379TIP3    H213102   3.576   2.110   2.807  1.0156 -1.1474  1.1405
 4380TIP3   OH213103   0.753   3.062   1.286 -0.2299 -0.2234  0.2407
 4380TIP3    H113104   0.663   3.095   1.279 -0.3401 -0.5157  0.2538
 4380TIP3    H213105   0.746   2.971   1.258  0.2251  0.0051 -0.6677
 4381TIP3   OH213106   2.955   2.061   1.589 -0.4388  0.0037 -0.8189
 4381TIP3    H113107   2.942   2.129   1.655  0.2122 -0.5834 -0.0560
 4381TIP3    H213108   3.039   2.021   1.613 -0.2725 -0.3303 -1.9143
 4382TIP3   OH213109   1.839   1.637   5.306 -0.2032  0.1774 -0.0247
 4382TIP3    H113110   1.865   1.729   5.314 -0.4529  0.2199  0.2913
 4382TIP3    H213111   1.796   1.617   5.389 -0.2612 -0.1899 -0.1444
 4383TIP3   OH213112   3.854   2.955   3.442  0.3079 -0.8002  0.2890
 4383TIP3    H113113   3.888   2.891   3.380  1.1608 -1.3516  1.2933
 4383TIP3    H213114   3.857   2.911   3.526 -0.3879  0.0958  0.8004
 4384TIP3   OH213115   0.634   0.120   3.708  0.3176  0.1935  0.2693
 4384TIP3    H113116   0.630   0.167   3.625 -1.8911  0.0376  0.2106
 4384TIP3    H213117   0.648   0.029   3.684 -0.1753  0.1691  0.0515
 4385TIP3   OH213118   4.252   2.617   5.403 -0.5399  0.1947  0.1902
 4385TIP3    H113119   4.222   2.583   5.319 -0.0383  2.0267 -0.7812
 4385TIP3    H213120   4.177   2.667   5.436 -1.1302 -1.4221  1.4032
 4386TIP3   OH213121   5.645   3.155   1.115 -0.0951  0.1270  0.0431
 4386TIP3    H113122   5.661   3.174   1.207  0.1221 -0.3053  0.0953
 4386TIP3    H213123   5.589   3.077   1.116  0.8212 -0.5459 -0.2096
 4387TIP3   OH213124   2.186   4.139   2.131  0.3095  0.3018 -0.5424
 4387TIP3    H113125   2.281   4.138   2.128  0.5195  1.1979  2.5980
 4387TIP3    H213126   2.160   4.051   2.102  2.2002 -0.7088  0.6546
 4388TIP3   OH213127   6.830   4.057   2.046  0.2901 -0.1066 -0.6259
 4388TIP3    H113128   6.769   4.073   1.973 -0.6856  0.2708  0.2397
 4388TIP3    H213129   6.840   3.962   2.048 -0.7755 -0.2329 -0.4170
 4389TIP3   OH213130   0.533   2.256   3.396 -0.0590  0.3669 -0.2946
 4389TIP3    H113131   0.444   2.285   3.419 -0.1849 -0.7489  0.7427
 4389TIP3    H213132   0.529   2.160   3.405  1.1357  0.2798 -0.6531
 4390TIP3   OH213133   7.091   2.232   0.252  0.1333  0.0723 -0.2255
 4390TIP3    H113134   7.112   2.207   0.343  1.1327 -0.1465 -0.4980
 4390TIP3    H213135   6.996   2.225   0.246  0.1376 -0.8363  0.5454
 4391TIP3   OH213136   3.169   1.195   1.397 -0.4835  0.3143 -0.0801
 4391TIP3    H113137   3.251   1.147   1.393 -0.4704  0.2336  0.9172
 4391TIP3    H213138   3.101   1.128   1.394 -0.5343  0.3812 -0.9113
 4392TIP3   OH213139   1.823   3.989   1.513 -0.1336  0.7371 -0.0557
 4392TIP3    H113140   1.898   3.999   1.572  0.1610  1.4363 -0.5413
 4392TIP3    H213141   1.761   4.056   1.541 -0.1842  0.7750 -0.2554
 4393TIP3   OH213142   2.622   0.664   0.656  0.6211 -0.2094 -0.0540
 4393TIP3    H113143   2.684   0.736   0.665  0.4680 -0.0008 -0.6179
 4393TIP3    H213144   2.617   0.626   0.744 -0.0209  1.0750  0.5040
 4394TIP3   OH213145   0.575   4.827   4.387 -0.3022  0.3907  0.6413
 4394TIP3    H113146   0.585   4.737   4.358 -1.5491  0.2783  0.5008
 4394TIP3    H213147   0.481   4.844   4.381 -0.0936  1.6932  0.6804
 4395TIP3   OH213148   2.930   6.138   3.376  0.6768  0.5208 -0.2723
 4395TIP3    H113149   3.020   6.130   3.344 -0.0646  0.9255 -2.6452
 4395TIP3    H213150   2.905   6.048   3.399  1.8521  0.4926  0.9959
 4396TIP3   OH213151   4.386   3.765   3.955 -0.7908  0.0029 -0.3016
 4396TIP3    H113152   4.401   3.791   4.046  1.7963  0.8926 -0.8992
 4396TIP3    H213153   4.304   3.716   3.957 -0.2532 -0.9491  2.6846
 4397TIP3   OH213154   4.663   0.003   5.678  0.8592 -0.6127 -0.0024
 4397TIP3    H113155   4.614   0.084   5.691  0.8501 -0.8197  1.5138
 4397TIP3    H213156   4.755   0.031   5.675  1.0552 -0.6834  2.8103
 4398TIP3   OH213157   3.622   1.578   3.076  0.2502 -0.9351  0.1952
 4398TIP3    H113158   3.582   1.652   3.030  0.5393 -1.1788 -0.4504
 4398TIP3    H213159   3.548   1.533   3.118 -0.0629 -0.9396 -0.3583
 4399TIP3   OH213160   5.082   1.614   5.602  0.4994  0.0740  0.2195
 4399TIP3    H113161   4.996   1.593   5.639  1.0505 -2.3595  0.3489
 4399TIP3    H213162   5.137   1.631   5.679  0.3696  0.6676  0.1861
 4400TIP3   OH213163   1.997   4.361   1.529  0.0407  0.9166  0.0056
 4400TIP3    H113164   2.000   4.407   1.445  0.2785  0.3244 -0.3117
 4400TIP3    H213165   1.948   4.420   1.587  0.8799  1.8525 -0.2136
 4401TIP3   OH213166   5.764   3.043   5.691  0.5456 -0.2441  0.5388
 4401TIP3    H113167   5.839   3.045   5.631 -0.1981 -0.7077 -0.4208
 4401TIP3    H213168   5.799   3.080   5.772  1.4784  0.7559 -0.2725
 4402TIP3   OH213169   4.913   6.626   0.363 -0.0483 -0.3768  0.4884
 4402TIP3    H113170   4.835   6.657   0.409 -0.7957 -2.3650  0.6347
 4402TIP3    H213171   4.882   6.599   0.277  0.6850 -0.1243  0.1413
 4403TIP3   OH213172   5.734   1.760   4.645  0.2414  0.2989 -0.0907
 4403TIP3    H113173   5.689   1.702   4.707 -2.1641  0.3325 -1.6770
 4403TIP3    H213174   5.739   1.844   4.690  0.4914 -0.1891  0.8332
 4404TIP3   OH213175   6.273   0.793   0.924  0.2166  0.0334 -0.7281
 4404TIP3    H113176   6.192   0.751   0.954  0.6091 -0.9956 -1.0629
 4404TIP3    H213177   6.289   0.863   0.988  0.0964 -0.9993  0.4856
 4405TIP3   OH213178   4.099   3.821   0.743  0.1027  0.2700  0.2117
 4405TIP3    H113179   4.092   3.736   0.700 -0.3324 -0.5775  1.8980
 4405TIP3    H213180   4.012   3.860   0.733 -0.0321  0.0245  0.3944
 4406TIP3   OH213181   1.130   3.374   4.237 -0.1701  0.1021 -0.1175
 4406TIP3    H113182   1.094   3.430   4.168  0.2573 -0.1941 -0.5866
 4406TIP3    H213183   1.118   3.285   4.204 -2.3437 -0.2317  1.3223
 4407TIP3   OH213184   0.215   1.901   2.374 -0.0473  0.0497  0.5854
 4407TIP3    H113185   0.209   1.814   2.413 -0.3721  0.9771  2.8124
 4407TIP3    H213186   0.158   1.955   2.429  0.1991  1.6847 -0.6917
 4408TIP3   OH213187   5.395   2.509   1.566  0.7205  0.5568  0.0121
 4408TIP3    H113188   5.368   2.566   1.638  1.0825 -1.7184  2.0477
 4408TIP3    H213189   5.491   2.517   1.564  0.7499  0.2238  0.1144
 4409TIP3   OH213190   4.162   5.477   3.200  0.6949 -0.4264  0.4684
 4409TIP3    H113191   4.214   5.549   3.235  0.7258 -0.7081  1.0233
 4409TIP3    H213192   4.224   5.404   3.194  0.3222 -0.8304  1.3586
 4410TIP3   OH213193   2.266   1.742   3.234 -0.4626  0.1383 -0.2643
 4410TIP3    H113194   2.294   1.818   3.285 -0.9573  0.2833 -0.1980
 4410TIP3    H213195   2.208   1.694   3.293 -1.1690  0.3971 -0.7405
 4411TIP3   OH213196   1.739   0.857   2.802  0.2851  0.5830  0.2256
 4411TIP3    H113197   1.781   0.811   2.875 -0.5505  0.1400  0.4410
 4411TIP3    H213198   1.747   0.796   2.728  0.5388  0.7490  0.1149
 4412TIP3   OH213199   2.436   6.520   2.290 -0.1218  0.4348  0.1228
 4412TIP3    H113200   2.477   6.607   2.299  0.1611  0.5983 -2.1647
 4412TIP3    H213201   2.510   6.460   2.287 -0.3329  0.0117  2.1753
 4413TIP3   OH213202   2.053   2.891   0.575  0.8377  0.0164 -0.4683
 4413TIP3    H113203   2.015   2.944   0.645  0.9794  0.9472 -1.0753
 4413TIP3    H213204   2.127   2.943   0.543  0.9875 -0.5549 -1.0752
 4414TIP3   OH213205   4.952   1.848   3.490  0.2351 -0.0215  0.3281
 4414TIP3    H113206   4.994   1.863   3.406  0.0286 -1.9304 -0.1590
 4414TIP3    H213207   5.019   1.804   3.543 -1.1187 -3.6189 -0.6393
 4415TIP3   OH213208   5.343   4.486   5.402  0.7852 -0.3018  0.5446
 4415TIP3    H113209   5.364   4.575   5.374  1.3867 -0.1933  1.2858
 4415TIP3    H213210   5.425   4.453   5.439  0.3314 -0.8354  1.0926
 4416TIP3   OH213211   5.660   2.123   1.397 -0.6860  0.2876 -0.7373
 4416TIP3    H113212   5.622   2.211   1.391 -0.1906  0.6170  0.5868
 4416TIP3    H213213   5.612   2.081   1.468 -0.0355 -0.0341 -0.4746
 4417TIP3   OH213214   1.028   5.811   4.113  0.1997 -0.5210 -0.3178
 4417TIP3    H113215   0.951   5.866   4.128  1.7050  1.2068  1.6517
 4417TIP3    H213216   1.100   5.857   4.158  1.8970 -3.2808  0.0248
 4418TIP3   OH213217   5.000   0.637   0.447  0.3479 -0.5559 -0.3529
 4418TIP3    H113218   5.068   0.702   0.466 -1.5512  1.1685  1.0193
 4418TIP3    H213219   4.970   0.659   0.358 -0.3096  0.5391  0.1163
 4419TIP3   OH213220   0.179   5.478   5.567 -0.0584 -0.1546  0.3994
 4419TIP3    H113221   0.229   5.551   5.532  0.1217  0.2673  1.4969
 4419TIP3    H213222   0.241   5.406   5.572  0.1515  0.0415  0.6751
 4420TIP3   OH213223   7.219   3.998   1.911  0.1847  0.2524  0.7338
 4420TIP3    H113224   7.186   4.075   1.866  0.7741  0.7875  1.1898
 4420TIP3    H213225   7.141   3.952   1.940 -0.2953 -0.9613 -2.1475
 4421TIP3   OH213226   0.515   5.724   5.096 -0.5719 -0.3136  0.5164
 4421TIP3    H113227   0.576   5.790   5.129 -0.1096 -0.2600 -0.4221
 4421TIP3    H213228   0.571   5.658   5.054 -1.1827  0.1210 -1.0371
 4422TIP3   OH213229   1.256   5.726   4.881 -0.2490 -0.0393  0.7438
 4422TIP3    H113230   1.349   5.705   4.877  0.2034  1.5074  2.1670
 4422TIP3    H213231   1.252   5.821   4.893 -1.9757 -0.1924  1.7827
 4423TIP3   OH213232   3.849   3.620   1.575 -0.1097  0.5268 -0.7356
 4423TIP3    H113233   3.923   3.671   1.607 -0.7202  0.7533  0.3545
 4423TIP3    H213234   3.772   3.669   1.603 -0.6949 -0.5199 -0.4581
 4424TIP3   OH213235   6.022   1.002   4.926  0.5326 -0.8343  0.2137
 4424TIP3    H113236   5.980   1.064   4.986 -0.6455 -1.7258  0.3499
 4424TIP3    H213237   6.028   1.050   4.843 -2.3811 -1.1849 -0.3084
 4425TIP3   OH213238   0.842   3.389   0.836  0.1710 -0.5610  0.3250
 4425TIP3    H113239   0.794   3.315   0.874  1.2520 -0.5079  1.8567
 4425TIP3    H213240   0.774   3.440   0.791 -1.2539 -0.5034  2.3828
 4426TIP3   OH213241   4.967   2.074   0.774  0.3737 -0.3221 -0.2243
 4426TIP3    H113242   4.955   2.135   0.847  1.3571 -0.1548 -0.1909
 4426TIP3    H213243   4.950   1.988   0.812  1.9221 -0.3410  0.4919
 4427TIP3   OH213244   6.452   0.787   0.194 -0.6085  0.2205 -0.0761
 4427TIP3    H113245   6.525   0.817   0.248 -0.3352  0.3147 -0.4900
 4427TIP3    H213246   6.391   0.747   0.255 -0.3237  0.3677  0.3058
 4428TIP3   OH213247   1.903   1.116   5.619  0.1904  0.2612  0.0704
 4428TIP3    H113248   1.858   1.045   5.665  0.8956 -0.8358 -0.8594
 4428TIP3    H213249   1.901   1.190   5.679 -0.4445 -0.5999  1.1301
 4429TIP3   OH213250   1.745   2.778   3.706  0.2914  0.0736 -0.2082
 4429TIP3    H113251   1.659   2.819   3.714  1.0237  1.4612  1.0801
 4429TIP3    H213252   1.770   2.793   3.616  0.7602  3.0626  0.3390
 4430TIP3   OH213253   6.937   6.479   0.138  0.0228  0.1887  0.4876
 4430TIP3    H113254   7.024   6.473   0.178  0.1289  1.2002  0.4232
 4430TIP3    H213255   6.908   6.388   0.130  1.6959 -0.2882 -0.8327
 4431TIP3   OH213256   3.078   5.057   1.517  0.3920 -0.6459 -0.3656
 4431TIP3    H113257   3.099   5.147   1.493 -0.0642 -1.0535 -2.5082
 4431TIP3    H213258   3.158   5.025   1.559  0.9357  0.4564 -0.5043
 4432TIP3   OH213259   3.880   1.554   1.736  0.2685 -0.0117  0.4277
 4432TIP3    H113260   3.935   1.627   1.763  2.3798 -1.1057 -0.6447
 4432TIP3    H213261   3.844   1.519   1.817 -0.2746  1.7906  1.0041
 4433TIP3   OH213262   5.856   5.659   2.888  0.0707 -0.4568 -0.3011
 4433TIP3    H113263   5.779   5.613   2.923  1.4093 -1.9691  0.8737
 4433TIP3    H213264   5.914   5.667   2.964  0.0551  3.0779 -0.5047
 4434TIP3   OH213265   5.834   3.353   3.011  0.0232 -0.2821 -0.3072
 4434TIP3    H113266   5.844   3.342   3.106  0.8991  0.0291 -0.3573
 4434TIP3    H213267   5.820   3.264   2.978 -0.6424 -0.3564  0.1403
 4435TIP3   OH213268   6.377   2.338   1.048  0.3088 -0.6598 -0.2421
 4435TIP3    H113269   6.441   2.267   1.054  1.6247  0.4119 -1.0854
 4435TIP3    H213270   6.426   2.417   1.072 -0.7856  0.1542 -0.5870
 4436TIP3   OH213271   0.767   4.129   0.684  0.9557  0.0286 -0.6928
 4436TIP3    H113272   0.714   4.132   0.763  1.9657  1.0287 -0.0151
 4436TIP3    H213273   0.831   4.059   0.700  1.7874  0.8851 -0.1825
 4437TIP3   OH213274   4.620   0.053   2.729  0.2572 -0.1595  0.4516
 4437TIP3    H113275   4.685   0.068   2.797  0.4081 -1.1441  0.5345
 4437TIP3    H213276   4.560  -0.012   2.766  0.1455 -0.4515 -0.2239
 4438TIP3   OH213277   6.160   3.285   3.419  0.4486  0.1756 -0.2538
 4438TIP3    H113278   6.193   3.246   3.500  1.2992  1.3262 -0.0206
 4438TIP3    H213279   6.232   3.277   3.357  0.5207  1.0511 -0.2996
 4439TIP3   OH213280   5.571   0.534   4.331 -0.8031 -0.0298 -0.1917
 4439TIP3    H113281   5.524   0.507   4.410  1.7897 -2.2125  0.7536
 4439TIP3    H213282   5.643   0.587   4.364  0.4349 -1.1556 -1.0202
 4440TIP3   OH213283   6.355   3.195   2.182  0.5005  0.2129 -0.0713
 4440TIP3    H113284   6.288   3.256   2.212  1.0559  1.2785 -0.9048
 4440TIP3    H213285   6.407   3.176   2.260 -0.5602 -0.3752  0.5142
 4441TIP3   OH213286   1.897   4.138   2.359 -0.7103  0.2021 -0.0811
 4441TIP3    H113287   1.882   4.052   2.319 -0.0572  0.7568 -1.5506
 4441TIP3    H213288   1.889   4.121   2.453 -1.0593 -1.3705 -0.3563
 4442TIP3   OH213289   5.237   1.838   3.895  0.5685 -0.1547  0.3857
 4442TIP3    H113290   5.182   1.765   3.925  1.2183  0.1517  2.4726
 4442TIP3    H213291   5.317   1.796   3.863 -0.3734 -0.5274 -1.6141
 4443TIP3   OH213292   0.126   0.603   0.345 -0.0574 -0.8407  0.5978
 4443TIP3    H113293   0.149   0.693   0.323 -1.2272 -0.0130  2.5076
 4443TIP3    H213294   0.052   0.582   0.288 -0.1743 -0.3654  0.5775
 4444TIP3   OH213295   5.766   4.306   0.247  0.0061 -0.0146  0.8444
 4444TIP3    H113296   5.674   4.293   0.270  0.3374 -0.7463  1.8323
 4444TIP3    H213297   5.808   4.330   0.329  0.6871  0.4021  0.3856
 4445TIP3   OH213298   4.608   2.535   0.587 -0.1235 -0.2435  0.4237
 4445TIP3    H113299   4.540   2.549   0.653 -2.1646 -0.6674 -1.4484
 4445TIP3    H213300   4.690   2.540   0.635 -1.4391  0.7837  2.7404
 4446TIP3   OH213301   1.370   1.188   0.360 -0.0154 -0.5369  0.4124
 4446TIP3    H113302   1.299   1.206   0.298  0.2026  0.1985  0.3676
 4446TIP3    H213303   1.420   1.118   0.319 -0.6636 -1.0083  0.4063
 4447TIP3   OH213304   6.170   2.222   3.058 -0.3675  0.3238 -0.5141
 4447TIP3    H113305   6.196   2.284   3.127  2.1419  0.6592 -1.6651
 4447TIP3    H213306   6.105   2.270   3.006 -0.7894  0.7965  0.4070
 4448TIP3   OH213307   2.910   6.227   5.409  0.0890 -0.2196  0.6700
 4448TIP3    H113308   2.980   6.254   5.468 -0.8298 -0.0534  1.7178
 4448TIP3    H213309   2.890   6.306   5.358  0.5980 -0.2498  0.4123
 4449TIP3   OH213310   4.768   1.372   2.184  0.5754  0.1307 -0.0989
 4449TIP3    H113311   4.700   1.438   2.171 -2.1404 -1.8521  2.5867
 4449TIP3    H213312   4.820   1.405   2.256  2.2186  1.3599 -1.7572
 4450TIP3   OH213313   3.696   4.397   1.598 -0.5881 -0.1536 -0.3067
 4450TIP3    H113314   3.624   4.406   1.660 -0.3496  0.7286 -0.1480
 4450TIP3    H213315   3.751   4.474   1.613  0.8705 -1.2407  0.1963
 4451TIP3   OH213316   7.137   0.845   4.252  0.0697  0.2914 -0.1771
 4451TIP3    H113317   7.124   0.856   4.158  0.8900  0.6479 -0.2572
 4451TIP3    H213318   7.175   0.927   4.281  0.5629 -0.1041  0.3204
 4452TIP3   OH213319   2.395   1.929   5.667 -0.2322  0.5851  0.5994
 4452TIP3    H113320   2.442   1.928   5.751 -1.5981  0.6305  1.3895
 4452TIP3    H213321   2.459   1.965   5.605  1.1184 -0.3052  1.4148
 4453TIP3   OH213322   1.950   4.625   0.491 -0.2851 -0.4827 -0.2304
 4453TIP3    H113323   1.951   4.639   0.586 -0.7151  1.2326 -0.4347
 4453TIP3    H213324   1.889   4.691   0.458  0.3436 -0.6123 -1.7559
 4454TIP3   OH213325   6.858   4.548   4.672 -0.0375 -0.5789  0.2524
 4454TIP3    H113326   6.914   4.479   4.638  1.0707  0.9705 -1.2447
 4454TIP3    H213327   6.774   4.537   4.627 -0.1774 -1.4704  0.7156
 4455TIP3   OH213328   7.184   5.450   0.476  0.2641 -0.3746  0.2305
 4455TIP3    H113329   7.201   5.540   0.505  1.7328 -0.1141 -1.2592
 4455TIP3    H213330   7.093   5.452   0.446  0.1366  0.4904  0.6147
 4456TIP3   OH213331   4.254   0.654   1.770  0.1054  0.6085  0.2394
 4456TIP3    H113332   4.220   0.633   1.857  0.8537 -2.4835 -0.0910
 4456TIP3    H213333   4.335   0.703   1.787 -1.1508  2.4835  1.1461
 4457TIP3   OH213334   3.150   5.137   0.022  0.1648  0.1804 -0.3972
 4457TIP3    H113335   3.181   5.134   0.113  0.8629  1.2626 -0.5821
 4457TIP3    H213336   3.230   5.134  -0.030 -0.1010  1.5419 -0.9166
 4458TIP3   OH213337   5.665   6.752   2.668  0.2656  0.1443 -0.0738
 4458TIP3    H113338   5.617   6.787   2.743 -0.9967 -0.6098 -0.5069
 4458TIP3    H213339   5.599   6.711   2.614  1.4566 -1.2768 -0.5082
 4459TIP3   OH213340   4.861   2.390   5.507 -0.2112 -0.1710 -0.0694
 4459TIP3    H113341   4.954   2.391   5.485 -0.1931  2.3751 -0.2047
 4459TIP3    H213342   4.849   2.466   5.565 -2.2991 -0.0805 -0.5152
 4460TIP3   OH213343   6.600   5.509   1.142  1.0609  0.5172 -0.7574
 4460TIP3    H113344   6.619   5.595   1.178  0.1028  0.4303  0.0216
 4460TIP3    H213345   6.538   5.526   1.072  0.1166  0.4128  0.0222
 4461TIP3   OH213346   0.854   0.190   0.750  0.3604 -0.2463  0.1609
 4461TIP3    H113347   0.819   0.259   0.693  1.5213  0.0805 -0.1851
 4461TIP3    H213348   0.839   0.223   0.839  1.3774  0.7299 -0.0017
 4462TIP3   OH213349   1.066   2.446   3.114 -0.4716  0.1466 -0.0488
 4462TIP3    H113350   1.100   2.529   3.148 -1.1949  0.2261  0.5061
 4462TIP3    H213351   1.044   2.464   3.023 -0.7120  0.5983  0.0967
 4463TIP3   OH213352   6.415   6.467   5.290  0.5549 -0.2155 -0.0196
 4463TIP3    H113353   6.345   6.412   5.326  1.1925  1.0712  3.5734
 4463TIP3    H213354   6.492   6.410   5.291  0.6020 -0.1435  0.8684
 4464TIP3   OH213355   0.980   4.966   2.898  0.2814  0.2072 -0.1594
 4464TIP3    H113356   0.893   4.935   2.872  0.2302 -0.2675  0.5336
 4464TIP3    H213357   0.970   4.990   2.990  1.8281 -3.9629  1.3255
 4465TIP3   OH213358   0.879   6.005   1.771  0.0380 -0.2593  0.2749
 4465TIP3    H113359   0.791   6.007   1.809  0.0997 -0.0849  0.4104
 4465TIP3    H213360   0.875   6.065   1.697  0.0802 -0.1461  0.3641
 4466TIP3   OH213361   1.991   5.766   0.425  0.4173  0.0512 -0.0128
 4466TIP3    H113362   2.055   5.709   0.382  0.9646  0.1482  0.6588
 4466TIP3    H213363   2.036   5.799   0.503 -0.0175  1.1319 -0.2007
 4467TIP3   OH213364   5.497   6.460   1.780 -0.7972  0.8275 -0.2260
 4467TIP3    H113365   5.405   6.441   1.765 -1.2529  2.0099  0.8216
 4467TIP3    H213366   5.496   6.536   1.839  0.7901 -0.9338  2.2925
 4468TIP3   OH213367   0.679   4.298   1.845 -0.1243  0.3269 -0.1891
 4468TIP3    H113368   0.703   4.308   1.753 -0.0068  3.4873  0.0823
 4468TIP3    H213369   0.759   4.321   1.893 -0.8969  1.3047  0.6710
 4469TIP3   OH213370   1.365   2.087   0.757 -0.4450 -0.8734 -0.5467
 4469TIP3    H113371   1.341   2.171   0.797 -0.9087 -0.4470 -1.6656
 4469TIP3    H213372   1.441   2.057   0.807 -1.0601 -0.4218  0.6886
 4470TIP3   OH213373   6.497   4.273   4.633 -0.5853 -0.2683  0.1879
 4470TIP3    H113374   6.429   4.246   4.571 -0.8094  1.0740 -0.1948
 4470TIP3    H213375   6.458   4.345   4.682  0.7327  0.9915 -0.5000
 4471TIP3   OH213376   5.609   1.084   1.814 -0.2412 -0.0086 -0.4262
 4471TIP3    H113377   5.520   1.120   1.821  0.5182  1.7892  0.6494
 4471TIP3    H213378   5.646   1.125   1.736 -0.0269 -0.0048 -0.3241
 4472TIP3   OH213379   6.350   3.308   4.758  0.2845  0.1607  0.0404
 4472TIP3    H113380   6.283   3.300   4.690  0.7099 -1.0640 -0.2622
 4472TIP3    H213381   6.311   3.268   4.835  0.1483  0.7231  0.2691
 4473TIP3   OH213382   3.961   4.211   3.404 -0.2086 -0.1403 -0.4461
 4473TIP3    H113383   4.044   4.165   3.416 -1.6375 -2.6291  0.6814
 4473TIP3    H213384   3.904   4.175   3.472 -1.0392  4.7138  1.8342
 4474TIP3   OH213385   6.098   4.512   0.228 -0.1566 -0.3062 -0.0331
 4474TIP3    H113386   6.061   4.531   0.314  0.7880  0.1995  0.2800
 4474TIP3    H213387   6.164   4.445   0.244  2.1659  1.8932  0.1737
 4475TIP3   OH213388   0.049   0.643   5.429 -0.0860  0.0375  0.1419
 4475TIP3    H113389   0.038   0.727   5.384  1.2866  0.6913  0.9590
 4475TIP3    H213390   0.020   0.661   5.519 -0.4444 -0.5603  0.1494
 4476TIP3   OH213391   3.670   4.479   3.894 -0.3947  0.4399  0.1085
 4476TIP3    H113392   3.576   4.483   3.915 -0.1813 -0.4510  1.3610
 4476TIP3    H213393   3.672   4.443   3.805 -1.2422  0.6099  0.0071
 4477TIP3   OH213394   5.141   6.753   0.931 -0.5034 -0.2510  0.4732
 4477TIP3    H113395   5.207   6.820   0.912  0.3222 -1.1275  0.1431
 4477TIP3    H213396   5.136   6.702   0.850 -1.5442 -0.2355  0.5262
 4478TIP3   OH213397   3.980   4.421   4.538 -0.0737 -0.5565 -0.0342
 4478TIP3    H113398   4.041   4.365   4.585 -0.1305 -0.5730  0.0196
 4478TIP3    H213399   3.901   4.368   4.528 -0.2051 -0.4058  0.2116
 4479TIP3   OH213400   1.886   6.460   0.362 -0.4542  0.1576  0.0378
 4479TIP3    H113401   1.933   6.414   0.431  0.9187  0.0966 -0.9063
 4479TIP3    H213402   1.846   6.535   0.406 -0.1554 -0.2318  1.0048
 4480TIP3   OH213403   3.213   2.219   2.647  0.2578  0.1524 -0.6645
 4480TIP3    H113404   3.198   2.220   2.741 -1.5897  0.1094 -0.9236
 4480TIP3    H213405   3.126   2.224   2.608  0.8998 -0.7885 -2.3773
 4481TIP3   OH213406   1.546   1.551   0.766  0.0425  0.2646  0.1799
 4481TIP3    H113407   1.484   1.560   0.839  1.6416 -0.4933  1.7255
 4481TIP3    H213408   1.492   1.555   0.688 -1.6448  2.1752  1.3474
 4482TIP3   OH213409   1.862   2.462   2.857 -0.2394 -0.0557 -0.5382
 4482TIP3    H113410   1.934   2.512   2.896  1.0327 -0.3862 -2.3299
 4482TIP3    H213411   1.865   2.377   2.901 -1.6546  0.9471  1.6753
 4483TIP3   OH213412   6.027   0.908   1.652  0.6273 -0.2374 -0.8694
 4483TIP3    H113413   5.994   0.995   1.676  1.1064 -0.1050 -0.6941
 4483TIP3    H213414   5.970   0.847   1.699 -0.7593 -0.0791 -2.2511
 4484TIP3   OH213415   3.921   6.101   2.093 -0.0199 -0.5566  0.3795
 4484TIP3    H113416   3.978   6.038   2.049  0.3973 -0.4071  0.7046
 4484TIP3    H213417   3.857   6.047   2.139 -0.2683 -0.7206 -0.1407
 4485TIP3   OH213418   3.697   4.276   2.381  0.1328  0.0456 -0.0339
 4485TIP3    H113419   3.655   4.353   2.342  0.5311  0.6452  0.6926
 4485TIP3    H213420   3.626   4.230   2.425 -0.1144 -0.0317 -0.4997
 4486TIP3   OH213421   3.749   6.338   5.657  0.6369  0.0274 -0.3967
 4486TIP3    H113422   3.800   6.400   5.605 -0.1308  1.1633  0.1432
 4486TIP3    H213423   3.661   6.342   5.620  1.3167 -3.6966 -2.8722
 4487TIP3   OH213424   4.803   1.164   0.882 -0.4708 -0.3146  0.7022
 4487TIP3    H113425   4.743   1.203   0.819 -1.0187 -1.6614  0.3392
 4487TIP3    H213426   4.748   1.144   0.958 -0.1412 -0.1052  0.9971
 4488TIP3   OH213427   3.266   5.820   5.273 -0.6460 -0.0799 -0.0408
 4488TIP3    H113428   3.346   5.768   5.272 -0.7966 -0.3715  1.2688
 4488TIP3    H213429   3.256   5.852   5.183  0.3298 -0.9581 -0.4700
 4489TIP3   OH213430   2.835   0.104   5.115 -0.5275 -0.7721  0.3544
 4489TIP3    H113431   2.873   0.025   5.075 -0.1466 -0.3434 -0.1522
 4489TIP3    H213432   2.815   0.078   5.205  0.8644 -1.0588  0.6161
 4490TIP3   OH213433   5.181   2.015   3.657 -0.1260 -0.0782 -0.1819
 4490TIP3    H113434   5.175   1.998   3.563 -0.5542  1.7900 -0.5388
 4490TIP3    H213435   5.179   1.928   3.697  0.1419 -0.9228 -1.8907
 4491TIP3   OH213436   1.751   2.552   0.990  0.3027  0.0406  0.0424
 4491TIP3    H113437   1.838   2.525   0.961  0.0326  0.4395 -1.1881
 4491TIP3    H213438   1.757   2.647   1.000 -0.0799  0.1109 -0.3833
 4492TIP3   OH213439   7.007   5.753   1.136  0.3291 -0.0500 -0.0083
 4492TIP3    H113440   6.933   5.813   1.151 -0.1156  0.0026 -2.1108
 4492TIP3    H213441   7.030   5.721   1.224 -3.0456 -1.0811  0.6718
 4493TIP3   OH213442   4.293   6.374   4.313 -0.0569 -0.1459  0.3642
 4493TIP3    H113443   4.259   6.287   4.291  2.0146 -0.7792 -0.6399
 4493TIP3    H213444   4.300   6.374   4.408 -1.4236 -0.4939  0.4985
 4494TIP3   OH213445   6.123   2.810   1.891  0.5553 -0.1266 -0.1500
 4494TIP3    H113446   6.068   2.881   1.924 -0.6302 -1.1230  0.0848
 4494TIP3    H213447   6.197   2.807   1.951  2.0901  2.6522 -1.6949
 4495TIP3   OH213448   2.200   5.533   1.132 -0.2984 -0.5996  0.1796
 4495TIP3    H113449   2.291   5.520   1.106 -0.6796 -0.0963 -1.5225
 4495TIP3    H213450   2.201   5.530   1.228  1.4022 -1.1941  0.1647
 4496TIP3   OH213451   6.757   3.712   1.127  0.1062  0.4038 -0.9759
 4496TIP3    H113452   6.699   3.788   1.130  0.3718  0.5759  0.2336
 4496TIP3    H213453   6.845   3.748   1.131  0.2524  0.0493  2.2501
 4497TIP3   OH213454   5.336   3.135   0.117  0.9431 -0.1692  0.6709
 4497TIP3    H113455   5.361   3.199   0.183 -1.1750 -0.2120  1.6129
 4497TIP3    H213456   5.354   3.178   0.034  0.6995  1.1769  1.2865
 4498TIP3   OH213457   3.527   5.794   2.555 -1.0511  0.0896 -0.1519
 4498TIP3    H113458   3.618   5.780   2.529  1.1423  2.1099  5.1920
 4498TIP3    H213459   3.517   5.889   2.558 -2.1031 -0.0219  2.5976
 4499TIP3   OH213460   4.025   0.830   2.983  0.0725 -0.4820  0.4443
 4499TIP3    H113461   3.946   0.813   3.036 -2.8374  0.0578 -3.2965
 4499TIP3    H213462   4.050   0.743   2.951  0.2407 -0.5036  0.6322
 4500TIP3   OH213463   4.048   4.923   0.205  0.0101 -0.2872  0.1410
 4500TIP3    H113464   4.109   4.987   0.168  1.4271 -0.5042  1.9411
 4500TIP3    H213465   4.004   4.885   0.129  1.3417  0.6584 -1.1596
 4501TIP3   OH213466   3.818   3.204   1.655  0.3036  0.5643  0.3969
 4501TIP3    H113467   3.761   3.281   1.656  1.4667  1.4878 -0.8599
 4501TIP3    H213468   3.797   3.158   1.736 -2.9631  0.2815 -0.4626
 4502TIP3   OH213469   6.808   6.399   3.070  0.2136  0.0129 -0.0866
 4502TIP3    H113470   6.868   6.448   3.014 -1.0478  1.0872 -0.5344
 4502TIP3    H213471   6.735   6.375   3.012 -1.2624  1.4087  1.1257
 4503TIP3   OH213472   4.293   6.539   2.756 -0.2961  0.4128  0.8365
 4503TIP3    H113473   4.323   6.498   2.837  1.7459  3.3278  1.7011
 4503TIP3    H213474   4.362   6.519   2.692 -0.3433  0.7534  0.6781
 4504TIP3   OH213475   1.392   2.783   2.651  0.5066 -0.5211  0.3844
 4504TIP3    H113476   1.361   2.710   2.705  0.4213  0.8886  2.3457
 4504TIP3    H213477   1.421   2.848   2.715  0.3362  1.2712 -1.3043
 4505TIP3   OH213478   2.157   0.440   1.209 -0.2450  0.4174  0.4600
 4505TIP3    H113479   2.090   0.372   1.203  1.1891 -1.0260  0.0922
 4505TIP3    H213480   2.186   0.439   1.300 -0.0696  0.3608  0.4058
 4506TIP3   OH213481   3.106   5.038   2.422  0.2618  0.6262 -0.1319
 4506TIP3    H113482   3.111   4.964   2.483  1.4317  0.3817 -0.4964
 4506TIP3    H213483   3.095   5.115   2.478 -1.2695  0.1748  0.2367
 4507TIP3   OH213484   4.119   4.517   3.170  0.3137 -0.5421 -0.0030
 4507TIP3    H113485   4.046   4.513   3.108 -0.3712  0.1113  0.7345
 4507TIP3    H213486   4.171   4.439   3.151 -0.9300 -1.3666 -0.1070
 4508TIP3   OH213487   7.091   3.023   5.112  0.1664 -0.0603  0.2184
 4508TIP3    H113488   7.173   3.045   5.156 -0.2927 -0.2078  1.1655
 4508TIP3    H213489   7.034   2.991   5.181 -0.5424 -0.4017 -0.5050
 4509TIP3   OH213490   1.473   3.064   2.793  0.1716 -0.5842 -0.6193
 4509TIP3    H113491   1.568   3.073   2.799 -0.0657  1.5818  1.3511
 4509TIP3    H213492   1.448   3.024   2.876 -0.6916 -0.2725 -0.7222
 4510TIP3   OH213493   4.371   5.044   4.650  0.3708  0.1202  0.2654
 4510TIP3    H113494   4.366   5.139   4.640  1.2156  0.0053 -1.8506
 4510TIP3    H213495   4.302   5.010   4.592  0.5314 -0.5603  0.4670
 4511TIP3   OH213496   1.512   0.880   0.571  0.0963  0.0818  0.1378
 4511TIP3    H113497   1.542   0.919   0.489 -1.4680 -1.0526 -1.0660
 4511TIP3    H213498   1.527   0.786   0.559  1.6018  0.0303  1.9786
 4512TIP3   OH213499   4.257   5.668   5.575  0.2599 -0.4746  0.1038
 4512TIP3    H113500   4.280   5.704   5.661  5.4571 -2.2729 -0.1489
 4512TIP3    H213501   4.223   5.581   5.595  1.8440 -1.0552  0.5000
 4513TIP3   OH213502   5.816   4.967   4.985 -0.1839  0.0089 -0.6880
 4513TIP3    H113503   5.897   4.998   4.945 -0.2186  0.4360 -0.4452
 4513TIP3    H213504   5.843   4.932   5.070 -0.3619  1.0212 -0.2002
 4514TIP3   OH213505   6.951   6.295   5.339  0.2076  0.2225 -0.1111
 4514TIP3    H113506   6.993   6.209   5.330 -1.5209 -0.4297 -3.4074
 4514TIP3    H213507   7.014   6.357   5.301  0.6188  0.1787  0.4710
 4515TIP3   OH213508   4.439   6.025   1.529  0.2056  0.4643  0.0485
 4515TIP3    H113509   4.459   6.091   1.462 -1.8311 -0.5885 -1.7098
 4515TIP3    H213510   4.389   5.958   1.483 -0.8869 -0.5654  2.5510
 4516TIP3   OH213511   6.862   6.759   0.177 -0.2221 -0.0356  0.0875
 4516TIP3    H113512   6.882   6.666   0.186  1.9095  0.4085  0.4025
 4516TIP3    H213513   6.767   6.762   0.166 -0.4091 -2.1941  0.6725
 4517TIP3   OH213514   5.053   3.021   5.409 -0.1265 -0.4639 -0.6295
 4517TIP3    H113515   5.029   3.040   5.318  0.2261  0.0601 -0.6188
 4517TIP3    H213516   5.045   3.106   5.454  0.7309 -0.4976 -0.4024
 4518TIP3   OH213517   4.822   3.907   2.289 -0.1956 -0.5504  0.5385
 4518TIP3    H113518   4.745   3.933   2.240  0.7931  2.0263  0.1840
 4518TIP3    H213519   4.869   3.847   2.231 -0.6279 -0.0824 -0.3097
 4519TIP3   OH213520   5.379   4.651   3.991 -0.2300 -0.0268 -0.2572
 4519TIP3    H113521   5.424   4.726   3.953 -0.8493 -0.5567 -2.1452
 4519TIP3    H213522   5.448   4.587   4.006  0.2068  0.6537  0.7445
 4520TIP3   OH213523   3.088   3.250   1.729 -0.3054 -0.3587 -0.5857
 4520TIP3    H113524   3.051   3.335   1.755  0.5863 -0.7610  2.3693
 4520TIP3    H213525   3.115   3.263   1.638 -0.2082  2.5551 -0.2531
 4521TIP3   OH213526   7.097   3.615   2.260  0.1187 -0.1488 -0.1552
 4521TIP3    H113527   7.049   3.566   2.193 -1.2701 -0.8345  1.2743
 4521TIP3    H213528   7.105   3.554   2.333  1.4525  0.6369  0.3906
 4522TIP3   OH213529   6.461   4.139   5.540 -0.4589 -0.2344  0.8930
 4522TIP3    H113530   6.520   4.103   5.474 -0.6481 -1.4118  1.3382
 4522TIP3    H213531   6.439   4.226   5.507  1.1604  0.0635  0.4952
 4523TIP3   OH213532   5.990   3.944   2.679  0.2824 -0.2189 -0.2039
 4523TIP3    H113533   6.031   4.009   2.622 -1.7022  0.3597 -1.0523
 4523TIP3    H213534   5.993   3.862   2.628 -0.4732  0.0399 -0.6681
 4524TIP3   OH213535   4.918   6.506   5.377  0.3408  0.2114 -0.3858
 4524TIP3    H113536   4.999   6.539   5.414  2.3506 -1.7241 -2.7196
 4524TIP3    H213537   4.896   6.431   5.432  1.3424 -0.5013 -0.9149
 4525TIP3   OH213538   0.727   3.498   3.397 -0.1520 -0.0139  0.2535
 4525TIP3    H113539   0.785   3.423   3.406  0.5937  0.7471  2.7016
 4525TIP3    H213540   0.785   3.574   3.394 -0.9259  0.7399  2.3710
 4526TIP3   OH213541   1.309   4.904   2.755 -0.3184 -0.3049  0.3686
 4526TIP3    H113542   1.333   4.997   2.749  0.0500 -0.3932  0.4907
 4526TIP3    H213543   1.277   4.882   2.667 -0.4647 -0.0478  0.3565
 4527TIP3   OH213544   2.057   4.696   1.426 -0.0925 -0.4746  0.0907
 4527TIP3    H113545   2.013   4.662   1.348 -2.8292 -1.5113  1.9587
 4527TIP3    H213546   2.056   4.791   1.415 -3.6324 -0.3715  0.3412
 4528TIP3   OH213547   6.872   4.241   5.268  0.3817  0.5990  0.2236
 4528TIP3    H113548   6.947   4.218   5.323 -0.5303 -0.0027  1.2642
 4528TIP3    H213549   6.855   4.333   5.289  2.0234  1.3428 -1.5056
 4529TIP3   OH213550   4.518   0.476   4.419  0.1432 -0.1288  0.0778
 4529TIP3    H113551   4.427   0.477   4.389  0.0513  0.0518  0.3470
 4529TIP3    H213552   4.511   0.478   4.515  0.4102 -1.8153  0.1558
 4530TIP3   OH213553   3.835   4.798   4.334 -0.3467 -0.4614 -0.0901
 4530TIP3    H113554   3.858   4.835   4.419  0.7759 -0.8025 -0.2230
 4530TIP3    H213555   3.902   4.731   4.319 -2.1479 -2.3993  0.0485
 4531TIP3   OH213556   4.643   5.286   3.035 -0.2782 -0.1671 -0.0116
 4531TIP3    H113557   4.675   5.254   2.951  0.2927  0.1956  0.0640
 4531TIP3    H213558   4.695   5.364   3.053 -2.2412  1.3760 -0.6266
 4532TIP3   OH213559   0.789   1.095   5.081  0.6189  0.8182  0.6371
 4532TIP3    H113560   0.755   1.144   5.005 -0.3843 -2.4257 -1.2234
 4532TIP3    H213561   0.710   1.072   5.131  0.7102 -0.9485  0.0483
 4533TIP3   OH213562   7.077   5.408   4.038 -0.2822 -0.4658  0.1988
 4533TIP3    H113563   7.141   5.431   3.971 -0.8928 -0.7296 -0.5034
 4533TIP3    H213564   6.996   5.392   3.988 -0.3370 -2.3336  0.8077
 4534TIP3   OH213565   6.686   3.080   2.509 -0.0770  0.0970  0.6828
 4534TIP3    H113566   6.596   3.105   2.532  0.1564  1.9336 -0.2421
 4534TIP3    H213567   6.675   3.014   2.440 -0.7370  0.5754  0.3141
 4535TIP3   OH213568   1.192   1.928   3.735 -0.1373 -0.1121  0.2097
 4535TIP3    H113569   1.227   2.008   3.696 -0.4749  0.4791  1.1049
 4535TIP3    H213570   1.177   1.950   3.827 -0.5857 -1.0885  0.3806
 4536TIP3   OH213571   5.664   2.316   5.375  0.3380  0.7573 -0.1553
 4536TIP3    H113572   5.752   2.353   5.385  0.2056  1.2072 -0.6116
 4536TIP3    H213573   5.655   2.302   5.281 -0.6237  2.0789 -0.2871
 4537TIP3   OH213574   3.673   1.101   1.596  0.6015  0.2965 -0.0402
 4537TIP3    H113575   3.646   1.139   1.679  1.1690  0.7944 -0.0754
 4537TIP3    H213576   3.688   1.008   1.616  0.2646  0.3146  0.2991
 4538TIP3   OH213577   1.956   2.721   0.083  0.2757 -0.5860  0.5720
 4538TIP3    H113578   2.029   2.711   0.144 -0.7719 -3.0980  1.5443
 4538TIP3    H213579   1.988   2.683   0.001  0.8283  0.4966  0.2671
 4539TIP3   OH213580   6.222   6.744   0.996 -0.4099 -0.2928  0.3283
 4539TIP3    H113581   6.305   6.755   1.043 -0.2891 -2.3590  0.7228
 4539TIP3    H213582   6.249   6.716   0.908 -0.6717  1.8998 -0.4990
 4540TIP3   OH213583   1.773   1.268   5.810 -0.3579 -0.1385  0.4103
 4540TIP3    H113584   1.774   1.270   5.905  0.2122 -0.4985  0.4184
 4540TIP3    H213585   1.682   1.252   5.787 -0.2580 -1.6196  0.9394
 4541TIP3   OH213586   3.586   4.570   4.257 -0.3929 -0.1900  0.3602
 4541TIP3    H113587   3.649   4.507   4.224 -0.2315 -0.0656  0.4262
 4541TIP3    H213588   3.605   4.650   4.208  0.2667  0.1768  1.1859
 4542TIP3   OH213589   3.712   4.556   0.955  0.1279  0.1771  0.6090
 4542TIP3    H113590   3.745   4.646   0.950  0.1841  0.2723  2.2216
 4542TIP3    H213591   3.620   4.566   0.980 -0.4705 -0.1758 -1.3029
 4543TIP3   OH213592   6.593   0.704   2.997 -0.0997  0.1730 -0.3070
 4543TIP3    H113593   6.663   0.734   3.055  0.7181  1.7748 -2.0153
 4543TIP3    H213594   6.522   0.679   3.056  1.0535  0.7408  1.4009
 4544TIP3   OH213595   3.042   6.241   1.759 -0.3817  0.4363 -0.0742
 4544TIP3    H113596   3.134   6.260   1.777 -0.4226 -0.3422  1.0992
 4544TIP3    H213597   3.015   6.308   1.696  1.3595 -0.2182 -1.5794
 4545TIP3   OH213598   3.900   1.235   4.449  0.3512  0.0356 -0.6651
 4545TIP3    H113599   3.885   1.299   4.379  0.6015  2.0112  0.9930
 4545TIP3    H213600   3.813   1.215   4.483  0.2847 -0.3676 -1.0748
 4546TIP3   OH213601   1.492   1.723   0.181 -0.4705 -0.9504  0.2742
 4546TIP3    H113602   1.407   1.740   0.140 -0.4334 -0.3143  0.4604
 4546TIP3    H213603   1.541   1.675   0.114 -0.9835 -1.3494  0.1782
 4547TIP3   OH213604   0.082   2.765   5.119 -0.1995  0.0777 -0.8865
 4547TIP3    H113605   0.049   2.808   5.040 -0.0899  3.4311  0.7163
 4547TIP3    H213606   0.101   2.837   5.179  0.8249 -2.2585  1.8044
 4548TIP3   OH213607   1.782   2.553   3.853  0.3698 -0.2364  0.2710
 4548TIP3    H113608   1.784   2.639   3.811  0.2955  0.6219  1.9117
 4548TIP3    H213609   1.738   2.496   3.790  0.2840  0.9536 -0.7973
 4549TIP3   OH213610   4.947   6.425   0.079  0.1385  0.0701  0.0389
 4549TIP3    H113611   5.031   6.391   0.110  0.4167  0.2394 -0.5184
 4549TIP3    H213612   4.885   6.401   0.148  0.8891  1.1638  1.1487
 4550TIP3   OH213613   3.502   4.156   1.204 -0.0038 -0.1071 -0.2782
 4550TIP3    H113614   3.586   4.155   1.159 -0.3694  0.6176 -1.0154
 4550TIP3    H213615   3.439   4.178   1.135 -0.6349  0.6094  0.4992
 4551TIP3   OH213616   3.876   5.406   2.001 -0.4484  0.3135 -0.1990
 4551TIP3    H113617   3.791   5.440   1.971 -1.9165 -2.5660  0.3474
 4551TIP3    H213618   3.864   5.393   2.096  0.1885 -1.1473 -0.2952
 4552TIP3   OH213619   5.860   0.687   3.234 -0.1112 -0.3501  0.4251
 4552TIP3    H113620   5.836   0.776   3.259  0.1341  0.0221 -0.6180
 4552TIP3    H213621   5.829   0.678   3.144  0.4670 -1.0852  0.2878
 4553TIP3   OH213622   5.267   3.940   2.521  0.0338  0.0013  0.4755
 4553TIP3    H113623   5.208   3.874   2.484 -1.2558  1.4659 -0.1527
 4553TIP3    H213624   5.210   4.007   2.558  1.2887  1.2972  0.1637
 4554TIP3   OH213625   2.553   5.713   0.107  0.1885 -0.1344 -0.9069
 4554TIP3    H113626   2.579   5.714   0.015  1.3642 -1.1378 -0.6149
 4554TIP3    H213627   2.633   5.691   0.154 -0.4440  0.1441  0.3448
 4555TIP3   OH213628   1.532   1.391   3.736 -0.0826  0.3239  0.3245
 4555TIP3    H113629   1.627   1.378   3.734 -0.2749 -2.4229 -3.6144
 4555TIP3    H213630   1.498   1.313   3.779 -0.6181  0.7223  0.6302
 4556TIP3   OH213631   5.803   0.716   0.096 -0.2491  0.0897  0.3972
 4556TIP3    H113632   5.750   0.666   0.158  1.2113 -0.5663  1.1844
 4556TIP3    H213633   5.759   0.705   0.012 -1.5072 -0.1614  1.0718
 4557TIP3   OH213634   7.053   3.018   3.496  0.4773 -0.3455  0.4285
 4557TIP3    H113635   7.107   3.024   3.575 -0.3135  2.5900  0.8582
 4557TIP3    H213636   6.992   2.947   3.515  0.7447 -0.1534  2.1878
 4558TIP3   OH213637   3.249   2.304   5.375  0.0906  0.4799 -0.0667
 4558TIP3    H113638   3.299   2.385   5.363  0.4061  0.5338  1.4137
 4558TIP3    H213639   3.176   2.329   5.432 -0.1679 -0.1350 -0.1219
 4559TIP3   OH213640   1.478   1.732   2.131  0.0816 -0.3197  0.0529
 4559TIP3    H113641   1.553   1.717   2.188  0.8796 -1.2852 -1.2087
 4559TIP3    H213642   1.505   1.804   2.074 -0.6172  0.4727  0.6960
 4560TIP3   OH213643   2.911   3.299   2.243 -0.0150  0.2340  0.5391
 4560TIP3    H113644   2.919   3.257   2.157  1.2965  0.7454  0.3871
 4560TIP3    H213645   2.965   3.246   2.301  2.4843  2.1778  0.1299
 4561TIP3   OH213646   2.667   0.252   2.432  0.0343 -0.3931 -0.0617
 4561TIP3    H113647   2.677   0.163   2.465 -0.1324 -0.0373  0.9871
 4561TIP3    H213648   2.652   0.241   2.338 -0.1972 -1.4747  0.0889
 4562TIP3   OH213649   6.817   4.657   5.198 -0.4687  0.7296  0.2034
 4562TIP3    H113650   6.845   4.600   5.127  1.2468  0.3910  1.0907
 4562TIP3    H213651   6.827   4.745   5.164 -0.0643  0.5619 -0.1175
 4563TIP3   OH213652   2.869   0.555   1.581 -0.0457 -0.1631  0.4555
 4563TIP3    H113653   2.862   0.549   1.677 -1.0340  2.3542  0.6437
 4563TIP3    H213654   2.808   0.626   1.558 -0.0024 -0.8605 -2.0848
 4564TIP3   OH213655   3.888   3.830   3.285 -0.4972  0.0213  0.4404
 4564TIP3    H113656   3.840   3.867   3.359 -0.1714  1.1880  0.0992
 4564TIP3    H213657   3.965   3.887   3.276 -0.4206 -0.2356 -0.6447
 4565TIP3   OH213658   1.515   3.865   5.533 -0.6238 -0.0223  0.4593
 4565TIP3    H113659   1.532   3.791   5.475  0.2236 -0.1862  0.8838
 4565TIP3    H213660   1.589   3.924   5.517 -0.9864  0.4513  0.5453
 4566TIP3   OH213661   5.199   1.507   5.364 -0.4675  0.2792  0.1676
 4566TIP3    H113662   5.156   1.538   5.443 -0.4035 -0.0890  0.3507
 4566TIP3    H213663   5.292   1.523   5.379  0.0752 -3.5403  1.9863
 4567TIP3   OH213664   0.289   0.949   0.509 -0.4330 -0.4364  0.2887
 4567TIP3    H113665   0.232   0.909   0.575 -0.2332  1.3204  1.5982
 4567TIP3    H213666   0.236   0.953   0.430 -0.4844 -3.1318  0.0787
 4568TIP3   OH213667   3.267   3.773   3.002  0.3232 -0.2071 -0.5752
 4568TIP3    H113668   3.194   3.781   2.941  0.3553  0.7567 -0.5037
 4568TIP3    H213669   3.278   3.861   3.038 -0.9156 -1.0973  2.2770
 4569TIP3   OH213670   3.898   3.861   5.773  0.7164  0.8537  0.5323
 4569TIP3    H113671   3.810   3.828   5.755  0.4013  1.0389  1.6887
 4569TIP3    H213672   3.884   3.944   5.819  1.5023  1.8472 -0.9285
 4570TIP3   OH213673   0.659   0.916   1.059  0.3757 -0.0513 -0.5616
 4570TIP3    H113674   0.731   0.979   1.063 -0.2972  0.7923 -1.0972
 4570TIP3    H213675   0.589   0.958   1.109 -0.4404  0.1499 -1.8227
 4571TIP3   OH213676   1.636   4.343   4.860 -0.7061  0.0071 -0.2990
 4571TIP3    H113677   1.666   4.362   4.949 -0.8712 -0.3338 -0.1657
 4571TIP3    H213678   1.716   4.343   4.807 -0.8676  3.1380 -0.7380
 4572TIP3   OH213679   1.866   0.954   5.053 -0.1446  0.2582  0.0282
 4572TIP3    H113680   1.948   0.946   5.101  0.0684 -0.0130 -0.3756
 4572TIP3    H213681   1.812   0.882   5.086 -0.1977  0.3998  0.2505
 4573TIP3   OH213682   3.410   2.709   1.778 -0.2028  0.3080  0.4952
 4573TIP3    H113683   3.446   2.796   1.794 -1.2348  1.4644 -2.7999
 4573TIP3    H213684   3.458   2.676   1.703  0.0791 -2.0185  1.5959
 4574TIP3   OH213685   5.936   3.678   0.313 -0.1440  0.2187  0.1211
 4574TIP3    H113686   5.900   3.733   0.243 -1.4746 -0.8335 -0.0560
 4574TIP3    H213687   5.958   3.596   0.270  1.1074  0.3246  0.5355
 4575TIP3   OH213688   6.780   0.217   3.692  1.0407  0.0955 -0.0326
 4575TIP3    H113689   6.831   0.259   3.761  1.4088  2.5101 -1.6722
 4575TIP3    H213690   6.831   0.139   3.670  1.0570 -0.5922  2.1622
 4576TIP3   OH213691   2.239   1.165   4.416 -0.2536  0.0014 -0.2633
 4576TIP3    H113692   2.165   1.143   4.472 -0.8548  0.7379 -0.7623
 4576TIP3    H213693   2.277   1.244   4.455 -1.1211  0.9507 -1.2849
 4577TIP3   OH213694   4.079   1.680   4.200  0.3449 -0.1313  0.4026
 4577TIP3    H113695   4.104   1.661   4.109 -2.3116 -1.7384 -0.1057
 4577TIP3    H213696   4.102   1.600   4.248 -0.2277 -0.1147  0.7046
 4578TIP3   OH213697   4.474   2.334   3.045  0.2138  0.1000  0.3611
 4578TIP3    H113698   4.469   2.395   3.118  1.1470 -0.4033  0.8622
 4578TIP3    H213699   4.383   2.319   3.020 -0.0326  2.1537 -0.1784
 4579TIP3   OH213700   1.153   0.927   0.973 -0.4077  0.2421  0.2859
 4579TIP3    H113701   1.240   0.890   0.954 -0.1830  1.0394 -0.2981
 4579TIP3    H213702   1.108   0.926   0.889 -0.5826  0.8207  0.3705
 4580TIP3   OH213703   0.795   3.067   0.147  0.2533 -0.9616  0.4628
 4580TIP3    H113704   0.751   3.033   0.225  0.9094 -0.2854  1.1446
 4580TIP3    H213705   0.761   3.156   0.136  0.0889 -1.0845 -0.0939
 4581TIP3   OH213706   2.156   2.686   1.733 -0.1681 -0.1192 -0.1795
 4581TIP3    H113707   2.097   2.635   1.790 -0.1154  1.1483  1.0648
 4581TIP3    H213708   2.159   2.772   1.773  0.8460  0.4730 -1.4653
 4582TIP3   OH213709   3.641   0.115   2.282 -0.7077 -0.2243 -0.0210
 4582TIP3    H113710   3.607   0.177   2.347 -1.2785  0.0295 -0.5505
 4582TIP3    H213711   3.689   0.169   2.219  2.2568 -0.7386  1.6226
 4583TIP3   OH213712   4.046   6.044   2.898 -0.0655  0.6733  0.4669
 4583TIP3    H113713   4.126   6.059   2.949 -0.1513 -0.8422  1.0835
 4583TIP3    H213714   4.051   5.952   2.872 -0.2542  1.2879 -1.9257
 4584TIP3   OH213715   4.187   4.270   1.723 -0.0363 -0.3339  0.1468
 4584TIP3    H113716   4.128   4.342   1.747 -1.8934 -1.8799  0.4703
 4584TIP3    H213717   4.198   4.279   1.628 -2.2202 -0.9333 -0.2371
 4585TIP3   OH213718   1.403   1.828   3.305  0.3051  0.2792 -0.3242
 4585TIP3    H113719   1.393   1.916   3.269  0.0069  0.7059  0.7619
 4585TIP3    H213720   1.486   1.797   3.269  1.8215  2.0842  1.3795
 4586TIP3   OH213721   5.452   2.640   1.009  0.1736 -0.1073  0.1586
 4586TIP3    H113722   5.473   2.616   0.919  0.3965 -1.1452  0.4734
 4586TIP3    H213723   5.395   2.717   1.001  1.4130  0.7500 -0.8165
 4587TIP3   OH213724   0.617   3.701   2.591  0.1592 -0.0987  0.7093
 4587TIP3    H113725   0.566   3.686   2.671 -0.8453  0.8467  0.2648
 4587TIP3    H213726   0.629   3.795   2.588  0.6067 -0.1777 -0.0094
 4588TIP3   OH213727   4.951   3.158   1.331  0.0189 -0.8622  0.0723
 4588TIP3    H113728   5.047   3.159   1.333  0.0440 -1.7189 -0.2755
 4588TIP3    H213729   4.929   3.190   1.243 -0.0259 -0.4393  0.2347
 4589TIP3   OH213730   5.688   3.196   3.342  0.1945  0.0812 -0.6033
 4589TIP3    H113731   5.622   3.220   3.276 -1.2252 -0.9220  0.4133
 4589TIP3    H213732   5.638   3.186   3.423  1.9687  1.8115  0.8059
 4590TIP3   OH213733  -0.030   5.492   5.757  0.1414 -0.1728  0.0110
 4590TIP3    H113734   0.031   5.482   5.684  1.9190  0.0118  1.4220
 4590TIP3    H213735   0.025   5.498   5.835 -1.7075 -0.6629  1.4334
 4591TIP3   OH213736   1.369   1.756   3.579 -0.2598  0.3442  0.1622
 4591TIP3    H113737   1.320   1.826   3.623 -0.5339  0.5823 -0.5112
 4591TIP3    H213738   1.356   1.773   3.486  2.6032  1.4997 -0.1201
 4592TIP3   OH213739   4.568   6.597   2.268  0.3156 -0.5214 -0.0085
 4592TIP3    H113740   4.482   6.598   2.310  0.4580 -0.8515  0.3027
 4592TIP3    H213741   4.558   6.536   2.195  0.3417 -0.7167  0.1511
 4593TIP3   OH213742   3.340   4.133   5.217  0.2463 -0.7360 -0.0677
 4593TIP3    H113743   3.265   4.080   5.193 -0.1625  0.4684 -1.6991
 4593TIP3    H213744   3.378   4.090   5.293 -1.6925 -1.7437  0.3807
 4594TIP3   OH213745   5.282   3.021   0.363  0.2989 -0.2871 -0.0958
 4594TIP3    H113746   5.304   3.108   0.396 -2.5010  0.4040  0.2174
 4594TIP3    H213747   5.317   3.019   0.274  1.5278  0.6357  0.3392
 4595TIP3   OH213748   5.099   5.227   5.749 -0.4082 -0.1634 -0.2330
 4595TIP3    H113749   5.011   5.219   5.787 -1.3992  2.6922 -1.6202
 4595TIP3    H213750   5.091   5.188   5.663  0.7999 -3.2006  0.9109
 4596TIP3   OH213751   6.256   3.717   5.574  0.5062 -0.6295  0.1829
 4596TIP3    H113752   6.285   3.692   5.487 -1.1735 -0.3108 -0.5058
 4596TIP3    H213753   6.311   3.792   5.598  0.3745 -0.1455 -0.9887
 4597TIP3   OH213754   3.059   1.773   5.244 -0.1620  0.0841 -0.2958
 4597TIP3    H113755   3.087   1.851   5.292 -1.3046 -0.0051  0.5547
 4597TIP3    H213756   3.124   1.763   5.175 -0.2849  2.0923 -0.7618
 4598TIP3   OH213757   6.422   5.843   3.477 -0.2221  0.1194 -0.0716
 4598TIP3    H113758   6.382   5.760   3.450  0.6041 -0.8110  1.4039
 4598TIP3    H213759   6.366   5.875   3.548 -0.4272  0.7277 -0.5049
 4599TIP3   OH213760   1.411   2.367   2.519 -0.5410  0.3830 -0.3261
 4599TIP3    H113761   1.396   2.336   2.608 -1.2030 -1.6058 -1.0608
 4599TIP3    H213762   1.490   2.420   2.524  0.9848 -1.8541  1.0257
 4600TIP3   OH213763   0.864   2.499   0.136  0.1199 -0.3528 -0.7967
 4600TIP3    H113764   0.802   2.426   0.135  0.0400 -0.3251  0.5430
 4600TIP3    H213765   0.885   2.512   0.229  1.1208  0.4960 -1.1174
 4601TIP3   OH213766   1.788   3.735   4.371 -0.7721 -0.4050  0.3144
 4601TIP3    H113767   1.853   3.668   4.352 -0.5000  0.1432 -0.7587
 4601TIP3    H213768   1.725   3.728   4.300  0.5050  2.0026 -1.1739
 4602TIP3   OH213769   2.388   3.953   0.684 -0.0408  0.1198 -0.3108
 4602TIP3    H113770   2.374   3.970   0.777 -0.4462 -0.8665 -0.1801
 4602TIP3    H213771   2.367   4.036   0.641 -2.3919 -0.1313  0.2363
 4603TIP3   OH213772   4.158   0.296   4.878  0.4106  0.0625  0.2622
 4603TIP3    H113773   4.238   0.289   4.930 -0.0343  0.2003  0.9666
 4603TIP3    H213774   4.117   0.377   4.908  0.1740  0.1707 -0.3433
 4604TIP3   OH213775   1.383   0.738   2.698  0.5399 -0.2504  1.4851
 4604TIP3    H113776   1.449   0.668   2.697 -1.4263 -2.3494 -1.5186
 4604TIP3    H213777   1.305   0.697   2.736 -0.4466  0.4913  0.3492
 4605TIP3   OH213778   4.199   2.068   1.362 -0.3407 -0.0421 -0.0584
 4605TIP3    H113779   4.184   2.059   1.456 -0.9459  0.9674 -0.0398
 4605TIP3    H213780   4.111   2.065   1.324 -0.1675  0.3523 -0.5049
 4606TIP3   OH213781   5.795   1.306   3.058 -0.0843  0.1395  0.2037
 4606TIP3    H113782   5.734   1.248   3.104  0.3100  0.8767  1.7105
 4606TIP3    H213783   5.877   1.297   3.106  0.5951  0.3163 -0.8855
 4607TIP3   OH213784   2.193   6.094   3.374  0.9484  0.0983 -0.5351
 4607TIP3    H113785   2.160   6.023   3.318 -0.5169  1.8505 -2.0497
 4607TIP3    H213786   2.228   6.159   3.312  1.4074  1.1116  0.7380
 4608TIP3   OH213787   0.678   5.753   1.156  0.3564 -0.0832 -0.2500
 4608TIP3    H113788   0.682   5.667   1.198 -1.9119 -0.7848 -1.3091
 4608TIP3    H213789   0.649   5.735   1.066  1.9285  1.6306 -1.1819
 4609TIP3   OH213790   6.007   3.721   4.083 -0.7254  0.2745 -0.3015
 4609TIP3    H113791   5.945   3.700   4.152 -1.5249 -0.4208 -1.2122
 4609TIP3    H213792   6.003   3.647   4.022  1.1874  0.0832 -0.2689
 4610TIP3   OH213793   1.638   0.597   0.651  0.0527  0.3655  0.1470
 4610TIP3    H113794   1.679   0.657   0.713  0.2288  1.1748 -0.7352
 4610TIP3    H213795   1.641   0.512   0.694 -1.6557  1.2293  2.1352
 4611TIP3   OH213796   2.578   1.385   2.295  0.2327 -0.1653 -0.4076
 4611TIP3    H113797   2.614   1.472   2.314  1.9829 -0.9368  0.0401
 4611TIP3    H213798   2.485   1.392   2.315  0.5638  1.2770  0.7902
 4612TIP3   OH213799   1.514   4.774   2.864  0.2460  0.6020 -0.2448
 4612TIP3    H113800   1.440   4.821   2.824  0.1758  0.6890 -0.0155
 4612TIP3    H213801   1.484   4.683   2.870  0.1511  0.6395 -0.1419
 4613TIP3   OH213802   0.291   6.218   3.118 -0.8796  0.1633 -0.0826
 4613TIP3    H113803   0.273   6.132   3.155  0.3382  0.6012  1.6692
 4613TIP3    H213804   0.300   6.202   3.024 -2.5014 -1.2795 -0.0401
 4614TIP3   OH213805   1.653   1.632   5.520  0.0208 -0.8067 -0.1730
 4614TIP3    H113806   1.608   1.678   5.590 -1.3574  1.0694 -2.1453
 4614TIP3    H213807   1.584   1.614   5.455  1.4266 -1.3221 -1.6000
 4615TIP3   OH213808   4.008   0.074   0.798 -0.1099  0.0205 -0.2593
 4615TIP3    H113809   3.967  -0.012   0.787 -0.2239  0.1838 -1.1917
 4615TIP3    H213810   4.101   0.058   0.782  0.2672 -0.3589  1.8995
 4616TIP3   OH213811   5.354   6.087   3.681  0.1532 -0.3388  0.0328
 4616TIP3    H113812   5.438   6.077   3.636  0.8598  0.0262  1.2366
 4616TIP3    H213813   5.317   5.999   3.684  1.0100 -0.6915  0.4646
 4617TIP3   OH213814   4.675   4.626   2.572 -0.0521 -0.8891  0.2574
 4617TIP3    H113815   4.638   4.670   2.648  1.2428  0.6920  0.0233
 4617TIP3    H213816   4.765   4.605   2.597  1.0536  1.4005 -1.3934
 4618TIP3   OH213817   1.236   3.938   0.046 -0.4796 -0.1800 -0.0697
 4618TIP3    H113818   1.271   4.025   0.026 -0.1695 -0.5444 -1.2377
 4618TIP3    H213819   1.150   3.937   0.003 -0.4137 -0.5023 -0.1952
 4619TIP3   OH213820   4.573   4.040   2.196 -0.2110 -0.6094  0.6198
 4619TIP3    H113821   4.506   3.972   2.201  0.2923 -1.2509 -0.7233
 4619TIP3    H213822   4.524   4.121   2.185 -0.7838 -0.9273  0.7588
 4620TIP3   OH213823   6.687   6.638   2.822  0.3986  0.2717  0.1769
 4620TIP3    H113824   6.623   6.706   2.841  0.6954  0.8388 -0.8256
 4620TIP3    H213825   6.768   6.684   2.806  1.6490 -0.5210  3.4449
 4621TIP3   OH213826   0.728   3.077   1.773  0.2720  0.1207 -0.0342
 4621TIP3    H113827   0.635   3.085   1.794 -0.5847 -2.4329 -2.2658
 4621TIP3    H213828   0.756   3.166   1.752 -1.4116  1.0770  1.5613
 4622TIP3   OH213829   2.969   6.709   2.459  0.2078  0.2317 -0.4844
 4622TIP3    H113830   2.919   6.773   2.407  0.9336 -0.3062 -1.9236
 4622TIP3    H213831   2.973   6.747   2.546 -3.2842 -0.0256 -0.0799
 4623TIP3   OH213832   6.514   5.789   0.146  0.1339 -0.0815 -0.1150
 4623TIP3    H113833   6.467   5.873   0.146  0.7858  0.2987  1.2820
 4623TIP3    H213834   6.473   5.738   0.216 -0.5531 -1.1234 -1.2411
 4624TIP3   OH213835   2.513   0.876   3.729 -0.3126 -0.0255  0.1440
 4624TIP3    H113836   2.495   0.824   3.807 -3.0766  0.2557 -0.1924
 4624TIP3    H213837   2.427   0.891   3.690  0.8253  1.1740 -2.1169
 4625TIP3   OH213838   0.239   2.299   0.011 -0.0452  0.1632 -0.4613
 4625TIP3    H113839   0.328   2.292  -0.024  0.8032  1.1315  1.3670
 4625TIP3    H213840   0.250   2.298   0.106 -1.8896  1.3535 -0.1802
 4626TIP3   OH213841   4.832   6.233   0.588  0.0560 -0.2034  0.3386
 4626TIP3    H113842   4.810   6.294   0.659 -1.5296  0.1661 -0.4401
 4626TIP3    H213843   4.780   6.155   0.606  1.8768 -1.2875  1.1776
 4627TIP3   OH213844   6.578   0.052   0.646 -0.0830 -0.0669 -0.4030
 4627TIP3    H113845   6.599   0.134   0.600 -2.0172  0.6466 -0.0889
 4627TIP3    H213846   6.483   0.045   0.641 -0.3890 -0.1541  3.1456
 4628TIP3   OH213847   3.641   3.235   0.757  0.0446 -0.7281 -1.4815
 4628TIP3    H113848   3.704   3.297   0.721 -1.9368  2.0683 -0.4487
 4628TIP3    H213849   3.691   3.185   0.822  1.2687  1.2540 -0.8401
 4629TIP3   OH213850   4.938   2.550   3.803  0.1138  0.0185 -0.1357
 4629TIP3    H113851   4.872   2.495   3.760 -0.8965  0.6389  0.5758
 4629TIP3    H213852   4.932   2.526   3.896 -1.1315  2.0482  0.3718
 4630TIP3   OH213853   4.855   3.291   4.673  0.0918  0.2765  0.7079
 4630TIP3    H113854   4.847   3.200   4.645  0.6671  0.5705 -0.4964
 4630TIP3    H213855   4.773   3.310   4.718 -0.7986 -0.3264 -0.5882
 4631TIP3   OH213856   7.026   5.131   3.517  0.5373 -0.3326  0.0742
 4631TIP3    H113857   7.057   5.218   3.545 -0.0679 -0.6914  1.9926
 4631TIP3    H213858   7.067   5.118   3.432  3.0678  0.6004  1.0463
 4632TIP3   OH213859   3.202   5.436   2.135 -0.1391  0.4091 -0.2091
 4632TIP3    H113860   3.158   5.520   2.137 -1.5141 -0.3010  0.6551
 4632TIP3    H213861   3.137   5.374   2.168  0.3095 -1.2517 -2.2745
 4633TIP3   OH213862   5.101   0.507   3.983 -0.6355 -0.4159 -0.7392
 4633TIP3    H113863   5.169   0.570   3.957 -1.5956  0.3506 -1.4677
 4633TIP3    H213864   5.047   0.497   3.905  0.1900 -3.1512 -1.0935
 4634TIP3   OH213865   0.073   1.132   0.767  0.1816 -0.6886  0.0090
 4634TIP3    H113866   0.165   1.104   0.766  0.8140  1.1367  1.4943
 4634TIP3    H213867   0.074   1.217   0.724 -0.6990 -0.3600  0.6176
 4635TIP3   OH213868   0.362   3.637   0.761  0.3487  0.1223 -0.3625
 4635TIP3    H113869   0.382   3.663   0.671 -0.1830  0.2643 -0.4438
 4635TIP3    H213870   0.352   3.542   0.757 -2.5052  0.3637 -1.0500
 4636TIP3   OH213871   6.111   1.137   4.688 -0.3199  0.5187 -0.5641
 4636TIP3    H113872   6.025   1.135   4.646  0.5166 -1.2226 -2.3270
 4636TIP3    H213873   6.173   1.146   4.616  1.1359 -1.2973  0.3756
 4637TIP3   OH213874   1.887   5.424   2.567  0.5249 -0.3270  0.2593
 4637TIP3    H113875   1.860   5.342   2.607  0.8645 -0.2943  0.5633
 4637TIP3    H213876   1.982   5.417   2.558  0.7468  0.5867  1.6065
 4638TIP3   OH213877   1.335   2.031   5.296  0.7023  0.5992  0.4055
 4638TIP3    H113878   1.259   1.991   5.253  1.2532  1.8054 -1.8839
 4638TIP3    H213879   1.408   1.974   5.274  0.5851 -0.3520  2.2865
 4639TIP3   OH213880   1.037   1.876   4.412  0.5071 -0.1478 -0.1530
 4639TIP3    H113881   1.100   1.833   4.353  1.4152 -0.8561  1.2756
 4639TIP3    H213882   0.978   1.806   4.440 -0.6170  0.4100 -1.0580
 4640TIP3   OH213883   3.819   6.671   3.551  0.2242 -0.9683  0.2288
 4640TIP3    H113884   3.773   6.604   3.500  0.5186 -0.0783 -1.3028
 4640TIP3    H213885   3.817   6.748   3.494  0.5759  0.0952  1.6070
 4641TIP3   OH213886   2.475   2.791   1.030  0.0567 -0.0138 -0.1596
 4641TIP3    H113887   2.517   2.870   0.996 -1.2379  0.5386 -0.5147
 4641TIP3    H213888   2.483   2.799   1.125 -0.0072  0.5030 -0.1966
 4642TIP3   OH213889   2.357   1.883   0.977 -0.2625  0.4160  0.4503
 4642TIP3    H113890   2.292   1.952   0.992  0.2693  1.3547 -1.2471
 4642TIP3    H213891   2.308   1.814   0.931  0.1831  1.8764 -2.4780
 4643TIP3   OH213892   4.152   3.521   0.593 -0.4561 -0.2104 -0.5609
 4643TIP3    H113893   4.242   3.513   0.561 -0.2618  0.9427 -0.3538
 4643TIP3    H213894   4.146   3.455   0.662  0.5906  0.4379  0.1823
 4644TIP3   OH213895   4.345   6.697   2.415 -0.6068 -0.0373  0.0705
 4644TIP3    H113896   4.368   6.788   2.429  0.9135  0.5812 -4.7798
 4644TIP3    H213897   4.396   6.649   2.481 -0.2430  2.4263  1.7158
 4645TIP3   OH213898   2.561   0.327   3.900  0.0995 -0.4612  0.0358
 4645TIP3    H113899   2.503   0.316   3.825 -0.3176  0.9371  0.1386
 4645TIP3    H213900   2.502   0.338   3.975  0.4833  0.6669  0.1856
 4646TIP3   OH213901   3.369   0.521   4.849  0.1412 -0.3331 -0.1338
 4646TIP3    H113902   3.417   0.480   4.776  0.5533 -1.5012  0.7645
 4646TIP3    H213903   3.298   0.459   4.869  1.0236 -0.8693  1.5260
 4647TIP3   OH213904   5.740   3.392   3.802 -0.1876 -0.4215 -0.0936
 4647TIP3    H113905   5.667   3.426   3.853 -0.4219 -0.5930 -0.3161
 4647TIP3    H213906   5.772   3.317   3.853  0.3648  0.1508  0.4241
 4648TIP3   OH213907   5.791   3.896   5.776 -0.3800 -0.2666  0.7428
 4648TIP3    H113908   5.882   3.924   5.766 -0.5941  0.1005 -0.4251
 4648TIP3    H213909   5.741   3.960   5.724 -0.8926 -2.7585 -2.1183
 4649TIP3   OH213910   2.604   0.438   4.632 -0.0289 -0.1513 -0.0314
 4649TIP3    H113911   2.527   0.383   4.645 -1.0999  1.0342 -1.1559
 4649TIP3    H213912   2.571   0.528   4.636  1.4260  0.4059  0.2084
 4650TIP3   OH213913   1.435   5.883   4.061 -0.0211 -0.5071 -0.4055
 4650TIP3    H113914   1.450   5.904   3.969 -2.6235 -1.3988 -1.1111
 4650TIP3    H213915   1.463   5.792   4.069  1.4385 -0.0496  0.0676
 4651TIP3   OH213916   6.354   6.074   4.335  0.1947 -0.1739 -0.2914
 4651TIP3    H113917   6.416   6.066   4.408 -0.6989 -0.5613  0.4459
 4651TIP3    H213918   6.404   6.047   4.258  0.4054 -2.4430  0.5681
 4652TIP3   OH213919   7.210   5.025   0.875  0.3492 -0.3228 -0.2364
 4652TIP3    H113920   7.201   4.937   0.839  3.5773 -0.6330 -0.5892
 4652TIP3    H213921   7.220   5.081   0.798  0.1910  0.0806  0.0329
 4653TIP3   OH213922   4.334   5.039   5.801 -0.4579 -0.1981 -0.1779
 4653TIP3    H113923   4.423   5.070   5.785 -0.3899  0.5366  1.4419
 4653TIP3    H213924   4.316   4.979   5.729  1.7261 -1.1725  0.0313
 4654TIP3   OH213925   4.954   0.022   0.021  0.3836  0.2846  0.3366
 4654TIP3    H113926   5.031   0.057   0.067  0.9257 -0.2319 -0.1642
 4654TIP3    H213927   4.986   0.001  -0.066 -0.1258 -0.7256  0.3843
 4655TIP3   OH213928   0.859   4.987   4.747  0.0077 -0.4014 -0.1648
 4655TIP3    H113929   0.878   5.044   4.821 -1.7655 -0.3207  0.2779
 4655TIP3    H213930   0.853   4.899   4.785  1.2793 -0.7010 -0.6054
 4656TIP3   OH213931   0.624   5.483   0.649 -0.2502  0.1406  0.0525
 4656TIP3    H113932   0.554   5.422   0.626 -1.0692  1.3872 -0.9014
 4656TIP3    H213933   0.586   5.569   0.634  0.8980  0.9006  1.3139
 4657TIP3   OH213934   1.623   2.513   3.290 -0.1072  0.1862  0.0698
 4657TIP3    H113935   1.715   2.487   3.291  0.0631  0.7525  1.3831
 4657TIP3    H213936   1.575   2.433   3.309  0.2375  0.2494  1.2556
 4658TIP3   OH213937   6.224   5.190   1.057  0.1509  0.0702  0.6689
 4658TIP3    H113938   6.216   5.094   1.057  3.5309 -0.3299  0.4851
 4658TIP3    H213939   6.237   5.213   1.149 -2.3383  0.6452  0.9486
 4659TIP3   OH213940   1.429   4.868   1.487 -0.3592  0.4355 -0.1379
 4659TIP3    H113941   1.344   4.825   1.495 -0.8810  1.3720 -0.4486
 4659TIP3    H213942   1.442   4.912   1.571 -0.8287  1.4037 -0.5518
 4660TIP3   OH213943   4.177   6.349   3.625 -0.2098 -0.5486  0.1439
 4660TIP3    H113944   4.086   6.332   3.601 -0.0261  0.2553 -1.2223
 4660TIP3    H213945   4.171   6.414   3.696 -0.7015  0.2381 -0.5890
 4661TIP3   OH213946   3.567   1.964   0.298 -0.0627  0.2634  0.2182
 4661TIP3    H113947   3.627   1.922   0.360  0.2904 -2.2582 -1.6584
 4661TIP3    H213948   3.623   1.997   0.228 -0.6199  1.0177  0.1175
 4662TIP3   OH213949   5.596   2.598   3.819 -0.0898 -0.4039 -0.3788
 4662TIP3    H113950   5.585   2.564   3.907  0.3965  1.0346  0.2570
 4662TIP3    H213951   5.530   2.552   3.767  0.0815 -1.7635  0.5751
 4663TIP3   OH213952   4.718   6.292   4.755 -0.1802  0.2442 -0.5825
 4663TIP3    H113953   4.627   6.266   4.767  0.0728 -0.6910 -0.5829
 4663TIP3    H213954   4.736   6.274   4.663  0.9405 -2.8556  0.1045
 4664TIP3   OH213955   1.751   6.332   4.843 -0.3113 -0.2659  0.7196
 4664TIP3    H113956   1.819   6.291   4.790 -0.3788 -0.4145  0.7474
 4664TIP3    H213957   1.691   6.261   4.864 -1.3378  0.1740 -0.6267
 4665TIP3   OH213958   0.216   6.510   4.420 -0.3448 -0.7200 -0.4360
 4665TIP3    H113959   0.255   6.467   4.344 -0.0356  2.0373 -1.9631
 4665TIP3    H213960   0.258   6.596   4.424 -1.4165 -0.2029  1.9950
 4666TIP3   OH213961   4.442   3.122   3.866 -0.0262  0.2737  0.9290
 4666TIP3    H113962   4.379   3.190   3.891 -0.1959  0.2627  0.5288
 4666TIP3    H213963   4.420   3.100   3.776 -1.4714 -1.9516  1.7392
 4667TIP3   OH213964   1.321   3.631   3.503  0.1910 -0.2624  0.3249
 4667TIP3    H113965   1.263   3.699   3.538  2.4469  2.3839 -0.6847
 4667TIP3    H213966   1.275   3.549   3.520 -1.1673  1.1293  4.8592
 4668TIP3   OH213967   3.524   2.316   1.798 -0.2628 -0.3843 -0.0674
 4668TIP3    H113968   3.467   2.382   1.837 -1.3280 -1.5543  0.4265
 4668TIP3    H213969   3.576   2.283   1.871 -1.2510 -1.5720  0.1311
 4669TIP3   OH213970   1.850   0.492   2.308  0.1246  0.1256 -0.4218
 4669TIP3    H113971   1.903   0.417   2.333 -1.1217 -1.5112 -2.3018
 4669TIP3    H213972   1.839   0.483   2.213 -1.1178  1.9854 -0.5157
 4670TIP3   OH213973   5.220   3.831   0.480  0.1214  0.2517  0.2669
 4670TIP3    H113974   5.283   3.763   0.456 -0.9232 -0.4372 -0.6051
 4670TIP3    H213975   5.274   3.906   0.505  1.3025  0.1875 -1.8797
 4671TIP3   OH213976   2.049   2.405   0.081  0.0760  0.1989 -0.3111
 4671TIP3    H113977   1.987   2.428   0.012 -0.1872  0.2908 -0.0451
 4671TIP3    H213978   2.120   2.361   0.035 -1.1748 -1.8827 -0.3730
 4672TIP3   OH213979   2.941   4.582   5.051  0.1427  0.3553  0.6781
 4672TIP3    H113980   2.911   4.516   5.114 -0.3179  0.1614  0.2597
 4672TIP3    H213981   3.017   4.541   5.009  0.8482  0.7347  1.5367
 4673TIP3   OH213982   3.370   0.428   1.422  0.4110  0.1700 -0.2735
 4673TIP3    H113983   3.456   0.454   1.457  0.3574  2.5311 -1.6938
 4673TIP3    H213984   3.347   0.349   1.471  3.5683 -0.7883 -0.1105
 4674TIP3   OH213985   1.738   4.261   2.157 -0.3643  0.4853  0.3311
 4674TIP3    H113986   1.664   4.308   2.194 -1.8452  0.0016 -1.8108
 4674TIP3    H213987   1.783   4.223   2.232 -1.3429  2.1068  1.8113
 4675TIP3   OH213988   5.464   4.172   1.329 -0.1468 -0.4151  0.3125
 4675TIP3    H113989   5.436   4.263   1.337 -1.1908 -0.6353 -0.5511
 4675TIP3    H213990   5.558   4.174   1.349 -0.1094  0.8793  0.1222
 4676TIP3   OH213991   2.268   3.377   5.052 -0.0847  0.2708  0.1910
 4676TIP3    H113992   2.359   3.403   5.048 -0.4030  1.2775 -1.7658
 4676TIP3    H213993   2.241   3.370   4.960 -2.1124  0.4954  0.7236
 4677TIP3   OH213994   3.739   1.737   1.092  0.1026 -0.0995 -0.8871
 4677TIP3    H113995   3.809   1.780   1.143 -0.6514 -0.3353  0.3870
 4677TIP3    H213996   3.699   1.676   1.154 -0.1769 -1.1743 -2.0858
 4678TIP3   OH213997   5.157   0.234   1.822 -0.2760  0.2075  0.0388
 4678TIP3    H113998   5.089   0.266   1.763  0.0708 -1.3751 -1.3004
 4678TIP3    H213999   5.224   0.303   1.822 -0.3169  0.2713 -1.3804
 4679TIP3   OH214000   2.014   5.414   1.457 -0.0056  0.2379 -0.0997
 4679TIP3    H114001   2.095   5.374   1.425 -0.1645 -0.5168  0.4217
 4679TIP3    H214002   2.010   5.499   1.412  0.5791 -0.1208 -0.8538
 4680TIP3   OH214003   0.906   5.183   2.594  0.5403 -0.0600  0.4789
 4680TIP3    H114004   0.844   5.136   2.649 -0.2776  0.7349  0.2680
 4680TIP3    H214005   0.981   5.201   2.651  0.4975 -0.8574  0.7923
 4681TIP3   OH214006   2.165   4.396   2.482  0.1537  0.0823  0.0727
 4681TIP3    H114007   2.119   4.410   2.399  0.0749  2.0743  0.4038
 4681TIP3    H214008   2.242   4.344   2.458  0.5091  1.2142 -1.3810
 4682TIP3   OH214009   6.058   5.344   1.543 -0.1842 -0.1918  0.4221
 4682TIP3    H114010   6.130   5.406   1.531  1.2759 -1.4579  2.1860
 4682TIP3    H214011   6.097   5.259   1.525 -2.4249 -0.6863 -3.1317
 4683TIP3   OH214012   0.165   1.243   1.467  0.4256  0.2328 -0.1546
 4683TIP3    H114013   0.141   1.150   1.470  1.5411 -0.0424  1.2429
 4683TIP3    H214014   0.254   1.244   1.432 -0.0400  0.9059 -1.3719
 4684TIP3   OH214015   0.357   4.936   2.001  0.1862  0.3188 -0.2361
 4684TIP3    H114016   0.395   4.933   2.089  0.2074 -0.0606 -0.2568
 4684TIP3    H214017   0.372   4.849   1.965 -1.1818 -0.0325 -0.0380
 4685TIP3   OH214018   0.162   5.554   1.592  0.3319  0.3252 -0.2128
 4685TIP3    H114019   0.251   5.587   1.595  0.8745 -1.1760  0.5899
 4685TIP3    H214020   0.118   5.596   1.666  0.2304  1.3721 -0.8397
 4686TIP3   OH214021   2.357   0.245   0.254  0.8065 -0.3138 -0.2574
 4686TIP3    H114022   2.335   0.185   0.183 -0.7825  1.7634 -1.6607
 4686TIP3    H214023   2.272   0.275   0.287  1.5268  1.2236  0.2903
 4687TIP3   OH214024   3.316   6.791   5.822 -0.1301 -0.7237  0.2493
 4687TIP3    H114025   3.359   6.708   5.802 -0.0516 -0.5982 -0.1107
 4687TIP3    H214026   3.350   6.815   5.908  0.6207 -0.5690 -0.0803
 4688TIP3   OH214027   1.207   5.510   5.658 -0.2749  0.4771 -0.3972
 4688TIP3    H114028   1.259   5.479   5.585  0.7053 -1.5415  1.0777
 4688TIP3    H214029   1.128   5.456   5.657  0.1550 -0.2004  0.5291
 4689TIP3   OH214030   6.283   2.067   4.949 -0.2267 -0.7272  0.3562
 4689TIP3    H114031   6.309   2.144   4.999 -0.9622 -0.3077  0.1027
 4689TIP3    H214032   6.250   2.006   5.015 -2.1520  0.2073  0.3513
 4690TIP3   OH214033   2.430   5.081   0.778 -0.2861 -0.1301  0.3739
 4690TIP3    H114034   2.422   5.085   0.683  1.6134 -1.3665  0.1131
 4690TIP3    H214035   2.504   5.138   0.798  0.1794 -0.9178  0.9508
 4691TIP3   OH214036   4.572   3.522   3.278 -0.2303 -0.0225  0.5502
 4691TIP3    H114037   4.578   3.586   3.349 -1.0164 -0.1222  0.7137
 4691TIP3    H214038   4.629   3.450   3.305 -1.9568 -0.9037  1.9926
 4692TIP3   OH214039   4.458   3.022   5.257 -0.2586 -0.2997 -0.2569
 4692TIP3    H114040   4.470   3.056   5.346 -1.1557 -2.2819  0.6665
 4692TIP3    H214041   4.366   3.037   5.237 -0.1463 -0.2009 -0.7258
 4693TIP3   OH214042   2.532   1.359   0.379 -0.2068  0.3971  0.3993
 4693TIP3    H114043   2.587   1.432   0.407  0.1550 -0.7784  3.0854
 4693TIP3    H214044   2.593   1.294   0.345  0.0940 -0.5258  2.5136
 4694TIP3   OH214045   2.477   2.797   2.563 -1.0573 -0.0019 -0.5220
 4694TIP3    H114046   2.504   2.888   2.551 -2.5949  0.3295 -1.8909
 4694TIP3    H214047   2.530   2.765   2.636 -1.7902  2.5228  1.2460
 4695TIP3   OH214048   1.586   6.112   4.193  0.4774 -0.3099  0.0348
 4695TIP3    H114049   1.598   6.173   4.120 -1.1320 -1.2586 -1.0873
 4695TIP3    H214050   1.497   6.081   4.183  1.0425 -2.3708  0.9391
 4696TIP3   OH214051   3.600   5.212   3.229 -0.4550 -0.0519  0.4492
 4696TIP3    H114052   3.610   5.302   3.261 -0.2908  0.0070  0.2307
 4696TIP3    H214053   3.685   5.171   3.246 -0.7123 -0.3364  1.0838
 4697TIP3   OH214054   0.850   4.462   4.481  0.5016  0.0714 -0.3079
 4697TIP3    H114055   0.920   4.452   4.417  0.1976  0.5782 -0.7277
 4697TIP3    H214056   0.772   4.427   4.438  0.3032  0.3837 -0.2107
 4698TIP3   OH214057   5.570   5.292   0.441 -0.3972 -0.3901  0.2925
 4698TIP3    H114058   5.643   5.241   0.406  0.4657  0.7151  0.4327
 4698TIP3    H214059   5.537   5.239   0.513 -0.5314 -1.4779 -0.5523
 4699TIP3   OH214060   0.627   2.933   4.677  0.3016 -0.4327 -0.1088
 4699TIP3    H114061   0.704   2.933   4.734 -0.0311 -0.2600  0.3504
 4699TIP3    H214062   0.565   2.991   4.721  0.2970  0.2665 -1.0110
 4700TIP3   OH214063   6.896   2.571   5.634  0.8172  0.4143 -0.2742
 4700TIP3    H114064   6.854   2.510   5.695  2.5460  0.7675  1.3780
 4700TIP3    H214065   6.934   2.638   5.691  0.3634  2.1782 -1.9419
 4701TIP3   OH214066   3.439   6.788   1.897  0.1067 -0.4937  0.1303
 4701TIP3    H114067   3.431   6.868   1.948 -1.5407  0.5047 -1.5676
 4701TIP3    H214068   3.443   6.718   1.963  4.6761  1.0144  1.7862
 4702TIP3   OH214069   2.930   0.157   3.101 -0.3629 -0.2285 -0.7376
 4702TIP3    H114070   2.904   0.197   3.184 -0.0958 -0.7908 -0.3783
 4702TIP3    H214071   2.871   0.196   3.036 -0.1193  0.7410 -0.3992
 4703TIP3   OH214072   2.176   5.016   1.791 -0.1636 -0.4808 -0.1405
 4703TIP3    H114073   2.126   5.098   1.791 -1.1738 -1.0634 -0.5286
 4703TIP3    H214074   2.144   4.968   1.868  0.7662 -0.3148  0.3519
 4704TIP3   OH214075   6.079   2.793   0.047 -0.5499 -0.3036  0.1434
 4704TIP3    H114076   6.029   2.874   0.054 -1.0498 -0.6533  0.7336
 4704TIP3    H214077   6.018   2.730   0.008 -0.1817 -0.4116 -0.2679
 4705TIP3   OH214078   2.784   4.735   5.257 -0.0753  0.2050  0.1274
 4705TIP3    H114079   2.747   4.813   5.298 -0.1197  0.7851 -0.9799
 4705TIP3    H214080   2.736   4.725   5.175 -0.9010 -1.7099  0.7990
 4706TIP3   OH214081   1.067   4.166   0.573 -0.2848  0.5891  0.3158
 4706TIP3    H114082   1.076   4.073   0.551 -1.9908 -0.4219  3.2261
 4706TIP3    H214083   1.006   4.201   0.508  1.1108 -0.0390 -1.3916
 4707TIP3   OH214084   2.440   4.498   4.335 -0.5661 -0.0946 -0.1731
 4707TIP3    H114085   2.389   4.532   4.408  0.4155 -0.9554  0.9484
 4707TIP3    H214086   2.525   4.476   4.373 -0.6133 -2.2892 -1.1737
 4708TIP3   OH214087   1.725   3.623   2.486 -0.0199 -0.1411 -0.0556
 4708TIP3    H114088   1.815   3.614   2.455  0.2385 -0.6410  0.8202
 4708TIP3    H214089   1.733   3.654   2.576 -0.7432  0.3664 -0.1549
 4709TIP3   OH214090   3.754   1.110   4.658  0.3832  0.3749 -0.3695
 4709TIP3    H114091   3.837   1.145   4.689  0.4239  0.1219 -0.1818
 4709TIP3    H214092   3.741   1.030   4.711  0.5381 -0.1624 -1.1294
 4710TIP3   OH214093   5.124   4.120   1.369  0.0027 -0.2146 -0.3073
 4710TIP3    H114094   5.127   4.048   1.306  1.0179  0.2209 -0.7738
 4710TIP3    H214095   5.122   4.077   1.455  1.9242 -0.8404 -0.5235
 4711TIP3   OH214096   2.725   5.024   2.655  0.3230 -0.0698 -0.0389
 4711TIP3    H114097   2.762   5.026   2.743  1.0635  0.5476 -0.3539
 4711TIP3    H214098   2.648   5.081   2.661 -0.0604 -0.6242  0.3895
 4712TIP3   OH214099   3.869   5.385   0.192  0.0304  0.0624  0.0573
 4712TIP3    H114100   3.895   5.299   0.224 -0.6241 -1.0681 -2.2672
 4712TIP3    H214101   3.846   5.434   0.271  3.3510 -0.7952  1.7447
 4713TIP3   OH214102   0.874   1.453   1.031  0.0971 -0.5276 -0.2873
 4713TIP3    H114103   0.824   1.473   1.110  0.4433  1.4844 -0.5054
 4713TIP3    H214104   0.812   1.409   0.973 -1.6041  2.1109 -0.6488
 4714TIP3   OH214105   1.445   0.790   4.186 -0.6384  0.0948  0.4266
 4714TIP3    H114106   1.353   0.768   4.201  0.1291 -3.5031  0.6228
 4714TIP3    H214107   1.450   0.808   4.092 -1.3690 -0.7279  0.2208
 4715TIP3   OH214108   2.055   1.650   4.916  0.2713  0.1098 -0.5188
 4715TIP3    H114109   2.128   1.591   4.895 -0.6273 -0.5849 -1.8207
 4715TIP3    H214110   2.090   1.707   4.984  2.6979  1.0597 -2.3967
 4716TIP3   OH214111   2.578   3.036   2.482 -0.0966 -0.3760 -0.0666
 4716TIP3    H114112   2.561   3.109   2.422 -0.1357  0.2732  0.7284
 4716TIP3    H214113   2.657   2.994   2.447 -0.1550 -0.0425 -0.6103
 4717TIP3   OH214114   3.705   2.133   0.116  0.0034 -0.4544 -0.1480
 4717TIP3    H114115   3.778   2.193   0.130 -0.2195  0.4725 -2.5027
 4717TIP3    H214116   3.656   2.171   0.043 -0.7781 -2.9129 -1.0157
 4718TIP3   OH214117   5.671   3.195   0.599  0.1881 -0.1257  0.3638
 4718TIP3    H114118   5.626   3.202   0.683 -2.5368  1.0714 -1.0950
 4718TIP3    H214119   5.617   3.136   0.547  0.9606  0.3535 -1.0461
 4719TIP3   OH214120   1.750   5.665   1.731  0.3982  0.1513  0.3522
 4719TIP3    H114121   1.703   5.711   1.661  1.3759  1.3000  0.4124
 4719TIP3    H214122   1.755   5.728   1.803 -2.5479 -1.7341  2.4315
 4720TIP3   OH214123   3.844   6.579   4.054 -0.3511 -0.3074  0.6476
 4720TIP3    H114124   3.782   6.594   3.983  0.4918 -0.5125 -0.1393
 4720TIP3    H214125   3.911   6.646   4.042  0.1606 -0.7833  0.8412
 4721TIP3   OH214126   3.627   6.182   4.537  0.2636  0.6433 -0.6891
 4721TIP3    H114127   3.570   6.154   4.465  1.5060 -1.8553 -0.7801
 4721TIP3    H214128   3.691   6.239   4.495 -0.2970  0.9446 -1.1524
 4722TIP3   OH214129   6.204   5.814   0.723 -0.0388 -0.0952  0.3266
 4722TIP3    H114130   6.283   5.863   0.746 -0.6438  0.6103  0.9590
 4722TIP3    H214131   6.190   5.833   0.630  0.2656  0.1672  0.3326
 4723TIP3   OH214132   1.377   2.854   0.954  0.1872  0.2946  0.2030
 4723TIP3    H114133   1.285   2.852   0.927  0.6647  1.9129 -1.8883
 4723TIP3    H214134   1.381   2.922   1.022  0.0809  1.7949 -1.2041
 4724TIP3   OH214135   2.712   4.058   0.619  0.4545 -0.1813  0.2116
 4724TIP3    H114136   2.649   4.047   0.690  1.1290 -1.9305  0.5782
 4724TIP3    H214137   2.797   4.068   0.663  0.5633  1.5406 -0.2965
 4725TIP3   OH214138   2.323   1.167   4.730  0.3122  0.0966 -0.6190
 4725TIP3    H114139   2.237   1.158   4.691 -0.0854  0.8084  0.0689
 4725TIP3    H214140   2.384   1.163   4.656 -0.3079 -0.3645 -1.1093
 4726TIP3   OH214141   4.361   6.159   2.037 -0.0653 -0.3262  0.7743
 4726TIP3    H114142   4.399   6.119   1.959  0.5728  0.5196  0.6400
 4726TIP3    H214143   4.292   6.098   2.064 -0.3076 -0.6116 -0.4541
 4727TIP3   OH214144   5.771   6.751   3.133  0.2783 -0.2915 -0.1953
 4727TIP3    H114145   5.865   6.731   3.137  0.7797  1.8172 -0.3320
 4727TIP3    H214146   5.757   6.814   3.203 -1.2865 -1.3563  0.4931
 4728TIP3   OH214147   0.567   1.525   2.349 -0.3357  0.3078 -0.1584
 4728TIP3    H114148   0.561   1.596   2.284 -1.8384  0.5388  0.1924
 4728TIP3    H214149   0.582   1.447   2.296  0.2637  0.7269 -0.6349
 4729TIP3   OH214150   5.125   2.941   1.846 -0.1873 -0.1317  0.1523
 4729TIP3    H114151   5.149   2.915   1.935 -0.5446  0.0804  0.3140
 4729TIP3    H214152   5.031   2.957   1.850  0.0205  1.2000  0.0582
 4730TIP3   OH214153   5.916   4.901   0.541 -0.2018 -0.1657  0.0149
 4730TIP3    H114154   5.986   4.930   0.601  0.0757 -0.3457 -0.2208
 4730TIP3    H214155   5.916   4.806   0.548 -1.2051 -0.1215  0.8903
 4731TIP3   OH214156   1.839   5.975   4.222  1.1180  0.6186  0.3546
 4731TIP3    H114157   1.832   6.016   4.308  2.7032  0.5838  0.5222
 4731TIP3    H214158   1.757   5.999   4.178  0.3343  0.7596  1.7945
 4732TIP3   OH214159   7.078   3.437   4.075  0.3810 -0.3665 -0.2620
 4732TIP3    H114160   6.990   3.476   4.068  0.1156 -1.0729 -1.0205
 4732TIP3    H214161   7.065   3.358   4.126  0.6465 -0.2926 -0.0779
 4733TIP3   OH214162   3.437   1.925   1.756 -0.1482  0.7901 -0.4256
 4733TIP3    H114163   3.417   1.832   1.745 -1.1004  0.9170  0.1613
 4733TIP3    H214164   3.503   1.927   1.826 -2.2426  0.7016  1.6681
 4734TIP3   OH214165   1.441   4.112   3.333 -0.3797  0.7408  0.3139
 4734TIP3    H114166   1.439   4.207   3.339 -1.7136  0.8142 -0.6936
 4734TIP3    H214167   1.508   4.084   3.396  0.5471  2.3720  0.0863
 4735TIP3   OH214168   3.272   3.396   2.593 -0.1920  0.0186  0.0793
 4735TIP3    H114169   3.272   3.302   2.575  1.6728 -0.4877  2.3021
 4735TIP3    H214170   3.317   3.434   2.517  0.0425 -1.0084 -0.3199
 4736TIP3   OH214171   6.435   4.376   2.767  0.9717 -0.1241 -0.4158
 4736TIP3    H114172   6.522   4.339   2.748  1.0698 -0.3876  0.5319
 4736TIP3    H214173   6.447   4.427   2.847  0.4762  0.6992 -0.8481
 4737TIP3   OH214174   6.994   6.019   5.494  0.0303  0.1095  0.0320
 4737TIP3    H114175   7.039   5.997   5.413  0.8362 -0.2208  0.5530
 4737TIP3    H214176   6.902   5.998   5.477 -0.1143  1.7428 -1.3777
 4738TIP3   OH214177   1.268   3.388   1.393 -0.0421 -0.6614  0.5387
 4738TIP3    H114178   1.193   3.411   1.447 -0.1851 -1.6834  0.8012
 4738TIP3    H214179   1.288   3.297   1.416 -0.0897 -1.1270 -1.0845
 4739TIP3   OH214180   4.029   0.397   0.712  0.5026 -0.0172 -0.0414
 4739TIP3    H114181   4.124   0.385   0.704  1.0128  1.9765  1.8262
 4739TIP3    H214182   4.003   0.437   0.629  1.4451  0.1467 -0.2685
 4740TIP3   OH214183   6.352   3.097   3.284 -0.4834  0.1906  0.0293
 4740TIP3    H114184   6.328   3.010   3.315  1.2645 -0.7101 -1.0104
 4740TIP3    H214185   6.361   3.087   3.189  1.6184  1.0106  0.0972
 4741TIP3   OH214186   1.481   6.405   3.085 -0.0768 -0.0437 -0.3882
 4741TIP3    H114187   1.556   6.404   3.145 -0.2675 -0.1119 -0.1515
 4741TIP3    H214188   1.406   6.380   3.139 -0.2552 -0.0757 -0.6477
 4742TIP3   OH214189   4.340   1.008   5.301 -0.2834 -0.3073 -0.0263
 4742TIP3    H114190   4.285   1.059   5.360  0.3069  0.3662 -0.0470
 4742TIP3    H214191   4.278   0.966   5.241 -0.8235 -0.2349  0.4699
 4743TIP3   OH214192   3.764   5.349   1.222  0.2831  0.1014 -0.8947
 4743TIP3    H114193   3.732   5.365   1.312 -0.6890 -1.2599 -0.9613
 4743TIP3    H214194   3.762   5.436   1.181 -0.0142  0.6270  0.1683
 4744TIP3   OH214195   0.523   5.447   0.063 -0.9744  0.3104 -0.6267
 4744TIP3    H114196   0.615   5.430   0.041 -0.4731  1.7015  0.2558
 4744TIP3    H214197   0.506   5.394   0.141 -0.7301  0.4936 -0.4459
 4745TIP3   OH214198   4.108   4.654   0.483  0.0356 -0.0674 -0.5283
 4745TIP3    H114199   4.130   4.592   0.414 -1.8391 -1.8019  0.3448
 4745TIP3    H214200   4.042   4.610   0.536 -1.1021  2.5153  0.4042
 4746TIP3   OH214201   5.366   6.216   4.799  0.7538  0.3436 -0.0932
 4746TIP3    H114202   5.430   6.165   4.849  2.2829  2.1131 -0.1704
 4746TIP3    H214203   5.386   6.307   4.819 -2.0357  0.9937  0.2022
 4747TIP3   OH214204   0.381   3.747   0.445  0.5248  0.0921 -0.0489
 4747TIP3    H114205   0.344   3.835   0.446  0.4333  0.0542  0.3523
 4747TIP3    H214206   0.469   3.757   0.482  0.4258 -0.0170  0.2226
 4748TIP3   OH214207   3.775   5.962   2.511 -0.3569 -0.3243  0.0889
 4748TIP3    H114208   3.721   5.974   2.433 -0.3771 -4.2538 -0.7032
 4748TIP3    H214209   3.865   5.977   2.480 -0.5371  0.5075 -0.0533
 4749TIP3   OH214210   4.535   3.254   5.595  0.0502 -0.2435 -0.2224
 4749TIP3    H114211   4.616   3.304   5.611 -0.3357  0.5775 -0.7841
 4749TIP3    H214212   4.475   3.283   5.663  0.2247 -0.8652  0.2037
 4750TIP3   OH214213   1.051   3.253   2.685  0.1628  0.2385 -0.0158
 4750TIP3    H114214   0.985   3.208   2.633 -0.5118 -1.6323  2.2566
 4750TIP3    H214215   1.041   3.346   2.663 -2.7472 -0.0564 -0.3175
 4751TIP3   OH214216   6.966   5.361   5.876  0.0014 -0.0560 -0.1526
 4751TIP3    H114217   7.053   5.401   5.876 -0.2404  0.5283  0.8643
 4751TIP3    H214218   6.908   5.428   5.839  0.3531 -1.5203 -3.7833
 4752TIP3   OH214219   4.413   0.825   3.084 -0.2185 -0.4096  0.0799
 4752TIP3    H114220   4.421   0.843   2.990  0.4701  0.2010  0.2467
 4752TIP3    H214221   4.343   0.883   3.114  1.2595  1.2583  0.4075
 4753TIP3   OH214222   3.643   5.976   0.178  0.3115  0.5933  0.0996
 4753TIP3    H114223   3.576   5.984   0.110  0.1193 -0.5304  0.1287
 4753TIP3    H214224   3.690   6.059   0.175 -1.4607  1.6667  0.4864
 4754TIP3   OH214225   0.600   1.347   3.417 -0.0486  0.3067 -0.5196
 4754TIP3    H114226   0.665   1.282   3.391  0.1817  0.9052 -1.5401
 4754TIP3    H214227   0.536   1.299   3.468  1.7721 -0.0932  1.5230
 4755TIP3   OH214228   2.079   6.410   0.610  0.6250 -0.0522 -0.0580
 4755TIP3    H114229   2.106   6.492   0.652  2.2763 -0.9792  0.7360
 4755TIP3    H214230   2.012   6.374   0.668  0.9769 -0.0163  0.3681
 4756TIP3   OH214231   5.964   5.023   2.032 -0.4144 -0.6124  0.6666
 4756TIP3    H114232   5.913   4.948   2.064 -0.3438 -0.8330  0.2636
 4756TIP3    H214233   5.916   5.099   2.065 -1.5974 -0.7877 -0.5409
 4757TIP3   OH214234   1.962   2.983   4.720  0.0207  0.1892  0.1969
 4757TIP3    H114235   1.925   3.071   4.725  0.9814  0.6368 -0.3456
 4757TIP3    H214236   1.904   2.936   4.660 -0.7249  0.3250  0.7964
 4758TIP3   OH214237   0.768   5.229   2.360 -0.3509 -0.1434 -0.6763
 4758TIP3    H114238   0.689   5.191   2.397 -0.1845 -0.8475 -1.0336
 4758TIP3    H214239   0.833   5.224   2.430 -0.1701 -1.0441 -0.8990
 4759TIP3   OH214240   2.828   5.069   1.630  0.2209 -0.4591  0.2573
 4759TIP3    H114241   2.880   5.129   1.683  0.1732  1.4812 -1.7328
 4759TIP3    H214242   2.893   5.016   1.584  0.4553  0.8411 -0.9810
 4760TIP3   OH214243   0.289   3.717   3.585  0.2657 -0.3686  0.3317
 4760TIP3    H114244   0.243   3.800   3.591 -0.8484 -0.9518  0.1732
 4760TIP3    H214245   0.377   3.740   3.556 -0.8171  0.5417 -2.5144
 4761TIP3   OH214246   3.287   1.478   1.290 -0.1050 -0.0940  0.3646
 4761TIP3    H114247   3.271   1.459   1.198  1.9733 -0.2740  0.0052
 4761TIP3    H214248   3.256   1.400   1.337  1.8994 -1.4847 -0.4967
 4762TIP3   OH214249   0.834   5.780   4.374 -0.0986 -0.4179 -0.2465
 4762TIP3    H114250   0.787   5.718   4.429 -0.8642 -0.5339 -1.0091
 4762TIP3    H214251   0.815   5.751   4.284 -0.1483  0.6899 -0.6021
 4763TIP3   OH214252   7.115  -0.030   0.500  0.4978 -0.1467  0.0003
 4763TIP3    H114253   7.177   0.019   0.555 -0.0742  0.1644  0.3847
 4763TIP3    H214254   7.075   0.037   0.444 -0.3945 -0.1367  0.6310
 4764TIP3   OH214255   2.503   3.662   4.111 -0.3714 -0.1700 -0.3674
 4764TIP3    H114256   2.409   3.674   4.126 -0.5836 -1.8246 -0.1594
 4764TIP3    H214257   2.508   3.610   4.030  0.4174  0.6433 -0.8671
 4765TIP3   OH214258   3.420   1.534   3.845  0.0179  0.1661 -0.1118
 4765TIP3    H114259   3.369   1.496   3.917 -0.4433 -1.5250 -1.2806
 4765TIP3    H214260   3.383   1.495   3.766  0.0545  2.5045 -1.3688
 4766TIP3   OH214261   0.254   3.406   1.829  0.1793 -0.3026 -0.4909
 4766TIP3    H114262   0.329   3.440   1.781 -1.0723  1.4070 -1.3464
 4766TIP3    H214263   0.291   3.371   1.910  1.9114  0.2171 -1.0217
 4767TIP3   OH214264   7.081   0.292   4.755 -0.1655  0.0273 -0.8443
 4767TIP3    H114265   7.154   0.240   4.721 -1.2897 -1.8111 -0.5910
 4767TIP3    H214266   7.059   0.353   4.684  1.5838  0.6238 -0.9161
 4768TIP3   OH214267   6.556   0.333   5.849 -0.7081  0.2719 -0.0694
 4768TIP3    H114268   6.590   0.402   5.792  0.9319 -0.1678  0.3417
 4768TIP3    H214269   6.544   0.258   5.791 -1.1290  0.4721 -0.2441
 4769TIP3   OH214270   3.940   3.673   2.089 -0.5559 -0.6452 -0.1740
 4769TIP3    H114271   4.002   3.657   2.018  0.5467 -1.3115  0.9034
 4769TIP3    H214272   3.927   3.588   2.130 -1.4018 -0.3257  0.2637
 4770TIP3   OH214273   3.240   1.892   4.581 -0.3431  0.0015 -0.6535
 4770TIP3    H114274   3.239   1.961   4.514  0.1917 -0.0918 -0.7667
 4770TIP3    H214275   3.281   1.818   4.538 -0.8443 -0.3668 -0.5055
 4771TIP3   OH214276   6.142   4.990   0.847 -0.0191  0.2361  0.6468
 4771TIP3    H114277   6.066   5.047   0.837 -0.9120 -0.8167  1.2168
 4771TIP3    H214278   6.216   5.050   0.848 -0.4062  1.1189 -3.5052
 4772TIP3   OH214279   1.132   5.077   1.533  0.3727  0.4937  0.5904
 4772TIP3    H114280   1.103   4.986   1.534 -2.0837  1.1741  3.5014
 4772TIP3    H214281   1.053   5.128   1.548  1.5749  3.2313 -1.5429
 4773TIP3   OH214282   0.182   2.428   2.019  0.0250  0.5110 -0.1064
 4773TIP3    H114283   0.205   2.342   2.052 -0.2458  0.4118 -0.1745
 4773TIP3    H214284   0.123   2.411   1.945 -0.3514  0.7620  0.1281
 4774TIP3   OH214285   0.260   3.048   5.551 -0.2494  0.1794 -1.1476
 4774TIP3    H114286   0.262   3.137   5.514  0.1866 -0.3885 -2.5558
 4774TIP3    H214287   0.316   2.997   5.493 -1.3099 -1.2580 -0.9536
 4775TIP3   OH214288   2.133   6.455   1.341  0.7067 -0.3239 -0.6445
 4775TIP3    H114289   2.125   6.444   1.436 -2.1780  0.6639 -0.6847
 4775TIP3    H214290   2.213   6.506   1.330  0.3899  0.7299  1.3884
 4776TIP3   OH214291   2.731   4.936   1.970 -0.2774  0.2839 -0.0876
 4776TIP3    H114292   2.661   4.920   1.906  2.2325 -0.7093 -2.8523
 4776TIP3    H214293   2.760   4.849   1.997  0.5377  0.6206  0.1680
 4777TIP3   OH214294   3.482   2.808   3.498  0.2452  0.3348 -0.4186
 4777TIP3    H114295   3.424   2.795   3.423 -0.7817 -1.4995  0.6108
 4777TIP3    H214296   3.555   2.748   3.483 -1.1505 -1.9386  1.0889
 4778TIP3   OH214297   1.012   1.458   1.914 -0.1507 -0.2984  0.4803
 4778TIP3    H114298   1.024   1.461   2.009 -1.2266 -0.2815  0.6290
 4778TIP3    H214299   0.945   1.391   1.900  0.0013 -0.2994 -0.2608
 4779TIP3   OH214300   5.457   5.993   4.910 -0.1275 -0.2384 -0.3158
 4779TIP3    H114301   5.410   5.913   4.888  1.8115 -1.0492 -1.8018
 4779TIP3    H214302   5.506   5.971   4.988  1.0912 -0.8375 -1.2221
 4780TIP3   OH214303   2.610   4.486   2.428  0.0489  0.3533  0.9836
 4780TIP3    H114304   2.595   4.443   2.344  0.9440  1.9427 -0.0346
 4780TIP3    H214305   2.532   4.538   2.444 -0.3157 -0.3023  1.3836
 4781TIP3   OH214306   0.263   6.588   1.587  0.5125 -0.2631 -0.4665
 4781TIP3    H114307   0.217   6.504   1.588  0.6194 -0.3744  2.0684
 4781TIP3    H214308   0.309   6.590   1.503 -2.9825 -0.7278 -2.5884
 4782TIP3   OH214309   6.094   2.057   0.866  0.1225 -0.4300 -0.3956
 4782TIP3    H114310   6.066   1.968   0.844 -1.0738  0.2340 -1.7644
 4782TIP3    H214311   6.182   2.064   0.829  0.4438 -1.2136  0.2071
 4783TIP3   OH214312   6.758   0.593   0.882  0.6660 -0.1658  0.2929
 4783TIP3    H114313   6.716   0.674   0.910 -0.7968 -0.8559  0.1439
 4783TIP3    H214314   6.791   0.613   0.794 -0.4029  0.0297 -0.0749
 4784TIP3   OH214315   1.071   3.317   2.036  0.2216 -0.4343  0.6265
 4784TIP3    H114316   1.031   3.238   1.999  0.2328 -0.0010 -0.3522
 4784TIP3    H214317   1.008   3.347   2.101 -0.8531 -0.0350 -0.5488
 4785TIP3   OH214318   0.344   5.446   4.331 -0.6133  0.0860  0.1513
 4785TIP3    H114319   0.288   5.490   4.266  0.3160  1.1652  0.0361
 4785TIP3    H214320   0.283   5.396   4.385 -1.6541  0.9265 -0.1919
 4786TIP3   OH214321   2.754   1.647   5.698  0.3606  0.2845  0.2490
 4786TIP3    H114322   2.777   1.620   5.787  0.5787  1.1692  0.4744
 4786TIP3    H214323   2.838   1.651   5.652  0.1373 -1.4160 -0.3831
 4787TIP3   OH214324   1.207   4.857   0.123 -0.0351  0.3210  0.0761
 4787TIP3    H114325   1.175   4.866   0.033  0.5931  2.3427 -0.0002
 4787TIP3    H214326   1.234   4.765   0.130 -0.5205  0.0140 -1.6394
 4788TIP3   OH214327   5.515   5.153   2.359  0.1267  0.4740  0.2775
 4788TIP3    H114328   5.500   5.083   2.423  0.2559 -0.1062 -0.3083
 4788TIP3    H214329   5.588   5.204   2.395  0.5935 -0.2019  0.3166
 4789TIP3   OH214330   2.151   6.380   1.608  0.3365  0.5324  0.3709
 4789TIP3    H114331   2.098   6.394   1.687  0.6264 -0.1734  0.7002
 4789TIP3    H214332   2.190   6.294   1.621 -2.7027 -1.4763 -2.2942
 4790TIP3   OH214333   0.889   1.822   2.428  0.2978 -0.1176  0.1628
 4790TIP3    H114334   0.858   1.756   2.490 -0.4738 -1.9673 -2.0586
 4790TIP3    H214335   0.961   1.866   2.474  1.9254 -3.5698  1.2396
 4791TIP3   OH214336   4.191   5.930   3.481  0.2609 -0.0440  0.4189
 4791TIP3    H114337   4.115   5.971   3.439  0.5590 -1.4141 -1.5841
 4791TIP3    H214338   4.153   5.869   3.545 -0.2083  1.7244  1.9150
 4792TIP3   OH214339   1.981   4.952   2.467  0.2217 -0.1330  0.2926
 4792TIP3    H114340   1.939   4.889   2.408 -1.1759  1.1877 -0.1937
 4792TIP3    H214341   2.074   4.948   2.443 -0.3706  0.9734 -2.6957
 4793TIP3   OH214342   6.817   2.684   1.908  0.4942  0.3063 -0.3616
 4793TIP3    H114343   6.810   2.769   1.864  2.6454  0.2630 -0.8613
 4793TIP3    H214344   6.809   2.620   1.837 -0.5695  0.0632 -0.0528
 4794TIP3   OH214345   3.590   1.178   3.338 -0.0969  0.2452 -0.3195
 4794TIP3    H114346   3.533   1.124   3.392  0.7965 -0.4813 -0.0816
 4794TIP3    H214347   3.672   1.185   3.388  0.8489 -0.6458 -1.6584
 4795TIP3   OH214348   1.873   1.424   5.589 -0.4483  0.8126  0.2472
 4795TIP3    H114349   1.821   1.423   5.508 -0.0382  2.3867 -0.0795
 4795TIP3    H214350   1.825   1.368   5.649  0.8991 -3.1592 -2.0229
 4796TIP3   OH214351   0.488   2.798   3.553 -0.1739  0.0755 -0.6273
 4796TIP3    H114352   0.422   2.757   3.498  0.0768 -3.1181  1.1909
 4796TIP3    H214353   0.439   2.832   3.628 -0.1067  0.9009 -0.9526
 4797TIP3   OH214354   4.833   0.790   4.700  0.1873 -0.5011  0.1664
 4797TIP3    H114355   4.849   0.797   4.795  1.2195 -2.0054  0.1392
 4797TIP3    H214356   4.738   0.789   4.692 -0.0023  2.0495  0.9484
 4798TIP3   OH214357   0.141   0.826   0.696 -0.1403  0.0747 -0.0885
 4798TIP3    H114358   0.090   0.838   0.777  0.5854  1.2620  0.2149
 4798TIP3    H214359   0.207   0.761   0.720  0.9377  1.4289  0.7116
 4799TIP3   OH214360   0.238   4.008   4.548 -0.3049  0.5624  0.3128
 4799TIP3    H114361   0.285   4.004   4.632 -3.9252  2.0225  2.6532
 4799TIP3    H214362   0.231   4.102   4.529 -0.7373  0.2979 -0.9388
 4800TIP3   OH214363   5.793   0.585   0.808 -0.3142 -0.0083  0.3831
 4800TIP3    H114364   5.770   0.673   0.778  0.1562 -0.2133 -0.6296
 4800TIP3    H214365   5.871   0.598   0.862  0.9331  0.0159 -1.3549
 4801TIP3   OH214366   6.476   2.934   2.297 -0.8453  0.7534 -0.0014
 4801TIP3    H114367   6.533   2.994   2.247  0.4620 -0.5222 -0.1025
 4801TIP3    H214368   6.533   2.860   2.319 -2.3227 -0.2799  0.4574
 4802TIP3   OH214369   2.560   2.396   2.932  0.7196 -0.1900  0.5676
 4802TIP3    H114370   2.519   2.438   3.008 -0.1908 -1.1148  0.6209
 4802TIP3    H214371   2.643   2.361   2.965  0.1179 -0.9943  1.2822
 4803TIP3   OH214372   4.144   0.086   2.758  0.1407 -0.1294 -0.4850
 4803TIP3    H114373   4.105   0.044   2.834 -0.9084 -1.7826 -1.8501
 4803TIP3    H214374   4.200   0.155   2.794 -1.9616  0.5734  1.6526
 4804TIP3   OH214375   0.645   0.110   5.665 -0.6057  0.1003  0.4594
 4804TIP3    H114376   0.656   0.182   5.728 -1.6971 -0.7406  1.6405
 4804TIP3    H214377   0.552   0.089   5.668 -0.7818  0.3476 -1.8213
 4805TIP3   OH214378   1.971   6.267   3.104 -0.5982  0.1811 -0.0584
 4805TIP3    H114379   1.993   6.223   3.021 -0.4870 -0.3781  0.2643
 4805TIP3    H214380   1.928   6.348   3.077  1.0587  0.9072 -0.7036
 4806TIP3   OH214381   4.289   0.999   1.981 -0.3212 -0.3105 -0.1379
 4806TIP3    H114382   4.304   1.086   1.944 -1.1570 -0.0183  0.1902
 4806TIP3    H214383   4.206   0.971   1.943 -1.2989  0.0703  1.6297
 4807TIP3   OH214384   7.127   5.049   4.351  0.1019  0.2768  0.0178
 4807TIP3    H114385   7.077   5.129   4.334  0.8153  0.7348  0.0299
 4807TIP3    H214386   7.216   5.071   4.325  0.2625 -0.5894 -0.1734
 4808TIP3   OH214387   3.264   4.833   3.321  0.8595 -0.3761  0.6309
 4808TIP3    H114388   3.248   4.754   3.270 -0.3022  0.3779 -0.2242
 4808TIP3    H214389   3.217   4.902   3.274  3.1749  1.1842  0.4130
 4809TIP3   OH214390   5.689   2.257   3.501  0.0324 -0.1834 -0.2032
 4809TIP3    H114391   5.605   2.259   3.455 -0.2828 -0.8380  0.3027
 4809TIP3    H214392   5.737   2.333   3.469 -0.2282 -0.5327 -1.4817
 4810TIP3   OH214393   4.346   6.148   2.452  0.3874 -0.3692 -0.2827
 4810TIP3    H114394   4.417   6.198   2.414 -0.5664  2.5574  1.4520
 4810TIP3    H214395   4.275   6.155   2.388 -0.2622  2.0497  0.5854
 4811TIP3   OH214396   3.734   2.782   2.000  0.2927  0.1102  0.3333
 4811TIP3    H114397   3.718   2.829   1.918  1.2407  0.2367  0.2077
 4811TIP3    H214398   3.672   2.819   2.062  0.8326  1.3546  0.1664
 4812TIP3   OH214399   0.426   2.965   4.130  0.1813 -0.4604  0.3579
 4812TIP3    H114400   0.393   2.909   4.200  1.4366 -1.1064  0.4642
 4812TIP3    H214401   0.359   3.033   4.119 -0.5587 -1.0057  1.3955
 4813TIP3   OH214402   2.559   6.741   4.018  0.1596  0.0991  0.0465
 4813TIP3    H114403   2.569   6.655   3.977  0.3763  0.4785 -0.6998
 4813TIP3    H214404   2.465   6.747   4.037  0.2323 -0.5527  0.6770
 4814TIP3   OH214405   5.303   0.687   4.363  0.1326 -0.2053  0.6690
 4814TIP3    H114406   5.393   0.720   4.350  0.7116 -0.7234  2.9049
 4814TIP3    H214407   5.263   0.752   4.420 -0.7245 -0.3130  0.1981
 4815TIP3   OH214408   4.469   0.487   3.689  0.1688  0.0603 -0.2714
 4815TIP3    H114409   4.556   0.452   3.671 -0.0689 -0.4494 -0.4529
 4815TIP3    H214410   4.434   0.510   3.602 -0.5789 -1.4466 -0.4105
 4816TIP3   OH214411   7.190   6.764   2.718  0.4564 -0.0346  0.0282
 4816TIP3    H114412   7.224   6.763   2.807 -0.3552  2.0912  0.4037
 4816TIP3    H214413   7.224   6.845   2.680  0.2181 -0.5571 -1.3864
 4817TIP3   OH214414   5.357   5.299   3.117  0.4568  0.0581  0.0867
 4817TIP3    H114415   5.442   5.333   3.145  0.9017 -0.9088 -0.0611
 4817TIP3    H214416   5.308   5.288   3.198  0.3573  0.9098  0.1480
 4818TIP3   OH214417   5.951   6.779   4.481  0.4414 -0.4381 -0.0181
 4818TIP3    H114418   5.873   6.730   4.508  1.6245 -1.8762  0.9029
 4818TIP3    H214419   5.954   6.768   4.386 -0.1020 -0.9448  0.0164
 4819TIP3   OH214420   6.111   0.316   0.507 -0.3798 -0.3801  0.1219
 4819TIP3    H114421   6.099   0.396   0.558 -0.2029  0.4058 -1.0382
 4819TIP3    H214422   6.156   0.345   0.428 -0.0900 -1.6767 -0.1982
 4820TIP3   OH214423   6.450   1.073   3.414  0.0090  0.4778 -0.4251
 4820TIP3    H114424   6.369   1.058   3.463  0.3614  1.3739  0.4684
 4820TIP3    H214425   6.424   1.071   3.322 -0.8598 -0.1625 -0.1708
 4821TIP3   OH214426   0.584   2.503   0.381 -0.0254  0.0863  0.1010
 4821TIP3    H114427   0.527   2.463   0.447  0.6086  1.8118  1.7824
 4821TIP3    H214428   0.550   2.592   0.370  0.3143  0.0566 -1.4147
 4822TIP3   OH214429   1.623   3.408   3.396  0.1376  0.6363  0.2223
 4822TIP3    H114430   1.634   3.499   3.425  1.0581 -0.0430  2.1550
 4822TIP3    H214431   1.599   3.360   3.475 -0.1641 -0.8482 -0.7260
 4823TIP3   OH214432   2.499   1.478   4.948 -0.0457 -0.2901  0.2225
 4823TIP3    H114433   2.520   1.537   4.875  0.3141 -1.7379 -0.8875
 4823TIP3    H214434   2.520   1.529   5.026 -0.6740  1.4039 -0.6541
 4824TIP3   OH214435   1.069   3.729   4.851 -0.1604 -0.1529 -0.1184
 4824TIP3    H114436   1.045   3.665   4.784 -0.7544  0.9074 -0.9688
 4824TIP3    H214437   1.146   3.774   4.816 -0.7727  0.7503 -0.3537
 4825TIP3   OH214438   7.093   5.938   0.913  0.2416  0.4543 -0.0593
 4825TIP3    H114439   7.067   5.855   0.951 -0.8054  0.8004  0.0077
 4825TIP3    H214440   7.124   5.916   0.825 -3.2286  0.3127 -1.3981
 4826TIP3   OH214441   0.813   1.947   5.028 -0.4687 -0.8316 -0.4669
 4826TIP3    H114442   0.769   1.871   5.066  0.5734 -0.8169  0.8418
 4826TIP3    H214443   0.773   2.022   5.071 -0.1041 -0.7465 -0.2773
 4827TIP3   OH214444   4.337  -0.000   3.348  0.5213  0.2826  0.4076
 4827TIP3    H114445   4.394  -0.033   3.280 -0.2030 -0.5294  0.1717
 4827TIP3    H214446   4.339   0.095   3.339  2.6001  0.3394  1.0555
 4828TIP3   OH214447   1.787   0.421   2.626 -0.3140  0.7071 -0.1963
 4828TIP3    H114448   1.724   0.356   2.658 -0.9241  1.6789  0.6427
 4828TIP3    H214449   1.795   0.403   2.533 -1.2250  0.0399 -0.1627
 4829TIP3   OH214450   4.058   6.379   3.022  0.4356  0.5383 -0.3045
 4829TIP3    H114451   4.040   6.371   3.115 -1.1967 -0.2917 -0.6603
 4829TIP3    H214452   3.973   6.400   2.982  0.6798 -1.1279 -1.8188
 4830TIP3   OH214453   3.609   5.304   0.758  0.3858  0.7212 -0.0906
 4830TIP3    H114454   3.700   5.275   0.769  0.1417  0.2396  0.7969
 4830TIP3    H214455   3.616   5.387   0.712  1.3278  1.0727  0.6455
 4831TIP3   OH214456   3.964   0.606   4.311  0.0410 -0.2149 -0.2917
 4831TIP3    H114457   3.912   0.552   4.252  0.4111  0.0078 -0.8209
 4831TIP3    H214458   3.955   0.695   4.278  0.5107 -0.1315 -0.2029
 4832TIP3   OH214459   1.615   1.435   4.330 -0.7808 -0.9664 -0.1881
 4832TIP3    H114460   1.614   1.450   4.236  0.1981 -0.7905 -0.1778
 4832TIP3    H214461   1.693   1.481   4.361 -1.6682 -0.1037  0.8635
 4833TIP3   OH214462   6.069   3.118   5.326  0.3773  0.1376 -0.5793
 4833TIP3    H114463   6.149   3.106   5.376  0.2175  0.6738 -0.1877
 4833TIP3    H214464   6.004   3.147   5.390 -0.7855 -2.5532 -0.4256
 4834TIP3   OH214465   4.006   0.954   1.345 -0.9479  0.0455 -0.0695
 4834TIP3    H114466   4.051   0.961   1.429 -0.6105 -0.2455 -0.2210
 4834TIP3    H214467   4.029   0.866   1.314 -0.7895  0.2825 -0.6237
 4835TIP3   OH214468   7.015   4.717   2.436 -0.5328 -1.0863 -0.0925
 4835TIP3    H114469   6.995   4.724   2.529 -1.4377 -0.5167 -0.3232
 4835TIP3    H214470   7.074   4.642   2.430 -0.3857 -1.0674  0.9451
 4836TIP3   OH214471   1.375   4.896   2.236  0.1790 -0.1938 -0.1196
 4836TIP3    H114472   1.463   4.930   2.223  0.7520 -1.8098 -0.6818
 4836TIP3    H214473   1.357   4.911   2.329  1.3636 -0.5459  0.1816
 4837TIP3   OH214474   6.727   1.013   1.594 -0.0248  0.7012  0.2416
 4837TIP3    H114475   6.686   0.968   1.667 -0.3882  1.7368  0.6975
 4837TIP3    H214476   6.682   0.979   1.517  0.6331 -0.6916  0.4456
 4838TIP3   OH214477   1.308   5.457   4.180 -0.2044  0.2949  0.3949
 4838TIP3    H114478   1.234   5.497   4.225 -1.6004 -1.4193 -0.2650
 4838TIP3    H214479   1.327   5.378   4.231  0.6318  0.2809  0.0771
 4839TIP3   OH214480   1.128   3.109   4.138  0.0455  0.1560  0.1752
 4839TIP3    H114481   1.212   3.133   4.098  1.3685 -1.3388  1.8818
 4839TIP3    H214482   1.091   3.044   4.078  0.5945  0.1062 -0.1181
 4840TIP3   OH214483   3.050   2.115   1.895  0.0818  0.2024  0.1231
 4840TIP3    H114484   3.121   2.137   1.955 -0.4433  1.2139  0.3891
 4840TIP3    H214485   3.094   2.084   1.816  0.7844 -1.5648  1.1391
 4841TIP3   OH214486   3.627   5.963   1.034 -0.3233  0.0375 -0.2720
 4841TIP3    H114487   3.565   5.965   1.107  0.8310  1.1252  0.7126
 4841TIP3    H214488   3.582   6.008   0.963 -1.4717 -1.0621 -0.2876
 4842TIP3   OH214489   6.851   0.827   1.125  0.5310  0.5101 -0.3316
 4842TIP3    H114490   6.785   0.838   1.194 -0.2930  0.0738 -1.0379
 4842TIP3    H214491   6.827   0.892   1.059 -0.5336 -1.0821 -1.5888
 4843TIP3   OH214492   2.763   2.364   0.816  0.1761  0.0595 -0.0558
 4843TIP3    H114493   2.732   2.442   0.862  1.3211  0.3719  0.2126
 4843TIP3    H214494   2.689   2.337   0.762 -0.7146  0.5049  0.9078
 4844TIP3   OH214495   1.592   5.489   1.084  0.2881  0.0047  0.1000
 4844TIP3    H114496   1.545   5.433   1.145  3.8852 -1.8709  1.4564
 4844TIP3    H214497   1.571   5.578   1.112 -0.8580 -0.7543  1.8424
 4845TIP3   OH214498   1.262   0.517   1.280 -0.1829  0.1143 -0.5662
 4845TIP3    H114499   1.328   0.528   1.211 -0.5212 -1.3631 -1.1715
 4845TIP3    H214500   1.305   0.463   1.346 -0.3286  0.3478 -0.2758
 4846TIP3   OH214501   2.503   0.890   1.254 -0.1356  0.3058 -0.0911
 4846TIP3    H114502   2.437   0.822   1.266  0.2899 -0.3199 -1.0917
 4846TIP3    H214503   2.453   0.969   1.232 -0.6591  0.4587  1.5711
 4847TIP3   OH214504   0.163   6.171   1.163 -0.6961 -0.2712 -0.1272
 4847TIP3    H114505   0.079   6.197   1.201 -0.9835 -1.9040  0.4172
 4847TIP3    H214506   0.174   6.080   1.189  0.8678 -0.3290 -0.8869
 4848TIP3   OH214507   3.077   3.602   5.686  0.2091 -0.6313  0.3710
 4848TIP3    H114508   3.069   3.680   5.740  0.0131 -1.0945  1.0188
 4848TIP3    H214509   3.120   3.632   5.606 -1.2109  0.4300 -0.0213
 4849TIP3   OH214510   4.976   2.625   4.607  0.3966  0.2133  0.1040
 4849TIP3    H114511   4.945   2.703   4.653  1.3950 -0.6625  2.3835
 4849TIP3    H214512   5.017   2.659   4.527 -0.7549  1.8532  0.1557
 4850TIP3   OH214513   5.649   3.511   3.572 -0.1952  0.3342 -0.1339
 4850TIP3    H114514   5.599   3.430   3.585 -1.7578  1.2923  0.1692
 4850TIP3    H214515   5.688   3.529   3.657  1.4519 -0.8827 -0.5938
 4851TIP3   OH214516   2.217   1.778   2.852 -0.1159 -0.2172 -0.1953
 4851TIP3    H114517   2.280   1.711   2.827 -0.5645 -0.1240 -1.6967
 4851TIP3    H214518   2.230   1.848   2.787  0.2629  1.1161  1.2574
 4852TIP3   OH214519   0.906   4.130   2.643 -0.1878 -0.0820  0.1584
 4852TIP3    H114520   0.830   4.072   2.649  0.0541 -0.5487 -0.9545
 4852TIP3    H214521   0.977   4.073   2.613  0.5627  0.3823  1.0123
 4853TIP3   OH214522   0.291   3.761   4.435 -0.3476  0.4601 -0.2709
 4853TIP3    H114523   0.366   3.738   4.489 -0.5022 -1.9250 -0.9281
 4853TIP3    H214524   0.264   3.848   4.465  1.1683  0.3253  1.6265
 4854TIP3   OH214525   3.769   6.193   5.047  0.1652 -0.6045 -0.4219
 4854TIP3    H114526   3.722   6.259   5.097  0.1156 -2.0936  1.6466
 4854TIP3    H214527   3.724   6.188   4.963 -1.1972  0.4212  0.2229
 4855TIP3   OH214528   5.269   5.260   3.685 -0.1675  0.0914 -0.0946
 4855TIP3    H114529   5.318   5.258   3.767 -0.0605 -0.2490 -0.1634
 4855TIP3    H214530   5.177   5.248   3.712 -0.3673  1.8515  0.1325
 4856TIP3   OH214531   2.817   5.475   0.872  0.1730 -0.0899  0.6628
 4856TIP3    H114532   2.751   5.543   0.861  1.5229  1.1838  0.1745
 4856TIP3    H214533   2.847   5.485   0.962  2.0101  1.5581 -0.0694
 4857TIP3   OH214534   6.777   1.921   5.905  0.3439 -0.2325 -0.5024
 4857TIP3    H114535   6.721   1.994   5.879  2.2915  0.7931 -2.1224
 4857TIP3    H214536   6.751   1.848   5.848  0.4248  0.1349 -1.0110
 4858TIP3   OH214537   0.863   6.638   4.073 -0.1725 -0.6591 -0.4409
 4858TIP3    H114538   0.911   6.683   4.003  1.3180 -2.9259 -0.9583
 4858TIP3    H214539   0.921   6.567   4.101 -2.3495 -2.2082  0.4128
 4859TIP3   OH214540   5.835   1.029   0.468 -0.2159 -0.4005 -0.4305
 4859TIP3    H114541   5.755   1.038   0.418  0.4002 -0.3612 -1.4302
 4859TIP3    H214542   5.808   0.984   0.548 -1.4321  0.6403 -0.2158
 4860TIP3   OH214543   0.483   0.221   3.333  0.2681 -0.1747 -0.0184
 4860TIP3    H114544   0.527   0.285   3.390  1.4632  0.9282 -2.0734
 4860TIP3    H214545   0.504   0.136   3.373  2.5286  0.4518  0.3004
 4861TIP3   OH214546   5.440   1.851   1.391 -0.3043  0.4925  0.1421
 4861TIP3    H114547   5.394   1.932   1.414  1.7358  0.6654  4.7956
 4861TIP3    H214548   5.526   1.881   1.359 -0.4136  0.1554 -0.4808
 4862TIP3   OH214549   1.846   6.661   2.600  0.3108 -0.1756 -0.2775
 4862TIP3    H114550   1.818   6.570   2.606 -0.4470  0.0335 -0.4807
 4862TIP3    H214551   1.769   6.711   2.626  0.3328  0.4403 -1.3375
 4863TIP3   OH214552   1.936   1.086   2.475 -0.5086  0.0006  0.0847
 4863TIP3    H114553   2.009   1.052   2.526 -1.2559 -1.0733  0.4774
 4863TIP3    H214554   1.927   1.025   2.401 -0.3310  0.7398 -0.5611
 4864TIP3   OH214555   3.150   4.572   4.158  0.5163 -0.1487  0.0662
 4864TIP3    H114556   3.214   4.598   4.224 -0.5702 -0.1291  1.1442
 4864TIP3    H214557   3.073   4.545   4.208 -1.1571  1.9567 -1.1900
 4865TIP3   OH214558   0.631   2.388   5.606 -0.6694  0.0996  0.5976
 4865TIP3    H114559   0.727   2.389   5.603 -0.6534 -0.6108  0.7140
 4865TIP3    H214560   0.604   2.397   5.515 -0.4163 -3.7014 -0.0031
 4866TIP3   OH214561   1.015   4.916   2.225 -0.4654  0.2435 -0.3483
 4866TIP3    H114562   1.094   4.862   2.221  0.3767  1.4386 -0.5690
 4866TIP3    H214563   0.946   4.856   2.254 -0.3671 -1.8186 -3.8679
 4867TIP3   OH214564   0.016   5.177   0.635 -0.6574  0.4963 -0.0414
 4867TIP3    H114565   0.105   5.141   0.628 -0.9695 -0.1991 -0.5023
 4867TIP3    H214566   0.026   5.270   0.615  0.1962  0.7320  1.3516
 4868TIP3   OH214567   2.704   4.896   5.642  0.0361  0.1002  0.3158
 4868TIP3    H114568   2.624   4.885   5.592  0.5275 -0.8331 -0.3014
 4868TIP3    H214569   2.686   4.852   5.726 -0.0479 -0.2544  0.1150
 4869TIP3   OH214570   3.835   4.369   4.240 -0.2549  0.0702  0.1974
 4869TIP3    H114571   3.788   4.290   4.267 -1.9860 -0.2253 -3.1032
 4869TIP3    H214572   3.891   4.340   4.168  0.8014  1.4957  0.3972
 4870TIP3   OH214573   5.186   3.741   1.416 -0.4520 -0.1129  0.4994
 4870TIP3    H114574   5.107   3.796   1.418 -1.3905 -1.3800 -0.1053
 4870TIP3    H214575   5.255   3.797   1.450 -1.3830  1.4162 -0.0340
 4871TIP3   OH214576   3.279   6.476   3.008 -0.4320 -0.3846  0.0470
 4871TIP3    H114577   3.261   6.544   2.944 -1.5353 -0.2173  0.5049
 4871TIP3    H214578   3.220   6.495   3.081  1.4727  0.0150  1.5725
 4872TIP3   OH214579   2.242   5.873   4.047 -0.4380  0.4451  0.0284
 4872TIP3    H114580   2.205   5.946   4.097  1.6557  2.6416 -1.4235
 4872TIP3    H214581   2.320   5.848   4.096  0.0289  0.6639 -0.5897
 4873TIP3   OH214582   4.921   5.254   2.795  0.0025 -0.1696  0.0028
 4873TIP3    H114583   4.977   5.211   2.860  0.4928 -1.2270 -1.0667
 4873TIP3    H214584   4.977   5.261   2.717 -0.8712  0.1709 -0.6067
 4874TIP3   OH214585   2.300   5.895   4.977 -0.4567  1.0177  0.6943
 4874TIP3    H114586   2.210   5.864   4.988 -0.1288 -0.2919 -0.1368
 4874TIP3    H214587   2.345   5.868   5.057  0.0580 -1.6374 -0.3908
 4875TIP3   OH214588   0.110   4.172   3.275  0.0196  0.0541 -0.2770
 4875TIP3    H114589   0.041   4.223   3.234 -0.7886 -1.5591 -1.0371
 4875TIP3    H214590   0.189   4.194   3.226  0.7869  3.9967  2.2947
 4876TIP3   OH214591   0.223   2.048   0.351  0.0777  0.1954  0.0132
 4876TIP3    H114592   0.278   1.980   0.390 -1.7231 -1.2401  0.1736
 4876TIP3    H214593   0.149   2.000   0.313  0.1530  1.8229 -2.4178
 4877TIP3   OH214594   6.793   6.730   3.641  0.1361 -0.6644  0.8231
 4877TIP3    H114595   6.853   6.656   3.634 -0.0556 -0.7446 -0.0058
 4877TIP3    H214596   6.713   6.693   3.678  0.1726 -0.7961  0.7690
 4878TIP3   OH214597   6.790   6.690   5.654 -0.1345  0.3872 -0.2931
 4878TIP3    H114598   6.787   6.690   5.559  0.2928 -1.6671 -0.3502
 4878TIP3    H214599   6.707   6.649   5.681  0.3329 -0.3067  0.1399
 4879TIP3   OH214600   5.505   0.042   0.729  0.0178 -0.5805  0.0297
 4879TIP3    H114601   5.464   0.129   0.725  0.8689 -0.1748 -0.1816
 4879TIP3    H214602   5.570   0.050   0.799 -1.4392 -1.7469  1.5967
 4880TIP3   OH214603   6.643   6.678   0.064  0.4572  0.3952 -0.1321
 4880TIP3    H114604   6.554   6.651   0.041  1.6099 -4.9960  0.3595
 4880TIP3    H214605   6.694   6.662  -0.015  1.6152 -1.1032  0.8605
 4881TIP3   OH214606   0.737   0.648   0.185 -0.2945  0.0637 -0.0029
 4881TIP3    H114607   0.655   0.661   0.234  0.0416  0.1693  0.5399
 4881TIP3    H214608   0.805   0.681   0.243  0.1604 -0.2463 -0.3525
 4882TIP3   OH214609   4.110   3.650   0.055  0.2435  0.2104  0.6244
 4882TIP3    H114610   4.056   3.672  -0.021 -0.7711  0.8152  1.4841
 4882TIP3    H214611   4.076   3.564   0.084  0.2175  0.2573  0.7359
 4883TIP3   OH214612   0.752   2.209   0.918 -0.3796 -0.6047 -0.1405
 4883TIP3    H114613   0.713   2.198   1.005  0.2756  0.6167  0.3401
 4883TIP3    H214614   0.813   2.136   0.909 -1.1570 -1.2864  0.0070
 4884TIP3   OH214615   4.123   1.296   5.259 -0.0577 -0.3555 -0.4494
 4884TIP3    H114616   4.180   1.266   5.330 -0.8074  0.2290  0.4162
 4884TIP3    H214617   4.170   1.369   5.220 -0.0481 -0.0992  0.0352
 4885TIP3   OH214618   4.677   6.057   2.585  0.0761 -0.0439  0.1562
 4885TIP3    H114619   4.711   5.968   2.584 -0.0502 -0.0957  0.4125
 4885TIP3    H214620   4.660   6.078   2.493 -0.3027 -0.4407  0.1342
 4886TIP3   OH214621   3.624   4.644   4.521  0.2201 -0.1783  0.4051
 4886TIP3    H114622   3.601   4.617   4.432  0.2920 -0.0749  0.3543
 4886TIP3    H214623   3.709   4.687   4.511  0.1433 -0.0037  0.4945
 4887TIP3   OH214624   3.524   1.266   4.711 -0.1742 -0.0803  0.4638
 4887TIP3    H114625   3.595   1.224   4.662 -1.8351 -1.9893 -0.4782
 4887TIP3    H214626   3.474   1.313   4.644 -0.4582  0.2780  0.9259
 4888TIP3   OH214627   0.174   6.079   4.734  0.0612 -0.0236  0.2017
 4888TIP3    H114628   0.197   6.079   4.641 -0.2507 -0.0659  0.1203
 4888TIP3    H214629   0.206   5.995   4.767 -1.8407 -1.0424 -0.3994
 4889TIP3   OH214630   4.599   2.326   5.538  0.3511  0.4515  0.2984
 4889TIP3    H114631   4.695   2.329   5.532  0.5501 -1.2486  1.6218
 4889TIP3    H214632   4.582   2.301   5.629 -1.2234 -1.8406 -0.5201
 4890TIP3   OH214633   0.791   4.242   3.517  0.2564  0.1630  0.4184
 4890TIP3    H114634   0.726   4.310   3.496  0.4370  0.7815  1.7460
 4890TIP3    H214635   0.860   4.255   3.452 -0.7859 -0.3025 -0.8189
 4891TIP3   OH214636   3.822   0.500   1.948 -0.3986 -0.2899  0.0811
 4891TIP3    H114637   3.884   0.538   1.886  0.8208 -0.9627  0.8398
 4891TIP3    H214638   3.756   0.457   1.893  0.5702 -0.7514 -0.7542
 4892TIP3   OH214639   3.139   6.297   3.533 -0.0864 -0.1901 -0.5106
 4892TIP3    H114640   3.168   6.221   3.483  0.0372  0.1229 -0.9148
 4892TIP3    H214641   3.046   6.281   3.549  0.4675 -1.7135  1.6923
 4893TIP3   OH214642   3.990   4.952   5.417 -0.4312  0.0096 -0.3079
 4893TIP3    H114643   3.998   5.032   5.365  1.7963 -0.6787 -1.1345
 4893TIP3    H214644   3.938   4.893   5.362 -1.6442  0.6895  0.0850
 4894TIP3   OH214645   4.567   2.079   2.347  0.4292  0.0627  0.1502
 4894TIP3    H114646   4.594   2.122   2.428  1.3497  0.5295 -0.3920
 4894TIP3    H214647   4.648   2.066   2.299 -0.0285 -0.8647 -0.3916
 4895TIP3   OH214648   0.211   5.422   0.678  0.0819 -0.2631 -0.0907
 4895TIP3    H114649   0.151   5.446   0.748  0.9653 -0.5030  0.7816
 4895TIP3    H214650   0.183   5.474   0.603 -0.9233 -0.0410  0.4192
 4896TIP3   OH214651   6.591   4.932   1.519 -0.0728 -0.0464 -0.3852
 4896TIP3    H114652   6.606   4.949   1.612  0.2479 -2.7576  0.1344
 4896TIP3    H214653   6.665   4.974   1.475  1.3289 -1.0643  0.8751
 4897TIP3   OH214654   2.584   4.114   4.479 -0.0640  0.2997  0.2524
 4897TIP3    H114655   2.582   4.165   4.560  0.8096  0.6516  0.0664
 4897TIP3    H214656   2.595   4.180   4.410  0.9797 -0.1164  0.0021
 4898TIP3   OH214657   0.099   5.193   2.630  0.0402 -0.0635 -0.2536
 4898TIP3    H114658   0.083   5.287   2.639 -1.0529 -0.3601  1.4835
 4898TIP3    H214659   0.072   5.173   2.540  2.7567  1.6681 -1.5747
 4899TIP3   OH214660   6.980   1.333   2.222 -0.1169 -0.3325  0.2129
 4899TIP3    H114661   6.987   1.337   2.318 -1.0281  0.8578  0.2632
 4899TIP3    H214662   7.042   1.266   2.196 -0.1305 -0.9544  1.6770
 4900TIP3   OH214663   0.562   2.255   4.631  0.3187 -0.2219 -0.1377
 4900TIP3    H114664   0.562   2.310   4.709 -0.3554 -0.6359  0.1738
 4900TIP3    H214665   0.573   2.166   4.665 -1.9629 -0.6400 -0.2735
 4901TIP3   OH214666   7.140   3.887   3.564 -0.5429 -0.2518  0.3230
 4901TIP3    H114667   7.111   3.930   3.644  1.4646  0.2133  0.8638
 4901TIP3    H214668   7.117   3.795   3.576 -3.0537  0.2644  0.0314
 4902TIP3   OH214669   3.838   2.070   3.478 -0.6283  0.2644 -0.0440
 4902TIP3    H114670   3.852   2.083   3.384  0.4109 -0.7426 -0.0445
 4902TIP3    H214671   3.912   2.017   3.507 -1.3696 -0.1484  1.1888
 4903TIP3   OH214672   5.894   6.734   1.799 -0.0072  0.8900  0.1247
 4903TIP3    H114673   5.815   6.789   1.798  0.4538  1.5658 -0.8538
 4903TIP3    H214674   5.861   6.645   1.793 -0.6897  1.1934 -0.9592
 4904TIP3   OH214675   3.021   5.391   3.600  0.4693 -0.1006  0.1070
 4904TIP3    H114676   2.974   5.454   3.545  0.3571  0.2169  0.5618
 4904TIP3    H214677   3.062   5.331   3.538 -0.5983 -0.4299 -0.2894
 4905TIP3   OH214678   6.016   4.872   2.964  0.3585 -0.1419  0.5049
 4905TIP3    H114679   6.061   4.956   2.969  0.0795  0.0514 -0.0537
 4905TIP3    H214680   6.041   4.837   2.879 -1.5772  0.5988 -0.4435
 4906TIP3   OH214681   5.365   6.446   4.353 -0.2881  0.1917  0.5529
 4906TIP3    H114682   5.381   6.474   4.263 -0.2731  2.2535  1.1360
 4906TIP3    H214683   5.400   6.517   4.407 -0.4218 -0.9234  2.1949
 4907TIP3   OH214684   2.583   5.184   1.651 -0.2457 -0.2329 -0.2459
 4907TIP3    H114685   2.602   5.247   1.720  1.4292 -0.1917 -0.6956
 4907TIP3    H214686   2.668   5.146   1.629 -0.6823 -0.0934 -2.4168
 4908TIP3   OH214687   5.408   5.194   4.380  0.2122 -0.3381 -0.1207
 4908TIP3    H114688   5.400   5.250   4.303 -1.3795  1.0161  0.9721
 4908TIP3    H214689   5.364   5.113   4.355 -2.5174  0.9709  0.0913
 4909TIP3   OH214690   2.914   5.926   0.107 -0.1239  0.0947  0.7241
 4909TIP3    H114691   2.922   5.832   0.087 -0.7775  0.1417  0.2157
 4909TIP3    H214692   2.820   5.944   0.099  0.2781  1.3867 -1.9101
 4910TIP3   OH214693   4.444   5.395   3.192  0.7186 -0.0751  0.2892
 4910TIP3    H114694   4.485   5.477   3.218  1.3431 -0.7996  1.7195
 4910TIP3    H214695   4.511   5.350   3.141  1.4238 -0.8227  1.7846
 4911TIP3   OH214696   4.653   3.224   4.016  0.0331 -0.3354 -0.1241
 4911TIP3    H114697   4.559   3.222   3.999  0.0716 -0.2602 -0.3531
 4911TIP3    H214698   4.674   3.317   4.023  0.0437 -0.3615  0.1958
 4912TIP3   OH214699   6.316   4.272   1.409 -0.2121  0.6037  0.1026
 4912TIP3    H114700   6.336   4.365   1.403 -1.3853  0.8669  0.0632
 4912TIP3    H214701   6.392   4.229   1.369  0.4342  1.5233  0.3059
 4913TIP3   OH214702   5.912   0.753   2.164  0.4688  0.2560  0.1287
 4913TIP3    H114703   5.888   0.723   2.251 -0.1735 -3.0688 -1.0375
 4913TIP3    H214704   6.001   0.789   2.174  0.7833 -0.9411  1.9854
 4914TIP3   OH214705   6.954   3.356   1.078 -0.0380 -0.5600 -0.7401
 4914TIP3    H114706   6.972   3.427   1.017 -1.7959  0.0910 -0.5619
 4914TIP3    H214707   6.975   3.276   1.029  0.2186  0.0193 -1.5874
 4915TIP3   OH214708   3.097   6.513   2.286  0.2457  0.1399  0.7146
 4915TIP3    H114709   3.030   6.545   2.346  0.8676 -2.4425  2.9846
 4915TIP3    H214710   3.051   6.499   2.203 -1.7919 -0.5541  1.8960
 4916TIP3   OH214711   0.341   6.787   2.446  0.2711 -0.2932  0.1041
 4916TIP3    H114712   0.296   6.723   2.500 -0.6694  2.2812  2.6321
 4916TIP3    H214713   0.432   6.784   2.476  0.2677 -0.5592  0.0883
 4917TIP3   OH214714   6.516   1.345   3.351  0.3755  0.4448  0.0781
 4917TIP3    H114715   6.485   1.261   3.385 -0.8764 -0.0145 -2.0273
 4917TIP3    H214716   6.437   1.386   3.315  1.3772  1.4718 -1.0027
 4918TIP3   OH214717   1.242   3.487   5.507 -0.3326 -0.1942 -0.1058
 4918TIP3    H114718   1.329   3.507   5.472 -0.5173  0.5300 -0.1650
 4918TIP3    H214719   1.232   3.393   5.493  1.1005 -0.6239  1.3552
 4919TIP3   OH214720   5.452   3.539   1.800 -0.1474  0.0901  0.6521
 4919TIP3    H114721   5.469   3.550   1.893  0.8978 -0.3305  0.5189
 4919TIP3    H214722   5.447   3.628   1.766 -1.5571  0.2781  1.2612
 4920TIP3   OH214723   4.608   6.753   2.780 -0.3631  0.3176 -0.0272
 4920TIP3    H114724   4.669   6.822   2.807 -0.6862  1.0514 -1.0588
 4920TIP3    H214725   4.642   6.673   2.820  0.6509  0.8926  0.3083
 4921TIP3   OH214726   0.452   1.220   4.707  0.1312  0.1848  0.2598
 4921TIP3    H114727   0.467   1.250   4.617 -1.2976 -2.1329 -0.8257
 4921TIP3    H214728   0.505   1.141   4.716 -0.9446 -0.4787  0.9218
 4922TIP3   OH214729   1.541   6.705   3.916 -0.1947  0.3849  0.4567
 4922TIP3    H114730   1.576   6.618   3.933  0.0013  0.3759 -0.0031
 4922TIP3    H214731   1.617   6.760   3.899 -0.2207  0.9326  1.9716
 4923TIP3   OH214732   6.652   6.343   5.330 -0.0558  0.1561  0.0204
 4923TIP3    H114733   6.746   6.358   5.343  0.2752  0.2255 -2.0287
 4923TIP3    H214734   6.631   6.267   5.384  1.2143  0.0454  0.3840
 4924TIP3   OH214735   3.709   1.022   5.699  0.5565 -0.1553 -0.5770
 4924TIP3    H114736   3.773   1.085   5.666  1.0265  0.2180  0.9721
 4924TIP3    H214737   3.626   1.069   5.698  0.7590  0.2143 -0.2122
 4925TIP3   OH214738   6.276   4.996   2.789  0.6205  0.1435 -0.0500
 4925TIP3    H114739   6.205   5.058   2.807 -0.2893 -0.7014 -0.6890
 4925TIP3    H214740   6.284   4.945   2.870 -1.3515 -1.5452 -0.8231
 4926TIP3   OH214741   2.851   0.089   4.621  0.1500  0.2537  0.1548
 4926TIP3    H114742   2.931   0.139   4.635  1.5887 -2.1010  1.0000
 4926TIP3    H214743   2.808   0.132   4.547  2.7859  0.9457 -1.0903
 4927TIP3   OH214744   2.233   0.576   2.679  0.4389 -0.0118  0.0767
 4927TIP3    H114745   2.326   0.565   2.695  0.8688 -0.8431 -2.5655
 4927TIP3    H214746   2.201   0.626   2.754  2.8813 -0.1714  1.2996
 4928TIP3   OH214747   0.672   1.873   0.253  0.6035  0.6018  0.3812
 4928TIP3    H114748   0.684   1.805   0.320 -0.5098  1.3223  1.3676
 4928TIP3    H214749   0.647   1.951   0.303 -0.0499  1.2223 -0.8675
 4929TIP3   OH214750   6.052   1.694   1.290  0.9219 -0.1678 -0.1306
 4929TIP3    H114751   6.091   1.680   1.204  0.8749  0.4826 -0.2620
 4929TIP3    H214752   6.004   1.614   1.308 -0.7601  0.4403 -1.6152
 4930TIP3   OH214753   0.401   4.167   3.400 -0.6634  0.0944  0.0756
 4930TIP3    H114754   0.389   4.186   3.307 -1.1560  0.5423  0.2231
 4930TIP3    H214755   0.342   4.228   3.445 -0.6688 -0.3308  0.6666
 4931TIP3   OH214756   0.306   2.798   4.344 -0.4673  0.4690  0.0571
 4931TIP3    H114757   0.348   2.716   4.320  0.3450  0.9969 -0.3795
 4931TIP3    H214758   0.221   2.773   4.380  0.9226 -0.8121  2.7756
 4932TIP3   OH214759   6.627   3.260   2.985  0.1875  0.4975  0.4462
 4932TIP3    H114760   6.713   3.229   3.014  1.3798  3.1328  0.0258
 4932TIP3    H214761   6.605   3.330   3.047 -2.5460 -1.2509  1.6074
 4933TIP3   OH214762   0.968   1.329   1.318 -0.5053 -0.5072  0.2509
 4933TIP3    H114763   1.017   1.275   1.380 -0.4196  0.9129  1.4783
 4933TIP3    H214764   1.008   1.311   1.233 -0.1372 -1.9392  0.7021
 4934TIP3   OH214765   0.282   4.966   0.641  0.2570  0.7696  0.2052
 4934TIP3    H114766   0.325   5.018   0.573  0.2925 -0.4928 -0.7760
 4934TIP3    H214767   0.256   4.885   0.597 -0.7229  0.3725  1.4349
 4935TIP3   OH214768   1.740   5.119   3.810  0.1288  0.1959  0.5975
 4935TIP3    H114769   1.681   5.068   3.867 -0.1798  0.2402  0.3220
 4935TIP3    H214770   1.713   5.210   3.823  0.7433  0.2993  1.1608
 4936TIP3   OH214771   2.765   2.069   3.594 -0.1708  0.5555 -0.1454
 4936TIP3    H114772   2.784   2.106   3.508 -0.9906 -1.1152 -1.0878
 4936TIP3    H214773   2.670   2.064   3.597 -0.1388  0.3343  0.7638
 4937TIP3   OH214774   3.849   2.317   2.044  0.1591 -0.0231  0.0977
 4937TIP3    H114775   3.790   2.386   2.075 -1.1160 -1.4143  0.9218
 4937TIP3    H214776   3.911   2.362   1.987 -0.3623  1.8592  0.9421
 4938TIP3   OH214777   4.241   5.496   4.073  0.0040  0.5861  0.1248
 4938TIP3    H114778   4.262   5.447   3.994 -1.8355 -0.1698  0.0642
 4938TIP3    H214779   4.282   5.446   4.144 -1.7000 -1.0161  0.0451
 4939TIP3   OH214780   6.084   1.804   0.342  0.1231 -0.2097  0.2090
 4939TIP3    H114781   5.997   1.831   0.314  0.2892  0.5867  0.4533
 4939TIP3    H214782   6.085   1.709   0.328 -1.2934 -0.4577  1.5414
 4940TIP3   OH214783   2.665   1.674   2.002  0.2589  0.7083  0.4861
 4940TIP3    H114784   2.746   1.712   1.968 -0.5972  2.7127  0.5462
 4940TIP3    H214785   2.674   1.681   2.097 -0.4688  2.1288  0.4797
 4941TIP3   OH214786   4.338   3.325   4.041  0.1955  0.7107 -0.3383
 4941TIP3    H114787   4.390   3.342   4.119 -0.4485  1.1244  0.0068
 4941TIP3    H214788   4.250   3.307   4.073  0.5199 -2.1400 -0.7651
 4942TIP3   OH214789   1.121   0.365   2.063 -0.3324 -0.0828 -0.5887
 4942TIP3    H114790   1.152   0.291   2.010 -0.5249  0.8632 -2.0698
 4942TIP3    H214791   1.040   0.392   2.021 -0.5850  0.6149  0.3117
 4943TIP3   OH214792   2.255   2.712   2.676 -0.3966 -0.5070 -0.2387
 4943TIP3    H114793   2.336   2.738   2.632 -1.1048  0.0632 -1.2583
 4943TIP3    H214794   2.273   2.624   2.710  1.1057  0.1445  0.8019
 4944TIP3   OH214795   4.036   4.481   1.768  0.4654  0.4769  0.0680
 4944TIP3    H114796   3.978   4.529   1.709 -0.1712  0.9325  1.0412
 4944TIP3    H214797   4.049   4.540   1.842  1.3474 -0.0391  0.3344
 4945TIP3   OH214798   5.514   5.532   2.659 -0.2105  0.4346  0.0865
 4945TIP3    H114799   5.546   5.609   2.706 -0.8108  0.9720 -0.3653
 4945TIP3    H214800   5.426   5.556   2.630 -0.4520 -0.4658  0.0325
 4946TIP3   OH214801  -0.030   5.502   5.102  0.5449 -0.1403  0.0781
 4946TIP3    H114802   0.063   5.521   5.090  0.1703  2.7144  0.9651
 4946TIP3    H214803  -0.032   5.431   5.167  2.0972 -0.0588  0.2519
 4947TIP3   OH214804   4.176   3.798   5.695 -0.0554  0.1825 -0.0276
 4947TIP3    H114805   4.086   3.815   5.723 -1.0806 -0.9381 -2.3400
 4947TIP3    H214806   4.171   3.796   5.599  2.1147 -1.4700 -0.1724
 4948TIP3   OH214807   2.193   0.711   1.698 -0.2670  0.2112  0.5387
 4948TIP3    H114808   2.156   0.716   1.786 -0.4336  0.3974  0.4594
 4948TIP3    H214809   2.122   0.740   1.640 -0.2021 -0.0364  0.3319
 4949TIP3   OH214810   2.741   1.240   2.517 -0.0466 -0.3982  0.3527
 4949TIP3    H114811   2.668   1.298   2.541 -1.0278 -1.7135  0.6672
 4949TIP3    H214812   2.785   1.286   2.445 -2.6936 -0.6537 -1.5925
 4950TIP3   OH214813   3.126   1.462   1.830  0.0829  0.1139 -0.2637
 4950TIP3    H114814   3.046   1.429   1.871  0.0238 -0.4020 -0.7929
 4950TIP3    H214815   3.106   1.465   1.737  0.4718  0.5876 -0.3359
 4951TIP3   OH214816   6.764   6.243   3.811 -0.2384 -0.5788  0.2597
 4951TIP3    H114817   6.801   6.297   3.741 -1.0683 -1.0652 -0.5713
 4951TIP3    H214818   6.791   6.287   3.892 -0.8253  1.0438 -0.3864
 4952TIP3   OH214819   6.491   1.177   2.008 -0.5192  0.3057 -0.2761
 4952TIP3    H114820   6.421   1.203   1.947  0.3438  2.2948 -0.5023
 4952TIP3    H214821   6.568   1.166   1.953 -0.3247 -0.5380  0.1461
 4953TIP3   OH214822   3.810   0.735   1.174 -1.0987 -0.3832 -0.0293
 4953TIP3    H114823   3.864   0.665   1.138 -0.6529  0.2042 -0.5359
 4953TIP3    H214824   3.865   0.775   1.241 -0.2585  1.1627 -1.5391
 4954TIP3   OH214825   4.278   5.755   3.056 -0.8388 -0.6348  0.8096
 4954TIP3    H114826   4.202   5.767   3.000  0.4500  0.2780 -0.8116
 4954TIP3    H214827   4.313   5.843   3.069  0.5298 -1.1270  0.6525
 4955TIP3   OH214828   2.586   4.703   3.456  0.2619 -0.0180  0.0808
 4955TIP3    H114829   2.584   4.720   3.362  0.5699 -0.6172 -0.0442
 4955TIP3    H214830   2.649   4.766   3.491  1.9011 -1.2653 -0.4640
 4956TIP3   OH214831   6.068   2.955   3.609 -0.1581  0.2274 -1.2740
 4956TIP3    H114832   5.979   2.976   3.582  0.4769  0.5461 -3.2950
 4956TIP3    H214833   6.118   3.035   3.593  0.3710  0.3057  0.5700
 4957TIP3   OH214834   6.219   6.199   5.383 -0.2117  0.8210 -0.3473
 4957TIP3    H114835   6.256   6.195   5.295 -0.1549 -0.7598 -0.2782
 4957TIP3    H214836   6.286   6.160   5.439 -1.6472 -1.4865 -0.1255
 4958TIP3   OH214837   0.510   2.141   5.673  0.0066 -0.4621  0.2236
 4958TIP3    H114838   0.563   2.221   5.674  2.3818 -1.7552  4.5780
 4958TIP3    H214839   0.568   2.074   5.637 -0.1482 -1.1201  1.1706
 4959TIP3   OH214840   7.028   0.939   3.163 -0.2655 -0.1415 -0.4543
 4959TIP3    H114841   6.985   1.003   3.219 -2.1783 -2.2041  0.5829
 4959TIP3    H214842   7.121   0.960   3.170 -0.7597  2.0131  0.4389
 4960TIP3   OH214843   4.978   4.418   0.548  0.2206 -0.0340 -0.4317
 4960TIP3    H114844   5.015   4.343   0.503  0.9761  0.0374  0.0544
 4960TIP3    H214845   4.890   4.390   0.574 -0.7005  0.2985 -2.8929
 4961TIP3   OH214846   4.705   4.005   0.275 -0.4584  0.1859  0.1309
 4961TIP3    H114847   4.697   3.928   0.218  0.2132  1.7046 -2.1561
 4961TIP3    H214848   4.662   3.979   0.356 -1.2773 -2.1901 -0.9615
 4962TIP3   OH214849   1.471   3.804   1.720 -0.2371  0.1962 -0.3386
 4962TIP3    H114850   1.511   3.871   1.775 -1.3218  1.8918 -1.5394
 4962TIP3    H214851   1.545   3.754   1.685  0.5340  0.1298  1.2965
 4963TIP3   OH214852   3.515   6.570   0.758 -0.0805  0.5982 -0.0633
 4963TIP3    H114853   3.439   6.589   0.704  0.8957  0.4495 -1.5482
 4963TIP3    H214854   3.512   6.636   0.828 -0.1106  2.3645 -1.6327
 4964TIP3   OH214855   2.220   2.625   5.645 -0.2422 -0.9544 -0.2383
 4964TIP3    H114856   2.159   2.693   5.617  0.4297 -0.1704  0.1474
 4964TIP3    H214857   2.215   2.558   5.576 -1.8086 -1.1043 -0.0214
 4965TIP3   OH214858   0.081   5.065   5.826  0.0053 -0.2488 -0.2554
 4965TIP3    H114859   0.038   4.981   5.809  0.5427 -0.4565 -0.6096
 4965TIP3    H214860   0.107   5.061   5.918 -0.0036 -0.4555 -0.2613
 4966TIP3   OH214861   6.935   6.526   4.598 -0.4309 -0.4458  0.1826
 4966TIP3    H114862   6.975   6.458   4.651  0.4247 -0.0520  0.0681
 4966TIP3    H214863   6.844   6.529   4.626 -0.0793 -0.5011  1.3521
 4967TIP3   OH214864   3.311   5.783   4.100  0.3477  0.7351  0.4715
 4967TIP3    H114865   3.350   5.771   4.013 -0.6731  0.7294  0.0053
 4967TIP3    H214866   3.344   5.709   4.151 -1.0891 -0.7537 -0.6543
 4968TIP3   OH214867   1.634   5.411   1.799  0.1754 -0.9398 -0.2294
 4968TIP3    H114868   1.664   5.500   1.780  1.4933 -1.2171  0.4050
 4968TIP3    H214869   1.542   5.421   1.822  0.4906  0.3871  0.6090
 4969TIP3   OH214870   5.458   2.607   5.799 -0.1401 -0.7554  0.1266
 4969TIP3    H114871   5.498   2.537   5.747 -1.0501 -3.4665  2.7541
 4969TIP3    H214872   5.530   2.668   5.816  0.2668  0.0929 -3.7818
 4970TIP3   OH214873   0.232   3.986   2.830  0.4111 -0.1457 -0.2958
 4970TIP3    H114874   0.209   4.054   2.893 -1.5357  0.8601 -1.9403
 4970TIP3    H214875   0.211   3.904   2.874 -1.2074  0.5403  0.2945
 4971TIP3   OH214876   0.081   1.503   1.905 -0.0982  0.1792 -0.1412
 4971TIP3    H114877   0.117   1.592   1.905  2.1013 -0.5920  2.0119
 4971TIP3    H214878   0.002   1.510   1.959  0.3949  0.7389  0.5375
 4972TIP3   OH214879   6.736   5.734   2.458 -0.7166  0.8791 -0.1244
 4972TIP3    H114880   6.770   5.818   2.489  1.0132  0.4218 -0.6643
 4972TIP3    H214881   6.648   5.755   2.425  0.5338  3.0536 -2.5219
 4973TIP3   OH214882   1.823   1.616   4.448 -0.4733  0.1434 -0.7352
 4973TIP3    H114883   1.888   1.603   4.378  0.8544 -0.3040  0.5279
 4973TIP3    H214884   1.859   1.569   4.523 -2.5867 -0.6407 -0.1430
 4974TIP3   OH214885   6.531   5.545   4.486  0.4385  0.1478  0.1670
 4974TIP3    H114886   6.516   5.541   4.580  1.1165 -1.3825  0.2388
 4974TIP3    H214887   6.472   5.614   4.455  0.4467  0.8958  1.7417
 4975TIP3   OH214888   3.421   4.675   5.278  0.0670 -0.2109 -0.1086
 4975TIP3    H114889   3.369   4.620   5.218 -0.4627  0.2954 -0.1160
 4975TIP3    H214890   3.437   4.619   5.354 -0.6561 -0.3109 -0.0225
 4976TIP3   OH214891   6.803   1.037   2.908 -0.2334  0.0478  0.9985
 4976TIP3    H114892   6.748   1.093   2.854 -1.5600 -1.4177  0.7579
 4976TIP3    H214893   6.762   1.040   2.995 -0.6214 -0.9266  0.8583
 4977TIP3   OH214894   3.021   4.076   2.781 -0.3293  0.2214 -0.1972
 4977TIP3    H114895   2.978   4.150   2.824  0.8972  0.3653  0.8615
 4977TIP3    H214896   3.092   4.116   2.730 -0.8245 -0.0869 -1.1581
 4978TIP3   OH214897   5.374   3.916   0.142  0.0529 -0.2151  0.5897
 4978TIP3    H114898   5.332   3.833   0.165 -0.2333 -0.4490 -0.7052
 4978TIP3    H214899   5.332   3.980   0.199 -0.9182 -0.7015  0.4431
 4979TIP3   OH214900   5.647   3.104   2.031 -0.3172  0.0493  0.8228
 4979TIP3    H114901   5.677   3.188   2.066  1.8131 -0.0500 -0.5529
 4979TIP3    H214902   5.568   3.125   1.982 -0.2445  1.1209  1.1296
 4980TIP3   OH214903   7.038   0.253   3.090  0.1395 -0.2181  0.2827
 4980TIP3    H114904   7.056   0.176   3.037  2.0683 -1.1593  2.1679
 4980TIP3    H214905   7.123   0.280   3.124 -0.4170  2.9751 -0.5476
 4981TIP3   OH214906   1.026   1.285   4.358 -0.8308 -0.1141  0.0001
 4981TIP3    H114907   1.004   1.253   4.446 -2.7460  0.3453 -0.2757
 4981TIP3    H214908   1.046   1.378   4.370  1.0490 -0.5108  0.2372
 4982TIP3   OH214909   1.116   1.122   3.945 -0.4730 -0.2919  0.1578
 4982TIP3    H114910   1.092   1.047   3.999 -2.4685 -1.9826 -2.8118
 4982TIP3    H214911   1.056   1.192   3.972 -0.8810 -0.8350  0.6684
 4983TIP3   OH214912   5.344   4.914   1.295 -0.5959 -0.6862 -0.4999
 4983TIP3    H114913   5.261   4.877   1.266 -0.6844  0.5038 -1.8913
 4983TIP3    H214914   5.343   5.004   1.262  1.1342 -0.5768 -0.3481
 4984TIP3   OH214915   4.750   0.096   0.691  0.4690 -0.8241  0.2610
 4984TIP3    H114916   4.777   0.047   0.614 -0.0359  0.3215 -0.6684
 4984TIP3    H214917   4.720   0.180   0.657  0.7698 -0.0743  1.7488
 4985TIP3   OH214918   6.286   3.296   0.423  0.3378  0.1134  0.7001
 4985TIP3    H114919   6.286   3.324   0.331 -3.8237 -0.9425  0.2006
 4985TIP3    H214920   6.222   3.352   0.466 -0.3599 -1.6499  2.1025
 4986TIP3   OH214921   2.074   3.817   3.451 -0.8434 -0.4093 -0.3746
 4986TIP3    H114922   1.982   3.838   3.436 -1.2392 -1.1254  0.8612
 4986TIP3    H214923   2.077   3.721   3.449  0.0510 -0.3787 -1.2709
 4987TIP3   OH214924   1.588   1.977   3.507 -0.0491 -0.3573  0.1848
 4987TIP3    H114925   1.679   2.005   3.515 -0.2629  0.8014 -1.0848
 4987TIP3    H214926   1.583   1.936   3.421 -0.0660 -3.2777  1.4392
 4988TIP3   OH214927   5.395   4.715   0.883  0.0313 -0.2529  0.2634
 4988TIP3    H114928   5.420   4.624   0.901 -2.1786 -0.9261  0.2536
 4988TIP3    H214929   5.331   4.708   0.812 -0.5207  1.2726  0.5723
 4989TIP3   OH214930   4.726  -0.014   3.804  0.4736 -0.3453  0.4899
 4989TIP3    H114931   4.719   0.078   3.779  0.3266 -0.7764 -1.1308
 4989TIP3    H214932   4.656  -0.027   3.869  0.0420  0.5139  0.2027
 4990TIP3   OH214933   1.862   5.183   2.223  0.0832  0.3994  1.0517
 4990TIP3    H114934   1.880   5.276   2.208  0.3120  0.1375 -0.4777
 4990TIP3    H214935   1.932   5.137   2.176 -2.5525 -0.6061 -2.2980
 4991TIP3   OH214936   0.320   3.427   5.008  0.3930 -0.3594 -0.6578
 4991TIP3    H114937   0.255   3.496   5.015  1.4703  0.7077 -0.8184
 4991TIP3    H214938   0.316   3.399   4.917  1.2301  0.8241 -1.0845
 4992TIP3   OH214939   6.511   3.239   4.223 -0.5033  0.3772  0.0901
 4992TIP3    H114940   6.487   3.331   4.231  0.3539  0.6505 -0.3977
 4992TIP3    H214941   6.600   3.240   4.189 -0.7892 -0.6464 -0.7450
 4993TIP3   OH214942   5.027   2.889   2.350 -0.5398 -0.0754  0.3793
 4993TIP3    H114943   4.947   2.893   2.403 -0.5991  1.3141  0.2153
 4993TIP3    H214944   5.098   2.887   2.414 -0.6173  1.4823  0.5549
 4994TIP3   OH214945   3.081   4.911   1.222  0.3994  0.5313 -0.1334
 4994TIP3    H114946   3.061   4.921   1.315 -1.2997  1.6806 -0.5783
 4994TIP3    H214947   3.176   4.923   1.217  0.6424 -0.3895  1.5249
 4995TIP3   OH214948   5.587   5.986   1.165 -0.2686  0.4428  0.6533
 4995TIP3    H114949   5.633   5.942   1.237  0.8518 -0.3315 -0.4911
 4995TIP3    H214950   5.657   6.026   1.113 -0.7737 -1.1852 -1.4274
 4996TIP3   OH214951   1.424   1.078   4.665 -0.0033  0.0052  0.7247
 4996TIP3    H114952   1.424   0.991   4.625  1.3742 -0.4539  1.6650
 4996TIP3    H214953   1.420   1.139   4.591  0.9310 -0.8385 -0.0402
 4997TIP3   OH214954   2.166   5.907   0.122  0.2507 -0.3305 -0.5157
 4997TIP3    H114955   2.133   5.852   0.051 -0.2189  0.7371 -1.1576
 4997TIP3    H214956   2.098   5.973   0.135  0.7946  0.0954  0.2246
 4998TIP3   OH214957   1.722   6.030   2.758 -0.1223 -0.1886 -0.3826
 4998TIP3    H114958   1.700   6.115   2.723 -0.5436 -0.3338 -0.4702
 4998TIP3    H214959   1.677   5.967   2.702  0.6964 -0.4992 -0.7082
 4999TIP3   OH214960   6.402   2.537   0.737  0.5643 -0.1871 -0.0855
 4999TIP3    H114961   6.425   2.628   0.715 -2.8516  1.1382  1.0914
 4999TIP3    H214962   6.454   2.516   0.814  2.3294  0.2547 -1.1132
 5000TIP3   OH214963   4.809   0.044   4.960 -0.1969  0.3880  0.4048
 5000TIP3    H114964   4.755   0.003   5.028 -0.4804  0.1096  0.0218
 5000TIP3    H214965   4.856   0.114   5.005 -1.6498  1.3206  0.5435
 5001TIP3   OH214966   6.311   6.090   1.885 -0.1382 -0.3892 -0.5701
 5001TIP3    H114967   6.216   6.076   1.880 -0.1368 -0.7101  0.1534
 5001TIP3    H214968   6.335   6.126   1.800 -0.7360 -1.3090 -1.1320
 5002TIP3   OH214969   0.150   2.259   4.075  0.5951  0.1064  0.6934
 5002TIP3    H114970   0.088   2.306   4.131 -2.4623  0.5397 -2.6988
 5002TIP3    H214971   0.135   2.167   4.094 -0.7174  0.2314  0.3501
 5003TIP3   OH214972   3.553   2.929   1.810  0.3022 -0.0833 -0.1850
 5003TIP3    H114973   3.569   2.922   1.716 -0.7092  0.3372 -0.4028
 5003TIP3    H214974   3.504   3.010   1.820 -0.7893 -0.8048  0.5340
 5004TIP3   OH214975   0.048   5.681   1.057 -0.1109  0.5650 -0.1585
 5004TIP3    H114976   0.075   5.691   1.148 -0.8430  1.3090 -0.0171
 5004TIP3    H214977  -0.044   5.707   1.055 -0.5130 -0.7887 -0.8554
 5005TIP3   OH214978   5.346   6.494   1.487 -0.1542  0.2276 -0.2670
 5005TIP3    H114979   5.425   6.524   1.442  0.0680 -0.7763 -0.5617
 5005TIP3    H214980   5.351   6.534   1.574  0.6181  0.2699 -0.3301
 5006TIP3   OH214981   6.241   1.488   1.555 -0.0582 -0.4091 -0.1835
 5006TIP3    H114982   6.231   1.423   1.486  1.2687 -1.2703  0.3843
 5006TIP3    H214983   6.252   1.437   1.635  0.7465  0.5015  0.3154
 5007TIP3   OH214984   3.654   4.853   1.823  0.2994 -0.6500 -0.0259
 5007TIP3    H114985   3.611   4.923   1.773  0.6221 -1.3972 -1.3729
 5007TIP3    H214986   3.746   4.879   1.826  0.3581 -0.8406 -0.2139
 5008TIP3   OH214987   6.658   2.138   4.869  0.3773 -0.2740 -0.1189
 5008TIP3    H114988   6.690   2.201   4.933  1.1086 -0.3940 -0.3552
 5008TIP3    H214989   6.640   2.190   4.791 -0.9799 -0.0505  0.3159
 5009TIP3   OH214990   2.664   2.816  -0.017  0.0705  0.6855 -0.1763
 5009TIP3    H114991   2.683   2.906   0.009  0.3283  0.3092  0.9867
 5009TIP3    H214992   2.613   2.780   0.056 -0.6385  0.0981 -0.9458
 5010TIP3   OH214993   6.426   3.530   3.583  0.3144  0.2592  0.3069
 5010TIP3    H114994   6.424   3.454   3.524  0.3769 -0.5727  1.3538
 5010TIP3    H214995   6.516   3.533   3.615  0.5058  1.2295 -0.2866
 5011TIP3   OH214996   4.896   3.501   3.236  0.3605 -0.3148  0.2204
 5011TIP3    H114997   4.980   3.468   3.202  1.4033  1.1698  1.2440
 5011TIP3    H214998   4.921   3.568   3.299 -1.6199  1.3625 -0.6689
 5012TIP3   OH214999   1.501   5.916   1.849 -0.1199  0.0642 -0.1706
 5012TIP3    H115000   1.439   5.935   1.779  0.4864  1.9340 -0.2607
 5012TIP3    H215001   1.526   6.002   1.883  0.8447 -0.7309  1.2548
 5013TIP3   OH215002   0.520   1.592   4.896 -0.1141 -0.2590 -0.1287
 5013TIP3    H115003   0.527   1.623   4.806 -1.2634  0.2088 -0.0780
 5013TIP3    H215004   0.437   1.629   4.927  0.7824  0.5173  1.4709
 5014TIP3   OH215005   5.901   3.059   0.868  0.5772 -0.1105  0.0342
 5014TIP3    H115006   5.808   3.049   0.846 -0.3326  3.7345  1.4013
 5014TIP3    H215007   5.939   3.100   0.790  0.8302 -0.2808  0.0653
 5015TIP3   OH215008   5.409   6.661   3.180 -0.7922  0.2465  0.3387
 5015TIP3    H115009   5.390   6.751   3.152 -0.4410  0.1909 -0.0878
 5015TIP3    H215010   5.326   6.615   3.172 -1.6154  1.0923  2.8624
 5016TIP3   OH215011   5.521   2.942   5.340 -0.1103 -0.4514  0.4807
 5016TIP3    H115012   5.448   3.002   5.323  0.9974  1.0366  0.8805
 5016TIP3    H215013   5.479   2.867   5.383 -1.7645 -0.7702 -1.4800
 5017TIP3   OH215014   4.841   0.665   4.041  0.3754 -0.0650 -0.8126
 5017TIP3    H115015   4.914   0.615   4.080  1.0629  1.4909 -0.0195
 5017TIP3    H215016   4.769   0.602   4.037  1.5298 -1.4488 -0.9311
 5018TIP3   OH215017   1.169   3.488   2.863 -0.8116  0.2008 -0.0494
 5018TIP3    H115018   1.087   3.485   2.814 -1.6094 -2.7127  1.2637
 5018TIP3    H215019   1.172   3.405   2.911  1.4963  1.4657  2.2676
 5019TIP3   OH215020   0.883   6.177   0.841 -0.3489  0.2581 -0.6152
 5019TIP3    H115021   0.895   6.231   0.919 -1.1559 -1.2127  0.5663
 5019TIP3    H215022   0.968   6.181   0.796 -0.4277  2.5780 -0.6563
 5020TIP3   OH215023   6.636   6.611   0.768 -0.1794  0.4513 -0.0713
 5020TIP3    H115024   6.675   6.524   0.772 -2.2770 -0.5690 -0.1997
 5020TIP3    H215025   6.708   6.669   0.747  1.3450 -1.2083  0.3354
 5021TIP3   OH215026   6.193   4.441   3.347 -0.6199  0.6833 -0.3683
 5021TIP3    H115027   6.157   4.473   3.264 -0.7868 -1.6489 -1.2881
 5021TIP3    H215028   6.118   4.438   3.406 -0.4428  2.6517  0.0190
 5022TIP3   OH215029   0.865   3.739   3.388  0.5419  0.4343 -0.5263
 5022TIP3    H115030   0.956   3.752   3.414  1.0014  1.1931 -2.3374
 5022TIP3    H215031   0.823   3.823   3.405 -0.1204 -0.2121  1.2599
 5023TIP3   OH215032   4.482   1.106   3.635  0.1369 -0.7819  0.4326
 5023TIP3    H115033   4.427   1.042   3.589 -0.4241 -0.4211  0.5900
 5023TIP3    H215034   4.518   1.161   3.566 -1.4504  0.3537  0.4360
 5024TIP3   OH215035   6.450   3.229   1.062  0.4412 -0.3425 -0.6421
 5024TIP3    H115036   6.422   3.212   0.972  0.5912  1.6540 -1.1302
 5024TIP3    H215037   6.508   3.305   1.054 -2.2963  2.1808  1.4710
 5025TIP3   OH215038   4.589   0.920   2.683 -0.3625  0.4788 -0.2487
 5025TIP3    H115039   4.501   0.899   2.653 -1.0440  2.6684  0.0295
 5025TIP3    H215040   4.610   1.004   2.641  0.0503  1.8780  2.5080
 5026TIP3   OH215041   0.183   3.501   1.394  0.3314  0.4315 -0.6323
 5026TIP3    H115042   0.178   3.515   1.300  0.8709 -0.8943 -0.8762
 5026TIP3    H215043   0.096   3.471   1.419  0.4389 -0.0881 -0.8719
 5027TIP3   OH215044   4.080   6.654   2.359 -0.2111 -0.1550 -0.2223
 5027TIP3    H115045   4.171   6.666   2.384  0.0326 -2.3777  0.1778
 5027TIP3    H215046   4.049   6.742   2.338  1.2792  1.0381  2.0966
 5028TIP3   OH215047   0.908   1.165   2.868 -0.4613  0.1228 -0.0137
 5028TIP3    H115048   0.995   1.194   2.894 -0.1732 -1.2141  0.6222
 5028TIP3    H215049   0.865   1.143   2.951 -0.9734 -0.3550 -0.4002
 5029TIP3   OH215050   1.116   2.380   2.075  0.5190  0.6485  0.0857
 5029TIP3    H115051   1.172   2.344   2.144  1.6431  0.4396 -0.8868
 5029TIP3    H215052   1.028   2.381   2.112  0.5776 -2.2173  0.5353
 5030TIP3   OH215053   3.892   0.926   4.422  0.2415 -0.6330 -0.3055
 5030TIP3    H115054   3.928   1.014   4.417  0.1387 -0.6450 -1.7839
 5030TIP3    H215055   3.884   0.898   4.330 -0.4001 -1.8995  0.1086
 5031TIP3   OH215056   2.138   2.142   1.785 -0.0378  0.2830 -0.0167
 5031TIP3    H115057   2.061   2.122   1.838 -0.1283  2.3333  0.7155
 5031TIP3    H215058   2.201   2.073   1.805 -0.4318  0.4680  2.0137
 5032TIP3   OH215059   3.315   0.469   2.614 -0.2809  0.0606  0.0859
 5032TIP3    H115060   3.337   0.452   2.522 -0.7943  0.3074 -0.0877
 5032TIP3    H215061   3.224   0.439   2.622  0.2305 -1.3523  0.8990
 5033TIP3   OH215062   0.812   3.844   4.916  0.2970  0.2253  0.1598
 5033TIP3    H115063   0.888   3.786   4.910 -1.1741 -1.7366 -0.7300
 5033TIP3    H215064   0.788   3.842   5.009  0.2770 -0.6131  0.1470
 5034TIP3   OH215065   1.687   0.706   1.090 -0.1109 -0.1791  0.0718
 5034TIP3    H115066   1.760   0.656   1.126 -1.1177 -1.7559  0.0009
 5034TIP3    H215067   1.624   0.640   1.063 -1.7661  1.1579  0.5341
 5035TIP3   OH215068   2.592   6.718   3.707 -0.0975  0.0606 -0.5158
 5035TIP3    H115069   2.531   6.742   3.777  0.8552 -1.0317  0.7508
 5035TIP3    H215070   2.541   6.662   3.648 -0.2009 -1.3874  0.8769
 5036TIP3   OH215071   1.017   4.671   5.753  1.1311 -0.7864  0.0246
 5036TIP3    H115072   1.014   4.766   5.748  0.4760 -0.7095  1.4739
 5036TIP3    H215073   0.986   4.650   5.841  1.5495 -2.3276 -0.1590
 5037TIP3   OH215074   4.981   6.506   0.615 -0.6168 -0.1094 -0.3336
 5037TIP3    H115075   5.024   6.454   0.547 -1.1139  0.2920 -0.9653
 5037TIP3    H215076   4.966   6.591   0.573 -0.0809  0.4538  0.5858
 5038TIP3   OH215077   4.662   0.983   4.912 -0.1620  0.6065  0.0053
 5038TIP3    H115078   4.751   0.952   4.925 -0.0940 -0.3681 -2.3063
 5038TIP3    H215079   4.607   0.916   4.953  0.1271  0.2405 -0.1994
 5039TIP3   OH215080   4.564   2.337   5.249  0.4298  0.1623  0.0945
 5039TIP3    H115081   4.556   2.315   5.342 -1.3106 -1.0110 -0.2817
 5039TIP3    H215082   4.659   2.343   5.234  0.7728 -0.3723  1.7736
 5040TIP3   OH215083   3.812   3.307   4.163 -0.7620 -0.0879 -0.1298
 5040TIP3    H115084   3.793   3.222   4.203 -2.5836  0.6055  0.5358
 5040TIP3    H215085   3.788   3.371   4.229 -0.1093  0.9920 -0.9070
 5041TIP3   OH215086   5.475   5.717   1.503 -1.1106 -0.5064  0.4711
 5041TIP3    H115087   5.446   5.717   1.594 -1.2672  0.5858  0.4359
 5041TIP3    H215088   5.395   5.710   1.452 -1.3606  2.0564  0.3830
 5042TIP3   OH215089   5.418   1.477   5.664 -0.1683 -0.1768 -0.2985
 5042TIP3    H115090   5.372   1.515   5.739  0.3587  0.5660 -0.3348
 5042TIP3    H215091   5.366   1.400   5.640  0.3792 -1.2369  1.6683
 5043TIP3   OH215092   1.111   3.560   4.618 -0.2825  0.4422  0.3789
 5043TIP3    H115093   1.183   3.605   4.573 -1.0476 -0.1142 -1.4803
 5043TIP3    H215094   1.152   3.483   4.657  0.1589  0.1481 -0.6318
 5044TIP3   OH215095   1.042   1.679   4.700 -0.3621  0.3297 -0.1917
 5044TIP3    H115096   1.071   1.676   4.791 -0.3587  0.6265 -0.1840
 5044TIP3    H215097   1.100   1.741   4.657 -0.6952  0.5874 -0.2757
 5045TIP3   OH215098   3.805   1.115   0.102  0.2460  0.5041 -0.5242
 5045TIP3    H115099   3.837   1.152   0.184 -0.3464  2.1250 -0.9745
 5045TIP3    H215100   3.850   1.166   0.034  0.0753 -0.2268 -1.1985
 5046TIP3   OH215101   1.268   2.336   3.790  0.0827 -0.2623  0.2505
 5046TIP3    H115102   1.257   2.408   3.853  0.0045 -0.6401  0.6767
 5046TIP3    H215103   1.320   2.271   3.837  0.6663 -0.2308 -0.3421
 5047TIP3   OH215104   6.064   0.723   5.508  0.3647 -0.4668  0.0992
 5047TIP3    H115105   5.991   0.783   5.498  0.1613 -0.8953 -1.1763
 5047TIP3    H215106   6.095   0.707   5.419  2.8860  0.7454  0.6600
 5048TIP3   OH215107   0.383   2.426   0.562 -0.7521  0.2680 -0.2492
 5048TIP3    H115108   0.339   2.364   0.621 -0.3584  0.4207  0.2089
 5048TIP3    H215109   0.335   2.508   0.574 -0.1373  0.5276  0.5124
 5049TIP3   OH215110   6.289   0.112   0.606  0.0270  0.2978 -0.1262
 5049TIP3    H115111   6.287   0.072   0.519  1.0461  2.4333 -1.1974
 5049TIP3    H215112   6.239   0.193   0.596 -0.5537  0.1854  1.5223
 5050TIP3   OH215113   1.106   3.814   4.082 -0.2777  0.4604 -0.4454
 5050TIP3    H115114   1.079   3.870   4.010 -0.3272  1.1514  0.1048
 5050TIP3    H215115   1.046   3.740   4.079 -1.3293  1.2845 -0.1091
 5051TIP3   OH215116   1.881   5.149   2.635  0.0587  0.1976 -0.0650
 5051TIP3    H115117   1.914   5.117   2.551  0.1434  1.0344 -0.3627
 5051TIP3    H215118   1.947   5.123   2.699  0.1936 -0.0895 -0.3191
 5052TIP3   OH215119   1.227   1.076   3.190  0.9281 -0.5887 -0.9415
 5052TIP3    H115120   1.180   1.091   3.108  2.5434  1.1774 -1.6391
 5052TIP3    H215121   1.310   1.123   3.179  0.9767  0.2137  1.9278
 5053TIP3   OH215122   6.457   3.585   2.149  0.1042  0.2443  0.3488
 5053TIP3    H115123   6.390   3.652   2.141  0.0946  0.2189  0.2188
 5053TIP3    H215124   6.515   3.617   2.218  0.7823  0.9692 -0.5396
 5054TIP3   OH215125   1.979   2.775   4.437  0.2707  0.1083  0.0219
 5054TIP3    H115126   1.902   2.830   4.452 -0.0277  0.7011 -3.1265
 5054TIP3    H215127   1.969   2.742   4.348  0.5990 -4.9477  1.5624
 5055TIP3   OH215128   3.407   0.110   1.784 -0.3052  0.5972 -0.1602
 5055TIP3    H115129   3.406   0.176   1.715 -0.9692  0.0716 -0.6623
 5055TIP3    H215130   3.348   0.145   1.851 -1.4262  0.0840 -0.8518
 5056TIP3   OH215131   0.292   6.587   5.255 -0.0094  0.0774  0.4660
 5056TIP3    H115132   0.291   6.494   5.229 -1.4350  0.2282 -0.1262
 5056TIP3    H215133   0.226   6.593   5.324  1.0062  0.4286  1.4288
 5057TIP3   OH215134   1.653   4.611   5.668 -0.5035 -0.5881  0.7084
 5057TIP3    H115135   1.666   4.592   5.760 -0.2699  0.7142  0.9603
 5057TIP3    H215136   1.607   4.695   5.667  2.3408  1.0828 -0.3696
 5058TIP3   OH215137   1.991   2.822   2.599  0.5692 -0.0924  0.4089
 5058TIP3    H115138   1.978   2.909   2.637  0.1452  0.6414 -1.3181
 5058TIP3    H215139   2.085   2.809   2.600  0.5264 -0.7755  3.0571
 5059TIP3   OH215140   0.252   2.507   3.228 -0.2617  0.5326 -0.5361
 5059TIP3    H115141   0.255   2.414   3.204  0.7002  0.3355  0.2698
 5059TIP3    H215142   0.327   2.546   3.182 -0.4250  0.8294 -0.5523
 5060TIP3   OH215143   0.090   0.948   1.488 -0.2303 -0.0002 -0.0977
 5060TIP3    H115144   0.033   0.943   1.412  0.3433 -0.3044 -0.5192
 5060TIP3    H215145   0.041   0.905   1.558 -0.6572  0.0617 -0.3542
 5061TIP3   OH215146   5.653   5.090   4.747 -0.3120 -0.3115 -0.4629
 5061TIP3    H115147   5.722   5.087   4.814 -0.9107 -1.9089  0.1232
 5061TIP3    H215148   5.572   5.101   4.797 -0.6067  0.2204 -1.0537
 5062TIP3   OH215149   4.107   3.411   1.503 -0.1146  0.3724 -0.4647
 5062TIP3    H115150   4.015   3.412   1.528 -0.0081 -0.8027  0.0387
 5062TIP3    H215151   4.129   3.503   1.486 -0.6199  1.0610  2.1588
 5063TIP3   OH215152   0.391   1.855   0.426  0.3376 -0.3452 -0.4397
 5063TIP3    H115153   0.429   1.807   0.499  1.4886  0.8821 -0.1976
 5063TIP3    H215154   0.367   1.787   0.362 -0.1968 -1.3854  0.8251
 5064TIP3   OH215155   1.311   1.397   1.253 -0.3628  0.2426  0.2052
 5064TIP3    H115156   1.266   1.479   1.233 -0.6176 -0.0372 -0.4057
 5064TIP3    H215157   1.259   1.330   1.209 -0.0626 -0.2302  0.5584
 5065TIP3   OH215158   5.757   5.785   4.188  0.2335 -0.2755 -0.0622
 5065TIP3    H115159   5.819   5.858   4.189  1.2216 -1.0731  1.2873
 5065TIP3    H215160   5.679   5.819   4.231  0.5827  0.0893  0.2940
 5066TIP3   OH215161   5.931   2.736   5.848  0.5075 -0.5629  0.1054
 5066TIP3    H115162   5.856   2.795   5.858  0.8769 -0.2799  1.3452
 5066TIP3    H215163   6.000   2.790   5.810 -0.2873 -1.1505 -2.3365
 5067TIP3   OH215164   6.042   6.068   5.533 -0.0820 -0.3497 -0.1835
 5067TIP3    H115165   5.981   6.142   5.537  0.8306  0.3836  1.5523
 5067TIP3    H215166   6.109   6.096   5.470  0.1379  0.2402  0.2956
 5068TIP3   OH215167   3.987   4.593   2.011 -0.6778 -0.4297 -0.3613
 5068TIP3    H115168   3.971   4.562   2.101  0.1438  1.0910  0.3397
 5068TIP3    H215169   3.993   4.688   2.019  1.0480 -0.3867 -1.7632
 5069TIP3   OH215170   6.230   5.844   3.692  0.0664  0.1256 -0.0059
 5069TIP3    H115171   6.235   5.751   3.667  3.4057 -0.2904  1.5559
 5069TIP3    H215172   6.151   5.850   3.746  0.0818 -1.9923  0.3719
 5070TIP3   OH215173   5.870   5.953   5.302  0.5087 -0.6535  0.2471
 5070TIP3    H115174   5.914   5.964   5.386  0.7313  0.4126 -0.0016
 5070TIP3    H215175   5.941   5.946   5.239  0.3731 -2.5036  0.2320
 5071TIP3   OH215176   0.336   5.292   3.957  0.5537 -0.4473 -0.1259
 5071TIP3    H115177   0.329   5.238   3.878 -1.2073  0.0863 -0.3963
 5071TIP3    H215178   0.406   5.252   4.008 -0.4446 -2.7924 -0.4783
 5072TIP3   OH215179   5.249   2.990   2.592  0.0773 -0.2923  0.6232
 5072TIP3    H115180   5.266   2.915   2.649  0.6937 -2.0460 -1.7020
 5072TIP3    H215181   5.336   3.018   2.563 -0.2149  0.6094  0.5967
 5073TIP3   OH215182   5.742   5.817   3.473 -0.0387 -0.0703  0.2875
 5073TIP3    H115183   5.835   5.838   3.475 -0.3960  1.6762  0.3216
 5073TIP3    H215184   5.719   5.803   3.565  0.2577 -0.9797  0.2396
 5074TIP3   OH215185   4.258   5.824   4.828  0.1641 -0.0396  0.3577
 5074TIP3    H115186   4.319   5.750   4.832  2.2106  1.5692  0.0834
 5074TIP3    H215187   4.267   5.867   4.913 -0.6723  0.1862  0.3437
 5075TIP3   OH215188   0.897   5.232   3.751  0.0958 -0.0763  0.9282
 5075TIP3    H115189   0.908   5.324   3.778 -0.6568  1.0514 -2.1970
 5075TIP3    H215190   0.986   5.201   3.734  0.2040  1.0608 -0.7673
 5076TIP3   OH215191   4.551   6.292   3.906 -0.1448  0.4159  0.0896
 5076TIP3    H115192   4.462   6.280   3.874 -0.1780 -0.2007  0.4071
 5076TIP3    H215193   4.580   6.374   3.866 -0.2867 -0.1864 -1.2793
 5077TIP3   OH215194   1.323   2.711   1.398  0.4144  0.2140 -0.1482
 5077TIP3    H115195   1.232   2.730   1.373  0.6446 -0.2557 -1.4409
 5077TIP3    H215196   1.359   2.665   1.322  1.6703  0.1850  0.4454
 5078TIP3   OH215197   3.710   5.822   3.395 -0.3638  0.1313  0.1405
 5078TIP3    H115198   3.714   5.752   3.330 -1.8724  1.3257 -1.3268
 5078TIP3    H215199   3.637   5.877   3.366  0.5891  2.1583  1.4117
 5079TIP3   OH215200   6.279   4.968   0.051  0.1650 -0.2927  0.2336
 5079TIP3    H115201   6.203   4.990   0.105  0.5423  0.4436  0.4699
 5079TIP3    H215202   6.310   4.885   0.087  0.6605  0.3956  1.4314
 5080TIP3   OH215203   5.577   5.937   1.929  0.2701  0.2624  0.5272
 5080TIP3    H115204   5.568   5.972   2.018 -0.3510 -0.0402  0.5925
 5080TIP3    H215205   5.667   5.906   1.924 -0.1485 -1.2347  1.6167
 5081TIP3   OH215206   4.794   3.448   0.821  0.1485 -0.5117 -0.0250
 5081TIP3    H115207   4.776   3.531   0.866  2.2090  0.3876 -0.7249
 5081TIP3    H215208   4.843   3.396   0.886 -0.5584 -0.9352  0.1815
 5082TIP3   OH215209   6.918   2.918   0.553 -0.1023 -0.4163 -0.2336
 5082TIP3    H115210   6.994   2.861   0.565 -0.3946 -0.4764  1.5851
 5082TIP3    H215211   6.896   2.909   0.460  2.4509  0.0649 -0.9580
 5083TIP3   OH215212   4.357   6.607   2.052  0.0313  0.2361  0.0613
 5083TIP3    H115213   4.295   6.680   2.045 -0.0322  0.7660  3.8712
 5083TIP3    H215214   4.407   6.610   1.971 -2.4703  2.0927 -1.5665
 5084TIP3   OH215215   2.658   0.988   5.687  0.1293 -0.1404 -0.0399
 5084TIP3    H115216   2.587   0.935   5.649  0.8255 -1.4612  0.4451
 5084TIP3    H215217   2.615   1.069   5.714 -1.5210 -1.4303  1.4608
 5085TIP3   OH215218   2.906   0.447   0.203 -0.0520  0.1244  0.2680
 5085TIP3    H115219   2.997   0.441   0.173 -0.0007  0.2411  0.3985
 5085TIP3    H215220   2.913   0.471   0.295 -0.2376  1.8101 -0.1177
 5086TIP3   OH215221   4.313   3.253   5.379 -0.2085  0.1162 -0.1472
 5086TIP3    H115222   4.313   3.348   5.373  0.1958  0.2512  1.5772
 5086TIP3    H215223   4.376   3.233   5.448 -2.9072 -1.1711  2.1494
 5087TIP3   OH215224   2.781   3.282   4.947  0.3728 -0.0602  0.3108
 5087TIP3    H115225   2.866   3.261   4.907  0.3779 -3.2993  1.6629
 5087TIP3    H215226   2.727   3.313   4.875  2.8895  3.1998 -0.4209
 5088TIP3   OH215227   5.854   4.842   3.788 -0.8938 -0.1134 -0.0166
 5088TIP3    H115228   5.808   4.758   3.784  3.0903 -2.5654 -2.1335
 5088TIP3    H215229   5.911   4.834   3.864  0.7083 -0.1546 -1.1723
 5089TIP3   OH215230   0.009   5.978   3.212  0.0523  0.6133 -0.0198
 5089TIP3    H115231   0.101   5.992   3.192  0.3446  0.7322  1.3349
 5089TIP3    H215232   0.009   5.921   3.289 -0.9633  2.0095  1.0690
 5090TIP3   OH215233   6.741   0.831   5.461 -0.2628  0.6184  0.1612
 5090TIP3    H115234   6.723   0.775   5.385 -3.8281  2.1375 -0.3117
 5090TIP3    H215235   6.694   0.789   5.533 -0.0013  1.1318  0.6334
 5091TIP3   OH215236   0.863   5.334   4.022 -0.2392 -0.1306  0.7300
 5091TIP3    H115237   0.779   5.292   4.008  0.2004 -0.9390  0.4638
 5091TIP3    H215238   0.866   5.349   4.117  0.4886 -2.6971  1.1894
 5092TIP3   OH215239   2.282   1.284   5.791  0.2466 -0.1584  0.7730
 5092TIP3    H115240   2.284   1.209   5.732  1.8316 -0.1835  0.8296
 5092TIP3    H215241   2.298   1.247   5.878 -2.9801 -0.2505  1.4612
 5093TIP3   OH215242   6.171   6.690   3.430 -0.0343  0.2292 -0.9548
 5093TIP3    H115243   6.214   6.662   3.349 -1.9569 -1.1719 -1.5815
 5093TIP3    H215244   6.134   6.775   3.409  3.5797  2.2614  0.1037
 5094TIP3   OH215245   0.405   3.654   0.121 -0.1482  0.6673 -0.1780
 5094TIP3    H115246   0.374   3.643   0.211 -0.5322 -0.6117 -0.4522
 5094TIP3    H215247   0.373   3.741   0.095 -1.9109  0.1697  0.1994
 5095TIP3   OH215248   0.063   1.736   2.163  0.2459  0.3273  0.1326
 5095TIP3    H115249   0.052   1.830   2.170  0.1711  0.3190  0.1232
 5095TIP3    H215250  -0.023   1.703   2.136  0.3973  0.3072 -0.3360
 5096TIP3   OH215251   5.488   1.963   4.375  0.0129 -0.0829 -0.3107
 5096TIP3    H115252   5.476   1.870   4.391  3.5174 -0.6568 -0.1508
 5096TIP3    H215253   5.541   1.993   4.450  0.1222  1.7161 -1.0541
 5097TIP3   OH215254   5.807   6.318   4.023 -0.2351 -0.6260 -0.4503
 5097TIP3    H115255   5.814   6.303   4.118  0.5950 -2.3277 -0.7296
 5097TIP3    H215256   5.853   6.401   4.009 -1.0906  0.0857  0.7163
 5098TIP3   OH215257   0.691   2.496   0.673 -0.0746 -0.2206  0.2905
 5098TIP3    H115258   0.640   2.462   0.600 -0.8829  1.9647 -0.2102
 5098TIP3    H215259   0.776   2.452   0.665  0.1745  0.5838 -2.4872
 5099TIP3   OH215260   5.886   0.744   1.835 -0.1143 -0.4757 -0.3011
 5099TIP3    H115261   5.880   0.761   1.930 -0.4096 -0.9143 -0.2425
 5099TIP3    H215262   5.807   0.785   1.799 -0.3464 -0.8997 -0.2746
 5100TIP3   OH215263   5.743   4.807   4.150  0.2312 -0.2271 -0.0106
 5100TIP3    H115264   5.780   4.764   4.227  1.0613  0.2000 -0.1600
 5100TIP3    H215265   5.701   4.737   4.101 -1.7732 -0.2611  1.6439
 5101TIP3   OH215266   2.575   4.139   2.783 -0.7197 -0.0844  0.6110
 5101TIP3    H115267   2.497   4.085   2.771 -1.4113  1.0779 -0.2510
 5101TIP3    H215268   2.583   4.147   2.878 -1.9729  0.2278  0.7047
 5102TIP3   OH215269   7.099   3.320   5.685 -0.2496 -0.1999  0.0683
 5102TIP3    H115270   7.075   3.365   5.766 -0.4144  0.4927 -0.3594
 5102TIP3    H215271   7.028   3.340   5.624 -0.2258 -0.8772 -0.1931
 5103TIP3   OH215272   3.773   5.155   4.642 -0.6317  0.1913 -0.8596
 5103TIP3    H115273   3.786   5.069   4.684 -1.5518  0.6356  0.3915
 5103TIP3    H215274   3.713   5.137   4.569 -1.8558 -0.0552  0.1714
 5104TIP3   OH215275   5.447   3.650   1.285 -0.3333  0.1917 -0.1426
 5104TIP3    H115276   5.371   3.703   1.311 -1.0557 -1.0925  0.4925
 5104TIP3    H215277   5.490   3.628   1.368  0.3997  0.4153 -0.4603
 5105TIP3   OH215278   3.024   1.715   5.592  0.2397 -0.4472  0.5782
 5105TIP3    H115279   3.094   1.758   5.641  0.2650 -0.2508  0.3740
 5105TIP3    H215280   3.065   1.638   5.552  0.4542 -0.0883  0.0906
 5106TIP3   OH215281   0.102   4.954   3.943  0.3344 -0.4632 -0.4265
 5106TIP3    H115282   0.172   4.960   4.007  2.3405 -0.6833 -2.4723
 5106TIP3    H215283   0.139   4.903   3.871 -0.8923  1.8263 -2.8486
 5107TIP3   OH215284   1.917   2.333   2.138  0.4012 -0.1936 -0.7123
 5107TIP3    H115285   1.824   2.356   2.131  0.3853  0.3072  0.7790
 5107TIP3    H215286   1.945   2.374   2.220  1.6849 -1.2189 -0.6225
 5108TIP3   OH215287   2.174   3.253   5.766  0.8812  0.3848 -0.0336
 5108TIP3    H115288   2.196   3.278   5.677  3.7059 -2.0840 -0.1758
 5108TIP3    H215289   2.080   3.232   5.763  0.4117  2.4260 -1.7982
 5109TIP3   OH215290   0.288   5.910   3.459  0.2223  0.1591 -0.4549
 5109TIP3    H115291   0.370   5.863   3.472  1.2231  1.9659  0.2672
 5109TIP3    H215292   0.314   6.003   3.459 -1.6598  0.7377 -1.5019
 5110TIP3   OH215293   4.443   6.074   3.751  0.6574  0.1196  0.0057
 5110TIP3    H115294   4.461   6.099   3.660  0.2477 -0.2466 -0.1811
 5110TIP3    H215295   4.350   6.095   3.764  1.2380  2.3603  1.0764
 5111TIP3   OH215296   4.082   2.658   1.542 -0.0051 -0.7519 -0.7989
 5111TIP3    H115297   4.008   2.699   1.497 -0.7712 -0.6634  0.4734
 5111TIP3    H215298   4.098   2.714   1.618  0.4155 -1.5708 -0.2654
 5112TIP3   OH215299   6.369   4.796   3.606 -0.3078  0.2591  0.0385
 5112TIP3    H115300   6.291   4.746   3.633  0.2761 -0.6773  0.0487
 5112TIP3    H215301   6.434   4.778   3.674  0.1938  0.3237 -0.4186
 5113TIP3   OH215302   0.652   1.442   4.066 -0.1828  0.0062 -0.3190
 5113TIP3    H115303   0.745   1.458   4.056  0.0183 -0.7619  0.1906
 5113TIP3    H215304   0.611   1.529   4.062  0.4206  0.2551 -1.7026
 5114TIP3   OH215305   6.800   2.524   1.701  0.1709  0.1511  0.2001
 5114TIP3    H115306   6.804   2.430   1.719  1.7993  0.0853 -0.3467
 5114TIP3    H215307   6.741   2.532   1.626  0.0850 -0.4462  0.1975
 5115TIP3   OH215308   0.268   3.226   3.762  0.7228  0.0875 -0.7510
 5115TIP3    H115309   0.202   3.270   3.708  0.2722 -0.5858 -0.7624
 5115TIP3    H215310   0.348   3.230   3.710  0.5497  0.3806 -1.0019
 5116TIP3   OH215311   2.136   5.673   3.560  0.6708 -0.2516  0.2131
 5116TIP3    H115312   2.198   5.662   3.632 -0.7395 -0.3634  1.4363
 5116TIP3    H215313   2.132   5.587   3.519  1.7117 -0.1098 -0.2316
 5117TIP3   OH215314   5.371   5.041   3.533  0.2786  0.3073 -0.7582
 5117TIP3    H115315   5.338   5.123   3.570  1.3150 -0.6132  2.6022
 5117TIP3    H215316   5.297   4.980   3.542  0.3570  0.2174 -0.7273
 5118TIP3   OH215317   6.997   3.473   5.205 -0.2504 -0.0406 -0.2684
 5118TIP3    H115318   6.998   3.534   5.132  0.3289  1.5213  0.9951
 5118TIP3    H215319   6.963   3.523   5.279  3.7061  0.0394  1.7759
 5119TIP3   OH215320   6.537   2.190   0.350  0.5385 -0.1998  0.0147
 5119TIP3    H115321   6.501   2.215   0.435 -2.3912 -2.9873 -0.1859
 5119TIP3    H215322   6.479   2.230   0.286  1.8876  0.7149 -0.6946
 5120TIP3   OH215323   3.489   0.324   4.661  0.4009  0.4817 -0.2724
 5120TIP3    H115324   3.464   0.234   4.683 -0.7174  0.7969 -0.1769
 5120TIP3    H215325   3.584   0.326   4.672  0.4362 -0.6688 -0.2149
 5121TIP3   OH215326   3.194   4.690   3.889 -0.1187  0.2327 -0.3448
 5121TIP3    H115327   3.121   4.713   3.947 -0.9486 -1.0303 -0.8219
 5121TIP3    H215328   3.265   4.748   3.914 -0.8360  0.5039  1.1417
 5122TIP3   OH215329   7.115   6.152   2.825 -0.0094 -0.0864  0.1600
 5122TIP3    H115330   7.175   6.081   2.803  0.1540  0.5994 -1.7500
 5122TIP3    H215331   7.073   6.175   2.742 -0.3612  1.7687  0.8176
 5123TIP3   OH215332   2.519   3.104   1.070  0.4626  0.1394  0.0553
 5123TIP3    H115333   2.513   3.079   0.978 -0.1380  0.1367  0.0895
 5123TIP3    H215334   2.431   3.090   1.104  0.3498  1.3766  0.3135
 5124TIP3   OH215335   4.054   4.347   5.216 -0.3937 -0.5063 -0.3527
 5124TIP3    H115336   4.063   4.415   5.284  0.2872 -1.2977  0.3738
 5124TIP3    H215337   4.091   4.387   5.137 -0.6954  0.2380 -0.1286
 5125TIP3   OH215338   1.811   4.659   3.567 -0.3584  0.0699 -0.2385
 5125TIP3    H115339   1.887   4.669   3.625 -0.0853 -1.4170 -0.3238
 5125TIP3    H215340   1.757   4.736   3.587 -0.2162 -0.3154  1.9157
 5126TIP3   OH215341   4.994   5.148   4.658 -0.2757 -0.0362  0.6251
 5126TIP3    H115342   4.947   5.136   4.576 -1.6185  1.7402  1.0740
 5126TIP3    H215343   5.071   5.093   4.650 -1.5117 -1.6565 -0.8942
 5127TIP3   OH215344   3.959   6.207   2.700 -0.7373  0.3745 -0.0937
 5127TIP3    H115345   4.021   6.264   2.654 -2.1183  0.6389 -1.7537
 5127TIP3    H215346   4.014   6.144   2.747  0.7916  1.7583  0.0693
 5128TIP3   OH215347   1.279   3.342   1.737 -0.5160  0.3300 -0.5621
 5128TIP3    H115348   1.373   3.329   1.724 -0.0976 -1.2931  2.8655
 5128TIP3    H215349   1.270   3.435   1.758  0.2543  0.5690 -1.2471
 5129TIP3   OH215350   3.845   5.897   1.515 -0.0718  0.2650  0.4641
 5129TIP3    H115351   3.752   5.912   1.532  0.3122  1.6115  1.5521
 5129TIP3    H215352   3.851   5.886   1.420 -1.0678  2.7766  0.0150
 5130TIP3   OH215353   2.711   0.872   3.528  0.5137 -0.1903  0.7021
 5130TIP3    H115354   2.789   0.841   3.575  0.8320 -0.4850 -0.0006
 5130TIP3    H215355   2.638   0.845   3.583  0.7962 -1.9532  0.2724
 5131TIP3   OH215356   3.431   1.640   4.578  0.1891  0.4484 -0.3822
 5131TIP3    H115357   3.414   1.548   4.598 -2.5040  0.7272 -0.9766
 5131TIP3    H215358   3.409   1.649   4.485  0.8230  1.5964 -0.4442
 5132TIP3   OH215359   4.830   0.199   2.555 -0.2946  0.3359 -0.2621
 5132TIP3    H115360   4.759   0.209   2.619  0.3465  1.6709  0.2811
 5132TIP3    H215361   4.881   0.125   2.587 -1.1236 -0.2996 -0.3656
 5133TIP3   OH215362   6.816   2.379   4.132  0.3922 -0.6303 -0.2648
 5133TIP3    H115363   6.770   2.332   4.063 -1.8082  0.1970  0.5567
 5133TIP3    H215364   6.779   2.345   4.214  0.4212  0.8485  0.3962
 5134TIP3   OH215365   5.449   6.406   3.531  0.3927  0.6388  0.2432
 5134TIP3    H115366   5.376   6.445   3.579 -1.6911 -1.2137 -1.2387
 5134TIP3    H215367   5.477   6.475   3.470  0.0890  1.4662  1.0227
 5135TIP3   OH215368   5.509   2.024   0.486  0.1282 -0.0813 -0.1541
 5135TIP3    H115369   5.576   1.966   0.524  1.8110  2.1932  0.5825
 5135TIP3    H215370   5.426   1.983   0.510  1.2247 -2.1457  0.3674
 5136TIP3   OH215371   3.921   5.361   2.738 -0.7181  0.4187  0.0057
 5136TIP3    H115372   3.882   5.277   2.762  1.2620 -0.9119 -1.1687
 5136TIP3    H215373   3.954   5.396   2.821 -2.5737  0.6647  0.6997
 5137TIP3   OH215374   2.136   2.621   5.318 -0.9313  0.3002 -0.4485
 5137TIP3    H115375   2.154   2.704   5.361 -3.3224  0.1047  1.1104
 5137TIP3    H215376   2.209   2.565   5.343  0.1975  1.6022 -0.6860
 5138TIP3   OH215377   5.445   1.914   4.777 -0.3879 -0.5953 -0.2606
 5138TIP3    H115378   5.471   1.824   4.797  1.3565 -0.1582 -0.3810
 5138TIP3    H215379   5.371   1.932   4.835  0.1237 -1.6477  0.7455
 5139TIP3   OH215380   0.253   0.726   1.780 -0.0632  0.0776 -0.1799
 5139TIP3    H115381   0.291   0.773   1.705 -0.7190  0.3867 -0.3247
 5139TIP3    H215382   0.167   0.766   1.792  0.0837  0.1193  0.8261
 5140TIP3   OH215383   0.559   5.089   2.468  0.7005 -0.4491 -0.0093
 5140TIP3    H115384   0.481   5.141   2.447  0.3356 -0.9904 -0.0072
 5140TIP3    H215385   0.526   5.001   2.483  1.4311 -0.9235 -1.0708
 5141TIP3   OH215386   5.818   1.223   4.461 -0.2505  0.3863  0.2004
 5141TIP3    H115387   5.768   1.298   4.493  0.8559  1.0366  0.4417
 5141TIP3    H215388   5.812   1.159   4.531 -0.5279  0.5552  0.3343
 5142TIP3   OH215389   0.281   0.355   5.255 -0.4471  0.2157  0.0003
 5142TIP3    H115390   0.331   0.432   5.281 -1.7982  0.6873  1.3666
 5142TIP3    H215391   0.244   0.377   5.170  1.2702  0.0158 -0.8355
 5143TIP3   OH215392   4.227   3.340   4.330 -0.3061 -0.2649  0.5680
 5143TIP3    H115393   4.177   3.259   4.329 -0.4568 -0.1800 -0.9893
 5143TIP3    H215394   4.167   3.405   4.367 -0.2897 -0.7770  1.5295
 5144TIP3   OH215395   1.735   5.148   1.860 -0.1164  0.3925  0.1504
 5144TIP3    H115396   1.797   5.083   1.894  1.3068  0.8135 -1.4822
 5144TIP3    H215397   1.665   5.151   1.925  1.7780  0.2054  2.3268
 5145TIP3   OH215398   0.139   1.167   1.027  0.6253 -0.1087  0.7250
 5145TIP3    H115399   0.105   1.151   0.939  0.9332 -0.5381  0.6832
 5145TIP3    H215400   0.061   1.192   1.078  0.5565  0.8865  0.1619
 5146TIP3   OH215401   0.946   0.654   4.665  0.7061  0.0851  0.3329
 5146TIP3    H115402   0.965   0.652   4.571 -0.1432 -0.0898  0.1603
 5146TIP3    H215403   1.032   0.652   4.706  1.1154  0.7261 -0.4502
 5147TIP3   OH215404   6.982   5.262   2.821  0.7641 -0.8761  0.1670
 5147TIP3    H115405   6.905   5.250   2.878  1.2440  0.6896  1.2401
 5147TIP3    H215406   7.055   5.272   2.882  1.1580  1.8548 -0.5976
 5148TIP3   OH215407   5.155   2.746   4.866 -0.0265 -0.1444  0.3018
 5148TIP3    H115408   5.221   2.697   4.816  0.1192  1.0574 -0.7378
 5148TIP3    H215409   5.204   2.816   4.908 -0.3806 -0.2966  0.9758
 5149TIP3   OH215410   5.212   3.358   0.341  0.1758 -0.4050  0.1115
 5149TIP3    H115411   5.296   3.387   0.307  1.3545 -1.0304  2.3309
 5149TIP3    H215412   5.211   3.387   0.433 -2.1890 -0.0944  0.0656
 5150TIP3   OH215413   0.595   0.417   5.508 -0.6221  0.9650  0.2284
 5150TIP3    H115414   0.657   0.344   5.513 -2.2617 -0.5829 -0.8794
 5150TIP3    H215415   0.620   0.474   5.580  0.5599 -0.8297  1.3358
 5151TIP3   OH215416   2.533   3.922   5.815  0.4702  0.0502 -0.2348
 5151TIP3    H115417   2.576   3.839   5.795  2.3911  0.5231  1.5788
 5151TIP3    H215418   2.600   3.973   5.859 -1.5767  1.4079  1.4698
 5152TIP3   OH215419   1.268   0.154   4.094  0.6226  0.0359 -0.1044
 5152TIP3    H115420   1.209   0.218   4.134  1.7275  0.9063  0.1889
 5152TIP3    H215421   1.290   0.094   4.165  1.7751  0.9795  0.3570
 5153TIP3   OH215422   6.385   0.221   2.535  0.1540  0.0890 -0.4842
 5153TIP3    H115423   6.378   0.145   2.592 -1.2327 -1.1607 -2.2246
 5153TIP3    H215424   6.453   0.275   2.576 -0.0756 -1.2043  1.7552
 5154TIP3   OH215425   1.341   1.549   2.418  0.2259 -0.3784  0.3399
 5154TIP3    H115426   1.384   1.478   2.371 -0.2193 -0.3002 -0.2077
 5154TIP3    H215427   1.270   1.507   2.466  1.7520 -0.7286  2.4295
 5155TIP3   OH215428   3.516   3.610   1.934 -0.0966  0.2906 -0.8825
 5155TIP3    H115429   3.571   3.687   1.949 -0.7423  0.6350 -0.2197
 5155TIP3    H215430   3.462   3.635   1.859 -0.2179  0.4358 -0.7478
 5156TIP3   OH215431   3.264   4.782   0.847  0.7362  0.5500 -0.3627
 5156TIP3    H115432   3.218   4.731   0.780 -0.0273 -0.3211  0.7851
 5156TIP3    H215433   3.213   4.863   0.854  1.0488  0.8135 -1.1068
 5157TIP3   OH215434   0.279   4.749   3.381 -0.2647  0.3440  0.4998
 5157TIP3    H115435   0.269   4.810   3.308 -0.4255 -1.9025 -1.4836
 5157TIP3    H215436   0.195   4.704   3.387  0.5973 -1.4035  0.1979
 5158TIP3   OH215437   5.433   3.822   1.513  0.1406 -0.1197 -0.2494
 5158TIP3    H115438   5.518   3.863   1.498  0.5114 -0.1636  1.4951
 5158TIP3    H215439   5.406   3.853   1.599 -0.8192 -1.4333 -0.0353
 5159TIP3   OH215440   5.823   4.416   5.303 -0.3632 -0.1742 -0.4113
 5159TIP3    H115441   5.863   4.355   5.365 -2.2044 -0.7417  0.2767
 5159TIP3    H215442   5.809   4.364   5.224  0.0968 -0.0192 -0.5972
 5160TIP3   OH215443   0.885   2.237   3.205 -0.0411 -0.0888 -0.4812
 5160TIP3    H115444   0.804   2.289   3.206 -0.4811 -0.7648  0.0347
 5160TIP3    H215445   0.955   2.302   3.215 -0.3133  0.7771 -3.3770
 5161TIP3   OH215446   5.905   3.842   1.038 -0.1632 -0.2464 -0.0840
 5161TIP3    H115447   5.996   3.816   1.025 -0.3977 -1.2868  0.2930
 5161TIP3    H215448   5.893   3.917   0.980  1.3260  0.8105  0.8937
 5162TIP3   OH215449   2.758   0.530   4.221 -0.3221  0.1906 -0.5308
 5162TIP3    H115450   2.819   0.583   4.272  0.4812 -1.0603 -0.1518
 5162TIP3    H215451   2.796   0.528   4.133 -1.4652  1.9578 -1.1360
 5163TIP3   OH215452   6.741   6.079   5.692  0.7486  0.0330  0.1381
 5163TIP3    H115453   6.735   6.114   5.781  2.3320 -0.4412  0.4699
 5163TIP3    H215454   6.826   6.035   5.690  0.4459 -0.5302 -1.4185
 5164TIP3   OH215455   2.243   3.147   5.213 -0.4298 -0.2905  0.2820
 5164TIP3    H115456   2.234   3.211   5.142 -0.4883 -0.0173  0.5316
 5164TIP3    H215457   2.334   3.154   5.241 -0.8198  0.8529  1.3831
 5165TIP3   OH215458   1.414   4.750   5.910  0.9998  0.0391  0.2330
 5165TIP3    H115459   1.473   4.749   5.835 -0.0376 -0.8560 -0.6220
 5165TIP3    H215460   1.389   4.658   5.922  0.5314  0.2692  1.1857
 5166TIP3   OH215461   0.488   3.781   2.823  0.1882  0.3168  0.0246
 5166TIP3    H115462   0.404   3.817   2.796  0.1959 -0.0557 -0.4986
 5166TIP3    H215463   0.465   3.712   2.885  0.0302 -0.7409 -1.1833
 5167TIP3   OH215464   2.668   1.142   0.283 -0.2371  0.0257 -0.1515
 5167TIP3    H115465   2.638   1.053   0.303 -2.7085  1.1703  1.7052
 5167TIP3    H215466   2.736   1.160   0.348 -0.5587 -0.0690  0.2060
 5168TIP3   OH215467   6.988   5.540   4.896  0.2847  0.6766 -0.2481
 5168TIP3    H115468   6.898   5.512   4.915 -0.2642  0.8912 -2.2990
 5168TIP3    H215469   7.041   5.493   4.961 -1.1057 -1.1198 -0.3067
 5169TIP3   OH215470   4.536   3.952   0.906  0.4969 -0.0147 -0.1752
 5169TIP3    H115471   4.526   3.874   0.960 -1.9001  0.0206 -0.4713
 5169TIP3    H215472   4.608   4.001   0.947  0.1437 -0.9990  1.7046
 5170TIP3   OH215473   3.699   1.053   2.310  0.1689 -0.4758  0.0422
 5170TIP3    H115474   3.652   0.986   2.359 -1.7955  0.0833 -0.9279
 5170TIP3    H215475   3.633   1.121   2.295  2.2198  2.0314  1.5706
 5171TIP3   OH215476   5.585   1.825   1.074  0.3643 -0.2652  0.1535
 5171TIP3    H115477   5.583   1.870   0.989  0.5176  0.1039  0.3430
 5171TIP3    H215478   5.668   1.852   1.113 -0.6769  1.3265  1.3752
 5172TIP3   OH215479   2.741   3.875   3.494  0.5671 -0.2244  0.3681
 5172TIP3    H115480   2.818   3.909   3.449 -0.4041  1.0905 -0.3793
 5172TIP3    H215481   2.745   3.913   3.582 -0.1318  1.3569 -0.2348
 5173TIP3   OH215482   5.118   2.164   1.885 -0.5069 -0.1591 -0.0072
 5173TIP3    H115483   5.075   2.081   1.866 -0.4864  0.0092 -0.7892
 5173TIP3    H215484   5.060   2.207   1.948 -0.2018 -1.0329  0.9011
 5174TIP3   OH215485   3.314   2.293   3.927  0.0461 -0.3174  0.6424
 5174TIP3    H115486   3.406   2.322   3.927 -0.1107  0.2144  1.2018
 5174TIP3    H215487   3.265   2.370   3.958 -0.7895 -0.0345 -1.2117
 5175TIP3   OH215488   3.857   1.567   5.248  0.6040 -0.1674  0.1912
 5175TIP3    H115489   3.914   1.644   5.238 -1.2454  1.6556  2.5137
 5175TIP3    H215490   3.826   1.549   5.159  1.4391  1.5062 -0.4831
 5176TIP3   OH215491   7.122   3.298   1.998 -0.1960 -0.2775 -0.0509
 5176TIP3    H115492   7.028   3.280   2.001 -0.3503  0.6286  0.9758
 5176TIP3    H215493   7.137   3.340   1.913 -0.4773 -1.6130 -0.7878
 5177TIP3   OH215494   4.809   4.429   4.940  0.1993  0.4306  0.4382
 5177TIP3    H115495   4.879   4.364   4.928  0.8831  1.3875 -1.0580
 5177TIP3    H215496   4.776   4.446   4.852 -0.2392  1.8132  0.8368
 5178TIP3   OH215497   3.307   0.312   3.279  0.1474 -0.3060 -0.0527
 5178TIP3    H115498   3.299   0.326   3.374  1.2627  2.0514 -0.2295
 5178TIP3    H215499   3.281   0.221   3.266 -1.0699 -0.3867  2.3693
 5179TIP3   OH215500   2.299   5.304   2.992  0.3446 -0.3423  0.7472
 5179TIP3    H115501   2.292   5.274   3.082 -1.0415  0.0631  0.8052
 5179TIP3    H215502   2.209   5.298   2.958  0.0315  3.1777  0.5917
 5180TIP3   OH215503   4.490   6.381   2.092  0.2398 -0.1940 -0.1024
 5180TIP3    H115504   4.435   6.305   2.072 -1.1053  0.5085  0.7709
 5180TIP3    H215505   4.431   6.456   2.082  1.1146  0.6099  0.6143
 5181TIP3   OH215506   4.037   0.571   3.434 -0.0883 -0.3231  0.3846
 5181TIP3    H115507   3.962   0.527   3.395  0.1200 -0.7879  0.4983
 5181TIP3    H215508   4.083   0.610   3.360 -0.3479 -0.1737  0.2979
 5182TIP3   OH215509   5.943   6.020   0.240 -0.0003  0.0770 -0.3424
 5182TIP3    H115510   5.867   6.071   0.265 -0.9807 -0.1809 -2.5179
 5182TIP3    H215511   5.943   5.945   0.300 -1.4432  0.1148 -0.2658
 5183TIP3   OH215512   6.442   1.974   3.555 -0.2437 -0.1580 -0.2269
 5183TIP3    H115513   6.364   1.999   3.507 -0.9797 -0.4325  0.7974
 5183TIP3    H215514   6.470   2.054   3.600  0.7212  0.2213 -1.4511
 5184TIP3   OH215515   7.028   6.152   1.737  0.8038 -0.3041  0.1937
 5184TIP3    H115516   7.122   6.145   1.750  1.0765  1.0473 -0.9373
 5184TIP3    H215517   7.001   6.227   1.790  0.2694 -0.9089  0.8174
 5185TIP3   OH215518   7.081   0.772   0.584  0.4963  0.0874  0.4975
 5185TIP3    H115519   7.093   0.863   0.558  1.6044 -0.2530 -0.2501
 5185TIP3    H215520   7.165   0.746   0.622  0.6320 -0.9726 -0.4541
 5186TIP3   OH215521   4.720   4.275   0.466 -0.6217  0.3237  0.1813
 5186TIP3    H115522   4.781   4.261   0.394  0.3279  0.2972  0.9664
 5186TIP3    H215523   4.636   4.289   0.424 -0.2974 -0.8020 -0.8817
 5187TIP3   OH215524   6.435   1.722   3.630 -0.0309 -0.0621 -0.0542
 5187TIP3    H115525   6.454   1.814   3.612 -1.0729  0.1312 -0.1829
 5187TIP3    H215526   6.341   1.718   3.644  0.1130 -0.9832  0.7786
 5188TIP3   OH215527   3.701   0.818   1.636  0.1397 -0.2279  0.1383
 5188TIP3    H115528   3.718   0.763   1.560 -0.6957 -0.4973  0.1330
 5188TIP3    H215529   3.751   0.777   1.707 -0.2522 -0.8352  0.0698
 5189TIP3   OH215530   3.258   4.231   4.269 -0.2797  0.7046 -0.5711
 5189TIP3    H115531   3.325   4.244   4.201 -0.0488 -0.1188 -0.5175
 5189TIP3    H215532   3.239   4.138   4.266 -0.7122  0.7640  0.0915
 5190TIP3   OH215533   6.083   5.200   4.980 -0.5051  0.4754  0.1244
 5190TIP3    H115534   6.108   5.196   5.072 -1.7724  1.9341  0.5903
 5190TIP3    H215535   6.131   5.129   4.938  0.2009 -0.1314  1.8799
 5191TIP3   OH215536   6.411   0.551   4.685  0.2946 -0.0853  0.2369
 5191TIP3    H115537   6.361   0.521   4.761  0.8905  0.2624  0.7735
 5191TIP3    H215538   6.410   0.646   4.692 -0.7925  0.0206 -0.9460
 5192TIP3   OH215539   6.987   5.432   5.543 -0.3485 -0.1048 -0.4912
 5192TIP3    H115540   6.941   5.505   5.501  0.5090  0.1127 -1.0750
 5192TIP3    H215541   7.001   5.461   5.632  0.8194  0.8543 -0.9693
 5193TIP3   OH215542   2.700   4.614   2.718  0.0060 -0.1091  0.8016
 5193TIP3    H115543   2.694   4.696   2.669  0.2951  0.7343  2.1223
 5193TIP3    H215544   2.756   4.558   2.665  0.7536  0.9689  0.4233
 5194TIP3   OH215545   6.945   6.497   3.353 -0.1104 -0.2814 -0.0978
 5194TIP3    H115546   6.883   6.508   3.281 -1.5303  0.8602  1.2317
 5194TIP3    H215547   7.021   6.455   3.313 -1.2908 -0.7063 -2.0170
 5195TIP3   OH215548   4.613   1.453   1.927  0.4364  0.3102  0.7516
 5195TIP3    H115549   4.595   1.498   2.010 -0.1651  0.0953  0.7435
 5195TIP3    H215550   4.546   1.485   1.867 -0.2011 -0.8172  0.8329
 5196TIP3   OH215551   1.235   1.997   4.590 -0.6766  0.0394 -0.1901
 5196TIP3    H115552   1.248   1.924   4.650  1.0094  1.5436  1.3981
 5196TIP3    H215553   1.185   1.960   4.518  0.4214 -2.7788  0.3629
 5197TIP3   OH215554   3.609   0.882   4.229  0.4050  0.6772 -0.4050
 5197TIP3    H115555   3.597   0.804   4.175 -0.1088 -0.1005  0.7949
 5197TIP3    H215556   3.525   0.928   4.224 -0.2478 -0.2779  1.0442
 5198TIP3   OH215557   0.038   2.295   1.338 -0.3504 -0.1021 -0.0581
 5198TIP3    H115558  -0.052   2.289   1.371 -0.4197 -1.5928 -0.4289
 5198TIP3    H215559   0.035   2.254   1.251  0.6896 -0.2311 -0.0525
 5199TIP3   OH215560   4.808   4.347   1.330 -0.0206  0.5949 -0.1016
 5199TIP3    H115561   4.843   4.324   1.417 -0.7958  2.3242  0.7126
 5199TIP3    H215562   4.776   4.436   1.340 -1.6519  0.2507 -1.7360
 5200TIP3   OH215563   1.806   3.826   5.453  0.3232  0.5257  0.5683
 5200TIP3    H115564   1.795   3.874   5.370 -0.4691  0.8647  0.8581
 5200TIP3    H215565   1.799   3.734   5.429 -0.9119  0.6494  0.3830
 5201TIP3   OH215566   5.535   4.457   1.041  0.0890 -0.1710  0.4657
 5201TIP3    H115567   5.580   4.542   1.050 -0.8945  0.1942  2.3933
 5201TIP3    H215568   5.606   4.393   1.038  0.7966  0.5003  2.0134
 5202TIP3   OH215569   4.431   4.516   2.732 -0.6181 -0.3210 -0.1583
 5202TIP3    H115570   4.366   4.555   2.675 -0.6915  1.6480  1.1752
 5202TIP3    H215571   4.381   4.461   2.792 -1.0085  0.7601  0.5194
 5203TIP3   OH215572   2.021   5.193   4.148  0.3518 -0.7926  0.3678
 5203TIP3    H115573   1.982   5.106   4.137 -1.1556 -0.1628  0.4981
 5203TIP3    H215574   1.985   5.225   4.230  1.8004 -0.4769  0.9177
 5204TIP3   OH215575   5.640   5.066   3.956 -0.0209 -0.2628 -0.6211
 5204TIP3    H115576   5.731   5.072   3.987 -0.0034  1.0002 -0.8819
 5204TIP3    H215577   5.587   5.074   4.036  0.0800 -0.3308 -0.5466
 5205TIP3   OH215578   4.963   1.962   3.875  0.3040 -0.0766  0.3140
 5205TIP3    H115579   4.939   1.957   3.967  0.1995  1.8403  0.4328
 5205TIP3    H215580   5.059   1.959   3.874  0.2916 -2.1389  0.2744
 5206TIP3   OH215581   3.987   1.272   1.061 -0.5607 -0.3528  0.7970
 5206TIP3    H115582   3.979   1.332   0.987 -0.6127 -2.6615 -1.1856
 5206TIP3    H215583   3.943   1.317   1.133  2.0623  3.3129  0.3879
 5207TIP3   OH215584   1.667   1.516   2.883 -0.1426 -0.0924  0.5466
 5207TIP3    H115585   1.665   1.518   2.787  2.7411 -1.4079  0.3749
 5207TIP3    H215586   1.662   1.423   2.905 -2.1163  0.2465  1.8020
 5208TIP3   OH215587   2.733   3.090   5.153  0.5118  0.5178  0.0946
 5208TIP3    H115588   2.754   3.139   5.073  0.6537 -1.8831 -1.4243
 5208TIP3    H215589   2.816   3.087   5.201  0.2642  2.5893  0.7779
 5209TIP3   OH215590   3.781   0.809   0.135  0.2147  0.2001  0.0180
 5209TIP3    H115591   3.791   0.904   0.127  0.5804  0.1452 -0.1896
 5209TIP3    H215592   3.836   0.773   0.066 -0.5847 -0.1457 -0.4587
 5210TIP3   OH215593   7.204   5.806   4.656  0.0642 -0.2969 -0.3224
 5210TIP3    H115594   7.223   5.748   4.582  0.2699  0.2694 -0.7189
 5210TIP3    H215595   7.124   5.852   4.630 -0.6326 -1.0602  0.3895
 5211TIP3   OH215596   1.118   1.323   3.397  0.2318  0.4590  0.8143
 5211TIP3    H115597   1.046   1.291   3.450  0.8153 -0.3100  1.1623
 5211TIP3    H215598   1.197   1.299   3.446  0.9911 -3.0341 -1.7084
 5212TIP3   OH215599   4.061   5.864   1.689  0.4227  0.2702  0.1208
 5212TIP3    H115600   3.985   5.861   1.631  0.9641  1.9455 -0.7514
 5212TIP3    H215601   4.069   5.775   1.724 -0.6669 -0.4601 -1.4020
 5213TIP3   OH215602   6.601   3.602   4.556  0.0753  0.2496  0.8379
 5213TIP3    H115603   6.546   3.602   4.635 -1.3488  0.0479 -0.1096
 5213TIP3    H215604   6.588   3.690   4.519  2.1253  0.9828  1.7032
 5214TIP3   OH215605   5.548   3.388   3.181  0.2109  0.1945  0.2901
 5214TIP3    H115606   5.523   3.389   3.089 -2.2830 -0.8684  0.8765
 5214TIP3    H215607   5.500   3.462   3.219  1.2556  0.6510  0.7591
 5215TIP3   OH215608   4.218   4.111   3.404 -0.0359 -0.4716  0.1959
 5215TIP3    H115609   4.262   4.175   3.460  0.3123  0.8958 -1.5543
 5215TIP3    H215610   4.232   4.027   3.447  0.8061  0.4380  1.7703
 5216TIP3   OH215611   2.509   3.158   5.255  0.1651  0.5369  0.3029
 5216TIP3    H115612   2.532   3.188   5.343  0.5715  0.8423  0.0984
 5216TIP3    H215613   2.594   3.138   5.214 -0.0636 -0.2500  0.2066
 5217TIP3   OH215614   1.743   3.603   5.203  0.0527 -0.0078  0.0848
 5217TIP3    H115615   1.817   3.632   5.149 -1.0048 -0.4070 -1.6580
 5217TIP3    H215616   1.701   3.535   5.150 -0.6431 -0.9148  1.7429
 5218TIP3   OH215617   0.748   4.638   3.881 -0.1295 -0.1735 -0.1368
 5218TIP3    H115618   0.662   4.596   3.879  0.5075 -1.5565  0.4844
 5218TIP3    H215619   0.793   4.604   3.804  1.4694 -3.1559  1.9013
 5219TIP3   OH215620   5.230   2.434   2.497  0.0598 -0.1997 -0.1429
 5219TIP3    H115621   5.312   2.439   2.545 -0.9087  0.3785  1.5374
 5219TIP3    H215622   5.168   2.393   2.558 -1.6633  2.1536 -0.1405
 5220TIP3   OH215623   4.352   5.543   2.929 -0.1411  0.1854 -0.1602
 5220TIP3    H115624   4.327   5.626   2.970 -0.4737 -0.2029  0.4421
 5220TIP3    H215625   4.403   5.498   2.997  2.0672  0.8747 -1.2867
 5221TIP3   OH215626   6.648   0.073   2.025  0.7588  0.2216 -0.1344
 5221TIP3    H115627   6.581   0.050   1.961  0.8977 -2.0396  0.4280
 5221TIP3    H215628   6.619   0.156   2.063 -1.0612 -0.0959 -0.7522
 5222TIP3   OH215629   4.904   2.705   5.210 -0.1487  0.1958  0.2328
 5222TIP3    H115630   4.835   2.741   5.265  0.3299  2.3012 -0.4751
 5222TIP3    H215631   4.985   2.742   5.244  0.3864 -0.2661 -0.4892
 5223TIP3   OH215632   0.979   4.864   2.521 -0.0566  0.1758 -0.5028
 5223TIP3    H115633   0.913   4.884   2.455  0.8921  2.0751 -0.9310
 5223TIP3    H215634   0.940   4.794   2.573 -2.3860  1.1902 -0.7742
 5224TIP3   OH215635   0.356   0.519   0.532 -0.0061 -0.0218 -0.1745
 5224TIP3    H115636   0.350   0.573   0.610  0.9653 -0.2924  0.1050
 5224TIP3    H215637   0.311   0.569   0.464 -0.2479  0.5344  0.3897
 5225TIP3   OH215638   2.331   2.436   2.757  0.0829  0.3174  0.0003
 5225TIP3    H115639   2.322   2.388   2.675 -1.7855 -1.3959  1.0966
 5225TIP3    H215640   2.407   2.396   2.800 -0.8803 -1.0863  0.4770
 5226TIP3   OH215641   4.455   5.685   4.220 -0.1744  0.1424 -0.2664
 5226TIP3    H115642   4.508   5.647   4.151 -2.9109 -2.6446 -1.0667
 5226TIP3    H215643   4.428   5.771   4.186  0.2702 -0.2769 -1.7245
 5227TIP3   OH215644   1.643   2.295   0.363 -0.4669  0.3120 -0.6624
 5227TIP3    H115645   1.564   2.279   0.414  0.3383 -1.1398  0.1990
 5227TIP3    H215646   1.700   2.344   0.422  0.9821 -2.4788  0.4718
 5228TIP3   OH215647   0.518   3.077   0.941  0.6935 -0.3511  0.3562
 5228TIP3    H115648   0.530   2.982   0.930  1.1862 -0.2915  0.3645
 5228TIP3    H215649   0.468   3.085   1.022  0.7306 -0.5993  0.4065
 5229TIP3   OH215650   1.123   1.544   2.651  0.4759 -0.5486  0.0052
 5229TIP3    H115651   1.088   1.630   2.627  1.0876 -0.5136 -0.8186
 5229TIP3    H215652   1.084   1.525   2.736 -0.1309  0.2796 -0.0728
 5230TIP3   OH215653   4.292   0.395   2.118  0.0537 -0.1957  0.1703
 5230TIP3    H115654   4.382   0.363   2.130 -0.1697 -0.4212  1.3147
 5230TIP3    H215655   4.237   0.328   2.157 -0.7515 -0.8507 -1.9570
 5231TIP3   OH215656   3.075   1.651   4.195 -0.0696  0.0228 -0.3694
 5231TIP3    H115657   2.981   1.662   4.184 -0.0344 -1.0434 -2.0393
 5231TIP3    H215658   3.084   1.587   4.265 -0.5851  0.1355 -0.1979
 5232TIP3   OH215659   2.757   1.236   0.045  0.0497  0.2178 -0.4188
 5232TIP3    H115660   2.777   1.319   0.089  0.1212 -0.1847  0.3323
 5232TIP3    H215661   2.729   1.178   0.116 -0.3241 -0.3000 -0.9824
 5233TIP3   OH215662   5.769   1.660   0.846 -0.0065  0.6920  0.3400
 5233TIP3    H115663   5.737   1.604   0.917  1.1480 -0.1131  0.2505
 5233TIP3    H215664   5.700   1.725   0.834 -0.5413  0.4225  1.7253
 5234TIP3   OH215665   6.287   1.031   3.663  0.2795 -0.1773  0.4116
 5234TIP3    H115666   6.230   1.075   3.726 -1.1712 -0.0271 -0.9705
 5234TIP3    H215667   6.236   0.955   3.634  0.1299  0.7779 -1.9626
 5235TIP3   OH215668   6.942   3.151   1.689 -0.3175  0.0932  0.1885
 5235TIP3    H115669   6.879   3.194   1.633 -0.6851 -0.9986 -0.2759
 5235TIP3    H215670   6.999   3.102   1.629  0.5523  0.5107  0.6397
 5236TIP3   OH215671   5.255   4.273   5.596  0.2810  0.5127 -0.4546
 5236TIP3    H115672   5.284   4.321   5.518  1.3614  1.6019  0.5690
 5236TIP3    H215673   5.262   4.337   5.667 -0.9042 -0.3885  0.5097
 5237TIP3   OH215674   4.818   4.685   0.735 -0.1572  0.2785  0.0839
 5237TIP3    H115675   4.845   4.598   0.766 -1.0425  0.2406  0.8079
 5237TIP3    H215676   4.767   4.667   0.656  0.1744  0.1898 -0.1122
 5238TIP3   OH215677   4.477   0.524   2.710  0.6832  0.2058  0.3667
 5238TIP3    H115678   4.474   0.557   2.800  1.2578  1.4402 -0.0451
 5238TIP3    H215679   4.492   0.602   2.657  1.3285 -0.6371 -0.7189
 5239TIP3   OH215680   3.924   6.015   5.298 -0.5698 -0.1504  0.3941
 5239TIP3    H115681   3.876   6.091   5.263 -1.3807 -1.0201 -0.4310
 5239TIP3    H215682   3.945   5.963   5.221  2.1607  0.4115  0.6731
 5240TIP3   OH215683   1.409   0.657   5.788 -0.3112 -0.6555  0.3818
 5240TIP3    H115684   1.437   0.738   5.830 -0.6689 -0.5158  0.3588
 5240TIP3    H215685   1.410   0.677   5.694  0.0686 -0.8303  0.3484
 5241TIP3   OH215686   6.730   3.266   4.079 -0.3248 -0.1567  0.3759
 5241TIP3    H115687   6.713   3.353   4.044 -0.3288  0.4925  1.9301
 5241TIP3    H215688   6.809   3.238   4.033  0.6340  1.3644  1.0006
 5242TIP3   OH215689   0.502   5.075   1.607  0.3063  0.4935 -0.1103
 5242TIP3    H115690   0.544   4.989   1.604 -1.7619 -0.6790  1.8325
 5242TIP3    H215691   0.560   5.128   1.661  0.6289 -0.2684  0.2985
 5243TIP3   OH215692   5.744   2.568   0.231  0.0770 -0.0741 -0.1368
 5243TIP3    H115693   5.759   2.520   0.312  0.3356  0.6595  0.2540
 5243TIP3    H215694   5.819   2.546   0.176  0.3080  0.0650  0.1246
 5244TIP3   OH215695   2.352   1.908   2.343 -0.1132  0.0873  0.2212
 5244TIP3    H115696   2.381   1.987   2.387 -0.3446  1.0062 -1.2073
 5244TIP3    H215697   2.397   1.909   2.258  1.6782 -2.5238  1.0162
 5245TIP3   OH215698   6.942   4.993   2.748 -0.1162  0.3231 -0.1315
 5245TIP3    H115699   6.945   5.087   2.765 -1.6184  0.1191  1.3959
 5245TIP3    H215700   6.877   4.983   2.678 -0.5777  0.3369  0.2982
 5246TIP3   OH215701   0.698   2.764   3.219  0.2021  0.7994 -0.3066
 5246TIP3    H115702   0.703   2.739   3.311  0.1003 -2.0237 -0.9768
 5246TIP3    H215703   0.768   2.828   3.208  0.2537  1.1587  1.7113
 5247TIP3   OH215704   6.475   0.870   5.451 -0.2123 -0.1190 -0.9265
 5247TIP3    H115705   6.449   0.888   5.361  2.0918  0.7893 -1.4818
 5247TIP3    H215706   6.569   0.853   5.446  0.3157  1.5190  1.4926
 5248TIP3   OH215707   0.194   3.085   0.546  0.7809 -0.3256 -0.1196
 5248TIP3    H115708   0.287   3.075   0.526  1.3778 -1.0852  2.6729
 5248TIP3    H215709   0.192   3.132   0.630 -1.3072 -1.4153  0.5074
 5249TIP3   OH215710   0.960   2.153   0.713 -0.0068  0.2606 -0.4701
 5249TIP3    H115711   0.985   2.136   0.804 -0.6931  0.6352 -0.2115
 5249TIP3    H215712   0.952   2.248   0.708 -1.4439  0.1491 -0.5302
 5250TIP3   OH215713   6.005   2.087   2.769  0.2307  0.1824 -0.5317
 5250TIP3    H115714   5.952   2.139   2.708 -0.0589  0.7946  0.2405
 5250TIP3    H215715   5.963   2.099   2.854  1.4270  0.4052  0.0369
 5251TIP3   OH215716   3.641   0.570   2.139  0.0287 -0.1563  0.2662
 5251TIP3    H115717   3.580   0.609   2.077  1.7190 -0.1290 -1.5150
 5251TIP3    H215718   3.711   0.534   2.083  1.8514  0.2221  2.1746
 5252TIP3   OH215719   2.989   5.984   5.173 -0.3511 -0.0265 -0.2188
 5252TIP3    H115720   2.971   5.891   5.179 -0.8656  0.1792  2.5239
 5252TIP3    H215721   3.079   5.989   5.141 -0.1203 -1.4699  0.1373
 5253TIP3   OH215722   4.246   4.860   4.989 -0.6059 -0.3860  0.3927
 5253TIP3    H115723   4.216   4.845   4.900  0.0723 -2.0042  0.4046
 5253TIP3    H215724   4.165   4.872   5.039 -1.0685 -0.8631 -0.2142
 5254TIP3   OH215725   2.029   4.113   5.325  0.4852  0.5446 -0.4465
 5254TIP3    H115726   1.938   4.129   5.301  0.1333  1.5607  1.3683
 5254TIP3    H215727   2.070   4.199   5.321  1.2476  0.1751 -0.7398
 5255TIP3   OH215728   5.304   1.929   3.380 -0.4725 -0.0640  0.2507
 5255TIP3    H115729   5.268   1.999   3.325 -3.1442 -1.6276 -0.1915
 5255TIP3    H215730   5.384   1.966   3.417 -1.2127  2.8396 -0.7621
 5256TIP3   OH215731   6.921   1.181   1.928  0.0258 -0.3011  0.2734
 5256TIP3    H115732   6.971   1.170   2.009  1.0860 -1.0304 -0.4553
 5256TIP3    H215733   6.973   1.136   1.861 -0.5749  0.7153 -0.9159
 5257TIP3   OH215734   5.497   2.343   2.318 -0.2193 -0.2878  0.2938
 5257TIP3    H115735   5.564   2.275   2.306  1.3354  0.8552  1.7967
 5257TIP3    H215736   5.473   2.336   2.411  0.1026  1.2770  0.5285
 5258TIP3   OH215737   4.611   6.530   4.526 -0.3911 -0.1676 -0.6966
 5258TIP3    H115738   4.692   6.567   4.560  0.0650 -1.6683 -0.0860
 5258TIP3    H215739   4.547   6.543   4.596 -0.2828 -0.3694 -0.5609
 5259TIP3   OH215740   3.825   0.253   5.316  0.2717 -0.0666 -0.3250
 5259TIP3    H115741   3.787   0.276   5.400  0.0476 -0.8429 -0.2092
 5259TIP3    H215742   3.913   0.292   5.318 -0.7149  2.4238 -0.9013
 5260TIP3   OH215743   4.618   5.149   0.397  0.0505  0.5505 -0.0756
 5260TIP3    H115744   4.690   5.096   0.364 -1.3146 -1.6789  0.3054
 5260TIP3    H215745   4.630   5.149   0.492  0.1780  1.1595 -0.0889
 5261TIP3   OH215746   5.487   5.997   5.419  0.5151  0.0710 -0.1969
 5261TIP3    H115747   5.495   5.902   5.433 -1.3720 -0.3066 -1.4279
 5261TIP3    H215748   5.571   6.032   5.449  0.5291 -1.7448  2.2019
 5262TIP3   OH215749   6.096   2.475   4.960  0.5232  0.0315 -0.5436
 5262TIP3    H115750   6.055   2.408   5.014  0.4087  0.1804 -0.4455
 5262TIP3    H215751   6.093   2.439   4.871  0.1359  0.0620 -0.5456
 5263TIP3   OH215752   5.285   4.416   1.988  0.0798 -0.0885 -0.0037
 5263TIP3    H115753   5.338   4.475   2.042  0.0918  0.4441 -0.5958
 5263TIP3    H215754   5.308   4.328   2.019  0.3900  0.1910  0.5786
 5264TIP3   OH215755   5.609   2.497   0.783 -0.2915  0.2632  0.3986
 5264TIP3    H115756   5.561   2.420   0.751 -0.3491  1.0028 -1.4079
 5264TIP3    H215757   5.702   2.473   0.774 -0.3045  0.0411  0.8158
 5265TIP3   OH215758   6.141   2.126   4.521  0.7192  0.2994  0.1051
 5265TIP3    H115759   6.146   2.191   4.452  0.0736  1.7458  1.3663
 5265TIP3    H215760   6.205   2.154   4.586  0.1656 -0.0867  0.8423
 5266TIP3   OH215761   4.254   5.451   5.745  0.4278  0.5887  0.1028
 5266TIP3    H115762   4.170   5.434   5.787  0.3874  0.5788  0.0181
 5266TIP3    H215763   4.307   5.374   5.766 -0.0696 -0.1113 -1.0892
 5267TIP3   OH215764   5.504   4.860   3.854  0.0458  0.3186 -0.1181
 5267TIP3    H115765   5.538   4.896   3.772 -0.9943  0.9499 -0.2985
 5267TIP3    H215766   5.541   4.915   3.922  1.2892 -0.4948 -0.1030
 5268TIP3   OH215767   2.227   5.602   4.312  0.1950 -0.4321  0.4020
 5268TIP3    H115768   2.272   5.531   4.359  0.4199 -0.0366  0.7965
 5268TIP3    H215769   2.281   5.679   4.328  0.4232 -0.3363 -0.7393
 5269TIP3   OH215770   4.094   1.988   4.626 -0.0196 -0.6043  0.1844
 5269TIP3    H115771   4.016   1.942   4.657  0.7868 -1.0242  1.6458
 5269TIP3    H215772   4.130   1.930   4.558 -0.8007 -0.5509 -0.2870
 5270TIP3   OH215773   1.969   2.271   3.766 -0.5104  0.1296  0.2450
 5270TIP3    H115774   1.890   2.324   3.755 -1.3245 -1.3641 -1.7721
 5270TIP3    H215775   1.982   2.268   3.861 -1.7028  2.0330  0.5444
 5271TIP3   OH215776   7.061   3.189   0.842  0.1425  0.0873  0.2591
 5271TIP3    H115777   7.003   3.149   0.777  0.3793  0.4322 -0.1725
 5271TIP3    H215778   7.118   3.247   0.790  1.5836 -1.0393  0.5148
 5272TIP3   OH215779   5.217   6.072   1.932 -0.6208  0.2044  0.3020
 5272TIP3    H115780   5.171   6.155   1.941 -1.8716 -0.5430  1.3328
 5272TIP3    H215781   5.248   6.052   2.021 -0.5653 -0.5385  0.1250
 5273TIP3   OH215782   4.908   0.032   1.955 -0.1524 -0.0462  0.1329
 5273TIP3    H115783   4.829   0.063   1.911 -0.9043 -0.9480  0.7944
 5273TIP3    H215784   4.976   0.094   1.929 -1.2507  1.2206  0.1848
 5274TIP3   OH215785   4.635   5.419   1.878  0.3157  0.1779  0.7500
 5274TIP3    H115786   4.727   5.432   1.856 -0.2265  1.6353 -0.9265
 5274TIP3    H215787   4.607   5.502   1.917 -0.7554  0.5342 -0.6860
 5275TIP3   OH215788   4.682   1.675   5.353  0.6832  0.0688  0.4923
 5275TIP3    H115789   4.769   1.670   5.314  0.2686 -1.3844 -0.3309
 5275TIP3    H215790   4.691   1.737   5.426  2.0158  1.1290 -0.5316
 5276TIP3   OH215791   6.645   4.696   5.631 -0.0582 -0.0151  0.4964
 5276TIP3    H115792   6.708   4.684   5.701  1.1414 -1.3604 -0.7515
 5276TIP3    H215793   6.582   4.625   5.642 -1.4668  1.3572  1.7739
 5277TIP3   OH215794   1.595   5.869   5.662 -0.1320  0.2763  0.2711
 5277TIP3    H115795   1.573   5.877   5.754  1.8269 -1.7508  0.9952
 5277TIP3    H215796   1.673   5.924   5.651 -1.7921  2.5491 -0.8389
 5278TIP3   OH215797   4.668   2.059   5.198  0.1860  0.0876  0.2085
 5278TIP3    H115798   4.733   2.043   5.266  0.8290  0.7919 -0.2361
 5278TIP3    H215799   4.590   2.088   5.246  0.1609 -0.8146  0.7413
 5279TIP3   OH215800   0.469   6.648   5.018  0.1856  0.3293 -0.3201
 5279TIP3    H115801   0.402   6.663   4.952  0.0107  1.2756  0.0550
 5279TIP3    H215802   0.424   6.606   5.091  0.2096  0.0599 -0.4581
 5280TIP3   OH215803   0.704   0.259   5.174  0.2737 -0.4414 -0.0622
 5280TIP3    H115804   0.618   0.217   5.181  0.5092 -0.8571  0.3749
 5280TIP3    H215805   0.693   0.325   5.105 -0.2801 -0.7760 -0.2983
 5281TIP3   OH215806   3.575   6.323   1.212  0.1539  0.5768  0.8532
 5281TIP3    H115807   3.632   6.381   1.160 -0.9600  1.5426  0.6550
 5281TIP3    H215808   3.561   6.372   1.293  0.3922 -0.1060  1.3119
 5282TIP3   OH215809   6.863   5.610   1.792 -0.1369 -0.5190  0.1261
 5282TIP3    H115810   6.934   5.555   1.826  0.0357 -0.3626  0.0246
 5282TIP3    H215811   6.791   5.598   1.854  0.5830  0.7318  1.2600
 5283TIP3   OH215812   2.841   3.759   3.861 -0.1137 -0.0333  0.8603
 5283TIP3    H115813   2.901   3.792   3.927 -0.4045  0.5054  0.8569
 5283TIP3    H215814   2.756   3.797   3.884 -0.6393 -1.4291  1.3481
 5284TIP3   OH215815   6.432   5.553   2.341  0.2969  0.2268  0.0903
 5284TIP3    H115816   6.420   5.510   2.256 -0.3468  0.0232  0.2766
 5284TIP3    H215817   6.425   5.482   2.405 -2.0721  0.7196  0.4966
 5285TIP3   OH215818   4.074   4.372   2.591  0.4177 -0.3917  0.4459
 5285TIP3    H115819   4.094   4.451   2.640 -1.1555 -0.3068  0.9788
 5285TIP3    H215820   3.994   4.338   2.630 -0.1029 -1.0952 -1.1538
 5286TIP3   OH215821   6.739   3.773   4.035  0.7762  0.0132  0.0140
 5286TIP3    H115822   6.718   3.820   3.955  5.3205 -1.5944 -2.4841
 5286TIP3    H215823   6.776   3.839   4.093 -0.4696  0.8102 -0.0565
 5287TIP3   OH215824   1.677   3.166   1.922  0.5089  0.5893 -0.0475
 5287TIP3    H115825   1.686   3.211   2.006  0.8630  0.1287  0.1658
 5287TIP3    H215826   1.587   3.136   1.920 -0.3932  3.1088 -1.1126
 5288TIP3   OH215827   7.185   0.071   0.856 -0.3853 -0.0385  0.1893
 5288TIP3    H115828   7.236   0.082   0.776  0.5332 -1.2188  0.5744
 5288TIP3    H215829   7.123   0.144   0.857  1.2490  1.3882 -0.3399
 5289TIP3   OH215830   0.426   4.693   1.057 -0.2467  0.2268  0.2149
 5289TIP3    H115831   0.378   4.773   1.037 -0.7563  0.3680  1.8523
 5289TIP3    H215832   0.504   4.723   1.104  0.8521 -0.0940 -1.3310
 5290TIP3   OH215833   7.129   6.286   3.258  0.2963 -0.3506 -0.3573
 5290TIP3    H115834   7.043   6.258   3.288 -0.2356  0.6155 -0.9475
 5290TIP3    H215835   7.189   6.218   3.291 -0.6029 -0.7323  0.5358
 5291TIP3   OH215836   1.522   2.028   0.965  0.7573  0.2026  0.3962
 5291TIP3    H115837   1.604   2.040   1.013 -0.0531 -1.5160  2.3840
 5291TIP3    H215838   1.480   1.953   1.008 -0.9457 -0.2268 -1.8510
 5292TIP3   OH215839   2.758   4.353   5.118 -0.2099  0.0941 -0.5858
 5292TIP3    H115840   2.734   4.368   5.210  0.1563 -1.3493 -0.2287
 5292TIP3    H215841   2.718   4.268   5.097  1.3841 -0.5495 -1.1257
 5293TIP3   OH215842   3.180   4.223   3.080  0.1576  0.5857 -0.0706
 5293TIP3    H115843   3.102   4.253   3.126  0.0707  0.4887 -0.1560
 5293TIP3    H215844   3.191   4.284   3.008  1.3388  1.8704  1.1165
 5294TIP3   OH215845   4.727   1.790   3.919  0.4403 -0.6442 -0.0462
 5294TIP3    H115846   4.717   1.854   3.847 -0.2462 -0.6908 -0.0041
 5294TIP3    H215847   4.820   1.790   3.938  0.5348 -0.0957 -0.4595
 5295TIP3   OH215848   6.963   3.436   3.685  0.0638 -0.2942  0.1135
 5295TIP3    H115849   6.971   3.454   3.778 -0.1482 -2.5602  0.6455
 5295TIP3    H215850   6.868   3.432   3.670  0.0587  1.4882 -0.5617
 5296TIP3   OH215851   3.472   6.115   0.867 -0.4098 -0.1845  0.2117
 5296TIP3    H115852   3.407   6.113   0.936  1.0271 -1.1181  1.5998
 5296TIP3    H215853   3.425   6.150   0.791 -2.2085  0.2080  1.4402
 5297TIP3   OH215854   4.794   4.883   4.799  0.0743  0.2002  0.0319
 5297TIP3    H115855   4.839   4.941   4.860 -2.5001  3.5942 -0.9396
 5297TIP3    H215856   4.855   4.811   4.784  3.3098  2.3030  1.8740
 5298TIP3   OH215857   2.627   0.279   1.377 -0.2919 -0.4403  0.1200
 5298TIP3    H115858   2.721   0.289   1.391 -0.5898  0.6205  1.7258
 5298TIP3    H215859   2.602   0.206   1.434 -0.6315  0.1821  0.7940
 5299TIP3   OH215860   7.116   4.452   2.771 -0.3673 -0.0106  0.7575
 5299TIP3    H115861   7.181   4.522   2.769 -0.2699 -0.1252 -0.3091
 5299TIP3    H215862   7.134   4.400   2.693 -0.5553 -1.1301  1.4388
 5300TIP3   OH215863   5.079   2.967   4.727 -0.0918  0.2282  0.5170
 5300TIP3    H115864   5.148   3.033   4.733 -0.3504  0.4462  1.1756
 5300TIP3    H215865   5.116   2.890   4.770 -0.2524  0.3474  0.8769
 5301TIP3   OH215866   6.343   0.154   3.100  0.0440  0.1143 -0.0858
 5301TIP3    H115867   6.352   0.067   3.138  0.8796 -0.4393 -1.4601
 5301TIP3    H215868   6.431   0.192   3.105 -0.4589  1.1996  1.1665
 5302TIP3   OH215869   6.946   0.829   5.169 -0.0723  0.2178  0.4072
 5302TIP3    H115870   6.981   0.748   5.131 -2.2570 -0.3495 -0.5113
 5302TIP3    H215871   6.995   0.840   5.251  2.6596 -0.1494 -1.0544
 5303TIP3   OH215872   2.827   3.829   4.768  0.4078 -0.1230 -0.4268
 5303TIP3    H115873   2.878   3.750   4.751  0.9847  0.3851 -1.0866
 5303TIP3    H215874   2.824   3.875   4.684  1.4160  1.3258  0.2845
 5304TIP3   OH215875   1.419   1.213   1.010 -0.2270  0.1241  0.0081
 5304TIP3    H115876   1.419   1.309   1.009  1.4905  0.1755 -2.1776
 5304TIP3    H215877   1.386   1.187   0.924 -0.2504 -1.2633  0.4020
 5305TIP3   OH215878   1.906   6.356   4.426  0.3232  0.1251 -0.0937
 5305TIP3    H115879   1.888   6.377   4.335  1.1980  0.4409 -0.2071
 5305TIP3    H215880   1.958   6.275   4.422 -1.2517 -0.9507  0.2371
 5306TIP3   OH215881   4.173   1.999   1.656  0.1112 -0.0040 -0.3251
 5306TIP3    H115882   4.180   2.074   1.715  2.8706 -1.2535  1.1276
 5306TIP3    H215883   4.082   1.972   1.663 -0.0196  0.7690  2.3539
 5307TIP3   OH215884   4.431   4.739   5.521  0.5204 -0.0388  0.1219
 5307TIP3    H115885   4.366   4.682   5.562  0.8794 -0.1542  0.5412
 5307TIP3    H215886   4.515   4.705   5.551  0.7353  0.8207  0.5308
 5308TIP3   OH215887   4.986   6.002   2.541 -0.1080 -0.0652  0.2671
 5308TIP3    H115888   4.980   5.922   2.592 -0.8855 -0.3581 -0.2576
 5308TIP3    H215889   5.029   5.976   2.460 -1.1743 -0.1754 -0.2925
 5309TIP3   OH215890   3.589   5.684   0.832 -0.2759  0.3752  0.0791
 5309TIP3    H115891   3.521   5.748   0.853  0.0885  1.4442 -1.8150
 5309TIP3    H215892   3.577   5.665   0.739  1.5927  0.0743 -0.1359
 5310TIP3   OH215893   6.310   0.226   4.946  0.3919 -0.5229 -0.3780
 5310TIP3    H115894   6.346   0.175   5.018  0.2513  2.9709  2.4626
 5310TIP3    H215895   6.366   0.204   4.871  1.8210 -2.9012  1.2513
 5311TIP3   OH215896   6.277   2.649   3.285 -0.2005  0.0171  0.4076
 5311TIP3    H115897   6.254   2.671   3.375 -1.2497  1.0308 -0.0777
 5311TIP3    H215898   6.223   2.708   3.232  0.9015 -0.0874 -0.8722
 5312TIP3   OH215899   2.420   0.362   5.712 -0.3809  0.2358  0.1410
 5312TIP3    H115900   2.423   0.360   5.617 -1.8579  0.1039  0.0679
 5312TIP3    H215901   2.511   0.356   5.740  0.1585  1.4507 -1.2642
 5313TIP3   OH215902   5.474   3.705   3.706  0.0932 -0.2051  0.0950
 5313TIP3    H115903   5.523   3.784   3.730  1.9093 -1.5480  1.1610
 5313TIP3    H215904   5.411   3.693   3.777 -0.7114  0.6855 -0.4624
 5314TIP3   OH215905   3.415   0.550   4.159 -0.1900 -0.0162  0.0177
 5314TIP3    H115906   3.380   0.469   4.122  0.3198  0.5167 -1.6985
 5314TIP3    H215907   3.464   0.521   4.237  1.8980 -1.6837 -1.7778
 5315TIP3   OH215908   2.411   3.638   5.750 -0.7137 -0.4973 -0.0843
 5315TIP3    H115909   2.390   3.688   5.672 -2.0207  0.3570  0.7887
 5315TIP3    H215910   2.328   3.601   5.779 -0.5161  0.3020  1.6403
 5316TIP3   OH215911   3.656   5.853   3.014 -0.2127 -0.4954 -0.2947
 5316TIP3    H115912   3.712   5.897   3.078 -1.5362 -0.2121  0.6859
 5316TIP3    H215913   3.675   5.898   2.931  0.2162  0.3110  0.2283
 5317TIP3   OH215914   4.837   2.106   4.982 -0.4997  0.8720  0.0749
 5317TIP3    H115915   4.795   2.175   4.932 -1.0134  0.5065 -0.0029
 5317TIP3    H215916   4.771   2.078   5.045 -0.5121  0.0250 -0.3088
 5318TIP3   OH215917   2.720   5.203   3.471  0.2319 -0.4073  0.5262
 5318TIP3    H115918   2.655   5.225   3.538 -0.9387  0.4688 -0.8473
 5318TIP3    H215919   2.772   5.283   3.462 -1.3443  0.4735 -1.4779
 5319TIP3   OH215920   7.009   5.991   5.780  0.8448  0.2471  0.2559
 5319TIP3    H115921   7.005   5.897   5.798  0.8331  0.0795 -0.5532
 5319TIP3    H215922   7.039   5.996   5.689  0.8503  1.0281  0.2956
 5320TIP3   OH215923   6.244   2.970   5.544  0.1648 -0.6230  0.3900
 5320TIP3    H115924   6.301   2.895   5.530  1.4086  0.3487  0.0003
 5320TIP3    H215925   6.303   3.046   5.535 -0.9335  0.3709  1.3240
 5321TIP3   OH215926   2.156   0.462   5.693 -0.0337 -0.2398  0.3484
 5321TIP3    H115927   2.147   0.399   5.621  0.5637  0.1999 -0.1211
 5321TIP3    H215928   2.250   0.467   5.708 -0.0716  0.6302  0.3036
 5322TIP3   OH215929   2.735   3.007   2.270  0.1043 -0.2851  0.3761
 5322TIP3    H115930   2.732   3.098   2.239 -2.6042 -0.0806  0.9389
 5322TIP3    H215931   2.795   2.963   2.210  2.0777  1.9983  0.5396
 5323TIP3   OH215932   6.523   0.697   5.130 -0.2198  0.6690 -0.1172
 5323TIP3    H115933   6.543   0.637   5.059  0.6023  0.3845  0.3464
 5323TIP3    H215934   6.592   0.683   5.195 -0.9774  0.8930  0.7643
 5324TIP3   OH215935   0.715   5.814   5.669  0.1853  0.3458  0.1080
 5324TIP3    H115936   0.805   5.783   5.672  0.7466  1.9331  1.6542
 5324TIP3    H215937   0.662   5.735   5.666  1.6111 -0.6326 -0.1694
 5325TIP3   OH215938   4.907   1.221   5.654 -0.0856 -0.3060  0.3350
 5325TIP3    H115939   4.878   1.307   5.623  2.0350  0.5449  0.5797
 5325TIP3    H215940   4.936   1.237   5.744  2.5902 -0.6956 -0.3719
 5326TIP3   OH215941   0.270   2.202   4.402 -0.2323  0.2047 -0.0565
 5326TIP3    H115942   0.206   2.243   4.343  0.8450  2.9745  0.5495
 5326TIP3    H215943   0.235   2.219   4.490 -0.5210 -1.6269  0.2213
 5327TIP3   OH215944   2.283   1.074   5.629 -0.3906  0.3163  0.1644
 5327TIP3    H115945   2.252   1.018   5.701  0.1096  0.7671  0.7446
 5327TIP3    H215946   2.357   1.026   5.591  1.3281  1.4110  1.9278
 5328TIP3   OH215947   3.384   3.928   2.117 -0.2199 -0.9127 -0.2169
 5328TIP3    H115948   3.319   3.953   2.050  0.3958 -1.0555 -0.8839
 5328TIP3    H215949   3.375   3.833   2.125 -0.2053 -0.9115 -0.1882
 5329TIP3   OH215950   2.459   6.314   1.905 -0.7957  0.3439  0.5760
 5329TIP3    H115951   2.486   6.405   1.891 -2.8990  0.7961 -1.0467
 5329TIP3    H215952   2.507   6.287   1.983 -1.5745  3.4862  2.3250
 5330TIP3   OH215953   3.347   1.368   4.214 -0.1945  0.1520 -0.0992
 5330TIP3    H115954   3.330   1.292   4.270  1.3058 -0.5995 -0.5944
 5330TIP3    H215955   3.279   1.364   4.147  0.9709 -1.9673 -1.2816
 5331TIP3   OH215956   0.885   0.093   2.286  0.0054 -0.4454 -0.0877
 5331TIP3    H115957   0.852   0.151   2.355 -1.6174 -0.0218 -1.1406
 5331TIP3    H215958   0.959   0.048   2.325  0.2189  1.0574  1.3454
 5332TIP3   OH215959   2.854   5.209   2.469 -0.1050 -0.4821 -0.4747
 5332TIP3    H115960   2.765   5.233   2.494  0.0132 -0.3653 -0.1565
 5332TIP3    H215961   2.846   5.123   2.429  0.0348 -1.9242  2.3659
 5333TIP3   OH215962   5.172   4.246   1.087 -0.2485 -0.3005  0.0104
 5333TIP3    H115963   5.077   4.240   1.086 -0.2671  0.0739 -0.4546
 5333TIP3    H215964   5.197   4.214   1.174 -0.9020  1.1328  0.7528
 5334TIP3   OH215965   2.757   4.058   0.138  0.0666  0.1454 -0.2239
 5334TIP3    H115966   2.809   4.042   0.217  1.5992 -0.2863 -1.2678
 5334TIP3    H215967   2.814   4.032   0.067 -0.7316  1.8707 -1.5742
 5335TIP3   OH215968   4.514   2.572   5.441 -0.2595 -0.1428 -0.1093
 5335TIP3    H115969   4.503   2.484   5.475 -1.3532  0.1498  0.3313
 5335TIP3    H215970   4.431   2.593   5.399  0.4944  0.1302 -1.5483
 5336TIP3   OH215971   0.047   4.297   0.963 -0.2834  0.0689  0.3209
 5336TIP3    H115972   0.017   4.219   0.916  1.2935  0.3824 -1.3310
 5336TIP3    H215973   0.121   4.266   1.016 -0.7929  0.1063  1.0597
 5337TIP3   OH215974   0.319   5.638   4.535  0.0200 -0.2525 -0.0453
 5337TIP3    H115975   0.357   5.553   4.556 -0.1933 -0.2922  0.1734
 5337TIP3    H215976   0.352   5.657   4.447 -0.8930 -1.1050 -0.5864
 5338TIP3   OH215977   6.593   4.131   2.797 -0.1002  0.0885 -0.3972
 5338TIP3    H115978   6.588   4.047   2.750 -0.0872  0.9472 -2.0216
 5338TIP3    H215979   6.687   4.148   2.804 -0.0775 -0.4282  0.7146
 5339TIP3   OH215980   5.250   2.911   5.058 -0.9306 -0.1616 -0.6449
 5339TIP3    H115981   5.229   3.004   5.069  2.2983  0.5045  0.9934
 5339TIP3    H215982   5.249   2.876   5.147  1.5815 -0.7243 -0.7768
 5340TIP3   OH215983   6.309   2.312   5.076  0.9848  0.3133 -0.2466
 5340TIP3    H115984   6.255   2.367   5.019 -0.1333 -1.5559 -1.0926
 5340TIP3    H215985   6.396   2.352   5.073  0.0090  2.5966  0.0168
 5341TIP3   OH215986   2.184   6.547   3.493 -0.1950 -0.1424  0.1745
 5341TIP3    H115987   2.127   6.472   3.473 -0.5688  0.3961 -0.8114
 5341TIP3    H215988   2.141   6.590   3.567 -1.3324  0.5245 -0.8542
 5342TIP3   OH215989   1.885   4.298   4.344  0.1556 -0.0408  0.2003
 5342TIP3    H115990   1.899   4.358   4.271  1.1094 -1.2090 -0.6377
 5342TIP3    H215991   1.858   4.216   4.302 -1.8591 -0.0476  1.3468
 5343TIP3   OH215992   4.566   4.967   3.453  0.1446  0.2274  0.3856
 5343TIP3    H115993   4.640   4.984   3.511  1.0958 -2.3227  0.0404
 5343TIP3    H215994   4.580   5.025   3.378  1.4755  0.2127  0.6023
 5344TIP3   OH215995   6.361   6.046   2.590  0.4176 -0.1446  0.0215
 5344TIP3    H115996   6.379   5.965   2.636  0.5103 -1.1237 -1.6488
 5344TIP3    H215997   6.308   6.020   2.515  1.1314  1.2119 -1.0100
 5345TIP3   OH215998   4.515   1.935   5.639 -0.0975  0.1510  0.6540
 5345TIP3    H115999   4.451   1.867   5.660  1.0619 -0.5117  2.2551
 5345TIP3    H216000   4.567   1.945   5.719  2.3138  0.0817 -0.7989
 5346TIP3   OH216001   0.081   4.199   5.103  0.5060 -0.1727 -0.7006
 5346TIP3    H116002   0.025   4.227   5.031  0.2823  0.1198 -0.4128
 5346TIP3    H216003   0.087   4.276   5.160  0.6112 -0.4315 -0.3629
 5347TIP3   OH216004   0.440   0.779   1.570 -0.0146  0.1110 -0.0891
 5347TIP3    H116005   0.490   0.811   1.495  0.9083  0.4620  0.6668
 5347TIP3    H216006   0.447   0.684   1.566 -0.6584  0.0828 -0.9005
 5348TIP3   OH216007   1.762   3.732   1.662  0.0307 -0.2577 -0.6135
 5348TIP3    H116008   1.772   3.643   1.630 -0.9964  0.1766 -2.3507
 5348TIP3    H216009   1.771   3.786   1.583 -0.4774  1.0842  0.2148
 5349TIP3   OH216010   4.294   6.715   1.656 -0.1825 -0.4361  0.1133
 5349TIP3    H116011   4.334   6.801   1.641  0.3114 -1.0379 -2.5115
 5349TIP3    H216012   4.212   6.735   1.702  0.0240  1.4366 -0.2348
 5350TIP3   OH216013   1.345   5.384   4.759 -0.0847  0.1114  0.7828
 5350TIP3    H116014   1.381   5.305   4.719  1.1791 -0.5180  2.9883
 5350TIP3    H216015   1.258   5.357   4.791  0.0165 -0.1488  0.8366
 5351TIP3   OH216016   6.486   2.522   4.381  0.0384  0.0010 -0.2045
 5351TIP3    H116017   6.514   2.474   4.459  0.6138  0.1691 -0.3024
 5351TIP3    H216018   6.568   2.542   4.335 -0.2183  0.8067 -0.3177
 5352TIP3   OH216019   4.973   6.261   2.668  0.2321 -0.1204  0.0727
 5352TIP3    H116020   4.887   6.275   2.709  0.1225 -0.7282  0.0543
 5352TIP3    H216021   4.968   6.173   2.630  0.9275 -0.2348  0.2317
 5353TIP3   OH216022   6.021   3.626   3.017 -0.2378 -0.7889  0.2966
 5353TIP3    H116023   6.055   3.600   3.103 -0.9363  1.6897  1.3836
 5353TIP3    H216024   5.948   3.684   3.036  0.4648  0.9762 -1.9309
 5354TIP3   OH216025   3.413   0.993   4.106 -0.1442  0.0866 -0.1806
 5354TIP3    H116026   3.402   1.057   4.036 -0.7995 -0.5484 -0.6739
 5354TIP3    H216027   3.325   0.958   4.121  0.0268  0.0535  0.8065
 5355TIP3   OH216028   1.608   3.304   0.433 -0.3100  0.2645  0.0191
 5355TIP3    H116029   1.694   3.271   0.406 -0.7245  0.7121 -1.9937
 5355TIP3    H216030   1.569   3.231   0.480  1.0567 -0.0398  0.7485
 5356TIP3   OH216031   0.726   5.683   4.148  0.2025 -0.3016 -0.1975
 5356TIP3    H116032   0.721   5.587   4.153 -1.7500 -0.2613 -0.5109
 5356TIP3    H216033   0.693   5.704   4.061 -0.4772  0.7058  0.2836
 5357TIP3   OH216034   6.315   1.118   2.245  0.3489 -0.5166 -0.0180
 5357TIP3    H116035   6.378   1.049   2.267 -0.6937 -1.4915 -0.0249
 5357TIP3    H216036   6.267   1.134   2.326  1.6490  1.3914  0.4403
 5358TIP3   OH216037   0.707   2.169   5.228 -0.0788 -0.1119  0.6444
 5358TIP3    H116038   0.718   2.263   5.212  0.6293 -0.2609  0.2204
 5358TIP3    H216039   0.785   2.142   5.275  0.6849 -0.8592 -0.9539
 5359TIP3   OH216040   0.560   1.912   0.786 -0.0090 -0.0814  0.4461
 5359TIP3    H116041   0.524   1.990   0.744 -0.0292  0.3979  1.3460
 5359TIP3    H216042   0.518   1.839   0.740 -0.5203  0.4415  0.0676
 5360TIP3   OH216043   6.848   1.633   5.393  0.5362  0.1880 -0.6674
 5360TIP3    H116044   6.923   1.583   5.426  0.5016  0.5682  0.0112
 5360TIP3    H216045   6.857   1.719   5.434  1.1586  1.1033 -2.5922
 5361TIP3   OH216046   6.361   0.366   1.385 -0.6101 -0.2814  0.0975
 5361TIP3    H116047   6.380   0.458   1.366 -0.4462 -0.6934 -1.9894
 5361TIP3    H216048   6.266   0.358   1.376 -0.4220 -0.7256 -2.0375
 5362TIP3   OH216049   1.787   3.303   2.919 -0.2455 -0.0050 -0.4393
 5362TIP3    H116050   1.717   3.295   2.854  1.4040 -2.3227 -2.1159
 5362TIP3    H216051   1.840   3.376   2.888  1.6006 -2.2266 -3.0228
 5363TIP3   OH216052   3.066   5.017   5.419  0.6857 -0.2285 -0.0274
 5363TIP3    H116053   3.030   5.094   5.462 -0.0457 -0.7446  0.3041
 5363TIP3    H216054   3.114   5.052   5.343 -0.8373  0.4620 -0.7189
 5364TIP3   OH216055   6.819   2.246   1.736  0.5894  0.5120 -0.2215
 5364TIP3    H116056   6.843   2.212   1.822  0.9309  0.9870 -0.1267
 5364TIP3    H216057   6.745   2.191   1.708 -1.2881  1.9902  1.5304
 5365TIP3   OH216058   1.578   5.972   3.273  0.1707 -0.2853 -0.1074
 5365TIP3    H116059   1.669   6.000   3.283  0.3625 -0.4917 -1.2281
 5365TIP3    H216060   1.528   6.039   3.320  0.9073 -0.3053  0.7373
 5366TIP3   OH216061   3.616   5.050   5.695  0.2070  0.4986  0.7889
 5366TIP3    H116062   3.586   5.100   5.619  0.4345  1.1085  1.0972
 5366TIP3    H216063   3.657   5.115   5.752 -0.8326  0.2295  1.8927
 5367TIP3   OH216064   1.029   1.308   3.118 -0.0049  0.0548  0.1203
 5367TIP3    H116065   1.079   1.278   3.043  0.1679 -0.0316  0.2677
 5367TIP3    H216066   0.962   1.241   3.131 -0.0669  0.0967  0.0101
 5368TIP3   OH216067   4.324   1.267   3.803 -0.3577  0.1275  0.0695
 5368TIP3    H116068   4.374   1.215   3.741 -1.3982 -0.1824 -0.5358
 5368TIP3    H216069   4.233   1.239   3.791 -0.7664  1.0942  0.7131
 5369TIP3   OH216070   6.116   4.011   5.513 -0.6120  0.5015 -0.0434
 5369TIP3    H116071   6.146   3.993   5.424  0.8094  0.2655  0.4626
 5369TIP3    H216072   6.069   4.094   5.506 -0.1356  0.7138 -0.9406
 5370TIP3   OH216073   2.431   3.391   0.381  0.1920  0.6494 -0.2787
 5370TIP3    H116074   2.354   3.424   0.336 -0.1857 -0.8059 -0.7544
 5370TIP3    H216075   2.402   3.379   0.472 -0.7097 -1.4743 -0.7858
 5371TIP3   OH216076   0.938   2.255   2.307 -0.0088 -0.4531 -0.0409
 5371TIP3    H116077   1.015   2.198   2.316 -0.0958 -0.4850  0.5508
 5371TIP3    H216078   0.864   2.198   2.327 -0.2439 -0.5781 -1.2113
 5372TIP3   OH216079   5.113   3.381   1.617  0.2805 -0.1722  0.3187
 5372TIP3    H116080   5.132   3.288   1.601  0.4742 -0.5063  2.1992
 5372TIP3    H216081   5.023   3.393   1.589  0.0515 -1.0887  0.6359
 5373TIP3   OH216082   0.253   3.147   4.028  0.1813  0.0570  0.0931
 5373TIP3    H116083   0.242   3.172   3.936 -0.3060  1.4360  0.5031
 5373TIP3    H216084   0.321   3.205   4.061 -0.4819  0.4018  0.8954
 5374TIP3   OH216085   5.491   1.824   0.250  0.2489  0.0435  0.0964
 5374TIP3    H116086   5.405   1.846   0.287 -0.3908 -0.8893 -0.7644
 5374TIP3    H216087   5.501   1.730   0.269  2.0822  0.5693  2.1062
 5375TIP3   OH216088   2.717   2.947   2.864  0.5587  0.2577 -0.5088
 5375TIP3    H116089   2.656   2.952   2.937  1.6414 -0.3887  0.4886
 5375TIP3    H216090   2.702   3.027   2.814 -1.1395  0.0660 -0.3526
 5376TIP3   OH216091   6.480   5.549   0.873 -0.8950 -0.3309  0.2494
 5376TIP3    H116092   6.408   5.602   0.906  0.8312  2.2553  0.1301
 5376TIP3    H216093   6.487   5.573   0.780  0.9561  0.6073  0.5727
 5377TIP3   OH216094   3.565   2.318   4.920  0.1748  0.2360 -0.0096
 5377TIP3    H116095   3.593   2.277   4.838  1.7995  2.7296 -0.8103
 5377TIP3    H216096   3.481   2.358   4.898  0.7576  1.1787 -0.6151
 5378TIP3   OH216097   3.571   4.058   2.242 -0.1027  0.0506  0.2506
 5378TIP3    H116098   3.508   4.005   2.193 -0.0881 -0.7316  1.0482
 5378TIP3    H216099   3.653   4.009   2.235  1.0398  2.0496 -2.5217
 5379TIP3   OH216100   4.865   0.881   4.204 -0.5103  0.0650 -0.2683
 5379TIP3    H116101   4.830   0.828   4.276  0.1907  0.1531  0.1560
 5379TIP3    H216102   4.850   0.829   4.126 -1.0272 -0.1642 -0.0203
 5380TIP3   OH216103   0.331   4.547   2.924 -0.4140 -0.4280 -0.8283
 5380TIP3    H116104   0.393   4.549   2.851 -0.1285 -1.9997 -0.6657
 5380TIP3    H216105   0.295   4.635   2.927  1.4747  0.4073 -1.2173
 5381TIP3   OH216106   6.639   5.952   0.559 -0.2531 -0.4181 -0.0414
 5381TIP3    H116107   6.556   5.939   0.514 -0.6004  1.9568 -0.1857
 5381TIP3    H216108   6.687   6.014   0.504 -1.4941  4.3005  3.5645
 5382TIP3   OH216109   3.394   5.462   3.650 -0.1165 -0.2087  0.1066
 5382TIP3    H116110   3.428   5.396   3.590 -0.8893 -0.6643  0.1585
 5382TIP3    H216111   3.417   5.430   3.737  0.6398  0.2448  0.0829
 5383TIP3   OH216112   5.317   2.388   2.125 -0.2168  0.2856  1.0082
 5383TIP3    H116113   5.390   2.383   2.186  1.0441  0.1253 -0.4306
 5383TIP3    H216114   5.358   2.375   2.039 -2.2878 -2.5350  0.3165
 5384TIP3   OH216115   0.314   4.877   0.904  0.1947 -0.6107 -0.5843
 5384TIP3    H116116   0.273   4.909   0.823 -0.3210 -0.2715 -0.1925
 5384TIP3    H216117   0.389   4.934   0.917  0.5131 -0.9178 -1.0362
 5385TIP3   OH216118   3.195   6.728   1.785  0.0073 -0.7825  0.0818
 5385TIP3    H116119   3.269   6.789   1.787 -0.6403  0.0104  0.2410
 5385TIP3    H216120   3.150   6.741   1.868 -0.5990 -0.9054 -0.2239
 5386TIP3   OH216121   6.119   2.679   1.651 -0.0433  0.0721  0.3337
 5386TIP3    H116122   6.117   2.717   1.739 -1.6968 -0.3425  0.5041
 5386TIP3    H216123   6.038   2.629   1.644  0.3881 -0.4762 -1.1871
 5387TIP3   OH216124   5.334   2.327   5.903 -0.0403  0.5098  0.0886
 5387TIP3    H116125   5.299   2.238   5.898 -1.6329  1.1386 -0.5505
 5387TIP3    H216126   5.380   2.340   5.821  0.6935  0.0818  0.4289
 5388TIP3   OH216127   3.521   0.927   2.705 -0.1668 -0.3620  0.0211
 5388TIP3    H116128   3.491   0.849   2.751 -2.1976  0.2219 -0.1897
 5388TIP3    H216129   3.472   0.999   2.745 -0.1237  0.4827 -1.3583
 5389TIP3   OH216130   3.689   0.110   1.918 -0.1402 -0.2831  0.1388
 5389TIP3    H116131   3.769   0.162   1.920  0.1154 -0.6739  0.0954
 5389TIP3    H216132   3.620   0.174   1.899  0.1119  0.1099  0.5091
 5390TIP3   OH216133   0.782   2.381   4.481  0.1563 -0.2394  0.3166
 5390TIP3    H116134   0.703   2.398   4.533 -0.6218 -0.6674 -0.6849
 5390TIP3    H216135   0.797   2.287   4.490 -0.2718 -0.4054 -0.6065
 5391TIP3   OH216136   5.399   6.193   3.327 -0.2893  0.3149  0.1784
 5391TIP3    H116137   5.431   6.103   3.331 -0.9290  0.0817  0.1415
 5391TIP3    H216138   5.388   6.219   3.419 -0.1360  0.3512  0.1882
 5392TIP3   OH216139   6.556   5.712   5.505 -0.0795  0.0332 -0.8020
 5392TIP3    H116140   6.544   5.619   5.485 -1.6469  0.5806 -2.7523
 5392TIP3    H216141   6.568   5.715   5.600  2.8859 -2.3725 -0.9687
 5393TIP3   OH216142   2.108   2.329   4.018 -0.3025  0.0491  0.2158
 5393TIP3    H116143   2.197   2.329   4.054 -0.6789  1.1063  1.2100
 5393TIP3    H216144   2.053   2.355   4.091 -1.2049  1.3135 -0.8738
 5394TIP3   OH216145   6.668   6.032   2.073 -0.2752  0.2765 -0.1345
 5394TIP3    H116146   6.728   6.036   1.999 -0.4748  0.8474 -0.2706
 5394TIP3    H216147   6.687   5.948   2.115  1.5972  1.0330  0.6572
 5395TIP3   OH216148   6.095   1.699   5.540  0.6423 -0.1775 -0.5117
 5395TIP3    H116149   6.000   1.715   5.539  0.6354 -0.2568 -1.4546
 5395TIP3    H216150   6.134   1.779   5.506  1.1116  0.8872  2.2310
 5396TIP3   OH216151   6.747   0.640   5.273 -0.4152 -0.0340  0.4574
 5396TIP3    H116152   6.804   0.660   5.199 -2.9280  1.6324 -1.2126
 5396TIP3    H216153   6.763   0.547   5.292  0.6697 -0.3843 -1.8939
 5397TIP3   OH216154   0.684   6.270   1.832  0.0889  0.4636  0.1697
 5397TIP3    H116155   0.630   6.349   1.833 -3.0575 -1.4438 -2.1274
 5397TIP3    H216156   0.625   6.200   1.861  2.0338 -1.4159 -0.1816
 5398TIP3   OH216157   4.878   4.986   5.743  0.0504  0.1187 -0.2836
 5398TIP3    H116158   4.942   4.921   5.714 -1.4224 -0.7629 -1.7684
 5398TIP3    H216159   4.828   4.941   5.811  0.2372  0.3860  0.0332
 5399TIP3   OH216160   2.824   5.689   4.031 -0.1822 -0.1779  0.5125
 5399TIP3    H116161   2.816   5.767   4.087 -0.6930  1.0828 -1.2381
 5399TIP3    H216162   2.894   5.638   4.072  2.6193  2.8331 -0.0619
 5400TIP3   OH216163   0.884   6.168   2.303  0.2222 -0.0739  0.3620
 5400TIP3    H116164   0.859   6.127   2.221  1.1007 -1.0857  0.5739
 5400TIP3    H216165   0.911   6.257   2.278  2.0648 -0.8771 -0.7271
 5401TIP3   OH216166   3.335   4.612   4.373 -0.5103 -0.6591  0.3451
 5401TIP3    H116167   3.406   4.568   4.326 -0.1579  0.4702 -0.2149
 5401TIP3    H216168   3.322   4.559   4.452  0.2788 -1.4307 -0.0251
 5402TIP3   OH216169   3.196   4.590   1.152 -0.1563 -0.3027 -0.0039
 5402TIP3    H116170   3.180   4.676   1.113  3.1277  1.0575  1.2831
 5402TIP3    H216171   3.151   4.592   1.236  1.0727  0.7824  0.6570
 5403TIP3   OH216172   2.282   5.393   4.491 -0.2553 -0.1437  0.6724
 5403TIP3    H116173   2.255   5.343   4.568  1.2246  1.5709  2.4341
 5403TIP3    H216174   2.368   5.358   4.469 -0.4060 -0.2141  0.2000
 5404TIP3   OH216175   5.023   3.955   3.494  0.7436  0.0326 -0.5271
 5404TIP3    H116176   4.965   4.012   3.443  0.4438 -0.7277 -1.0631
 5404TIP3    H216177   5.087   3.922   3.431  1.2632  0.2182 -0.1059
 5405TIP3   OH216178   3.640   3.741   5.716  0.2348 -0.1097  0.0638
 5405TIP3    H116179   3.592   3.683   5.774 -0.1277  0.9859  0.8935
 5405TIP3    H216180   3.578   3.810   5.694  0.4645 -0.3286 -1.3888
 5406TIP3   OH216181   1.556   3.482   3.962  0.1725  0.1569 -0.5126
 5406TIP3    H116182   1.462   3.493   3.977 -0.0830  0.2812 -2.0274
 5406TIP3    H216183   1.597   3.544   4.021 -0.7881  1.3179 -1.0176
 5407TIP3   OH216184   0.195   1.399   5.763  0.0678 -0.0739  0.2366
 5407TIP3    H116185   0.261   1.420   5.697 -0.6374  0.8803 -0.1874
 5407TIP3    H216186   0.236   1.332   5.817  1.1258  0.0157 -0.4244
 5408TIP3   OH216187   3.836   2.239   0.732  0.2445  0.2688 -0.4661
 5408TIP3    H116188   3.750   2.223   0.769  1.0582 -2.2120  0.5287
 5408TIP3    H216189   3.893   2.253   0.808  0.7156  2.3362 -1.1161
 5409TIP3   OH216190   7.109   2.901   0.189 -0.3281 -0.2189 -0.0167
 5409TIP3    H116191   7.018   2.875   0.177 -1.1224  1.7073  1.3985
 5409TIP3    H216192   7.157   2.819   0.192 -2.1205 -1.3138 -0.0094
 5410TIP3   OH216193   1.137   5.119   4.561  0.2529  0.1835  0.3608
 5410TIP3    H116194   1.142   5.162   4.646 -1.7211 -0.9110  1.1037
 5410TIP3    H216195   1.057   5.153   4.522  0.6866  0.0158 -0.6928
 5411TIP3   OH216196   4.133   3.675   3.657  0.0971  0.4065 -0.1559
 5411TIP3    H116197   4.200   3.621   3.617  0.2988 -0.5976  1.4348
 5411TIP3    H216198   4.066   3.613   3.686  0.0156  1.0490  1.1182
 5412TIP3   OH216199   4.221   5.220   4.027 -1.5859  0.0531 -0.2217
 5412TIP3    H116200   4.312   5.251   4.033 -1.5553 -0.0241 -0.2945
 5412TIP3    H216201   4.219   5.141   4.082 -1.2046 -0.8926 -1.5234
 5413TIP3   OH216202   1.703   2.760   0.191 -0.1540  0.0298 -0.1600
 5413TIP3    H116203   1.642   2.710   0.136  1.6465 -0.5799 -1.7106
 5413TIP3    H216204   1.789   2.744   0.152  1.0499  0.7355  2.0326
 5414TIP3   OH216205   6.023   5.796   4.928 -0.2892  0.0670 -0.1004
 5414TIP3    H116206   6.079   5.727   4.964  0.1097 -0.0742 -0.9665
 5414TIP3    H216207   6.008   5.854   5.002 -1.9581 -1.7538  1.0965
 5415TIP3   OH216208   1.921   2.114   3.222  0.0341  0.5570 -0.0436
 5415TIP3    H116209   1.928   2.019   3.220 -1.7984  0.3998 -0.5233
 5415TIP3    H216210   1.999   2.143   3.270  0.9367 -1.1231 -0.4154
 5416TIP3   OH216211   4.036   1.675   2.526  0.3958 -0.3265 -0.2606
 5416TIP3    H116212   4.033   1.592   2.478  2.7620 -0.7886  0.2891
 5416TIP3    H216213   4.116   1.718   2.495 -0.6679  1.6912 -0.3726
 5417TIP3   OH216214   5.231   6.802   2.699 -0.5918  0.6094 -0.6318
 5417TIP3    H116215   5.185   6.773   2.620  1.0970  0.1607 -1.4907
 5417TIP3    H216216   5.193   6.749   2.769 -1.5492  0.4382 -1.2491
 5418TIP3   OH216217   1.956   3.543   4.780 -0.3115  0.1716  0.1724
 5418TIP3    H116218   1.988   3.573   4.695 -0.0330  0.0936  0.2493
 5418TIP3    H216219   2.023   3.482   4.811 -1.5710 -1.7151 -0.6516
 5419TIP3   OH216220   4.527   3.704   3.489 -0.1934  0.0316  0.4693
 5419TIP3    H116221   4.561   3.732   3.574 -0.5735  0.1969  0.5668
 5419TIP3    H216222   4.459   3.640   3.509  0.2087 -0.4625  0.2671
 5420TIP3   OH216223   4.110   5.254   0.551 -0.4200  0.0606 -0.6737
 5420TIP3    H116224   4.054   5.179   0.529 -0.1550  0.3744 -2.5835
 5420TIP3    H216225   4.174   5.258   0.481  0.7884  0.9251  0.4336
 5421TIP3   OH216226   0.434   1.841   3.863 -0.0865  0.3117 -0.0480
 5421TIP3    H116227   0.414   1.921   3.912  0.5522  0.9720 -0.8393
 5421TIP3    H216228   0.493   1.869   3.793 -0.7811 -0.6501 -1.0641
 5422TIP3   OH216229   1.147   2.645   4.051 -0.1180 -0.0200 -0.3339
 5422TIP3    H116230   1.111   2.560   4.076 -1.0862 -0.0644 -1.7654
 5422TIP3    H216231   1.115   2.706   4.117 -0.3738 -0.5809  0.0590
 5423TIP3   OH216232   3.415   6.107   4.350 -0.1735 -0.2085  0.0952
 5423TIP3    H116233   3.336   6.058   4.327 -1.5484  0.7459  2.4338
 5423TIP3    H216234   3.386   6.198   4.356  0.2240 -0.1540  3.8880
 5424TIP3   OH216235   5.750   0.371   3.003 -0.2407  0.1518  0.1827
 5424TIP3    H116236   5.681   0.431   3.033 -0.1764  0.2737  0.0854
 5424TIP3    H216237   5.823   0.428   2.981 -1.0964  0.3238 -2.6217
 5425TIP3   OH216238   4.359   2.294   1.332  0.1198 -0.3223 -0.6785
 5425TIP3    H116239   4.304   2.228   1.290 -0.1205  0.1243 -1.0726
 5425TIP3    H216240   4.317   2.311   1.416 -1.0493  0.9067 -1.4843
 5426TIP3   OH216241   5.987   0.775   5.122 -0.4081 -0.2019  0.5462
 5426TIP3    H116242   6.014   0.808   5.036 -1.7939 -1.9961 -0.6423
 5426TIP3    H216243   5.910   0.828   5.144 -2.9369 -2.6063 -1.5897
 5427TIP3   OH216244   4.439   5.590   2.377 -0.4398  0.2321 -0.0454
 5427TIP3    H116245   4.344   5.583   2.387 -0.5238  1.6331  0.3410
 5427TIP3    H216246   4.473   5.583   2.466 -0.0844 -1.2234 -0.2739
 5428TIP3   OH216247   7.041   1.854   3.025  0.0789  0.0732  0.6820
 5428TIP3    H116248   7.073   1.857   3.115 -0.9942 -0.4399  1.0859
 5428TIP3    H216249   7.026   1.761   3.008 -0.4423  0.2378  0.2289
 5429TIP3   OH216250   2.418   6.777   2.894 -0.0563 -0.4515  0.0806
 5429TIP3    H116251   2.503   6.786   2.936  0.0934 -0.8431 -0.1369
 5429TIP3    H216252   2.390   6.688   2.916 -0.3343 -0.3797  0.0177
 5430TIP3   OH216253   2.072   6.761   2.421  0.6065 -0.1241 -0.1322
 5430TIP3    H116254   1.985   6.759   2.460 -0.0441 -1.5277 -1.5254
 5430TIP3    H216255   2.131   6.782   2.493 -0.6970 -1.0199  1.2416
 5431TIP3   OH216256   3.982   0.537   1.062 -0.2383  0.3785  0.1551
 5431TIP3    H116257   3.972   0.479   1.138 -0.3599  0.9696  0.5952
 5431TIP3    H216258   3.929   0.496   0.994 -1.2541  0.5742  0.8058
 5432TIP3   OH216259   3.746   3.699   3.044 -0.0273  0.1067  0.2805
 5432TIP3    H116260   3.681   3.636   3.074  0.0861  0.1886  0.7044
 5432TIP3    H216261   3.775   3.743   3.123  1.1406 -0.4973  0.2073
 5433TIP3   OH216262   6.197   6.390   2.931  0.5551  0.3374  0.7172
 5433TIP3    H116263   6.159   6.342   2.858  0.2395  0.0273  1.0766
 5433TIP3    H216264   6.281   6.348   2.947  0.4586  0.1624  0.7702
 5434TIP3   OH216265   2.412   5.518   3.655  0.5078 -0.3305  0.1099
 5434TIP3    H116266   2.397   5.587   3.719 -0.3441 -1.2272  0.9033
 5434TIP3    H216267   2.504   5.528   3.630  0.5680  0.6667  0.7042
 5435TIP3   OH216268   6.002   1.662   4.058  0.4209  0.0318 -0.0336
 5435TIP3    H116269   6.068   1.732   4.058  0.1807  0.2580  0.0643
 5435TIP3    H216270   6.010   1.622   4.145  1.2412 -0.7111 -0.4379
 5436TIP3   OH216271   2.591   1.868   2.821  0.4853  0.6864  0.6078
 5436TIP3    H116272   2.566   1.959   2.805 -1.4085  0.0520 -0.3902
 5436TIP3    H216273   2.573   1.854   2.914 -1.9287  0.6390  0.2173
 5437TIP3   OH216274   2.600   4.280   0.293 -0.5653 -0.3551  0.0159
 5437TIP3    H116275   2.652   4.359   0.278  1.2617 -1.1780  1.6359
 5437TIP3    H216276   2.629   4.218   0.227 -0.9657 -0.1749 -0.3391
 5438TIP3   OH216277   2.498   1.283   3.510  0.6391 -0.2731  0.2720
 5438TIP3    H116278   2.466   1.231   3.437 -1.1091  0.1110  0.7129
 5438TIP3    H216279   2.541   1.220   3.568 -2.1389 -1.4970  1.2116
 5439TIP3   OH216280   5.246   2.155   3.213  0.4533 -0.1632 -0.3704
 5439TIP3    H116281   5.279   2.185   3.129  1.0978 -0.0411 -0.0811
 5439TIP3    H216282   5.185   2.224   3.240 -0.3130 -0.5537 -1.0594
 5440TIP3   OH216283   2.431   6.445   1.562 -0.0815 -0.0734 -0.1011
 5440TIP3    H116284   2.432   6.484   1.475 -1.1591  2.4682  0.9261
 5440TIP3    H216285   2.341   6.417   1.575 -0.1597  0.4620  0.5474
 5441TIP3   OH216286   1.504   5.217   2.014 -0.0081  0.0608 -0.0240
 5441TIP3    H116287   1.478   5.310   2.013 -0.2213 -0.0004 -0.6155
 5441TIP3    H216288   1.516   5.197   2.107 -1.9757  0.1365  0.2897
 5442TIP3   OH216289   0.680   6.269   4.952  0.6299 -0.1433  0.4862
 5442TIP3    H116290   0.700   6.359   4.926  0.8446 -0.2342  0.3304
 5442TIP3    H216291   0.670   6.273   5.047 -2.1571  0.5721  0.2360
 5443TIP3   OH216292   1.920   0.654   2.676  0.5899  0.2130 -0.6528
 5443TIP3    H116293   1.928   0.677   2.583  1.1705  0.0992 -0.6353
 5443TIP3    H216294   1.890   0.563   2.676  2.9363 -0.6239 -0.7658
 5444TIP3   OH216295   1.807   0.996   4.467 -0.3261  0.5796  0.4234
 5444TIP3    H116296   1.770   1.054   4.401 -1.0276  2.0256  1.9990
 5444TIP3    H216297   1.735   0.938   4.491  0.2564 -0.7263 -0.8505
 5445TIP3   OH216298   6.487   6.767   2.253  0.4627  0.2724  0.7163
 5445TIP3    H116299   6.440   6.721   2.183 -1.4915  1.2137  1.3157
 5445TIP3    H216300   6.568   6.796   2.213 -1.0051  1.5923 -1.4910
 5446TIP3   OH216301   6.466   6.585   0.381 -0.0111  0.3893  0.2537
 5446TIP3    H116302   6.562   6.581   0.377 -0.0724 -0.2029 -2.0045
 5446TIP3    H216303   6.447   6.674   0.410  1.2067  0.3615  1.2427
 5447TIP3   OH216304   6.344   4.448   5.048  0.4656 -0.3173 -0.2761
 5447TIP3    H116305   6.291   4.387   5.099  0.3379 -0.4072 -0.5165
 5447TIP3    H216306   6.391   4.499   5.114 -0.2030  0.0195 -0.0525
 5448TIP3   OH216307   0.296   2.677   5.674  0.0013  0.0296  0.3158
 5448TIP3    H116308   0.208   2.713   5.664 -0.6039 -0.7157  2.3858
 5448TIP3    H216309   0.295   2.596   5.622 -0.9653 -0.6082  1.2913
 5449TIP3   OH216310   5.979   6.011   2.823  0.5192  0.3184 -0.2471
 5449TIP3    H116311   5.963   5.977   2.911 -0.8226  0.5144 -0.3975
 5449TIP3    H216312   5.892   6.026   2.787  1.0197 -0.8248 -2.0374
 5450TIP3   OH216313   4.195   0.051   4.423  0.0939 -0.1901  0.4699
 5450TIP3    H116314   4.217   0.090   4.508  0.4442  1.2617 -0.2608
 5450TIP3    H216315   4.130  -0.016   4.444 -0.3904  0.6548  1.8144
 5451TIP3   OH216316   5.676   2.315   5.101  0.4769  0.0475  0.4998
 5451TIP3    H116317   5.693   2.399   5.058  1.6502  0.4836  1.7262
 5451TIP3    H216318   5.636   2.261   5.033  0.5651  1.2916 -0.5937
 5452TIP3   OH216319   1.241   3.650   0.850  0.3810 -0.5251 -0.3885
 5452TIP3    H116320   1.321   3.599   0.839  0.2635 -0.8375  0.1878
 5452TIP3    H216321   1.178   3.589   0.885  0.0285 -0.1522 -0.3624
 5453TIP3   OH216322   4.814   2.841   5.654  0.1220  0.4444 -0.2828
 5453TIP3    H116323   4.853   2.793   5.727  2.4169  0.5686 -1.3292
 5453TIP3    H216324   4.864   2.923   5.650 -0.8353  1.0111 -1.2041
 5454TIP3   OH216325   1.947   1.897   2.254 -0.3130  0.0210  0.7736
 5454TIP3    H116326   1.998   1.978   2.256  1.5973 -1.0911  0.1803
 5454TIP3    H216327   1.950   1.866   2.345 -2.4011  1.3307  1.3638
 5455TIP3   OH216328   1.704   1.362   5.377  0.5496  0.4288  0.6322
 5455TIP3    H116329   1.619   1.320   5.373  0.4197  0.7552 -0.3543
 5455TIP3    H216330   1.694   1.443   5.327  1.8049 -0.2146 -0.7485
 5456TIP3   OH216331   6.601   3.489   3.182  0.2009 -0.3362  0.1454
 5456TIP3    H116332   6.636   3.559   3.128  0.2784 -0.0134  0.6152
 5456TIP3    H216333   6.509   3.513   3.197 -0.4221 -1.4589 -1.5526
 5457TIP3   OH216334   3.347   3.061   0.079 -0.1572  0.0810  0.3162
 5457TIP3    H116335   3.304   3.069   0.164 -1.4794  0.7770 -0.3853
 5457TIP3    H216336   3.403   3.138   0.073 -1.4731  1.0566 -0.1685
 5458TIP3   OH216337   1.815   2.111   3.518 -0.1620 -0.0123  0.6614
 5458TIP3    H116338   1.820   2.188   3.576 -0.4717  0.1799  0.4372
 5458TIP3    H216339   1.901   2.108   3.475 -0.5400  0.8907 -0.1834
 5459TIP3   OH216340   6.337   0.813   4.686 -0.1450 -0.0570  0.6308
 5459TIP3    H116341   6.375   0.880   4.743  3.5424 -1.5147  0.1608
 5459TIP3    H216342   6.349   0.848   4.597  1.3310 -1.0562  0.4130
 5460TIP3   OH216343   3.045   2.738   3.956 -0.0115 -0.1426 -0.4410
 5460TIP3    H116344   2.953   2.723   3.933 -0.8525  2.5678  0.6986
 5460TIP3    H216345   3.057   2.833   3.946  3.1174 -0.5740 -1.9638
 5461TIP3   OH216346   7.077   2.259   0.820  0.5426  0.6678 -0.6572
 5461TIP3    H116347   7.170   2.255   0.800  0.8026  0.7201  0.5076
 5461TIP3    H216348   7.066   2.337   0.874  0.1021 -0.1843  0.5481
 5462TIP3   OH216349   0.056   0.092   2.794  0.5419 -0.2409  0.0453
 5462TIP3    H116350   0.106   0.162   2.753  0.8827 -0.7207 -0.3676
 5462TIP3    H216351   0.066   0.018   2.735  0.2671 -0.6700  0.5316
 5463TIP3   OH216352   0.755   3.773   3.104 -0.4311  0.4339 -0.1400
 5463TIP3    H116353   0.797   3.764   3.189  2.4217 -0.0238 -1.4606
 5463TIP3    H216354   0.715   3.861   3.106  0.0921  0.6608  1.4357
 5464TIP3   OH216355   3.891   0.865   4.140 -0.7632 -0.1380  0.6243
 5464TIP3    H116356   3.802   0.877   4.107 -0.8228 -0.5935  0.6114
 5464TIP3    H216357   3.933   0.950   4.125 -1.4176  0.3263  1.3477
 5465TIP3   OH216358   3.253   5.381   4.061  0.1276  0.4776 -0.1697
 5465TIP3    H116359   3.302   5.377   3.979 -0.6069  2.4757 -0.7667
 5465TIP3    H216360   3.194   5.306   4.057 -0.3808  0.9202 -1.7958
 5466TIP3   OH216361   4.550   4.487   5.685  0.0296 -0.2652  0.0846
 5466TIP3    H116362   4.527   4.467   5.775  0.2634  1.3934  0.5397
 5466TIP3    H216363   4.554   4.402   5.642 -0.1681 -1.0793  1.6103
 5467TIP3   OH216364   2.762   5.702   4.467 -0.4547  0.1662  0.3261
 5467TIP3    H116365   2.781   5.771   4.531 -1.7309  0.3925  0.5081
 5467TIP3    H216366   2.824   5.716   4.396 -0.0901  0.9351  0.7853
 5468TIP3   OH216367   1.376   2.500   2.089  0.1726 -0.0126 -0.3219
 5468TIP3    H116368   1.351   2.487   2.181  0.5805  0.6898 -0.1037
 5468TIP3    H216369   1.308   2.455   2.039  0.2743 -0.9426  0.3371
 5469TIP3   OH216370   6.023   3.809   2.246  0.3158 -0.4677  0.1222
 5469TIP3    H116371   6.022   3.905   2.244  3.3535 -0.2750  1.8982
 5469TIP3    H216372   5.986   3.786   2.331 -0.8234 -0.9508 -0.4799
 5470TIP3   OH216373   5.986   1.048   1.183 -0.6623 -0.4880  0.1575
 5470TIP3    H116374   5.928   1.056   1.107 -0.8325 -0.1493  0.3207
 5470TIP3    H216375   5.949   1.108   1.248  0.1253  0.0602  0.1079
 5471TIP3   OH216376   4.639   1.042   1.134 -0.1071 -0.1898  0.0867
 5471TIP3    H116377   4.669   1.083   1.216  0.0910 -1.7917  0.8629
 5471TIP3    H216378   4.544   1.057   1.133 -0.1816 -0.5426  0.8698
 5472TIP3   OH216379   6.807   5.901   3.683  0.5223  0.2585 -0.0741
 5472TIP3    H116380   6.858   5.895   3.603 -0.4060  0.8559 -0.7433
 5472TIP3    H216381   6.753   5.979   3.671 -0.2865 -0.1484  0.7487
 5473TIP3   OH216382   2.424   1.125   4.978 -0.1776 -0.1572  0.6765
 5473TIP3    H116383   2.400   1.177   4.901  1.1472 -1.0604 -0.3946
 5473TIP3    H216384   2.495   1.176   5.020  0.1150 -0.3816  0.4564
 5474TIP3   OH216385   3.528   0.180   5.260 -0.1192 -0.8357 -0.6937
 5474TIP3    H116386   3.599   0.216   5.314 -1.5580  0.9836  0.0964
 5474TIP3    H216387   3.564   0.179   5.172  0.5552  1.1570 -0.5021
 5475TIP3   OH216388   5.828   0.290   0.861  0.3316 -0.1421  0.3657
 5475TIP3    H116389   5.819   0.356   0.930 -1.8252 -1.4468  1.4203
 5475TIP3    H216390   5.790   0.331   0.783 -0.2708  0.1608  0.8110
 5476TIP3   OH216391   2.902   4.698   1.360  0.1092  0.5537 -0.2809
 5476TIP3    H116392   2.993   4.682   1.384  0.1197  0.8680 -0.1169
 5476TIP3    H216393   2.879   4.623   1.305  0.3918  0.3517 -0.1252
 5477TIP3   OH216394   3.093   1.658   1.425  0.1971  0.0312 -0.3658
 5477TIP3    H116395   3.167   1.615   1.382 -0.1785 -0.8148 -0.1880
 5477TIP3    H216396   3.062   1.594   1.489 -0.7691  0.3231 -0.5215
 5478TIP3   OH216397   4.492   5.875   5.364  0.6598  0.0847  0.1247
 5478TIP3    H116398   4.427   5.926   5.412  3.5210  1.3181  3.0581
 5478TIP3    H216399   4.529   5.937   5.301 -0.5251 -0.4358 -1.1087
 5479TIP3   OH216400   2.244   6.259   5.340 -0.7969  0.4281 -0.0276
 5479TIP3    H116401   2.168   6.255   5.282  0.7176  0.6857 -2.1825
 5479TIP3    H216402   2.306   6.196   5.302  0.3473  0.7393  1.2446
 5480TIP3   OH216403   1.733   1.217   4.115 -0.0316  0.1448 -0.1372
 5480TIP3    H116404   1.686   1.277   4.056 -0.3619 -0.8335 -0.8900
 5480TIP3    H216405   1.666   1.159   4.149  0.4117 -0.3406 -0.0851
 5481TIP3   OH216406   4.150   3.604   2.603  0.2955  0.5955 -0.7815
 5481TIP3    H116407   4.186   3.575   2.519  2.4840  1.0279 -0.0414
 5481TIP3    H216408   4.090   3.534   2.628  0.9048 -0.3667 -1.8955
 5482TIP3   OH216409   5.534   0.320   0.345 -0.1603  0.0807 -0.0453
 5482TIP3    H116410   5.531   0.225   0.334 -1.0840  0.0263  0.5693
 5482TIP3    H216411   5.564   0.334   0.435 -1.9582  0.3004  0.5690
 5483TIP3   OH216412   3.745   2.211   1.413 -0.3044  0.0481  0.0157
 5483TIP3    H116413   3.814   2.243   1.355 -0.8654  1.9161  0.3275
 5483TIP3    H216414   3.700   2.143   1.361  1.6675 -1.1586 -0.2121
 5484TIP3   OH216415   5.492   1.427   2.117 -0.1316 -0.2857 -0.1364
 5484TIP3    H116416   5.468   1.514   2.149  2.7659  0.7274 -0.4620
 5484TIP3    H216417   5.497   1.438   2.022 -1.7024 -1.4036 -0.3938
 5485TIP3   OH216418   3.671   3.433   1.679  0.1282 -0.1800  0.8518
 5485TIP3    H116419   3.581   3.463   1.697  0.5178  1.7678 -0.1647
 5485TIP3    H216420   3.722   3.513   1.675  1.5123 -1.0800 -0.7758
 5486TIP3   OH216421   2.187   5.745   1.616 -0.4811 -0.6119  0.3338
 5486TIP3    H116422   2.197   5.793   1.534 -0.3168 -0.3701  0.4932
 5486TIP3    H216423   2.149   5.809   1.677 -1.8488 -1.1589  0.0838
 5487TIP3   OH216424   2.288   5.155   4.027  0.0945 -0.1814  0.3638
 5487TIP3    H116425   2.294   5.208   3.947  0.5363  1.0010  1.1441
 5487TIP3    H216426   2.205   5.180   4.066  1.5254  2.1591  2.1760
 5488TIP3   OH216427   6.710   6.143   2.326  0.0965 -0.0566  0.7294
 5488TIP3    H116428   6.670   6.094   2.255  1.0913  0.1446  0.0100
 5488TIP3    H216429   6.773   6.201   2.284 -1.8337  2.7470  1.4278
 5489TIP3   OH216430   5.657   1.459   3.306  0.0179  0.5362  0.2821
 5489TIP3    H116431   5.588   1.453   3.372 -0.0061  0.2510  0.2309
 5489TIP3    H216432   5.645   1.382   3.251  0.4031  0.4618  0.2998
 5490TIP3   OH216433   0.391   3.562   3.811 -0.3506 -0.5166  0.1330
 5490TIP3    H116434   0.308   3.521   3.832 -0.8932 -0.6528 -2.0875
 5490TIP3    H216435   0.369   3.630   3.748  1.2149 -0.4877 -0.4271
 5491TIP3   OH216436   2.250   3.949   3.669  0.0559  0.1063 -0.7550
 5491TIP3    H116437   2.187   3.942   3.597  0.9410 -0.1208 -1.5125
 5491TIP3    H216438   2.196   3.935   3.748 -0.7539 -0.6604 -1.4140
 5492TIP3   OH216439   7.022   5.648   0.765  0.1866  0.0446  0.4133
 5492TIP3    H116440   6.980   5.722   0.720 -2.0635 -2.5876 -2.3072
 5492TIP3    H216441   6.953   5.613   0.822  0.5121 -1.1064  0.1219
 5493TIP3   OH216442   6.641   0.419   3.890  0.1106 -0.4412 -0.4500
 5493TIP3    H116443   6.613   0.335   3.852 -0.1069 -0.4612 -0.2509
 5493TIP3    H216444   6.737   0.415   3.890  0.1060 -0.5378 -0.7777
 5494TIP3   OH216445   1.897   5.898   1.337  0.0774 -0.1670  0.5364
 5494TIP3    H116446   1.929   5.944   1.259 -1.2162 -1.1096 -0.6049
 5494TIP3    H216447   1.910   5.960   1.409  2.2041  0.3683 -0.2333
 5495TIP3   OH216448   6.653   5.153   5.135  0.4341  0.1369  0.1404
 5495TIP3    H116449   6.563   5.181   5.148  0.7517  1.6223 -0.6584
 5495TIP3    H216450   6.700   5.186   5.212  0.1843 -1.3374  0.9645
 5496TIP3   OH216451   2.318   1.457   0.057  0.4060 -0.1908  0.1466
 5496TIP3    H116452   2.271   1.381   0.022 -1.2417  0.5105  0.7369
 5496TIP3    H216453   2.249   1.515   0.089  1.7419  0.3037  2.3135
 5497TIP3   OH216454   0.872   4.994   1.403 -0.2279 -0.3511  0.1779
 5497TIP3    H116455   0.879   4.898   1.406 -0.3273 -0.3401  0.9726
 5497TIP3    H216456   0.893   5.022   1.492 -0.5544  0.3459  0.0402
 5498TIP3   OH216457   1.007   4.226   2.127 -0.7218 -0.0872  0.1241
 5498TIP3    H116458   1.013   4.308   2.176 -0.5165  0.2507 -0.4634
 5498TIP3    H216459   1.073   4.234   2.058 -1.2865 -0.3940 -0.4611
 5499TIP3   OH216460   7.103   4.230   1.763  0.0762  0.4059  0.0001
 5499TIP3    H116461   7.011   4.230   1.734  0.0539  2.2772 -0.0856
 5499TIP3    H216462   7.147   4.286   1.699  1.0688  0.3858  0.6630
 5500TIP3   OH216463   5.509   6.606   0.948  0.0352  0.6842  0.0747
 5500TIP3    H116464   5.456   6.526   0.952 -1.2973  1.5077 -0.7311
 5500TIP3    H216465   5.508   6.631   0.856  1.2853  1.1004  0.1567
 5501TIP3   OH216466   5.080   3.677   0.132  0.0643 -0.1051 -0.7053
 5501TIP3    H116467   5.075   3.709   0.042  1.9506 -0.1866 -0.8823
 5501TIP3    H216468   5.165   3.633   0.137 -0.6144 -1.3456  0.7342
 5502TIP3   OH216469   2.865   3.129   4.083 -0.1538 -0.6058  0.1722
 5502TIP3    H116470   2.831   3.042   4.102  0.6226 -0.9098  0.2140
 5502TIP3    H216471   2.893   3.124   3.991  0.9200 -0.7581  0.4910
 5503TIP3   OH216472   0.841   4.590   4.915  0.4558 -0.3965 -0.3704
 5503TIP3    H116473   0.885   4.505   4.918  0.0315 -0.5854  0.9722
 5503TIP3    H216474   0.896   4.648   4.967  0.9499  0.2739 -1.6046
 5504TIP3   OH216475   4.994   0.273   2.121 -0.3952  0.3125 -0.3851
 5504TIP3    H116476   4.913   0.253   2.074  0.5502 -0.1506 -1.9082
 5504TIP3    H216477   4.969   0.271   2.213 -1.8160 -1.3150 -0.7372
 5505TIP3   OH216478   5.041   6.318   1.874  0.0111 -0.6816 -0.0971
 5505TIP3    H116479   5.104   6.380   1.839  0.2676 -1.5441 -1.2121
 5505TIP3    H216480   5.001   6.363   1.948  0.0487  0.8666 -0.9922
 5506TIP3   OH216481   6.205   4.909   0.544  0.8587 -0.0782 -0.1759
 5506TIP3    H116482   6.182   5.001   0.532  0.9812 -0.1904 -1.4060
 5506TIP3    H216483   6.297   4.904   0.519  0.4722 -0.7757 -1.5809
 5507TIP3   OH216484   3.519   5.979   3.264 -0.1176 -0.2870 -0.0249
 5507TIP3    H116485   3.484   6.050   3.211  0.3162 -1.5566 -2.1249
 5507TIP3    H216486   3.462   5.976   3.341 -0.3261  2.0926 -0.0292
 5508TIP3   OH216487   7.013   2.805   5.470 -0.3780  0.3800 -0.1055
 5508TIP3    H116488   6.989   2.893   5.499  0.1284  1.1013 -1.7485
 5508TIP3    H216489   6.944   2.749   5.503 -0.4566  1.3146  1.3936
 5509TIP3   OH216490   6.851   5.439   3.878  0.0692 -0.2181  0.3497
 5509TIP3    H116491   6.834   5.451   3.784 -1.6129 -4.8980 -0.2305
 5509TIP3    H216492   6.792   5.500   3.921 -0.0171  1.1733 -1.6012
 5510TIP3   OH216493   6.400   2.608   2.598  0.1473  0.1682  0.7667
 5510TIP3    H116494   6.318   2.603   2.648  0.0079  3.1100  0.9972
 5510TIP3    H216495   6.435   2.519   2.601 -3.4600 -1.5036 -0.1622
 5511TIP3   OH216496   1.049   1.085   1.770  0.4298 -0.0730  0.1163
 5511TIP3    H116497   1.130   1.134   1.784  0.5028  0.2662 -1.3476
 5511TIP3    H216498   0.983   1.131   1.822  0.8320  0.6054  0.0265
 5512TIP3   OH216499   2.465   4.153   2.127  0.3742 -0.0922  0.4339
 5512TIP3    H116500   2.524   4.226   2.111  0.6838 -0.2474  0.8435
 5512TIP3    H216501   2.497   4.113   2.208 -0.5023  0.0409  0.8646
 5513TIP3   OH216502   2.540   4.834   1.473  0.0430  0.3921 -0.1352
 5513TIP3    H116503   2.447   4.853   1.470  0.1595  1.3898  1.4323
 5513TIP3    H216504   2.578   4.885   1.402 -0.3986  1.3920  0.3332
 5514TIP3   OH216505   4.765   0.164   0.190 -0.3396  0.0012 -0.4237
 5514TIP3    H116506   4.793   0.104   0.121  0.8023  0.2394 -0.1898
 5514TIP3    H216507   4.831   0.153   0.259 -1.0010  0.3668  0.2843
 5515TIP3   OH216508   0.780   3.989   1.517 -0.4095  0.0946  0.6138
 5515TIP3    H116509   0.837   4.029   1.451 -0.5169 -0.4248  0.1962
 5515TIP3    H216510   0.840   3.954   1.583 -0.2874  0.3588  0.6419
 5516TIP3   OH216511   6.783   0.715   2.323 -0.6144 -0.1804  0.1798
 5516TIP3    H116512   6.774   0.735   2.230  0.4788 -1.5982 -0.2607
 5516TIP3    H216513   6.697   0.682   2.349 -1.5441  2.0598  0.2123
 5517TIP3   OH216514   5.046   6.149   4.445  0.4101 -0.3579 -0.3065
 5517TIP3    H116515   5.056   6.134   4.351  2.6379 -0.2971 -0.1194
 5517TIP3    H216516   5.094   6.077   4.486  1.1425  0.7033  0.7557
 5518TIP3   OH216517   3.349   3.674   0.800 -0.5029  0.1180  0.2267
 5518TIP3    H116518   3.278   3.657   0.861 -0.2465  1.5244  0.9479
 5518TIP3    H216519   3.392   3.589   0.790 -1.2071 -0.3700  1.1519
 5519TIP3   OH216520   6.233   4.576   1.642  0.3688  0.0455 -0.3041
 5519TIP3    H116521   6.272   4.526   1.714 -0.5123 -0.7670 -0.3705
 5519TIP3    H216522   6.309   4.609   1.592  0.9752 -0.3617  0.3257
 5520TIP3   OH216523   6.322   4.947   1.417 -0.6299  0.1434 -0.2551
 5520TIP3    H116524   6.328   4.902   1.333  1.0755  3.0307 -1.8759
 5520TIP3    H216525   6.408   4.932   1.458  0.1610  2.1664 -1.0557
 5521TIP3   OH216526   4.366   0.573   4.619 -0.0541  0.3993 -0.0394
 5521TIP3    H116527   4.331   0.601   4.703  0.5506 -1.3901  0.8565
 5521TIP3    H216528   4.289   0.563   4.562 -0.4675  1.5755  0.2953
 5522TIP3   OH216529   6.971   1.743   3.683  0.5126 -0.0525  0.4762
 5522TIP3    H116530   6.960   1.648   3.684 -0.1775 -0.0359 -1.5367
 5522TIP3    H216531   7.065   1.756   3.668  0.5051 -0.4308  0.0904
 5523TIP3   OH216532   7.003   1.198   4.691  0.2315  0.5006  0.0775
 5523TIP3    H116533   6.958   1.283   4.692 -1.1036 -0.1733  0.8254
 5523TIP3    H216534   6.992   1.164   4.780 -1.8546 -1.7165 -0.8949
 5524TIP3   OH216535   2.590   3.585   4.722 -0.0659  0.3253 -0.4165
 5524TIP3    H116536   2.679   3.560   4.749  0.3953  1.2854 -0.9870
 5524TIP3    H216537   2.586   3.679   4.737 -2.2504 -0.1841  3.0092
 5525TIP3   OH216538   4.379   1.195   2.179  0.1630  0.3240 -0.3035
 5525TIP3    H116539   4.385   1.285   2.209 -0.5665  0.3383 -0.1642
 5525TIP3    H216540   4.347   1.201   2.089 -1.3190  0.1780  0.1852
 5526TIP3   OH216541   0.057   2.861   4.576 -0.0263  0.0397 -0.2654
 5526TIP3    H116542   0.145   2.858   4.613  0.1920 -0.2590 -0.8080
 5526TIP3    H216543   0.012   2.927   4.629  0.1230 -0.7448  0.8758
 5527TIP3   OH216544   4.487   0.695   2.138  0.4265  0.0535  0.3232
 5527TIP3    H116545   4.543   0.618   2.147 -0.3726 -0.6105 -0.2242
 5527TIP3    H216546   4.481   0.710   2.044 -1.5189 -0.8175  0.2566
 5528TIP3   OH216547   1.527   3.452   1.447 -0.3632  0.5550  0.1307
 5528TIP3    H116548   1.571   3.403   1.377 -0.1989  0.1493  0.5135
 5528TIP3    H216549   1.435   3.451   1.422 -0.3035  0.4383 -0.0948
 5529TIP3   OH216550   0.816   1.349   2.473 -0.4667  0.5970  0.7882
 5529TIP3    H116551   0.760   1.325   2.399  0.8551 -0.6365  0.1354
 5529TIP3    H216552   0.812   1.274   2.532  1.7725 -0.3299 -0.0986
 5530TIP3   OH216553   3.652   2.043   0.839  0.6501  0.2798 -0.1071
 5530TIP3    H116554   3.623   2.018   0.926 -3.9561 -0.8172 -1.6447
 5530TIP3    H216555   3.676   1.961   0.796  1.4043  0.6201 -0.3587
 5531TIP3   OH216556   4.332   1.529   1.982  0.7593  0.2933 -0.4075
 5531TIP3    H116557   4.244   1.557   2.009  0.9029  0.6396 -0.2921
 5531TIP3    H216558   4.354   1.588   1.910  0.1135 -1.0303 -1.7548
 5532TIP3   OH216559   1.926   3.697   3.813 -0.5680 -0.8296  0.6112
 5532TIP3    H116560   1.980   3.774   3.796 -0.4880 -0.8336  0.8489
 5532TIP3    H216561   1.986   3.631   3.846 -0.7291 -0.8054  0.9613
 5533TIP3   OH216562   3.918   6.351   3.810  0.0341 -0.0398  0.7956
 5533TIP3    H116563   3.889   6.331   3.721  0.5835 -1.4269  0.9024
 5533TIP3    H216564   3.856   6.417   3.842  0.3973  1.2192 -0.9459
 5534TIP3   OH216565   4.921   1.041   3.191  0.1752 -0.0324 -0.2431
 5534TIP3    H116566   4.931   1.127   3.233  3.6504 -0.0170 -0.7491
 5534TIP3    H216567   4.839   1.047   3.143 -1.1982  1.8967  2.1116
 5535TIP3   OH216568   1.952   4.384   3.806  0.0653  0.4044 -0.6445
 5535TIP3    H116569   1.861   4.358   3.822  1.0263 -0.8075  4.6585
 5535TIP3    H216570   1.977   4.434   3.883  4.1003  0.3185 -1.6630
 5536TIP3   OH216571   4.356   2.097   2.009 -0.6080  0.1713  0.2015
 5536TIP3    H116572   4.296   2.149   1.957 -1.6858 -2.3042 -1.2325
 5536TIP3    H216573   4.441   2.108   1.967 -1.0266  0.0113 -0.7127
 5537TIP3   OH216574   4.501   3.486   2.766 -0.0088  0.3070 -0.5955
 5537TIP3    H116575   4.491   3.490   2.861  1.2617  0.6310 -0.4613
 5537TIP3    H216576   4.416   3.514   2.731 -0.5453 -0.0106  0.4371
 5538TIP3   OH216577   2.325   2.281   1.162 -0.1691 -0.3053  0.1213
 5538TIP3    H116578   2.356   2.276   1.252  1.9234  0.9609 -0.4610
 5538TIP3    H216579   2.391   2.235   1.111 -1.1283 -0.6845 -0.8269
 5539TIP3   OH216580   2.146   3.023   2.342  0.1933 -0.2568  0.2630
 5539TIP3    H116581   2.185   3.105   2.312 -0.1835 -0.2414 -0.2029
 5539TIP3    H216582   2.052   3.036   2.331  0.1219 -0.6834  0.3565
 5540TIP3   OH216583   5.083   2.181   5.030  0.0315  0.3073  0.5055
 5540TIP3    H116584   5.081   2.144   5.119  1.2640 -1.1795 -0.0311
 5540TIP3    H216585   5.000   2.155   4.992 -0.2127  0.3475  1.0021
 5541TIP3   OH216586   2.107   4.496   0.862 -0.5241  0.2872 -0.3992
 5541TIP3    H116587   2.145   4.409   0.871  1.1289  0.8333 -1.6138
 5541TIP3    H216588   2.016   4.480   0.837 -0.6310 -1.0639  0.7183
 5542TIP3   OH216589   2.532   2.130   2.771 -0.2147 -0.4454 -0.1400
 5542TIP3    H116590   2.611   2.175   2.740  1.1204 -2.3843  0.2556
 5542TIP3    H216591   2.506   2.178   2.850  0.3745  0.3864 -0.4350
 5543TIP3   OH216592   0.080   0.808   2.767 -0.0188  0.9487 -0.3704
 5543TIP3    H116593   0.162   0.813   2.815 -0.3171  1.5090  0.0968
 5543TIP3    H216594   0.022   0.870   2.811 -0.0241  2.1917 -2.0348
 5544TIP3   OH216595   1.733   0.198   5.659 -0.2351 -0.5664 -0.6316
 5544TIP3    H116596   1.773   0.192   5.572 -0.2388  3.4974 -1.0827
 5544TIP3    H216597   1.807   0.206   5.719 -0.1654  2.2327 -0.9702
 5545TIP3   OH216598   5.414   1.883   5.202  0.2227  0.2339 -0.0330
 5545TIP3    H116599   5.472   1.808   5.216 -1.4176 -0.6889  2.6709
 5545TIP3    H216600   5.331   1.843   5.176 -0.2092  1.2639 -0.2477
 5546TIP3   OH216601   4.083   4.104   3.747 -0.1032 -0.1507  0.1207
 5546TIP3    H116602   4.108   4.027   3.697 -0.2516 -0.1833  0.0938
 5546TIP3    H216603   4.085   4.075   3.838 -1.4917 -0.5901  0.0373
 5547TIP3   OH216604   5.209   6.629   3.832 -0.4344  0.3069 -0.2622
 5547TIP3    H116605   5.150   6.631   3.907 -1.2029  1.8860 -0.8712
 5547TIP3    H216606   5.201   6.540   3.798  0.6615 -0.7503  2.0496
 5548TIP3   OH216607   3.093   1.305   3.813  0.4594  0.2059 -0.0365
 5548TIP3    H116608   3.138   1.265   3.739 -0.7609  1.6034 -1.6044
 5548TIP3    H216609   3.014   1.252   3.824  0.1176  0.6299 -0.4337
 5549TIP3   OH216610   5.802   3.672   4.258 -0.0614  0.1392  0.6727
 5549TIP3    H116611   5.750   3.741   4.300 -0.7246  0.4891 -0.6680
 5549TIP3    H216612   5.796   3.598   4.318  0.5583  1.1836  2.0843
 5550TIP3   OH216613   0.509   6.360   1.523  0.4697 -0.4746  0.5359
 5550TIP3    H116614   0.421   6.331   1.500 -0.1351 -0.4998  2.6747
 5550TIP3    H216615   0.564   6.284   1.504  0.1936 -0.2014 -1.5402
 5551TIP3   OH216616   0.170   3.653   5.096 -0.1141 -0.0626  0.0484
 5551TIP3    H116617   0.141   3.630   5.184  1.0696  1.6322  0.9216
 5551TIP3    H216618   0.174   3.748   5.095 -2.6749  0.1854 -2.7144
 5552TIP3   OH216619   5.225   2.590   0.101 -0.0588 -0.0467 -0.3787
 5552TIP3    H116620   5.191   2.645   0.172  0.3733  1.5976 -1.4103
 5552TIP3    H216621   5.306   2.554   0.136  0.5948  1.4305 -0.2969
 5553TIP3   OH216622   2.767   5.962   4.207 -0.0977 -0.0394  0.1500
 5553TIP3    H116623   2.858   5.966   4.176 -0.2636 -0.4178 -0.3975
 5553TIP3    H216624   2.721   6.026   4.154 -0.1829  0.0359  0.3153
 5554TIP3   OH216625   4.357   0.594   5.267 -0.5350  0.3141  0.0438
 5554TIP3    H116626   4.307   0.556   5.340  0.2467  2.3627  1.7526
 5554TIP3    H216627   4.360   0.524   5.201 -1.5612 -1.5144  1.8137
 5555TIP3   OH216628   0.884   0.682   3.272  0.2587 -0.4154  0.3256
 5555TIP3    H116629   0.840   0.602   3.242  0.9270 -0.7629  0.2696
 5555TIP3    H216630   0.814   0.748   3.273 -0.1878 -0.8689 -0.1293
 5556TIP3   OH216631   1.704   3.170   0.712  0.1264 -0.1312 -0.4525
 5556TIP3    H116632   1.764   3.196   0.642 -0.2263 -0.6059 -0.9353
 5556TIP3    H216633   1.708   3.075   0.713 -0.8790 -0.1850 -0.7166
 5557TIP3   OH216634   5.198   1.273   2.764  0.2800  0.2430 -0.4475
 5557TIP3    H116635   5.149   1.190   2.766  1.9453 -0.7895 -0.6330
 5557TIP3    H216636   5.143   1.332   2.713 -1.0070 -0.7023 -0.2160
 5558TIP3   OH216637   1.010   4.185   1.813 -0.1534  0.6356  0.0669
 5558TIP3    H116638   0.967   4.111   1.770  0.0424  1.6095 -1.9164
 5558TIP3    H216639   1.100   4.181   1.782  0.0760  1.1928  0.6526
 5559TIP3   OH216640   0.359   6.297   2.550  0.4028  0.7033  0.0904
 5559TIP3    H116641   0.451   6.280   2.569 -0.0754 -1.6362  0.5738
 5559TIP3    H216642   0.319   6.211   2.545 -2.0811  1.6777  1.4327
 5560TIP3   OH216643   1.909   6.656   0.958 -0.1131  0.3939  0.0056
 5560TIP3    H116644   1.825   6.617   0.932  0.6532 -0.9967 -0.4508
 5560TIP3    H216645   1.931   6.614   1.041 -0.9140  2.4058  1.3433
 5561TIP3   OH216646   0.607   0.597   4.031  0.4016 -0.3885 -0.4040
 5561TIP3    H116647   0.672   0.602   4.101 -0.1359  0.5156  0.0494
 5561TIP3    H216648   0.603   0.686   3.995 -0.8421 -0.3308 -0.1780
 5562TIP3   OH216649   0.375   4.344   5.802 -0.0408 -0.6713 -0.0009
 5562TIP3    H116650   0.376   4.437   5.824  1.9309 -0.7621  0.4844
 5562TIP3    H216651   0.409   4.340   5.713  0.6736 -0.9726  0.2786
 5563TIP3   OH216652   3.924   2.244   0.463  0.2170 -0.5453 -0.6118
 5563TIP3    H116653   4.005   2.264   0.509 -0.2192 -1.6161  0.7011
 5563TIP3    H216654   3.863   2.216   0.532 -1.6634  1.3099 -1.3893
 5564TIP3   OH216655   2.763   1.064   3.248 -0.6183 -0.4674  0.3782
 5564TIP3    H116656   2.677   1.051   3.287 -0.7197 -1.4325 -0.1358
 5564TIP3    H216657   2.819   0.999   3.293  0.6524  2.2148  3.0458
 5565TIP3   OH216658   2.606   6.185   1.295  0.5523 -1.0916  0.3462
 5565TIP3    H116659   2.654   6.259   1.331 -1.4262 -0.1796  1.2405
 5565TIP3    H216660   2.525   6.223   1.261  0.1255 -2.6599 -0.4785
 5566TIP3   OH216661   5.175   2.525   2.986  0.3304  0.5319  0.6146
 5566TIP3    H116662   5.150   2.593   3.049  0.7863 -0.6547  2.1458
 5566TIP3    H216663   5.146   2.443   3.026 -0.0037 -0.2185 -1.0803
 5567TIP3   OH216664   1.345   1.958   1.584 -0.0147  0.3543 -0.1881
 5567TIP3    H116665   1.255   1.974   1.556 -0.5842  0.2470  1.4763
 5567TIP3    H216666   1.367   2.033   1.639  0.6509  0.0203  0.0092
 5568TIP3   OH216667   6.340   2.256   1.816 -0.5341  0.0565 -0.1248
 5568TIP3    H116668   6.340   2.199   1.893  0.2777  0.7344  0.3880
 5568TIP3    H216669   6.269   2.222   1.761 -0.7560 -0.7797  0.6598
 5569TIP3   OH216670   6.758   4.393   2.502  0.2977 -0.3094  0.4450
 5569TIP3    H116671   6.766   4.363   2.412 -1.4256 -1.9404  0.7712
 5569TIP3    H216672   6.804   4.327   2.554 -0.2755 -0.3526  0.9048
 5570TIP3   OH216673   2.168   1.255   1.971 -0.3330  0.2082 -0.0062
 5570TIP3    H116674   2.167   1.311   2.049  1.3202 -0.0878  0.2714
 5570TIP3    H216675   2.076   1.247   1.946 -0.6702  2.9519 -0.0149
 5571TIP3   OH216676   2.240   0.784   3.035 -0.7535 -0.0543  0.2260
 5571TIP3    H116677   2.222   0.865   3.083 -0.5415  0.4146 -0.4739
 5571TIP3    H216678   2.169   0.779   2.970 -0.6537 -0.3299  0.1372
 5572TIP3   OH216679   1.626   0.973   1.804  0.2090  0.3812  0.2893
 5572TIP3    H116680   1.530   0.976   1.797  0.2687 -0.5445 -3.6027
 5572TIP3    H216681   1.650   1.056   1.846 -2.2505  1.1983  0.2269
 5573TIP3   OH216682   4.381   4.172   0.064 -0.3887 -0.2614 -0.3127
 5573TIP3    H116683   4.375   4.082   0.096 -0.6538 -0.2625 -0.3690
 5573TIP3    H216684   4.404   4.164  -0.028 -0.8721 -0.2816 -0.4345
 5574TIP3   OH216685   1.524   6.174   0.046  0.1152 -0.2952 -0.4090
 5574TIP3    H116686   1.574   6.221   0.113  0.9530 -1.1106 -0.4453
 5574TIP3    H216687   1.585   6.164  -0.027 -0.6643  0.2307 -1.1385
 5575TIP3   OH216688   2.623   5.737   5.462  0.2784  0.0851 -0.2012
 5575TIP3    H116689   2.544   5.766   5.508  1.0365 -0.1029  1.2900
 5575TIP3    H216690   2.636   5.647   5.490 -0.1138 -0.6189 -2.1000
 5576TIP3   OH216691   0.838   2.677   1.002  0.4854  0.5784 -0.0617
 5576TIP3    H116692   0.904   2.608   0.995  2.9121  2.8514 -1.2068
 5576TIP3    H216693   0.842   2.706   1.093  0.4234  0.1366  0.0836
 5577TIP3   OH216694   3.748   6.758   2.497  0.2501  0.0039  0.0746
 5577TIP3    H116695   3.730   6.802   2.581  1.6386 -0.0198  0.4058
 5577TIP3    H216696   3.833   6.716   2.510  0.1988 -0.5044 -1.1599
 5578TIP3   OH216697   5.120   4.206   0.798  0.6086 -0.5574  0.7281
 5578TIP3    H116698   5.146   4.210   0.890 -0.5974 -2.8420  1.2566
 5578TIP3    H216699   5.049   4.141   0.796 -0.5312  0.6196 -1.5806
 5579TIP3   OH216700   0.271   4.817   5.447 -0.1511 -0.4219 -0.3124
 5579TIP3    H116701   0.231   4.902   5.462  2.1293  0.7752 -0.4399
 5579TIP3    H216702   0.361   4.838   5.420 -0.4594 -2.7405 -3.7776
 5580TIP3   OH216703   6.171   0.996   3.273  0.0220  0.5151  0.1745
 5580TIP3    H116704   6.147   1.087   3.293  1.6124  0.8253  0.8494
 5580TIP3    H216705   6.089   0.949   3.276 -0.8899  1.9833 -0.4851
 5581TIP3   OH216706   4.634   5.152   5.078 -0.5983 -0.5322 -0.2513
 5581TIP3    H116707   4.701   5.218   5.057  0.2016 -1.5957 -1.1875
 5581TIP3    H216708   4.555   5.203   5.094 -0.1833  0.6315 -1.6836
 5582TIP3   OH216709   4.690   4.617   1.513 -0.0672 -0.0947  0.1769
 5582TIP3    H116710   4.696   4.712   1.522 -0.9738  0.0147 -0.2583
 5582TIP3    H216711   4.743   4.583   1.584  1.3398  0.7351 -0.4195
 5583TIP3   OH216712   1.097   1.189   1.129  0.4958  0.0899 -0.1766
 5583TIP3    H116713   1.121   1.097   1.143 -2.1041 -1.0122 -2.0741
 5583TIP3    H216714   1.108   1.202   1.035  1.2719  1.9187  0.1379
 5584TIP3   OH216715   2.046   6.536   2.228  0.4899 -0.1351 -0.0399
 5584TIP3    H116716   1.989   6.465   2.257 -0.1175  1.0832  2.0209
 5584TIP3    H216717   2.044   6.598   2.301  2.9610  0.8420 -0.7253
 5585TIP3   OH216718   3.767   2.461   2.382 -0.0389 -0.2481  0.0919
 5585TIP3    H116719   3.752   2.368   2.394 -1.9207  0.1597  1.4372
 5585TIP3    H216720   3.739   2.480   2.293  0.3877 -0.9787 -0.1944
 5586TIP3   OH216721   6.030   6.101   2.290 -0.1762  0.6448  0.0432
 5586TIP3    H116722   6.111   6.153   2.283 -0.0715  0.5094  0.2395
 5586TIP3    H216723   5.961   6.165   2.305 -0.1083  0.7642 -0.1555
 5587TIP3   OH216724   4.408   5.441   3.703 -0.7328  0.1811 -0.3932
 5587TIP3    H116725   4.349   5.417   3.631 -1.7824  1.0517  0.1502
 5587TIP3    H216726   4.405   5.536   3.706  0.6982  0.2492 -0.3189
 5588TIP3   OH216727   4.494   1.414   4.999  0.3815  0.1954 -0.0776
 5588TIP3    H116728   4.516   1.492   4.949  0.1956  0.1133 -0.2872
 5588TIP3    H216729   4.505   1.342   4.938 -0.3404  0.1413 -0.1517
 5589TIP3   OH216730   6.178   2.419   3.611  0.4417  0.7743  0.2621
 5589TIP3    H116731   6.249   2.479   3.590  1.0610 -0.6254 -1.8411
 5589TIP3    H216732   6.221   2.344   3.653 -0.1067  0.9394  1.1555
 5590TIP3   OH216733   3.963   2.553   2.567  0.0768 -0.0618  0.2792
 5590TIP3    H116734   3.962   2.461   2.593 -0.8967 -0.5482 -1.3121
 5590TIP3    H216735   3.884   2.563   2.514 -0.7684  2.1495  1.8130
 5591TIP3   OH216736   1.440   6.708   0.581 -0.3389  0.4939  0.3691
 5591TIP3    H116737   1.444   6.801   0.560 -0.0425  0.0837 -1.6557
 5591TIP3    H216738   1.351   6.682   0.557 -1.0789  0.5808  2.7409
 5592TIP3   OH216739   0.831   1.078   3.138  0.4149 -0.7627  0.2814
 5592TIP3    H116740   0.816   1.063   3.231 -0.4204  0.9879  0.4755
 5592TIP3    H216741   0.747   1.111   3.105  0.4316 -2.1656 -1.3023
 5593TIP3   OH216742   4.523   4.623   0.292  0.3968 -0.0844  0.2099
 5593TIP3    H116743   4.435   4.661   0.295 -0.2835 -1.5357 -0.0442
 5593TIP3    H216744   4.579   4.688   0.335 -0.8863  0.6479  0.8557
 5594TIP3   OH216745   2.403   5.870   0.263  0.4144  0.2595  0.1256
 5594TIP3    H116746   2.460   5.821   0.204  2.1837  1.1409  1.0022
 5594TIP3    H216747   2.339   5.912   0.206 -0.0205 -1.5605 -0.8056
 5595TIP3   OH216748   4.206   2.917   0.860  0.2335  0.5517 -0.2405
 5595TIP3    H116749   4.136   2.892   0.920  0.4125 -1.0941 -0.6637
 5595TIP3    H216750   4.208   3.012   0.864 -0.8530  0.5555  1.1040
 5596TIP3   OH216751   2.746   4.683   3.960  0.6242 -0.5455 -0.2326
 5596TIP3    H116752   2.677   4.741   3.994  0.5582  0.1481 -1.5164
 5596TIP3    H216753   2.827   4.733   3.972  0.5686 -0.1848 -1.3360
 5597TIP3   OH216754   4.588   1.497   0.617 -0.2030  0.5169  0.1966
 5597TIP3    H116755   4.601   1.502   0.522  1.1476  0.8705  0.3765
 5597TIP3    H216756   4.669   1.533   0.654 -0.3123 -0.4868  1.4860
 5598TIP3   OH216757   0.630   6.660   5.349 -0.2562  0.4471 -0.6165
 5598TIP3    H116758   0.683   6.686   5.273  2.2595 -1.3165  0.3931
 5598TIP3    H216759   0.597   6.574   5.326  0.8866 -0.2925  0.3916
 5599TIP3   OH216760   5.743   2.663   3.171 -0.2374 -0.2176  0.2689
 5599TIP3    H116761   5.753   2.730   3.103 -0.3544 -0.7181 -0.2571
 5599TIP3    H216762   5.799   2.693   3.243  0.2726  0.0854 -0.2414
 5600TIP3   OH216763   5.872   2.443   0.901 -0.1211 -0.1430  0.4779
 5600TIP3    H116764   5.963   2.415   0.890 -0.8790 -2.7337  0.2794
 5600TIP3    H216765   5.850   2.418   0.990 -1.0201 -0.7381  0.0955
 5601TIP3   OH216766   1.902   2.426   3.407 -0.2407  0.2991  0.2176
 5601TIP3    H116767   1.958   2.502   3.391  0.5704 -0.0793  1.1136
 5601TIP3    H216768   1.948   2.353   3.366 -0.7336  0.1957 -0.1567
 5602TIP3   OH216769   0.176   0.247   5.798  0.1526 -0.5080  0.3182
 5602TIP3    H116770   0.217   0.268   5.715 -0.0128  0.6459  0.5167
 5602TIP3    H216771   0.240   0.271   5.864 -0.0586 -0.6004  0.5614
 5603TIP3   OH216772   5.644   2.841   0.178  0.7600 -0.2215  0.1732
 5603TIP3    H116773   5.647   2.747   0.196  1.6595 -0.2211  0.0812
 5603TIP3    H216774   5.567   2.872   0.225  0.6698 -0.9413  0.5156
 5604TIP3   OH216775   5.965   6.139   1.606 -0.6209 -0.2485 -0.4697
 5604TIP3    H116776   5.932   6.055   1.637  0.0331 -0.3810 -0.1017
 5604TIP3    H216777   5.992   6.123   1.516 -0.1660 -0.5365 -0.2875
 5605TIP3   OH216778   3.745   5.225   1.824 -0.5997  0.1286 -0.8346
 5605TIP3    H116779   3.693   5.300   1.851 -0.9370 -0.1750 -0.6211
 5605TIP3    H216780   3.835   5.255   1.828 -0.5396 -0.2152  1.7149
 5606TIP3   OH216781   4.426   1.522   3.888 -0.2826 -0.2108  0.4239
 5606TIP3    H116782   4.415   1.439   3.841 -0.9215  0.6189 -0.9553
 5606TIP3    H216783   4.521   1.534   3.892 -0.1877 -0.9276  0.5074
 5607TIP3   OH216784   6.574   6.305   1.119  0.3460 -0.0671 -0.4525
 5607TIP3    H116785   6.579   6.400   1.121  0.5270 -0.0815  1.2944
 5607TIP3    H216786   6.580   6.282   1.026 -0.0399  1.6291 -0.9230
 5608TIP3   OH216787   7.080   4.691   3.888 -0.2030  0.9316  0.0205
 5608TIP3    H116788   7.156   4.683   3.945 -0.3671  0.7565  0.2158
 5608TIP3    H216789   7.081   4.610   3.836 -0.3588  0.8484  0.1486
 5609TIP3   OH216790   6.261   1.646   5.017 -0.7011 -0.9342  0.4560
 5609TIP3    H116791   6.234   1.733   5.047 -1.9610 -1.0780 -0.1877
 5609TIP3    H216792   6.287   1.600   5.097  0.8589  0.2971  0.7161
 5610TIP3   OH216793   5.848   4.890   5.533  0.2299  0.0553  0.1488
 5610TIP3    H116794   5.762   4.900   5.573 -0.2693 -0.3916 -0.7846
 5610TIP3    H216795   5.839   4.814   5.476  1.2766 -0.0517  0.1121
 5611TIP3   OH216796   5.920   3.645   4.932 -0.6313  0.1919 -0.5706
 5611TIP3    H116797   5.990   3.656   4.867  0.5081 -0.8465  0.4126
 5611TIP3    H216798   5.891   3.554   4.920 -0.2441 -0.0906  0.4937
 5612TIP3   OH216799   0.938   4.955   1.880  0.6580  0.3790  0.0456
 5612TIP3    H116800   0.885   4.976   1.956  0.0641 -1.4236  0.1657
 5612TIP3    H216801   1.028   4.978   1.906  0.3467  0.5902  0.9512
 5613TIP3   OH216802   0.303   2.959   3.688 -0.0349 -0.1921 -0.3191
 5613TIP3    H116803   0.238   2.920   3.630 -0.3190  0.0961 -0.2020
 5613TIP3    H216804   0.269   3.047   3.704  0.9089  0.3357 -1.0917
 5614TIP3   OH216805   1.434   4.166   4.924  0.7834  0.2565  0.2973
 5614TIP3    H116806   1.516   4.211   4.903 -0.8236  3.0162 -0.6241
 5614TIP3    H216807   1.409   4.123   4.843  1.0126 -0.0895  0.4078
 5615TIP3   OH216808   2.038   3.693   4.547 -0.0963  0.2733  0.1853
 5615TIP3    H116809   2.104   3.717   4.482  0.4814  1.2480  1.1069
 5615TIP3    H216810   1.960   3.742   4.522  0.0449  0.4506  0.0947
 5616TIP3   OH216811   0.087   2.108   1.115  0.4383 -0.6107 -0.6933
 5616TIP3    H116812   0.022   2.095   1.046  0.4446 -2.7516 -0.3566
 5616TIP3    H216813   0.169   2.122   1.067 -0.1211  1.7907 -1.1121
 5617TIP3   OH216814   2.343   4.900   5.857  0.5008  0.1871 -0.0160
 5617TIP3    H116815   2.327   4.994   5.853  1.1476  0.2870 -0.3336
 5617TIP3    H216816   2.295   4.864   5.783  1.0630  0.3867 -0.4783
 5618TIP3   OH216817   6.463   3.684   4.826 -0.0569 -0.2631  0.2139
 5618TIP3    H116818   6.392   3.749   4.823  0.1795 -0.0123  0.0646
 5618TIP3    H216819   6.541   3.735   4.846 -0.1350 -0.7271  1.7992
 5619TIP3   OH216820   5.867   2.536   1.717 -0.1365  0.3239  1.0980
 5619TIP3    H116821   5.915   2.466   1.760 -0.8551 -1.6523 -1.1587
 5619TIP3    H216822   5.782   2.537   1.761  0.1960  0.4146  1.7457
 5620TIP3   OH216823   0.228   2.024   4.901 -0.8095 -0.4206  0.1327
 5620TIP3    H116824   0.297   2.030   4.968  0.1356  1.0313 -0.9156
 5620TIP3    H216825   0.165   1.962   4.937  0.9321 -1.6257  1.2330
 5621TIP3   OH216826   1.547   4.902   1.961 -0.0749 -0.0996 -0.0348
 5621TIP3    H116827   1.635   4.918   1.996  0.3146 -0.7267 -0.7037
 5621TIP3    H216828   1.557   4.906   1.866 -0.6800 -0.5831 -0.1281
 5622TIP3   OH216829   4.680   0.692   4.352  0.4555 -0.0154 -0.1280
 5622TIP3    H116830   4.615   0.763   4.354  0.1362 -0.0815 -3.2994
 5622TIP3    H216831   4.632   0.615   4.380 -0.7077  0.0819 -1.6997
 5623TIP3   OH216832   3.832   5.924   4.257  0.7231  0.1533  0.0098
 5623TIP3    H116833   3.860   5.890   4.342  0.1593 -0.0813  0.1072
 5623TIP3    H216834   3.772   5.857   4.223  0.6645  0.4165 -0.4070
 5624TIP3   OH216835   0.310   2.727   4.648  0.0703 -0.0583  0.2079
 5624TIP3    H116836   0.400   2.694   4.647  0.2943  0.4095  1.8777
 5624TIP3    H216837   0.256   2.649   4.637  0.6404 -0.1599 -2.6795
 5625TIP3   OH216838   2.315   6.504   4.325 -0.5747 -0.0330  0.1591
 5625TIP3    H116839   2.402   6.523   4.290 -0.9581  0.6015 -0.4799
 5625TIP3    H216840   2.264   6.475   4.249 -0.6908 -1.2493  0.6818
 5626TIP3   OH216841   6.738   4.649   2.598 -0.1202 -0.2275 -0.3827
 5626TIP3    H116842   6.776   4.568   2.633 -0.9347 -0.0544  0.9426
 5626TIP3    H216843   6.742   4.637   2.503  0.2945 -1.5802 -0.2272
 5627TIP3   OH216844   0.970   1.525   0.272  0.3711  0.9328 -0.5610
 5627TIP3    H116845   1.053   1.571   0.262  0.4731  0.6446 -1.0890
 5627TIP3    H216846   0.926   1.536   0.187 -1.7250  4.1014  0.7194
 5628TIP3   OH216847   1.983   1.803   0.658 -0.0469  0.1197  0.2589
 5628TIP3    H116848   1.949   1.714   0.668  1.6006 -0.7277 -1.0864
 5628TIP3    H216849   1.933   1.856   0.720 -1.8949 -1.5181  0.2479
 5629TIP3   OH216850   3.515   2.475   5.869  0.2794 -0.1589  0.4467
 5629TIP3    H116851   3.522   2.563   5.833 -0.2716 -0.9295 -1.7186
 5629TIP3    H216852   3.481   2.488   5.957 -0.3679  1.7716 -0.0307
 5630TIP3   OH216853   1.514   1.597   5.278 -0.2823 -0.2905 -0.4651
 5630TIP3    H116854   1.497   1.547   5.198  0.4465 -1.8852  0.3414
 5630TIP3    H216855   1.502   1.688   5.252 -0.9200 -0.8221 -2.1693
 5631TIP3   OH216856   1.059   1.951   1.516 -0.3504  0.4071 -0.3266
 5631TIP3    H116857   0.992   1.883   1.529 -0.3311  0.4332 -0.0787
 5631TIP3    H216858   1.016   2.032   1.543 -0.8946  0.7455 -2.1030
 5632TIP3   OH216859   2.361   6.601   1.323  0.0283 -0.0503 -0.4416
 5632TIP3    H116860   2.385   6.692   1.302 -0.3529 -0.2377 -1.7527
 5632TIP3    H216861   2.379   6.552   1.243 -1.0105 -0.9056 -0.1726
 5633TIP3   OH216862   1.778   0.363   5.155 -0.0904 -0.0751  0.7672
 5633TIP3    H116863   1.852   0.322   5.110  0.4735  0.0748  1.5559
 5633TIP3    H216864   1.713   0.376   5.086 -0.2088 -2.0938  0.4217
 5634TIP3   OH216865   1.427   3.000   3.097  0.0174  0.0696  0.1487
 5634TIP3    H116866   1.421   2.971   3.188 -0.3882  0.7379  0.3382
 5634TIP3    H216867   1.431   3.095   3.101  0.7882  0.0815 -0.5018
 5635TIP3   OH216868   3.879   5.531   5.568 -0.0484  0.2653  0.1286
 5635TIP3    H116869   3.958   5.500   5.524  0.1644 -2.3841  2.1309
 5635TIP3    H216870   3.909   5.559   5.654 -0.9990  1.6571  0.0471
 5636TIP3   OH216871   1.243   4.023   4.760  0.5029 -0.3916 -0.4471
 5636TIP3    H116872   1.283   3.937   4.747 -2.1623 -2.3739  2.7899
 5636TIP3    H216873   1.159   4.018   4.715 -1.0619 -0.7975  2.3360
 5637TIP3   OH216874   0.456   3.564   2.992 -0.4248 -0.0364  0.1455
 5637TIP3    H116875   0.486   3.473   2.990 -2.7167 -0.9069  1.2960
 5637TIP3    H216876   0.466   3.591   3.084 -1.4691  0.2132  0.2002
 5638TIP3   OH216877   3.277   5.702   4.987  0.4831 -0.1001  0.1484
 5638TIP3    H116878   3.223   5.624   4.975 -0.5731  0.5123  0.7577
 5638TIP3    H216879   3.285   5.739   4.899  0.0636 -0.2994  0.0257
 5639TIP3   OH216880   1.013   0.369   4.647 -0.4456  0.5025 -0.3796
 5639TIP3    H116881   1.075   0.433   4.680  0.5376 -1.3011  1.5395
 5639TIP3    H216882   1.053   0.334   4.567  0.4788  0.1897  0.2058
 5640TIP3   OH216883   5.734   0.796   4.481  0.0636  0.1714 -0.0084
 5640TIP3    H116884   5.749   0.857   4.408  1.6759  0.1525  0.2722
 5640TIP3    H216885   5.820   0.755   4.496 -0.4956 -0.6029  1.2086
 5641TIP3   OH216886   4.742   5.572   1.229  0.1187  0.2851 -0.0904
 5641TIP3    H116887   4.727   5.594   1.321 -0.8461  1.3988 -0.4815
 5641TIP3    H216888   4.777   5.652   1.190 -2.5547  0.9457 -1.3613
 5642TIP3   OH216889   0.945   2.493   5.838  0.0670  0.1635 -0.0451
 5642TIP3    H116890   0.862   2.536   5.817  0.0966  0.0691 -0.3620
 5642TIP3    H216891   1.009   2.565   5.838  0.0141  0.2109  0.0306
 5643TIP3   OH216892   4.414   0.722   5.492  0.4166 -0.6243  0.3718
 5643TIP3    H116893   4.398   0.715   5.398  0.9795  2.1396 -0.0096
 5643TIP3    H216894   4.344   0.670   5.532 -1.1059 -0.1548 -1.5194
 5644TIP3   OH216895   3.554   6.640   2.922  0.0172 -0.0912 -0.0593
 5644TIP3    H116896   3.520   6.562   2.966  0.1873 -0.1764 -0.0784
 5644TIP3    H216897   3.577   6.610   2.835  0.5200 -0.1247  0.0849
 5645TIP3   OH216898   3.885   5.719   2.046  0.2353 -0.1135  0.1341
 5645TIP3    H116899   3.973   5.730   2.011  0.5787 -1.9531  0.3324
 5645TIP3    H216900   3.830   5.701   1.970  0.4783 -1.2975  0.2166
 5646TIP3   OH216901   4.223   5.592   0.252 -0.5498  0.1270  0.0811
 5646TIP3    H116902   4.172   5.668   0.224 -0.8825  0.0520  0.4678
 5646TIP3    H216903   4.173   5.556   0.326  0.3066  0.3289  0.7685
 5647TIP3   OH216904   4.046   4.140   4.392 -0.6126 -0.3781 -0.5690
 5647TIP3    H116905   4.084   4.226   4.376 -1.6654  0.3470  0.6799
 5647TIP3    H216906   4.002   4.117   4.311 -1.6210  0.9634 -0.4264
 5648TIP3   OH216907   1.451   2.660   2.408 -0.3881  0.3952 -0.1197
 5648TIP3    H116908   1.430   2.713   2.485  0.5338 -1.2483  1.3300
 5648TIP3    H216909   1.529   2.611   2.433  0.7025  0.6975 -2.5755
 5649TIP3   OH216910   0.737   3.583   4.092 -0.6653  0.4805  0.1366
 5649TIP3    H116911   0.644   3.560   4.094 -0.7704  0.8678 -0.1769
 5649TIP3    H216912   0.739   3.674   4.123 -0.5085  0.8266 -0.8486
 5650TIP3   OH216913   6.527   0.159   3.851  0.6145  0.1156 -0.3916
 5650TIP3    H116914   6.466   0.104   3.802 -1.1326 -0.0853  1.8066
 5650TIP3    H216915   6.612   0.116   3.843  0.0726 -0.7097 -1.9236
 5651TIP3   OH216916   4.982   4.535   3.692 -0.3269  0.1587 -0.0729
 5651TIP3    H116917   4.975   4.508   3.600 -0.4149 -0.6071  0.1549
 5651TIP3    H216918   5.074   4.523   3.713 -0.3364  0.1832 -0.0183
 5652TIP3   OH216919   3.468   5.581   2.194  0.3007 -0.0888 -0.1077
 5652TIP3    H116920   3.373   5.567   2.196  0.3533 -0.9176 -1.5814
 5652TIP3    H216921   3.478   5.674   2.174 -0.2511 -0.3173 -1.5755
 5653TIP3   OH216922   4.793   3.337   3.734 -0.0322 -0.3941 -0.1342
 5653TIP3    H116923   4.750   3.252   3.744  0.0625 -0.3591  0.6274
 5653TIP3    H216924   4.722   3.399   3.721 -0.3255 -0.1998  2.0011
 5654TIP3   OH216925   3.567   1.635   1.981 -0.4304 -0.5730  0.3362
 5654TIP3    H116926   3.530   1.600   1.900 -0.3216  0.3686 -0.1300
 5654TIP3    H216927   3.503   1.699   2.011  0.3412  0.3701  0.0315
 5655TIP3   OH216928   3.739   6.308   2.368 -0.1547 -0.2622  0.4892
 5655TIP3    H116929   3.784   6.316   2.284  0.2171 -0.6821  0.6438
 5655TIP3    H216930   3.782   6.373   2.424 -1.2143  0.8781  0.0217
 5656TIP3   OH216931   2.390   2.685   5.879  0.2612 -0.2106  0.1844
 5656TIP3    H116932   2.449   2.756   5.853 -0.0668 -0.0240 -0.0563
 5656TIP3    H216933   2.328   2.677   5.806  0.1853 -0.6221  0.2903
 5657TIP3   OH216934   5.634   4.527   1.428 -0.3140  0.4100 -0.0082
 5657TIP3    H116935   5.540   4.515   1.413 -0.2047 -0.4484 -0.0665
 5657TIP3    H216936   5.672   4.524   1.340 -0.2687  1.1290 -0.0149
 5658TIP3   OH216937   2.041   5.555   1.741 -0.0425  0.1677  0.4462
 5658TIP3    H116938   1.952   5.587   1.753  0.1234  1.3392 -1.0534
 5658TIP3    H216939   2.081   5.618   1.680  1.6262 -0.6473  0.6319
 5659TIP3   OH216940   1.181   4.834   3.496 -0.3867  0.5424  0.0125
 5659TIP3    H116941   1.174   4.821   3.591  0.5557  0.5668  0.0960
 5659TIP3    H216942   1.173   4.747   3.459 -1.8433  0.6493  0.0280
 5660TIP3   OH216943   2.487   2.946   5.717  0.3514 -0.3046 -0.8061
 5660TIP3    H116944   2.398   2.980   5.726  0.4694  0.5745 -2.4740
 5660TIP3    H216945   2.529   2.964   5.801 -1.2100 -1.3578  0.2627
 5661TIP3   OH216946   2.368   3.568   3.286 -0.0039 -0.0416 -0.5110
 5661TIP3    H116947   2.347   3.660   3.271  2.2538  0.1879 -3.2286
 5661TIP3    H216948   2.432   3.569   3.357 -1.3821  0.2445  0.7592
 5662TIP3   OH216949   4.870   0.687   1.686 -0.1975 -0.2781  0.2982
 5662TIP3    H116950   4.781   0.659   1.663 -0.6912  1.0075  0.5686
 5662TIP3    H216951   4.857   0.763   1.742  1.0885  0.1370  0.0582
 5663TIP3   OH216952   3.797   5.775   0.074 -0.3595  0.3491  0.0153
 5663TIP3    H116953   3.726   5.742   0.019 -1.2977  1.3706  0.5596
 5663TIP3    H216954   3.762   5.856   0.112  0.6038  0.1792  1.3549
 5664TIP3   OH216955   1.553   5.343   3.862 -0.2532 -0.1451 -0.0361
 5664TIP3    H116956   1.513   5.424   3.830 -0.9727 -0.6696 -0.5292
 5664TIP3    H216957   1.530   5.278   3.795  1.1848 -0.5394 -0.1718
 5665TIP3   OH216958   4.433   2.417   2.432 -0.0029  0.2675 -0.5000
 5665TIP3    H116959   4.461   2.495   2.481 -1.6099  0.9557 -0.6351
 5665TIP3    H216960   4.343   2.402   2.459 -0.3726 -0.3565 -1.9981
 5666TIP3   OH216961   3.089   5.690   2.161  0.1834 -0.4512 -0.6314
 5666TIP3    H116962   3.001   5.661   2.183  0.1062 -1.5039 -2.1551
 5666TIP3    H216963   3.085   5.786   2.163 -0.6227 -0.5052  0.6319
 5667TIP3   OH216964   3.348   6.699   1.160 -0.4170  0.4933 -0.0366
 5667TIP3    H116965   3.361   6.749   1.241 -0.5819 -0.3920  0.5578
 5667TIP3    H216966   3.436   6.683   1.127 -0.3721  1.4162 -0.3955
 5668TIP3   OH216967   3.040   3.470   4.139 -0.5752  0.2026 -0.0178
 5668TIP3    H116968   2.974   3.502   4.201 -0.3292  2.2187 -0.7480
 5668TIP3    H216969   3.064   3.546   4.087 -0.7193 -1.3680 -2.5887
 5669TIP3   OH216970   2.780   5.461   1.467  0.0184  0.0396  0.1477
 5669TIP3    H116971   2.834   5.427   1.538 -0.8729  2.1456  1.9369
 5669TIP3    H216972   2.819   5.547   1.447  0.7990 -0.8321 -2.6106
 5670TIP3   OH216973   0.301   4.562   4.483 -0.2826 -0.0103 -0.0405
 5670TIP3    H116974   0.277   4.650   4.511 -0.3945 -0.1686  0.3623
 5670TIP3    H216975   0.237   4.541   4.414  0.0039  0.3822 -0.4403
 5671TIP3   OH216976   0.398   2.875   1.142 -0.3633 -0.1775 -0.2172
 5671TIP3    H116977   0.470   2.827   1.101 -0.7658 -1.1707  0.1828
 5671TIP3    H216978   0.411   2.862   1.236 -0.5493  0.3999 -0.1124
 5672TIP3   OH216979   5.904   6.759   0.864  0.8713  0.4380 -0.1002
 5672TIP3    H116980   5.981   6.816   0.866  0.9610  0.2952  0.4348
 5672TIP3    H216981   5.855   6.782   0.943  0.7286  0.0228 -0.0652
 5673TIP3   OH216982   6.180   2.074   3.459  0.5352  0.0579 -0.1707
 5673TIP3    H116983   6.106   2.127   3.431  0.3052  0.3532  0.9460
 5673TIP3    H216984   6.195   2.100   3.550  0.4966 -1.7033  0.3749
 5674TIP3   OH216985   4.518   0.245   2.244  0.2224  0.1105 -0.0587
 5674TIP3    H116986   4.532   0.195   2.163  1.2105  0.7890 -0.3275
 5674TIP3    H216987   4.515   0.179   2.313  0.6744 -0.3840 -0.5019
 5675TIP3   OH216988   6.931   1.602   2.907 -0.2558  0.4136  0.2697
 5675TIP3    H116989   6.859   1.639   2.857 -0.5134  2.5847  2.0926
 5675TIP3    H216990   6.962   1.529   2.853 -2.5707  0.5630 -1.4472
 5676TIP3   OH216991   6.677   4.938   4.457 -0.5673 -0.1409  0.0870
 5676TIP3    H116992   6.731   4.906   4.529 -1.6225 -0.9090  0.5688
 5676TIP3    H216993   6.722   4.907   4.378  1.1618  1.5984  0.3285
 5677TIP3   OH216994   6.919   6.158   1.445 -0.5211 -0.0056 -0.1792
 5677TIP3    H116995   6.910   6.251   1.424 -0.1242  0.3708  1.1781
 5677TIP3    H216996   6.972   6.157   1.525 -0.1289 -1.4292 -0.4344
 5678TIP3   OH216997   2.082   0.680   1.977 -0.2477  0.3207 -0.0398
 5678TIP3    H116998   2.023   0.606   1.991 -0.6272  0.4331 -0.9621
 5678TIP3    H216999   2.050   0.748   2.037 -0.4791  0.0638  0.1333
 5679TIP3   OH217000   6.958   4.142   1.169 -0.7983 -0.0426  0.0081
 5679TIP3    H117001   6.953   4.181   1.257 -0.5545 -0.5689  0.2587
 5679TIP3    H217002   6.879   4.174   1.125 -0.6351  0.6930  0.2215
 5680TIP3   OH217003   3.076   1.441   2.482  0.0265  0.5280  0.5541
 5680TIP3    H117004   3.048   1.532   2.491  0.8674  0.7262  1.3277
 5680TIP3    H217005   3.109   1.417   2.569  1.3864  0.0306 -0.0747
 5681TIP3   OH217006   4.206   0.964   3.159  0.2659  0.1276 -0.1553
 5681TIP3    H117007   4.195   1.058   3.171 -0.5721  0.1337 -0.8921
 5681TIP3    H217008   4.143   0.941   3.091  1.9221 -0.6038 -1.5118
 5682TIP3   OH217009   1.379   3.049   1.152  0.1523  0.3324 -0.4339
 5682TIP3    H117010   1.396   3.048   1.246 -0.5845 -1.4590 -0.2678
 5682TIP3    H217011   1.370   3.142   1.130 -0.1382  0.7670  1.3517
 5683TIP3   OH217012   2.898   5.664   0.068 -0.1863  0.3680  0.3659
 5683TIP3    H117013   2.909   5.585   0.121  1.9026  0.1518 -0.2963
 5683TIP3    H217014   2.835   5.638  -0.000  0.6804 -0.8373 -0.0097
 5684TIP3   OH217015   3.560   2.839   4.558  0.4956 -0.0849 -0.0132
 5684TIP3    H117016   3.600   2.915   4.600 -0.2721  0.2152  0.1909
 5684TIP3    H217017   3.474   2.869   4.530  0.4899 -0.6562 -0.6516
 5685TIP3   OH217018   6.142   1.505   0.251 -0.1115 -0.5804 -0.3224
 5685TIP3    H117019   6.057   1.500   0.208  0.3479  1.6987 -1.6848
 5685TIP3    H217020   6.205   1.473   0.186  0.3318  0.4619 -0.4352
 5686TIP3   OH217021   5.544   6.520   2.748 -0.3104 -0.0921 -0.1071
 5686TIP3    H117022   5.613   6.560   2.695 -0.3865 -0.0305 -0.1581
 5686TIP3    H217023   5.577   6.525   2.837  1.5099 -3.3985 -0.4252
 5687TIP3   OH217024   0.185   2.518   5.026 -0.2440 -0.3856 -0.2630
 5687TIP3    H117025   0.155   2.594   5.077 -0.1298 -0.1691 -0.5178
 5687TIP3    H217026   0.280   2.527   5.024 -0.1521 -1.0441  0.4976
 5688TIP3   OH217027   5.444   3.748   2.987  0.1091  0.7008  0.3148
 5688TIP3    H117028   5.503   3.811   2.945 -0.1203  1.1019  0.5799
 5688TIP3    H217029   5.462   3.665   2.943 -2.4558  1.6686 -2.9688
 5689TIP3   OH217030   3.943   0.765   0.636 -0.6852  0.3257 -0.0117
 5689TIP3    H117031   3.970   0.721   0.717 -0.0710 -0.3342 -0.5599
 5689TIP3    H217032   3.881   0.703   0.596  1.3006 -0.8114 -1.5290
 5690TIP3   OH217033   3.344   2.857   0.963 -0.2203 -0.2538 -0.0845
 5690TIP3    H117034   3.379   2.934   0.917  1.2255 -0.3875  0.7269
 5690TIP3    H217035   3.265   2.889   1.006  0.3594  0.7892  0.2468
 5691TIP3   OH217036   4.575   3.896   2.447  0.5159 -0.4704 -0.4856
 5691TIP3    H117037   4.580   3.803   2.469 -2.1619 -1.2764 -2.7040
 5691TIP3    H217038   4.631   3.906   2.370  0.7263 -0.2715 -0.3069
 5692TIP3   OH217039   4.969   3.184   5.204  0.0668  0.3848  0.3686
 5692TIP3    H117040   4.884   3.155   5.169  0.9912 -0.5619 -1.2352
 5692TIP3    H217041   4.964   3.280   5.203  0.0901  0.4837 -2.8003
 5693TIP3   OH217042   1.302   2.278   2.281  0.0409 -0.0324 -0.1773
 5693TIP3    H117043   1.337   2.301   2.367 -2.2963  0.1169  0.8279
 5693TIP3    H217044   1.235   2.212   2.300 -0.8751  0.3748 -1.8058
 5694TIP3   OH217045   1.267   4.606   1.338  0.9316 -0.1686  0.2359
 5694TIP3    H117046   1.237   4.599   1.247  1.1801 -0.6031  0.1873
 5694TIP3    H217047   1.247   4.696   1.362 -0.9757 -0.5927  0.4064
 5695TIP3   OH217048   4.023   4.847   2.093 -0.2554 -0.2977 -0.3145
 5695TIP3    H117049   4.108   4.833   2.136  0.7667 -0.0407 -2.1468
 5695TIP3    H217050   3.988   4.925   2.135  1.0332  0.3635 -0.4231
 5696TIP3   OH217051   2.157   6.332   1.914  0.1081  0.0966  0.2623
 5696TIP3    H117052   2.213   6.380   1.975  1.3456 -0.8720 -0.0764
 5696TIP3    H217053   2.218   6.279   1.862 -1.0410 -0.1750 -0.8508
 5697TIP3   OH217054   0.660   1.251   0.956  0.4646 -0.2517 -0.1986
 5697TIP3    H117055   0.571   1.270   0.987  0.8630 -0.1070  0.9170
 5697TIP3    H217056   0.648   1.206   0.873 -0.7124 -1.7930  0.7469
 5698TIP3   OH217057   0.621   6.579   0.114  0.8543 -0.7402 -0.2075
 5698TIP3    H117058   0.628   6.483   0.115 -0.8041 -0.9761 -2.3157
 5698TIP3    H217059   0.566   6.599   0.190  0.1780 -1.6036 -0.4445
 5699TIP3   OH217060   5.380   6.788   3.423 -0.0619  0.7074  0.0654
 5699TIP3    H117061   5.456   6.764   3.476 -1.5111  0.2129  2.0195
 5699TIP3    H217062   5.395   6.743   3.339  0.8833 -0.9427  1.0645
 5700TIP3   OH217063   2.932   3.159   2.471 -0.4423  0.2872 -0.0050
 5700TIP3    H117064   3.001   3.200   2.523 -0.5003  1.2400 -0.6535
 5700TIP3    H217065   2.856   3.216   2.481  0.2350  1.9901 -3.0972
 5701TIP3   OH217066   0.098   6.762   0.897  0.0384  0.2515 -0.5271
 5701TIP3    H117067   0.129   6.825   0.832  1.8172 -1.5568 -1.4944
 5701TIP3    H217068   0.161   6.769   0.969  0.4815 -0.6627 -0.8103
 5702TIP3   OH217069   3.209   4.996   2.177 -0.2531 -0.2391 -0.6537
 5702TIP3    H117070   3.174   5.014   2.264  0.5863  1.6037 -0.6683
 5702TIP3    H217071   3.133   5.004   2.119 -0.5549 -0.1096 -0.2462
 5703TIP3   OH217072   0.862   2.917   4.794  0.3661  0.8413 -0.1226
 5703TIP3    H117073   0.889   2.889   4.707 -0.4145 -1.1243  0.2091
 5703TIP3    H217074   0.940   2.907   4.848  0.1559 -0.6205 -0.0542
 5704TIP3   OH217075   0.805   1.187   5.517  0.5026 -0.0236  0.3699
 5704TIP3    H117076   0.712   1.168   5.515 -0.0813  2.5284 -1.6570
 5704TIP3    H217077   0.828   1.208   5.427  2.1755  2.7978  1.2991
 5705TIP3   OH217078   5.093   3.481   1.102  0.4074 -1.1725 -0.3207
 5705TIP3    H117079   5.139   3.448   1.179  0.1385 -0.5662  0.1076
 5705TIP3    H217080   5.034   3.410   1.077  0.4779 -1.3601  0.0474
 5706TIP3   OH217081   3.073   2.466   3.841 -0.1243 -0.3653 -0.3285
 5706TIP3    H117082   2.997   2.495   3.790  1.0155  0.8787 -1.4110
 5706TIP3    H217083   3.082   2.531   3.910 -0.3897 -0.8438  0.1586
 5707TIP3   OH217084   6.074   6.221   3.681  0.6088 -0.3477  0.6171
 5707TIP3    H117085   6.072   6.222   3.585 -1.0502  0.1220  0.6210
 5707TIP3    H217086   6.009   6.287   3.707  1.5494  0.0524  2.0724
 5708TIP3   OH217087   5.565   1.381   4.188 -0.7260 -0.1574  0.2494
 5708TIP3    H117088   5.646   1.400   4.141 -0.9264  2.6622  0.8469
 5708TIP3    H217089   5.496   1.415   4.131 -1.1425  1.0585  1.4209
 5709TIP3   OH217090   5.788   6.603   0.662  0.4135  0.2136 -0.2498
 5709TIP3    H117091   5.838   6.624   0.741 -1.3308  0.3164  0.8776
 5709TIP3    H217092   5.712   6.555   0.693  1.2175 -2.5383 -2.1939
 5710TIP3   OH217093   5.070   1.036   0.895  0.4123  0.6146  0.7483
 5710TIP3    H117094   5.129   1.091   0.844 -1.0268  1.6866  0.1804
 5710TIP3    H217095   4.988   1.085   0.899 -0.8328 -1.3150  0.5376
 5711TIP3   OH217096   3.906   5.088   2.621 -0.3660 -0.5155  0.3162
 5711TIP3    H117097   3.944   5.119   2.539 -0.5591 -0.4670  0.2430
 5711TIP3    H217098   3.981   5.067   2.676 -0.2327 -0.1177  0.2910
 5712TIP3   OH217099   6.678   3.908   5.157 -0.1855  0.4763  0.0181
 5712TIP3    H117100   6.671   3.959   5.238  1.0656  0.1335  0.3592
 5712TIP3    H217101   6.740   3.957   5.103  1.0425 -0.6520  0.3547
 5713TIP3   OH217102   1.508   3.804   0.089  0.5442 -0.1338 -0.7281
 5713TIP3    H117103   1.429   3.780   0.041 -0.2644  1.5695 -0.3353
 5713TIP3    H217104   1.579   3.766   0.039 -0.3923  0.0829 -2.2846
 5714TIP3   OH217105   5.097   4.061   4.676 -0.1666  0.0948 -0.8634
 5714TIP3    H117106   5.184   4.092   4.701 -0.0092  1.1516 -2.5661
 5714TIP3    H217107   5.107   3.966   4.667 -0.1134 -0.3029  2.3315
 5715TIP3   OH217108   3.193   6.489   0.038 -0.4610  0.7986 -0.3343
 5715TIP3    H117109   3.103   6.465   0.017 -0.8530  2.7659 -1.1397
 5715TIP3    H217110   3.185   6.547   0.114  0.3580 -0.7737  1.0011
 5716TIP3   OH217111   4.526   2.241   4.595  0.8012  0.2420  0.0552
 5716TIP3    H117112   4.496   2.230   4.504  1.4185  0.7406 -0.2185
 5716TIP3    H217113   4.554   2.332   4.600  2.1672 -0.1703  0.3135
 5717TIP3   OH217114   3.946   0.693   1.683 -0.0039 -0.8956 -0.3302
 5717TIP3    H117115   3.972   0.615   1.634  0.2710 -0.6731 -0.5433
 5717TIP3    H217116   4.005   0.761   1.651 -0.7611 -0.4142 -0.7117
 5718TIP3   OH217117   1.735   4.587   0.782 -0.2135  0.0584  0.2459
 5718TIP3    H117118   1.738   4.671   0.827  0.1407  0.8392 -1.1718
 5718TIP3    H217119   1.645   4.580   0.752 -0.2066 -0.0058  0.2402
 5719TIP3   OH217120   3.822   0.928   4.820 -0.0764 -0.2205 -0.2791
 5719TIP3    H117121   3.835   0.833   4.831  0.2916 -0.1609 -0.1862
 5719TIP3    H217122   3.835   0.964   4.908 -3.1993 -0.3918  0.3792
 5720TIP3   OH217123   1.311   5.193   1.707  0.3295  0.2357  0.4937
 5720TIP3    H117124   1.274   5.142   1.634 -0.7387 -1.0373  1.8527
 5720TIP3    H217125   1.289   5.142   1.785  1.7884  1.3522  1.6933
 5721TIP3   OH217126   5.773   1.938   1.240 -0.1065 -0.3182  0.2695
 5721TIP3    H117127   5.778   1.863   1.300  2.1381  1.0011  1.8745
 5721TIP3    H217128   5.724   2.004   1.289  2.2879  0.9994  1.0563
 5722TIP3   OH217129   3.870   4.622   3.980  0.3333 -0.4455 -0.7989
 5722TIP3    H117130   3.789   4.575   3.963 -0.2238  0.2602 -0.1941
 5722TIP3    H217131   3.844   4.715   3.980  0.5261 -0.2813  2.1896
 5723TIP3   OH217132   5.852   0.157   0.181 -0.5468 -0.7986 -0.0994
 5723TIP3    H117133   5.947   0.149   0.174 -0.4526  0.7284 -0.9090
 5723TIP3    H217134   5.837   0.186   0.271  0.0395  2.0031 -0.8294
 5724TIP3   OH217135   3.698   2.767   3.945  0.2042  0.0019 -0.7022
 5724TIP3    H117136   3.709   2.724   4.030 -0.9945 -0.4121 -0.7333
 5724TIP3    H217137   3.656   2.850   3.966  0.0860 -0.0159 -0.8690
 5725TIP3   OH217138   5.937   0.752   1.007 -0.7253 -0.1978 -0.3173
 5725TIP3    H117139   5.971   0.841   1.015 -2.6064  0.8058 -2.2602
 5725TIP3    H217140   5.869   0.745   1.074  0.8209 -0.9528  1.2181
 5726TIP3   OH217141   0.282   6.045   2.608  0.3467  0.6031  0.6001
 5726TIP3    H117142   0.198   5.999   2.605  1.3021 -1.1880 -2.2750
 5726TIP3    H217143   0.339   5.986   2.658  1.1058 -0.6517 -1.6118
 5727TIP3   OH217144   3.383   1.838   0.137  0.1470  0.0747 -0.2537
 5727TIP3    H117145   3.370   1.915   0.081  0.7670  1.0181  0.8573
 5727TIP3    H217146   3.449   1.866   0.200  2.0279 -2.1048 -1.1355
 5728TIP3   OH217147   2.041   5.316   2.904 -0.1098 -0.3653 -0.1965
 5728TIP3    H117148   1.949   5.307   2.929  0.0854 -1.0166  0.3166
 5728TIP3    H217149   2.054   5.410   2.892 -1.2333 -0.3787 -1.8202
 5729TIP3   OH217150   5.642   0.124   3.793  0.5800 -0.4187 -0.0927
 5729TIP3    H117151   5.721   0.141   3.741  0.5658  0.0157  0.0276
 5729TIP3    H217152   5.570   0.137   3.732  0.4839  1.5739  0.3815
 5730TIP3   OH217153   5.173   0.697   2.841  0.2423  0.2552 -0.3485
 5730TIP3    H117154   5.145   0.755   2.912 -0.2590 -0.0554 -0.2910
 5730TIP3    H217155   5.138   0.611   2.865  2.8704 -0.6219  0.7604
 5731TIP3   OH217156   2.931   3.439   5.296 -0.4459 -0.0735  0.0974
 5731TIP3    H117157   2.966   3.508   5.352 -0.2433  0.8402 -1.0985
 5731TIP3    H217158   2.999   3.372   5.294 -0.0306  0.3450  0.1528
 5732TIP3   OH217159   5.666   3.563   2.576 -0.0022  0.3604 -0.0074
 5732TIP3    H117160   5.711   3.603   2.651  1.1284 -0.8717  0.0006
 5732TIP3    H217161   5.586   3.526   2.613 -0.0180  0.7577  0.3705
 5733TIP3   OH217162   0.093   6.161   0.662 -0.0651  0.6193  0.4340
 5733TIP3    H117163   0.061   6.217   0.732 -0.9046  1.6596 -0.7321
 5733TIP3    H217164   0.149   6.097   0.706 -2.4089 -0.2423  2.3520
 5734TIP3   OH217165   6.195   2.805   0.957 -0.1112  0.5856  0.1122
 5734TIP3    H117166   6.129   2.820   0.889  0.7088  0.0639 -0.8294
 5734TIP3    H217167   6.151   2.752   1.023 -0.7448  0.5559 -0.3298
 5735TIP3   OH217168   6.264   6.202   5.103  0.0757  0.2697 -0.3708
 5735TIP3    H117169   6.342   6.227   5.054  0.8826 -0.6816  0.4006
 5735TIP3    H217170   6.196   6.260   5.070  1.4516  2.2484  0.0749
 5736TIP3   OH217171   2.892   6.645   3.673 -0.5376 -0.0356 -0.2940
 5736TIP3    H117172   2.802   6.677   3.680 -0.4003  0.2260  0.2951
 5736TIP3    H217173   2.908   6.597   3.754 -1.5928 -3.9227 -2.1317
 5737TIP3   OH217174   6.712   4.943   5.836 -0.1824  0.2738 -0.8204
 5737TIP3    H117175   6.798   4.906   5.856 -0.7615 -0.6155  0.0782
 5737TIP3    H217176   6.708   4.944   5.740  0.9789  0.7049 -0.8836
 5738TIP3   OH217177   4.286   6.788   5.107 -0.4541 -0.0587 -0.3742
 5738TIP3    H117178   4.209   6.844   5.113 -0.5635 -0.2689  0.2840
 5738TIP3    H217179   4.290   6.744   5.192  1.7517  1.7263  0.5457
 5739TIP3   OH217180   4.721   0.408   3.595 -0.2326 -0.4496 -0.3847
 5739TIP3    H117181   4.801   0.391   3.646  0.0625  0.7788 -0.3962
 5739TIP3    H217182   4.702   0.325   3.553 -0.7295 -1.6518  2.0228
 5740TIP3   OH217183   4.213   6.792   4.833 -0.0243 -0.1092  0.0878
 5740TIP3    H117184   4.219   6.801   4.928  0.9336  1.0397 -0.0536
 5740TIP3    H217185   4.293   6.746   4.808  0.9394  1.6715 -0.3464
 5741TIP3   OH217186   6.972   1.844   1.693  0.5544  0.3658  0.2668
 5741TIP3    H117187   6.992   1.934   1.667 -0.1644  0.9088  1.4976
 5741TIP3    H217188   6.998   1.791   1.618 -1.4990  1.8304 -1.6063
 5742TIP3   OH217189   2.659   3.379   0.999  0.2139  0.5996  0.3687
 5742TIP3    H117190   2.747   3.342   0.989  0.3198  0.8944  0.2091
 5742TIP3    H217191   2.672   3.473   0.991 -0.1861  0.6120 -0.1662
 5743TIP3   OH217192   1.030   0.749   5.716 -0.0360  0.4584  0.3639
 5743TIP3    H117193   1.099   0.793   5.766  0.4763  0.8206 -0.6399
 5743TIP3    H217194   1.000   0.814   5.654 -0.5822 -0.0253  0.1123
 5744TIP3   OH217195   3.007   3.271   4.757 -0.8928 -0.5549 -0.1225
 5744TIP3    H117196   3.073   3.341   4.750 -1.0539 -0.5332 -1.6422
 5744TIP3    H217197   3.017   3.221   4.676 -3.5250  0.1340 -0.9441
 5745TIP3   OH217198   2.195   6.170   1.282  0.1922 -0.3275  0.5626
 5745TIP3    H117199   2.264   6.227   1.249  1.0868 -0.9010  1.3928
 5745TIP3    H217200   2.155   6.219   1.354 -0.9057  0.3872 -0.4957
 5746TIP3   OH217201   3.146   5.039   0.902  0.2328  0.3363  0.0396
 5746TIP3    H117202   3.112   5.116   0.857 -0.5597 -0.8284 -1.4542
 5746TIP3    H217203   3.123   5.053   0.994 -2.5847  0.5683 -0.6019
 5747TIP3   OH217204   4.945   6.664   3.352  0.2610  0.0665  0.2303
 5747TIP3    H117205   4.958   6.758   3.338 -2.7016  0.4416 -0.6482
 5747TIP3    H217206   4.986   6.647   3.437  1.3297  1.9984  0.1658
 5748TIP3   OH217207   4.272   1.889   4.809  0.1311  0.1135  0.0242
 5748TIP3    H117208   4.200   1.936   4.768 -0.8601  0.3367  1.9244
 5748TIP3    H217209   4.342   1.955   4.817  1.4774 -0.6062 -3.7227
 5749TIP3   OH217210   6.612   0.467   0.391 -0.8443 -0.0847  0.3113
 5749TIP3    H117211   6.642   0.557   0.377 -1.4786  0.2524  1.0859
 5749TIP3    H217212   6.563   0.470   0.473  0.0134 -1.3479  0.9125
 5750TIP3   OH217213   5.206   4.924   4.864 -0.4080  0.2497 -0.5914
 5750TIP3    H117214   5.190   4.898   4.955 -0.8198  0.8228 -0.4935
 5750TIP3    H217215   5.261   5.002   4.870 -0.5105  0.3417 -0.8285
 5751TIP3   OH217216   3.425   5.905   2.123 -0.3112  0.3890  0.2082
 5751TIP3    H117217   3.333   5.929   2.125 -0.6905 -0.6779 -1.5722
 5751TIP3    H217218   3.450   5.912   2.031  0.5479 -2.1159  0.1546
 5752TIP3   OH217219   4.937   3.684   1.001  0.1128 -0.5523 -0.0155
 5752TIP3    H117220   5.006   3.618   1.012  1.1216 -0.0423 -2.5770
 5752TIP3    H217221   4.871   3.661   1.066  2.1664 -1.7343  1.8061
 5753TIP3   OH217222   5.583   2.459   4.296 -0.1948 -0.0787  0.6045
 5753TIP3    H117223   5.510   2.430   4.350 -0.8859  0.1490 -0.1831
 5753TIP3    H217224   5.564   2.423   4.209  0.2062  0.6516  0.2049
 5754TIP3   OH217225   1.159   5.671   4.606  0.3007 -0.1107  0.2095
 5754TIP3    H117226   1.200   5.662   4.692 -0.4120 -0.1783  0.5556
 5754TIP3    H217227   1.066   5.685   4.626  0.0602 -0.5775 -0.5628
 5755TIP3   OH217228   2.023   3.081   2.803 -0.1198 -0.3004 -0.4686
 5755TIP3    H117229   2.063   3.155   2.757 -0.1666  0.2474  0.3557
 5755TIP3    H217230   2.097   3.035   2.843 -0.2767  0.9190  1.3602
 5756TIP3   OH217231   1.012   2.543   2.822  0.1005  0.5274  0.3505
 5756TIP3    H117232   0.974   2.629   2.803  1.1883  0.7006 -1.2430
 5756TIP3    H217233   1.014   2.499   2.738  1.8508 -0.1040  0.6741
 5757TIP3   OH217234   1.943   3.201   0.996  0.0621 -0.0266 -0.1345
 5757TIP3    H117235   1.857   3.166   1.022  0.3273  0.8201  2.1120
 5757TIP3    H217236   1.971   3.254   1.071  1.8100  1.0932 -1.5027
 5758TIP3   OH217237   4.053   0.540   0.493  0.4882  0.2529 -0.1660
 5758TIP3    H117238   3.982   0.576   0.440 -0.9641 -1.8481  0.2647
 5758TIP3    H217239   4.093   0.473   0.437 -0.6140 -1.4962  1.0667
 5759TIP3   OH217240   2.123   0.420   1.852 -0.1485 -0.2423 -0.4689
 5759TIP3    H117241   2.112   0.367   1.932  0.0221 -0.9604 -0.9126
 5759TIP3    H217242   2.045   0.475   1.849 -0.3566 -0.5039 -0.0250
 5760TIP3   OH217243   5.964   5.653   2.629 -0.2405  0.0472  0.1580
 5760TIP3    H117244   5.899   5.608   2.575 -0.4296 -0.3277  0.6981
 5760TIP3    H217245   5.929   5.650   2.717 -0.4288  1.5866  0.1533
 5761TIP3   OH217246   1.312   4.214   1.971  0.0701  0.0389 -0.4650
 5761TIP3    H117247   1.397   4.216   2.016 -0.1501  0.1076 -0.0560
 5761TIP3    H217248   1.316   4.136   1.916  0.0291 -0.4873  0.2730
 5762TIP3   OH217249   5.769   2.632   5.302  0.5944  0.8365 -0.1837
 5762TIP3    H117250   5.697   2.578   5.335  0.6940  0.8648  0.0796
 5762TIP3    H217251   5.726   2.696   5.245 -0.0793  3.1614  2.6882
 5763TIP3   OH217252   5.670   1.521   5.550  0.6355 -0.3656  0.0550
 5763TIP3    H117253   5.743   1.459   5.554  0.4855 -0.4963  1.2445
 5763TIP3    H217254   5.606   1.486   5.612 -0.3605 -0.1435 -0.8158
 5764TIP3   OH217255   2.168   1.131   0.995 -0.2815  0.5055 -0.5835
 5764TIP3    H117256   2.077   1.110   1.018 -0.1102 -0.3264 -0.6228
 5764TIP3    H217257   2.189   1.070   0.924  0.7918 -0.3917  0.4617
 5765TIP3   OH217258   5.930   1.362   0.837  0.8771  0.2323 -0.3152
 5765TIP3    H117259   5.951   1.287   0.894  0.3035 -0.9928 -1.6497
 5765TIP3    H217260   5.884   1.423   0.894  1.3126 -0.4528  0.8093
 5766TIP3   OH217261   0.847   3.532   5.160 -0.5367 -0.2421  0.4349
 5766TIP3    H117262   0.929   3.563   5.121 -0.6023 -0.1079  0.4011
 5766TIP3    H217263   0.794   3.611   5.169 -1.0905 -0.4705 -0.5626
 5767TIP3   OH217264   4.871   6.392   3.653  0.2571  0.1443  0.0717
 5767TIP3    H117265   4.922   6.347   3.585  0.2436  0.4161 -0.1188
 5767TIP3    H217266   4.914   6.368   3.735 -0.1191 -0.7277  0.0321
 5768TIP3   OH217267   0.496   1.459   1.189 -0.4017  0.2763  0.1984
 5768TIP3    H117268   0.456   1.543   1.213 -0.2218  0.5022 -0.2781
 5768TIP3    H217269   0.591   1.476   1.192 -0.3686  0.6386 -1.7609
 5769TIP3   OH217270   5.411   1.116   2.047  0.1089  0.0690 -0.2431
 5769TIP3    H117271   5.380   1.179   1.982 -0.3502 -0.0322 -0.1218
 5769TIP3    H217272   5.424   1.168   2.126  1.6171  0.3872 -0.6683
 5770TIP3   OH217273   1.865   0.350   2.996 -0.7538  0.0947 -0.6880
 5770TIP3    H117274   1.906   0.430   3.027 -1.1980  1.1860 -2.7156
 5770TIP3    H217275   1.774   0.374   2.981 -1.1547 -1.1129 -0.2918
 5771TIP3   OH217276   2.518   2.793   2.214 -0.0281  0.8152  0.2531
 5771TIP3    H117277   2.488   2.884   2.212  1.3625  1.2877 -1.0019
 5771TIP3    H217278   2.609   2.799   2.242  0.3137 -0.1185 -0.6311
 5772TIP3   OH217279   4.484   2.877   3.972 -0.6081 -0.0024 -0.2133
 5772TIP3    H117280   4.400   2.831   3.967 -0.9782  0.7550 -1.8958
 5772TIP3    H217281   4.464   2.966   3.942  0.8005  0.1561 -0.7817
 5773TIP3   OH217282   5.178   1.461   1.588 -0.2420 -0.1733 -0.3012
 5773TIP3    H117283   5.089   1.495   1.600 -1.0350 -2.6594  2.0295
 5773TIP3    H217284   5.234   1.523   1.635 -0.8917  0.7366 -0.7043
 5774TIP3   OH217285   6.793   1.807   4.129  0.2338  0.6073 -0.1876
 5774TIP3    H117286   6.856   1.832   4.196 -0.6241  1.1726  0.4415
 5774TIP3    H217287   6.739   1.740   4.171  1.0271 -0.6164 -1.0623
 5775TIP3   OH217288   1.154   4.618   1.057 -0.6669 -0.9887  0.3006
 5775TIP3    H117289   1.214   4.552   1.021  2.1903  1.3890  0.3145
 5775TIP3    H217290   1.183   4.700   1.018 -1.9117  0.7484  2.7689
 5776TIP3   OH217291   3.008   2.791   4.909 -0.7749  0.0909 -0.4238
 5776TIP3    H117292   3.056   2.714   4.939  0.9281  0.8070 -1.1855
 5776TIP3    H217293   2.944   2.807   4.978 -0.5118 -1.4201  0.2157
 5777TIP3   OH217294   2.995   5.124   4.512  0.1843 -0.1601 -0.5958
 5777TIP3    H117295   2.927   5.094   4.573  0.0672 -0.1206 -0.7068
 5777TIP3    H217296   2.958   5.107   4.425  1.3890 -2.6402 -0.6967
 5778TIP3   OH217297   3.079   4.938   3.111 -0.5038 -0.2680  0.4384
 5778TIP3    H117298   3.102   5.028   3.136  2.7106 -1.0304  0.6449
 5778TIP3    H217299   3.009   4.914   3.170 -0.7043  1.7433  1.1065
 5779TIP3   OH217300   1.709   6.656   0.472 -0.2935  0.4907 -0.0018
 5779TIP3    H117301   1.778   6.705   0.515  1.0481  1.5656 -3.1066
 5779TIP3    H217302   1.632   6.668   0.528  1.3974  1.2438  2.3073
 5780TIP3   OH217303   5.591   3.234   5.211 -0.2419  0.0566 -0.2168
 5780TIP3    H117304   5.529   3.194   5.272 -0.6535 -0.5459 -0.9987
 5780TIP3    H217305   5.539   3.249   5.132  1.0346 -2.4203 -1.6663
 5781TIP3   OH217306   0.467   2.260   3.740 -0.7185  0.1200 -0.2474
 5781TIP3    H117307   0.495   2.262   3.832  0.1928  0.1808 -0.5154
 5781TIP3    H217308   0.412   2.338   3.730 -0.2282  0.5152  0.0757
 5782TIP3   OH217309   6.272   5.575   3.540 -0.0613  0.1525 -0.4804
 5782TIP3    H117310   6.225   5.516   3.481  0.4316 -0.3808 -0.3510
 5782TIP3    H217311   6.352   5.527   3.564  0.3598  0.8764 -0.3860
 5783TIP3   OH217312   1.219   3.204   4.574  0.3743 -0.4187 -0.5860
 5783TIP3    H117313   1.298   3.189   4.628  0.7560 -0.8055 -1.2402
 5783TIP3    H217314   1.225   3.296   4.548 -1.2140  0.5954  2.2297
 5784TIP3   OH217315   2.122   3.412   3.305  0.1990 -0.1892  0.9165
 5784TIP3    H117316   2.067   3.483   3.339 -0.6591 -1.0934  1.4751
 5784TIP3    H217317   2.208   3.452   3.294 -0.2579  0.9350  1.2398
 5785TIP3   OH217318   1.580   4.672   0.084  0.1533  0.3484  0.3455
 5785TIP3    H117319   1.606   4.706  -0.001 -1.7194 -2.0146 -1.2972
 5785TIP3    H217320   1.484   4.664   0.078  0.0683 -0.7431  2.3300
 5786TIP3   OH217321   1.260   4.008   1.545 -0.6785  0.3502  0.1007
 5786TIP3    H117322   1.224   3.949   1.611  2.4365 -1.5992  0.2639
 5786TIP3    H217323   1.257   4.094   1.586 -1.0714 -0.4244  1.8060
 5787TIP3   OH217324   5.803   6.262   2.288  0.0625  0.5562 -0.0548
 5787TIP3    H117325   5.731   6.275   2.350 -1.3430 -0.6532 -1.3319
 5787TIP3    H217326   5.847   6.346   2.284  0.1410  0.7098  2.4673
 5788TIP3   OH217327   2.525   3.646   1.075  0.5008  0.1058 -0.4369
 5788TIP3    H117328   2.452   3.585   1.064  1.1897 -0.9305  0.4994
 5788TIP3    H217329   2.535   3.688   0.990 -1.4169  0.5661 -0.4872
 5789TIP3   OH217330   6.370   5.146   1.837 -0.4340  0.4934 -0.0516
 5789TIP3    H117331   6.398   5.176   1.750  0.8087 -0.2858  0.0667
 5789TIP3    H217332   6.286   5.103   1.821  0.5634 -1.1230 -1.1543
 5790TIP3   OH217333   4.948   1.054   4.636  0.3934 -0.0983 -0.3619
 5790TIP3    H117334   4.920   1.079   4.548  2.5891 -0.5014 -1.2548
 5790TIP3    H217335   4.900   0.973   4.654  1.0315 -0.8573 -1.8728
 5791TIP3   OH217336   5.385   1.138   5.191 -0.1591  0.1735  0.0714
 5791TIP3    H117337   5.299   1.179   5.198 -0.2507 -0.1935  1.2466
 5791TIP3    H217338   5.444   1.209   5.166 -0.6621  0.5893  0.0641
 5792TIP3   OH217339   1.228   1.773   0.149 -0.7578  0.2414 -0.1044
 5792TIP3    H117340   1.234   1.809   0.061 -0.9101  1.1615  0.2552
 5792TIP3    H217341   1.193   1.844   0.203  1.1087  0.3169  1.0868
 5793TIP3   OH217342   3.801   5.618   2.579  0.5289  0.2385  0.5849
 5793TIP3    H117343   3.850   5.541   2.610  1.0394  0.6030  0.6957
 5793TIP3    H217344   3.839   5.637   2.493  1.5807  1.3719  1.2622
 5794TIP3   OH217345   2.965   4.052   0.800 -0.0960 -0.0032 -0.0088
 5794TIP3    H117346   3.046   4.101   0.787 -0.2467  0.6368  1.3568
 5794TIP3    H217347   2.993   3.963   0.820  0.2699  0.2335  0.5270
 5795TIP3   OH217348   2.895   0.523   3.978 -0.2791 -0.6065 -0.0377
 5795TIP3    H117349   2.884   0.466   3.902 -0.7468 -0.2895 -0.2141
 5795TIP3    H217350   2.965   0.482   4.029  1.3091  0.1341 -1.5334
 5796TIP3   OH217351   1.302   0.599   2.093  0.7698 -0.0826  0.1110
 5796TIP3    H117352   1.222   0.616   2.144  0.1288  2.1267 -1.4828
 5796TIP3    H217353   1.275   0.535   2.026  0.4729  0.2518 -0.0902
 5797TIP3   OH217354   2.269   1.898   5.319 -0.0378 -0.2669 -0.4595
 5797TIP3    H117355   2.239   1.989   5.323 -1.1933 -0.5425 -1.9640
 5797TIP3    H217356   2.240   1.859   5.402 -1.3201  0.2360 -0.6488
 5798TIP3   OH217357   5.562   3.745   4.072  0.4189 -0.1232  0.2624
 5798TIP3    H117358   5.606   3.661   4.087 -0.9677 -0.5442  2.3993
 5798TIP3    H217359   5.583   3.797   4.150 -1.7242  0.1191  0.7446
 5799TIP3   OH217360   4.836   0.624   2.828 -0.0227 -0.2466 -0.1510
 5799TIP3    H117361   4.826   0.707   2.874  0.1007 -0.6112  0.5570
 5799TIP3    H217362   4.747   0.601   2.801 -0.0363  0.1874 -0.4862
 5800TIP3   OH217363   4.046   5.117   5.758  0.5196 -0.0872 -0.1515
 5800TIP3    H117364   3.987   5.043   5.739  1.0032 -0.5161 -0.0055
 5800TIP3    H217365   4.131   5.089   5.723  0.3641  1.0661 -1.5667
 5801TIP3   OH217366   0.968   2.256   1.291  0.1000 -0.0633 -0.1353
 5801TIP3    H117367   0.894   2.293   1.243 -1.0827 -0.5216  1.2753
 5801TIP3    H217368   0.935   2.173   1.326  1.0740  0.0364  1.0829
 5802TIP3   OH217369   4.914   1.522   1.647 -0.2086  0.0555  0.2633
 5802TIP3    H117370   4.902   1.617   1.641 -0.0048  0.0305 -0.7810
 5802TIP3    H217371   4.871   1.497   1.729  2.1666  1.4271  2.0394
 5803TIP3   OH217372   5.629   3.201   3.600 -0.2628 -0.4820  0.1326
 5803TIP3    H117373   5.690   3.233   3.666 -0.6278  1.9918 -0.6032
 5803TIP3    H217374   5.543   3.214   3.638 -0.4250 -0.5467 -0.2068
 5804TIP3   OH217375   2.720   0.664   2.051  0.5335  0.3593 -0.7792
 5804TIP3    H117376   2.721   0.759   2.060  0.3173  0.2962 -0.0263
 5804TIP3    H217377   2.748   0.631   2.136  1.7931 -0.2376 -1.3926
 5805TIP3   OH217378   4.233   4.928   5.542 -0.0663 -0.5283 -0.7723
 5805TIP3    H117379   4.163   4.909   5.480  0.2890 -1.1966 -0.9849
 5805TIP3    H217380   4.299   4.860   5.525 -0.7186 -1.8488  1.5175
 5806TIP3   OH217381   2.711   1.016   4.901  0.6233  0.4135 -0.3267
 5806TIP3    H117382   2.648   1.080   4.867 -0.7834 -0.0593  1.2893
 5806TIP3    H217383   2.754   1.061   4.974  1.0510  0.1918 -0.4394
 5807TIP3   OH217384   1.062   5.043   1.079 -0.4329  0.2577  0.0573
 5807TIP3    H117385   1.073   5.119   1.136 -0.3965 -1.0678  1.9076
 5807TIP3    H217386   0.968   5.029   1.075 -0.3817 -0.3909  0.8582
 5808TIP3   OH217387   2.587   3.392   0.037  0.0889 -0.1184  0.1869
 5808TIP3    H117388   2.632   3.388   0.122 -0.2681 -0.4216  0.3645
 5808TIP3    H217389   2.580   3.486   0.019  1.3536 -0.0616 -0.1510
 5809TIP3   OH217390   5.060   2.517   2.004  0.1490 -0.1528 -0.1524
 5809TIP3    H117391   5.102   2.463   2.071  1.4437 -0.9888 -1.5577
 5809TIP3    H217392   5.039   2.599   2.048  0.5134 -0.8585  1.3820
 5810TIP3   OH217393   4.177   1.256   0.091  0.2622  0.0658  0.3862
 5810TIP3    H117394   4.092   1.273   0.050  0.2703 -1.7960 -0.5142
 5810TIP3    H217395   4.241   1.293   0.031  0.1297  2.1768  1.4431
 5811TIP3   OH217396   0.507   3.928   3.072 -0.7160  0.5033  0.0196
 5811TIP3    H117397   0.486   3.864   3.139  2.4420 -0.8758 -0.1072
 5811TIP3    H217398   0.496   3.881   2.989 -1.5556  1.2092 -0.2861
 5812TIP3   OH217399   0.496   4.821   0.418  0.4341  0.4890  0.0679
 5812TIP3    H117400   0.553   4.751   0.386 -0.0155  0.9315 -1.8511
 5812TIP3    H217401   0.555   4.894   0.435  0.4696  1.4013 -3.1906
 5813TIP3   OH217402   2.927   1.559   0.735 -0.1442  0.1835  0.3070
 5813TIP3    H117403   2.922   1.517   0.822  2.4571  2.3125  1.6289
 5813TIP3    H217404   2.838   1.551   0.700 -0.4031 -4.2813  1.3625
 5814TIP3   OH217405   3.645   5.119   3.682 -0.5703  0.3852 -0.1239
 5814TIP3    H117406   3.712   5.053   3.664 -0.7952  0.4305 -1.2257
 5814TIP3    H217407   3.693   5.195   3.716 -0.3645 -0.4997  1.6737
 5815TIP3   OH217408   5.767   3.469   4.442  0.0103  0.3434 -0.6180
 5815TIP3    H117409   5.767   3.451   4.535  1.3652  2.7181 -0.0627
 5815TIP3    H217410   5.816   3.397   4.403  0.8783  0.1691  0.7317
 5816TIP3   OH217411   1.679   1.487   1.056 -0.1544  0.0568 -0.7388
 5816TIP3    H117412   1.662   1.487   1.150 -1.2312  0.4333 -0.9256
 5816TIP3    H217413   1.600   1.523   1.016  1.1225  2.0211 -1.6532
 5817TIP3   OH217414   2.945   6.361   1.029  0.4412  0.7574 -0.2480
 5817TIP3    H117415   2.949   6.349   1.124  1.2390 -0.9092 -0.4450
 5817TIP3    H217416   3.037   6.363   1.002  0.2223  1.6824 -0.9437
 5818TIP3   OH217417   5.075   6.042   4.171 -0.3966 -0.3777 -0.1963
 5818TIP3    H117418   5.014   5.967   4.170  2.0510 -2.5277  0.2147
 5818TIP3    H217419   5.124   6.033   4.090  0.0969  0.6909 -0.0278
 5819TIP3   OH217420   5.423   2.055   2.214  0.1132 -0.0416 -0.5085
 5819TIP3    H117421   5.396   1.963   2.211 -0.3300  0.0745 -0.1902
 5819TIP3    H217422   5.351   2.099   2.259 -0.0206  0.5868 -1.3265
 5820TIP3   OH217423   2.798   6.511   0.380 -0.0287  0.0120 -0.3159
 5820TIP3    H117424   2.857   6.553   0.443 -1.5303 -0.4381  1.4725
 5820TIP3    H217425   2.853   6.447   0.335  1.2862  0.9382 -0.1036
 5821TIP3   OH217426   0.086   4.733   0.973 -0.0151  0.2571 -0.5493
 5821TIP3    H117427   0.171   4.777   0.967  0.1739 -0.2414 -1.6986
 5821TIP3    H217428   0.074   4.691   0.888 -0.5430 -1.2660  0.2317
 5822TIP3   OH217429   6.101   5.880   0.454 -0.2722  0.3369 -0.1694
 5822TIP3    H117430   6.039   5.808   0.440 -0.6467  0.8305 -1.1227
 5822TIP3    H217431   6.054   5.943   0.508 -0.7954  0.9112 -1.2468
 5823TIP3   OH217432   3.980   2.012   1.910  0.3382 -0.1138 -0.1293
 5823TIP3    H117433   3.973   2.052   1.997  0.1145 -0.6250  0.0921
 5823TIP3    H217434   3.908   2.051   1.860  1.7540  1.8534 -0.7842
 5824TIP3   OH217435   4.164   6.071   5.725 -0.0255  0.8965  0.2262
 5824TIP3    H117436   4.212   6.154   5.719 -2.1027  2.2535  1.1972
 5824TIP3    H217437   4.072   6.097   5.725 -0.7461 -1.1816  3.2025
 5825TIP3   OH217438   5.513   2.399   4.013 -0.3722  0.0012  0.6409
 5825TIP3    H117439   5.543   2.348   3.938  0.5567  0.6304  0.5678
 5825TIP3    H217440   5.421   2.376   4.022 -0.0382 -1.4974  0.4670
 5826TIP3   OH217441   3.816   4.715   5.460 -0.9340  0.2813  0.0217
 5826TIP3    H117442   3.727   4.734   5.431 -1.7204 -1.2140  1.3202
 5826TIP3    H217443   3.805   4.665   5.541  1.0663 -0.7291 -0.2710
 5827TIP3   OH217444   1.055   0.068   0.582  0.2744 -0.0799  0.4096
 5827TIP3    H117445   1.028  -0.016   0.620 -0.1536 -0.8184 -1.4151
 5827TIP3    H217446   1.041   0.132   0.652 -2.2476 -1.0638  0.8967
 5828TIP3   OH217447   1.364   5.052   5.599  0.0241 -0.2431 -0.3183
 5828TIP3    H117448   1.406   5.138   5.606 -0.3862  0.0050 -0.7723
 5828TIP3    H217449   1.325   5.037   5.685 -1.5676  0.9317 -0.7843
 5829TIP3   OH217450   1.693   5.279   4.520 -0.1288  0.0617 -0.1552
 5829TIP3    H117451   1.732   5.327   4.447 -0.3936  0.7079  0.1198
 5829TIP3    H217452   1.759   5.213   4.543  0.6708  0.9232  0.0923
 5830TIP3   OH217453   2.507   6.337   5.249  0.5572  0.3137  0.3839
 5830TIP3    H117454   2.535   6.420   5.210 -3.4805  1.6667 -0.1765
 5830TIP3    H217455   2.453   6.363   5.324 -3.2894 -1.3771 -1.4849
 5831TIP3   OH217456   0.494   1.692   0.645  0.1294  0.8837  0.4690
 5831TIP3    H117457   0.442   1.615   0.671 -0.7209  0.9877 -0.8333
 5831TIP3    H217458   0.585   1.661   0.647 -0.1846 -0.1118  0.1532
 5832TIP3   OH217459   3.975   0.902   0.360 -0.3203  0.1544 -0.4181
 5832TIP3    H117460   3.967   0.841   0.433 -0.3255 -0.5831 -1.0202
 5832TIP3    H217461   3.930   0.859   0.288  0.5184  0.4281 -1.1246
 5833TIP3   OH217462   5.615   1.902   5.436 -0.2465 -0.2680  0.0548
 5833TIP3    H117463   5.527   1.925   5.407  0.0407  1.5779  0.5061
 5833TIP3    H217464   5.672   1.947   5.373  0.4074 -1.8820 -0.5599
 5834TIP3   OH217465   7.112   5.654   2.940  0.2877 -0.0869 -0.6078
 5834TIP3    H117466   7.177   5.629   3.006 -0.7804  1.2463  1.0453
 5834TIP3    H217467   7.042   5.697   2.990 -2.0229 -1.6697 -2.2498
 5835TIP3   OH217468   2.219   5.052   4.441  0.1565  0.5302 -0.5224
 5835TIP3    H117469   2.235   5.077   4.532 -0.4191 -0.7805 -0.0349
 5835TIP3    H217470   2.172   5.126   4.403  0.4815  1.1259  0.2161
 5836TIP3   OH217471   0.495   3.462   1.697 -0.2441  0.4048  0.4637
 5836TIP3    H117472   0.505   3.533   1.761 -0.0016  1.2446 -0.4762
 5836TIP3    H217473   0.581   3.421   1.694 -0.1621  0.5751  0.4427
 5837TIP3   OH217474   1.094   2.101   3.388  0.3610  0.5508  0.2602
 5837TIP3    H117475   1.022   2.124   3.447 -0.6792  0.6313 -0.9921
 5837TIP3    H217476   1.170   2.091   3.446 -0.3988  1.5521  1.4937
 5838TIP3   OH217477   3.536   0.124   0.137  0.3220 -0.8450  0.2803
 5838TIP3    H117478   3.476   0.154   0.068  0.3302 -1.7291 -0.1303
 5838TIP3    H217479   3.607   0.080   0.090  1.7284  0.8725  0.7158
 5839TIP3   OH217480   7.015   0.769   3.470 -0.3317 -0.4360  0.1114
 5839TIP3    H117481   6.960   0.846   3.462  1.9169  1.0860 -2.5145
 5839TIP3    H217482   6.999   0.718   3.391  2.4560  0.5161 -1.2220
 5840TIP3   OH217483   3.139   3.187   2.074  0.1011 -0.5376 -0.7120
 5840TIP3    H117484   3.174   3.142   1.997  0.3833 -1.7521  0.0951
 5840TIP3    H217485   3.211   3.189   2.136 -0.4910 -0.7387 -0.0018
 5841TIP3   OH217486   2.257   6.256   0.433  0.4974 -0.3673 -0.1953
 5841TIP3    H117487   2.189   6.315   0.465  0.9069  0.4315 -0.7725
 5841TIP3    H217488   2.212   6.171   0.424 -0.2081 -0.0450  0.2089
 5842TIP3   OH217489   4.815   5.350   5.697  0.0971 -0.4306 -0.1299
 5842TIP3    H117490   4.725   5.347   5.666  0.5011 -1.3600 -1.2956
 5842TIP3    H217491   4.809   5.374   5.789 -1.2660  0.6590 -0.4745
 5843TIP3   OH217492   0.566   4.706   3.371  0.4623  1.2016  0.2610
 5843TIP3    H117493   0.593   4.724   3.461  1.0937  2.3607 -0.1391
 5843TIP3    H217494   0.474   4.733   3.367  0.0107 -0.1717  0.9073
 5844TIP3   OH217495   6.305   4.753   2.378  0.7943  0.0869  0.4095
 5844TIP3    H117496   6.243   4.729   2.309 -0.6838 -0.3491  1.8204
 5844TIP3    H217497   6.381   4.787   2.331  0.4801 -1.5984 -1.4955
 5845TIP3   OH217498   1.340   3.759   4.735  0.0577 -0.9503  0.4009
 5845TIP3    H117499   1.380   3.722   4.814 -0.7997 -2.7686  0.0535
 5845TIP3    H217500   1.361   3.696   4.667  0.6680  0.5268 -0.8212
 5846TIP3   OH217501   0.287   6.187   2.850 -0.5725  0.6764  0.0654
 5846TIP3    H117502   0.218   6.122   2.836  1.0614 -1.2009  0.3772
 5846TIP3    H217503   0.330   6.195   2.764 -0.2657  0.7590  0.2276
 5847TIP3   OH217504   6.419   1.052   4.800  0.1255  0.1362  0.4000
 5847TIP3    H117505   6.364   1.118   4.842 -1.0326  1.4611 -2.8859
 5847TIP3    H217506   6.504   1.095   4.791  0.0213  0.3180  0.2754
 5848TIP3   OH217507   4.287   6.508   1.483 -0.3923 -0.3155 -0.1491
 5848TIP3    H117508   4.367   6.503   1.432 -0.0956 -2.2634  0.4251
 5848TIP3    H217509   4.292   6.592   1.529  0.2785  0.5434 -1.7350
 5849TIP3   OH217510   1.595   4.012   2.685  0.1824  0.2802 -0.3554
 5849TIP3    H117511   1.673   4.067   2.678 -0.6348  1.5318  0.0555
 5849TIP3    H217512   1.542   4.054   2.753 -1.5070  0.2898 -1.6152
 5850TIP3   OH217513   1.079   2.222   3.636  0.6097 -0.8394 -0.4954
 5850TIP3    H117514   1.094   2.284   3.564 -0.8719  0.3790  0.1893
 5850TIP3    H217515   1.142   2.247   3.703  0.0485 -0.0862 -0.2407
 5851TIP3   OH217516   2.826   3.091   1.876 -0.0174  0.2290 -0.1067
 5851TIP3    H117517   2.880   3.039   1.816  0.7008 -0.5573  1.1893
 5851TIP3    H217518   2.737   3.080   1.843  0.3352 -0.3728 -0.8955
 5852TIP3   OH217519   2.861   4.978   2.904 -0.2468  0.1208  0.6201
 5852TIP3    H117520   2.857   5.002   2.997  0.4837  0.1713  0.6408
 5852TIP3    H217521   2.887   4.886   2.905 -0.8604 -0.0604  0.4768
 5853TIP3   OH217522   6.539   6.605   4.175  0.3902  0.2356 -0.4053
 5853TIP3    H117523   6.557   6.580   4.266  1.7374  0.7556 -0.5014
 5853TIP3    H217524   6.520   6.699   4.180 -3.1416 -0.3666 -0.2340
 5854TIP3   OH217525   6.154   1.929   4.062 -0.7660  0.6843  0.3499
 5854TIP3    H117526   6.127   2.020   4.071  1.3833  1.3690  0.6082
 5854TIP3    H217527   6.176   1.902   4.152  1.1224  0.8203 -0.0272
 5855TIP3   OH217528   3.607   0.593   2.410 -0.3984  0.0275 -0.3464
 5855TIP3    H117529   3.652   0.678   2.408 -0.5651  0.1959  1.4231
 5855TIP3    H217530   3.633   0.550   2.328  2.2449  0.5055  0.1424
 5856TIP3   OH217531   4.802   6.704   3.962 -0.2427  0.8746  0.1289
 5856TIP3    H117532   4.767   6.747   3.884  0.1339  0.5001 -0.2623
 5856TIP3    H217533   4.892   6.737   3.969 -0.3688  1.1294  0.5793
 5857TIP3   OH217534   6.495   4.571   5.251  0.0066 -0.0234 -0.5205
 5857TIP3    H117535   6.538   4.505   5.304  2.5096  0.5846 -1.6726
 5857TIP3    H217536   6.481   4.645   5.310  1.6804  0.2007 -0.3624
 5858TIP3   OH217537   1.745   3.252   5.310 -0.3291  0.1194  0.4250
 5858TIP3    H117538   1.822   3.204   5.341  0.0049  1.6417  2.1139
 5858TIP3    H217539   1.703   3.285   5.390 -2.8795 -0.7937 -0.4161
 5859TIP3   OH217540   5.506   6.238   2.732 -0.8503  0.0138  0.0669
 5859TIP3    H117541   5.430   6.182   2.749  1.1794 -2.6239  1.1411
 5859TIP3    H217542   5.482   6.323   2.769 -3.7906 -0.2654 -0.9468
 5860TIP3   OH217543   1.456   1.294   2.339  0.0777 -0.4601 -0.2405
 5860TIP3    H117544   1.542   1.332   2.320  0.1862 -0.5248  0.1118
 5860TIP3    H217545   1.474   1.226   2.404 -0.3480  0.1559  0.5406
 5861TIP3   OH217546   2.475   5.210   5.670 -0.5192 -0.2560  0.5311
 5861TIP3    H117547   2.503   5.281   5.729  0.1792 -0.1891  0.1227
 5861TIP3    H217548   2.511   5.131   5.710  1.2267 -0.0673 -0.5412
 5862TIP3   OH217549   4.068   5.949   2.418  0.1585 -0.5690 -0.1615
 5862TIP3    H117550   4.122   5.898   2.358  0.7457  0.9775 -0.9933
 5862TIP3    H217551   4.055   6.033   2.374 -3.0072 -0.8646 -0.0517
 5863TIP3   OH217552   2.157   3.472   3.686 -0.2105  0.2627  0.0381
 5863TIP3    H117553   2.098   3.432   3.622  1.0338  1.2185 -1.7958
 5863TIP3    H217554   2.243   3.435   3.667 -0.0368 -0.5718  2.2032
 5864TIP3   OH217555   7.002   1.285   5.519 -0.1117  0.3809  0.5398
 5864TIP3    H117556   7.032   1.375   5.532  0.3967  0.3030 -0.0241
 5864TIP3    H217557   7.075   1.231   5.549  0.5462  0.1952 -1.2563
 5865TIP3   OH217558   1.478   3.111   5.401  0.6909  0.0986 -0.1008
 5865TIP3    H117559   1.392   3.147   5.381  0.0426 -1.2349  0.2566
 5865TIP3    H217560   1.493   3.044   5.334  0.0461 -1.8892  1.6418
 5866TIP3   OH217561   5.795   5.472   0.694 -0.1678  0.1014  0.3167
 5866TIP3    H117562   5.860   5.486   0.762 -1.2568  1.0362  1.2123
 5866TIP3    H217563   5.816   5.537   0.627  1.1865 -1.1264 -0.4987
 5867TIP3   OH217564   3.088   4.574   3.657 -0.4415 -0.3366 -0.0724
 5867TIP3    H117565   3.127   4.611   3.736  1.5628 -2.0754 -0.1514
 5867TIP3    H217566   3.000   4.547   3.683  0.1761 -0.8388  1.5901
 5868TIP3   OH217567   5.176   1.742   2.207 -0.3965  0.0698  0.0957
 5868TIP3    H117568   5.193   1.655   2.241  2.9092  1.9761  4.1644
 5868TIP3    H217569   5.131   1.788   2.278  0.8169  2.5114 -0.5825
 5869TIP3   OH217570   2.919   2.422   2.662  0.1319  0.0281  0.2196
 5869TIP3    H117571   2.909   2.501   2.716 -0.9543  0.0659 -0.0116
 5869TIP3    H217572   2.996   2.440   2.608  0.4603  0.5305  0.8322
 5870TIP3   OH217573   2.363   3.974   2.772 -0.0008 -0.3522 -0.4063
 5870TIP3    H117574   2.395   3.968   2.862 -1.5769 -0.9882  0.1592
 5870TIP3    H217575   2.373   3.886   2.737 -0.0486 -0.2793 -0.6004
 5871TIP3   OH217576   4.927   0.878   4.954  0.4690  0.2690  0.2343
 5871TIP3    H117577   4.988   0.812   4.922 -0.1198 -0.6044  0.8590
 5871TIP3    H217578   4.982   0.949   4.986  1.2283 -0.8636  1.5786
 5872TIP3   OH217579   6.234   1.083   4.134  0.0201 -0.2849 -0.4628
 5872TIP3    H117580   6.175   1.149   4.098 -0.6964  0.8210  2.5051
 5872TIP3    H217581   6.177   1.010   4.157  0.5355 -1.1672 -1.8420
 5873TIP3   OH217582   4.224   6.070   4.715 -0.3540 -0.3959 -0.4912
 5873TIP3    H117583   4.254   5.981   4.734 -1.2233 -0.7235 -0.5854
 5873TIP3    H217584   4.161   6.088   4.785  0.2133  0.3554 -0.1682
 5874TIP3   OH217585   5.008   5.841   0.769 -0.1774 -0.1576  0.5909
 5874TIP3    H117586   4.996   5.747   0.786 -0.8328  0.0481  1.3061
 5874TIP3    H217587   5.055   5.844   0.685 -0.7913 -1.1094  0.1926
 5875TIP3   OH217588   3.365   0.658   2.067 -0.8123 -0.2986  0.1052
 5875TIP3    H117589   3.367   0.752   2.084 -0.4446 -0.3030  0.0962
 5875TIP3    H217590   3.349   0.618   2.152  0.7559 -0.3069  0.4368
 5876TIP3   OH217591   2.202   5.195   4.686  0.4589  0.1204  0.1341
 5876TIP3    H117592   2.134   5.226   4.745  1.8724 -0.9838  2.4749
 5876TIP3    H217593   2.282   5.238   4.716  1.1026  0.1653 -1.5321
 5877TIP3   OH217594   5.110   1.688   0.836 -0.1534  0.5658 -0.0783
 5877TIP3    H117595   5.194   1.734   0.840  1.4768 -2.1589 -0.2146
 5877TIP3    H217596   5.131   1.603   0.796 -2.4702 -1.2407  2.2068
 5878TIP3   OH217597   7.044   2.531   2.413  0.0720 -0.4576 -0.1790
 5878TIP3    H117598   6.953   2.550   2.438  0.3251 -0.5309  0.8538
 5878TIP3    H217599   7.046   2.436   2.402  0.1644 -0.5378  0.4593
 5879TIP3   OH217600   1.781   1.898   1.702 -0.0003 -0.5221  0.0432
 5879TIP3    H117601   1.714   1.904   1.634 -0.8658 -1.7307  0.7452
 5879TIP3    H217602   1.746   1.950   1.775  1.9426  2.6923 -1.1290
 5880TIP3   OH217603   5.329   3.988   1.184  0.4450  0.1513 -0.4210
 5880TIP3    H117604   5.354   4.068   1.230  0.0277 -0.1454  0.3356
 5880TIP3    H217605   5.401   3.928   1.198 -0.0343 -0.2144  0.5455
 5881TIP3   OH217606   2.551   2.111   3.076  0.1144 -0.0641 -0.0853
 5881TIP3    H117607   2.514   2.025   3.095  0.6313 -0.4394 -0.7175
 5881TIP3    H217608   2.585   2.141   3.160 -1.4963  0.2502  0.4893
 5882TIP3   OH217609   5.900   3.285   4.596 -0.6589  0.1016  0.6918
 5882TIP3    H117610   5.992   3.260   4.586 -0.6749 -0.0891  1.0018
 5882TIP3    H217611   5.853   3.225   4.539 -0.6412 -0.1679  0.9601
 5883TIP3   OH217612   6.361   1.698   3.918 -0.4076 -0.1952 -0.2202
 5883TIP3    H117613   6.284   1.752   3.936 -0.9093 -0.2706 -1.9360
 5883TIP3    H217614   6.435   1.759   3.920 -0.1527 -0.4096  3.3006
 5884TIP3   OH217615   1.154   4.321   4.696  0.1507  0.2572 -0.2616
 5884TIP3    H117616   1.151   4.411   4.664 -0.2618  0.1259 -0.5956
 5884TIP3    H217617   1.233   4.318   4.750 -0.4307  1.1338  0.6792
 5885TIP3   OH217618   5.580   3.726   4.489 -0.7133  0.1746  0.0704
 5885TIP3    H117619   5.496   3.696   4.524 -0.3617 -1.3448 -0.3247
 5885TIP3    H217620   5.630   3.646   4.474 -0.3129  0.8312 -2.5669
 5886TIP3   OH217621   4.083   2.587   0.210  0.5296 -0.0180  0.0093
 5886TIP3    H117622   4.096   2.660   0.269 -0.4044  0.2619 -0.1133
 5886TIP3    H217623   4.140   2.518   0.244  0.4719  0.3449  0.8651
 5887TIP3   OH217624   1.338   6.199   0.232 -0.5203  0.2027 -0.2949
 5887TIP3    H117625   1.339   6.292   0.254  0.9190  0.1696 -0.1057
 5887TIP3    H217626   1.395   6.193   0.155  1.2498 -0.7877  1.0222
 5888TIP3   OH217627   4.968   5.512   3.904  0.4326  0.1794  0.1706
 5888TIP3    H117628   5.005   5.556   3.827 -1.6099 -1.2076 -1.7459
 5888TIP3    H217629   4.982   5.574   3.976  2.2092  1.6617 -1.3336
 5889TIP3   OH217630   7.015   4.568   2.088 -0.0481  0.2682  0.6532
 5889TIP3    H117631   6.994   4.568   1.994 -3.8600 -0.3106  1.3465
 5889TIP3    H217632   7.059   4.652   2.102 -1.0351  1.2243 -1.3934
 5890TIP3   OH217633   2.652   3.198   2.057  0.1760  0.5757  0.0854
 5890TIP3    H117634   2.737   3.177   2.018  0.8684  1.9012  0.8002
 5890TIP3    H217635   2.589   3.150   2.004  1.3437 -0.2375 -0.6241
 5891TIP3   OH217636   0.605   0.826   5.568  0.4432 -0.0753  0.0492
 5891TIP3    H117637   0.646   0.782   5.642  0.2965 -0.7202 -0.2521
 5891TIP3    H217638   0.529   0.870   5.605  0.5512 -0.1260  0.3341
 5892TIP3   OH217639   1.277   3.886   5.267  0.9072 -0.3781 -0.3867
 5892TIP3    H117640   1.213   3.920   5.204  0.2152  2.0487  1.4852
 5892TIP3    H217641   1.253   3.794   5.278 -0.8603 -0.0854 -1.4223
 5893TIP3   OH217642   3.712   6.579   2.141 -0.6727  0.2947 -0.1822
 5893TIP3    H117643   3.742   6.665   2.113 -0.3607  1.6325  3.6086
 5893TIP3    H217644   3.789   6.523   2.136 -0.4479  0.6735 -1.0758
 5894TIP3   OH217645   1.618   5.390   0.829  0.3574 -0.2211  0.1293
 5894TIP3    H117646   1.620   5.419   0.921  1.4943  0.4511 -0.0810
 5894TIP3    H217647   1.532   5.418   0.797  1.2062  2.6348  0.0764
 5895TIP3   OH217648   6.388   3.331   3.854 -0.0819 -0.3044 -0.3193
 5895TIP3    H117649   6.440   3.401   3.896 -1.4403  0.3571  0.3099
 5895TIP3    H217650   6.299   3.345   3.886 -0.7729 -1.0753 -1.8284
 5896TIP3   OH217651   4.756   1.602   1.246  0.1030 -0.6128 -0.0383
 5896TIP3    H117652   4.664   1.575   1.256  0.4800 -1.4075  1.7565
 5896TIP3    H217653   4.752   1.694   1.222 -1.1790 -1.1598 -2.2206
 5897TIP3   OH217654   2.954   4.325   5.488  0.3752 -0.1171  0.4148
 5897TIP3    H117655   3.018   4.396   5.485 -0.7784  0.9991  1.2611
 5897TIP3    H217656   2.869   4.368   5.493 -0.3758 -1.5547  0.8141
 5898TIP3   OH217657   6.723   2.513   0.017  0.2803 -0.4242 -0.1874
 5898TIP3    H117658   6.710   2.577  -0.053  0.0022 -0.8482 -0.5251
 5898TIP3    H217659   6.642   2.515   0.068 -0.6164 -2.0332 -1.4541
 5899TIP3   OH217660   2.404   3.886   0.394  0.2096  0.0685  0.4880
 5899TIP3    H117661   2.431   3.863   0.483  1.4545 -0.3724  0.0209
 5899TIP3    H217662   2.477   3.856   0.339 -0.3427  0.7381 -0.6299
 5900TIP3   OH217663   1.610   0.010   5.807  0.9177 -0.2046 -0.1648
 5900TIP3    H117664   1.644  -0.074   5.776 -1.2640 -1.0986 -0.3808
 5900TIP3    H217665   1.634   0.073   5.740  2.1343 -0.7553 -0.2583
 5901TIP3   OH217666   5.856   6.590   0.388 -0.0667  0.8657 -0.2092
 5901TIP3    H117667   5.823   6.596   0.478 -0.4244  0.4683 -0.3096
 5901TIP3    H217668   5.786   6.546   0.340  0.3751  0.5164 -0.5485
 5902TIP3   OH217669   0.601   6.719   0.659  0.6471  0.4320  0.2510
 5902TIP3    H117670   0.565   6.808   0.660  2.1827  1.0860 -0.3473
 5902TIP3    H217671   0.629   6.705   0.750 -0.0484  0.3440  0.4629
 5903TIP3   OH217672   4.231   5.116   0.084  0.4183  0.6979  0.4657
 5903TIP3    H117673   4.235   5.126  -0.011 -0.9464 -2.0966  0.0143
 5903TIP3    H217674   4.311   5.067   0.105 -0.2688 -0.4871  0.4115
 5904TIP3   OH217675   2.896   4.064   5.647 -0.1233  0.1409 -0.2667
 5904TIP3    H117676   2.919   4.150   5.612 -1.4197  0.8029  0.4416
 5904TIP3    H217677   2.814   4.041   5.604 -1.6827  0.9153  2.1289
 5905TIP3   OH217678   7.018   0.140   0.317  0.0102  0.0354  0.3713
 5905TIP3    H117679   7.040   0.205   0.249 -0.5640 -0.5203 -0.3726
 5905TIP3    H217680   6.967   0.189   0.381  2.2533  1.0436  1.4757
 5906TIP3   OH217681   2.167   0.080   1.440 -0.0769 -0.3661  0.3220
 5906TIP3    H117682   2.246   0.065   1.388 -0.1946  2.2548 -0.7548
 5906TIP3    H217683   2.188   0.154   1.496 -1.2611 -0.6583  1.2078
 5907TIP3   OH217684   0.628   6.743   2.300  0.2813 -0.0744 -0.2853
 5907TIP3    H117685   0.553   6.685   2.285  0.5160 -0.5347  0.2683
 5907TIP3    H217686   0.700   6.684   2.320  0.7177  0.3818 -0.4837
 5908TIP3   OH217687   2.657   3.997   1.974  1.0281 -0.1290 -0.9889
 5908TIP3    H117688   2.617   3.928   1.920  1.2688  0.1761 -1.5690
 5908TIP3    H217689   2.715   4.044   1.913  0.8332  0.6133 -0.6081
 5909TIP3   OH217690   6.380   5.289   4.317 -0.2155 -0.3555  0.0004
 5909TIP3    H117691   6.445   5.344   4.275 -0.1863 -0.3421  0.0618
 5909TIP3    H217692   6.428   5.245   4.388 -0.1901 -0.6163 -0.1787
 5910TIP3   OH217693   3.013   2.894   2.395  0.0276  0.4511  0.0621
 5910TIP3    H117694   2.959   2.868   2.321  0.7200  0.1971 -0.3667
 5910TIP3    H217695   2.984   2.982   2.417 -1.9148 -0.3977  1.1099
 5911TIP3   OH217696   1.260   5.343   2.232  0.0744  0.1171 -0.2299
 5911TIP3    H117697   1.199   5.302   2.293 -1.8331  1.6937 -0.9799
 5911TIP3    H217698   1.245   5.299   2.149 -0.8543  1.2376 -0.6701
 5912TIP3   OH217699   5.597   0.699   2.221 -0.3672 -0.0929  0.1042
 5912TIP3    H117700   5.595   0.774   2.162  1.5133  2.4004  2.9044
 5912TIP3    H217701   5.515   0.652   2.205 -1.1195  1.9373 -2.5171
 5913TIP3   OH217702   3.423   3.552   3.771 -0.1324 -0.0016  0.5009
 5913TIP3    H117703   3.338   3.534   3.731  0.8757 -1.1494 -1.3172
 5913TIP3    H217704   3.444   3.472   3.820 -1.1500  1.2265  3.0788
 5914TIP3   OH217705   0.634   3.224   3.973 -0.2913  0.4060  0.1309
 5914TIP3    H117706   0.618   3.181   4.057 -1.5789 -0.2543 -0.4201
 5914TIP3    H217707   0.719   3.267   3.984 -1.5733  2.6305  2.7278
 5915TIP3   OH217708   5.071   6.762   0.079  0.1305 -0.7642  0.0708
 5915TIP3    H117709   4.978   6.737   0.084 -0.4569  1.4952  1.7703
 5915TIP3    H217710   5.071   6.850   0.041  1.6006 -0.7458  0.0428
 5916TIP3   OH217711   2.491   2.273   4.698  0.0615  0.2186 -0.1321
 5916TIP3    H117712   2.570   2.224   4.720  0.5789  0.9693 -0.2544
 5916TIP3    H217713   2.420   2.224   4.739  0.4701 -1.0055 -0.8272
 5917TIP3   OH217714   6.921   1.868   2.263 -0.3160 -0.7828 -0.0262
 5917TIP3    H117715   6.897   1.960   2.276 -0.4514 -1.0771  2.2927
 5917TIP3    H217716   6.993   1.871   2.200 -1.0932  0.7776 -0.9172
 5918TIP3   OH217717   2.996   2.816   1.802 -0.2010 -0.6736  0.6130
 5918TIP3    H117718   3.026   2.781   1.718  0.9461 -0.3809  0.8859
 5918TIP3    H217719   2.901   2.823   1.792  0.0800  1.1873 -1.3720
 5919TIP3   OH217720   4.697   1.107   3.984 -0.0394  0.2069  0.2867
 5919TIP3    H117721   4.654   1.100   4.070 -0.9769  1.0121 -0.1047
 5919TIP3    H217722   4.706   1.016   3.955  0.2627 -0.0753  1.2193
 5920TIP3   OH217723   4.095   0.291   5.168 -0.0326 -0.5065 -0.6053
 5920TIP3    H117724   4.124   0.261   5.254  0.2606  3.3584  0.8336
 5920TIP3    H217725   4.118   0.219   5.108  0.4256 -3.0389  2.3582
 5921TIP3   OH217726   0.250   3.395   3.122  0.3870  0.2157 -0.2350
 5921TIP3    H117727   0.182   3.450   3.162  0.8957  0.1015  0.8394
 5921TIP3    H217728   0.329   3.414   3.173  0.1323 -3.1013  1.6884
 5922TIP3   OH217729   1.999   6.747   5.510 -0.3270  0.1678  0.0795
 5922TIP3    H117730   1.986   6.715   5.599 -2.3953 -3.2151 -1.2347
 5922TIP3    H217731   2.089   6.722   5.489 -0.4085 -0.6563  0.6613
 5923TIP3   OH217732   6.338   6.744   4.648 -0.1858 -0.3149  0.3963
 5923TIP3    H117733   6.300   6.676   4.592 -0.4335 -1.2563  1.6526
 5923TIP3    H217734   6.264   6.782   4.695 -0.3278  2.3116 -1.7463
 5924TIP3   OH217735   0.838   3.432   4.582  0.0156  0.0472 -0.4674
 5924TIP3    H117736   0.902   3.503   4.578  0.3735 -0.3232 -1.5776
 5924TIP3    H217737   0.759   3.469   4.544  0.0433  0.0140 -0.5572
 5925TIP3   OH217738   1.907   5.290   1.671  0.0831  0.0719 -0.1922
 5925TIP3    H117739   1.981   5.265   1.726 -1.3750  0.1951  1.9588
 5925TIP3    H217740   1.944   5.353   1.608  2.1914 -1.4962 -0.6373
 5926TIP3   OH217741   4.942   3.027   0.307 -0.0067  0.5171  0.0886
 5926TIP3    H117742   4.986   3.040   0.391  0.1437  0.6763 -0.0129
 5926TIP3    H217743   4.950   3.111   0.263 -2.8244  1.4684  1.1697
 5927TIP3   OH217744   5.707   0.893   4.886 -0.0521  0.8683  0.1123
 5927TIP3    H117745   5.661   0.850   4.813  0.4685  0.1960  0.1741
 5927TIP3    H217746   5.637   0.915   4.948 -0.4906  1.3532 -0.5369
 5928TIP3   OH217747   2.049   1.871   5.585  0.0123 -0.3268  0.2915
 5928TIP3    H117748   2.104   1.875   5.664 -1.0161 -0.3279  1.0195
 5928TIP3    H217749   2.032   1.963   5.563 -1.6208 -0.3159  1.4552
 5929TIP3   OH217750   4.532   3.833   3.723  0.2685  0.1534 -0.5026
 5929TIP3    H117751   4.606   3.870   3.771 -0.4901  1.2183 -0.1314
 5929TIP3    H217752   4.473   3.801   3.792  0.7559 -1.5103 -0.8058
 5930TIP3   OH217753   1.467   5.604   3.762  0.4237  0.2053 -0.8389
 5930TIP3    H117754   1.518   5.684   3.751 -0.0647  0.6974  0.3134
 5930TIP3    H217755   1.381   5.625   3.724 -0.6850  1.3008  2.0389
 5931TIP3   OH217756   0.962   4.639   0.768  0.0148 -0.3195  0.3903
 5931TIP3    H117757   1.042   4.636   0.821 -1.2268 -0.3552  2.3760
 5931TIP3    H217758   0.928   4.550   0.771  1.6537 -1.2990 -3.5097
 5932TIP3   OH217759   4.965   5.289   0.373  0.7834 -0.1078 -0.3674
 5932TIP3    H117760   4.904   5.242   0.315  1.4563 -0.8672 -0.4787
 5932TIP3    H217761   4.944   5.256   0.460  1.3931 -0.7967 -0.4681
 5933TIP3   OH217762   4.873   4.361   5.717 -0.0265 -0.3589 -0.4714
 5933TIP3    H117763   4.880   4.265   5.715 -0.0942 -0.3559 -0.8814
 5933TIP3    H217764   4.884   4.388   5.626  1.9348  0.1738 -0.1103
 5934TIP3   OH217765   5.792   3.261   2.384  0.3793 -0.0192 -0.2233
 5934TIP3    H117766   5.868   3.268   2.442  1.4180 -0.7436 -1.4655
 5934TIP3    H217767   5.828   3.265   2.296 -1.4005  3.9494 -0.9679
 5935TIP3   OH217768   6.248   4.374   0.915  0.1020 -0.0248 -0.2074
 5935TIP3    H117769   6.290   4.460   0.908 -1.6043  0.8972  0.2675
 5935TIP3    H217770   6.181   4.374   0.846 -1.8548  0.2465  1.5915
 5936TIP3   OH217771   3.103   0.045   3.651  0.5762  0.2425  0.1633
 5936TIP3    H117772   3.024   0.063   3.600  1.0750  0.9306 -0.3940
 5936TIP3    H217773   3.111  -0.050   3.651  0.7622  0.2358 -1.3819
 5937TIP3   OH217774   6.844   1.598   5.819 -0.5069 -0.0380 -0.2153
 5937TIP3    H117775   6.881   1.680   5.786  1.1182 -1.0569 -1.0764
 5937TIP3    H217776   6.869   1.596   5.912  0.5498 -0.1076 -0.4844
 5938TIP3   OH217777   0.656   5.597   4.475 -0.1133  0.0015 -0.3350
 5938TIP3    H117778   0.698   5.511   4.478  1.8313  0.9439  2.0104
 5938TIP3    H217779   0.572   5.584   4.520 -1.8190 -1.4953 -3.5748
 5939TIP3   OH217780   1.529   0.788   4.875  0.6245 -0.0957 -0.0460
 5939TIP3    H117781   1.454   0.788   4.815  0.7137  0.0263 -0.1589
 5939TIP3    H217782   1.602   0.822   4.822  0.6170  0.3856  0.2476
 5940TIP3   OH217783   4.187   3.400   2.963  0.1178  0.5368 -0.0471
 5940TIP3    H117784   4.212   3.309   2.943 -1.9459 -0.8465  2.8886
 5940TIP3    H217785   4.262   3.434   3.013  0.9285  0.5115 -1.2118
 5941TIP3   OH217786   5.400   6.058   4.240 -0.4653 -0.0358  0.1102
 5941TIP3    H117787   5.372   5.968   4.258 -0.9142  0.2554  0.9258
 5941TIP3    H217788   5.391   6.103   4.324 -1.1250  0.9927 -0.4886
 5942TIP3   OH217789   1.066   3.902   0.430  0.1824 -0.6482  0.7111
 5942TIP3    H117790   1.149   3.867   0.400  0.3928 -1.2775  1.9825
 5942TIP3    H217791   1.041   3.847   0.504 -0.1082  1.0890  1.9641
 5943TIP3   OH217792   5.301   6.385   0.515 -0.0321  0.2020  0.4121
 5943TIP3    H117793   5.222   6.332   0.524 -0.0814  0.3746  1.0617
 5943TIP3    H217794   5.373   6.326   0.541  0.2703 -0.4792 -1.7252
 5944TIP3   OH217795   3.582   6.687   4.160 -0.3608  0.1324 -1.0553
 5944TIP3    H117796   3.669   6.649   4.144  0.3729  0.9448  0.6961
 5944TIP3    H217797   3.594   6.781   4.149 -0.7607  0.3415  0.1093
 5945TIP3   OH217798   0.610   0.832   1.357  0.4094  0.5970  0.5905
 5945TIP3    H117799   0.704   0.837   1.376  0.6039  2.1465 -0.5946
 5945TIP3    H217800   0.601   0.868   1.269 -1.2699  0.2273  0.5789
 5946TIP3   OH217801   6.267   2.859   2.127 -0.2748  0.3562 -0.1036
 5946TIP3    H117802   6.243   2.937   2.077  1.9578  1.0361 -0.2069
 5946TIP3    H217803   6.348   2.883   2.171  0.5665 -1.9609 -0.2837
 5947TIP3   OH217804   0.865   0.828   0.353 -0.0611  0.0382 -0.6362
 5947TIP3    H117805   0.944   0.853   0.401  0.8886 -1.8681 -1.1153
 5947TIP3    H217806   0.830   0.911   0.320 -0.0910  1.2908  2.2625
 5948TIP3   OH217807   1.752   5.322   4.792  0.2246 -0.5101 -0.5815
 5948TIP3    H117808   1.682   5.363   4.843  1.5496  0.6828  0.3755
 5948TIP3    H217809   1.718   5.319   4.703 -1.5151 -1.1435  0.0674
 5949TIP3   OH217810   0.529   0.130   0.856 -0.0459  0.3154  0.1662
 5949TIP3    H117811   0.508   0.208   0.804 -1.6201  0.2284  0.6163
 5949TIP3    H217812   0.567   0.069   0.793 -2.0200  0.1630 -0.9862
 5950TIP3   OH217813   2.729   2.317   2.113 -0.0980 -0.4339 -0.2093
 5950TIP3    H117814   2.644   2.322   2.156  0.4715  1.5070  0.8183
 5950TIP3    H217815   2.731   2.394   2.056 -0.1569 -2.0414 -2.4935
 5951TIP3   OH217816   2.629   2.452   0.018  0.2102 -0.1138 -0.1112
 5951TIP3    H117817   2.699   2.427   0.078 -0.5610  0.7156  1.1785
 5951TIP3    H217818   2.602   2.369  -0.021 -0.3140 -0.9486  1.8821
 5952TIP3   OH217819   3.271   6.552   2.515 -0.2235 -0.0299 -0.5292
 5952TIP3    H117820   3.238   6.542   2.426 -0.7265  3.1537 -0.8468
 5952TIP3    H217821   3.355   6.597   2.504  0.4126 -0.8797  0.5895
 5953TIP3   OH217822   6.439   3.260   2.448 -0.6922  0.1765  0.1168
 5953TIP3    H117823   6.465   3.295   2.533 -1.6881  1.6464 -0.1486
 5953TIP3    H217824   6.345   3.242   2.457 -0.5991 -0.6318 -0.3716
 5954TIP3   OH217825   1.626   0.448   3.782 -0.3127  0.3115  0.0648
 5954TIP3    H117826   1.673   0.378   3.735 -1.3506  0.9276 -2.0299
 5954TIP3    H217827   1.566   0.402   3.840  1.3767 -0.4853  1.2746
 5955TIP3   OH217828   2.629   1.902   5.851  0.1420  0.9075  0.0289
 5955TIP3    H117829   2.691   1.954   5.901  0.1525 -0.7950  1.9089
 5955TIP3    H217830   2.683   1.855   5.787  0.5199  0.8299  0.4060
 5956TIP3   OH217831   1.369   4.656   1.972  0.1258 -0.0311  0.0480
 5956TIP3    H117832   1.411   4.740   1.988  0.5887 -0.2584  0.0522
 5956TIP3    H217833   1.438   4.601   1.934  0.1900 -0.7875  1.1875
 5957TIP3   OH217834   5.846   3.803   3.175 -0.0074 -0.0016 -0.1615
 5957TIP3    H117835   5.822   3.872   3.236  0.7183 -0.4252  0.6203
 5957TIP3    H217836   5.800   3.725   3.207  0.3881 -0.2305 -0.1430
 5958TIP3   OH217837   4.638   3.529   4.464  0.1879 -0.3043  0.1657
 5958TIP3    H117838   4.646   3.489   4.551 -1.0225 -2.4668 -0.6476
 5958TIP3    H217839   4.591   3.464   4.412  0.6555  1.0388 -2.0613
 5959TIP3   OH217840   4.469   0.339   0.440 -0.0093 -0.0462 -0.2395
 5959TIP3    H117841   4.544   0.338   0.500 -0.2078 -0.8951  0.0051
 5959TIP3    H217842   4.449   0.432   0.429  0.8597  0.1796 -0.0359
 5960TIP3   OH217843   4.390   5.329   0.999 -0.1786 -0.1881  0.0712
 5960TIP3    H117844   4.389   5.295   0.910 -1.4498  0.5304 -0.2015
 5960TIP3    H217845   4.483   5.333   1.022  0.1269 -1.1440 -0.9122
 5961TIP3   OH217846   6.292   4.448   1.882  0.0486  0.1605 -0.2476
 5961TIP3    H117847   6.352   4.413   1.948  0.8368 -0.7644 -1.4126
 5961TIP3    H217848   6.284   4.541   1.904 -0.1260 -0.2255  1.4398
 5962TIP3   OH217849   6.365   4.881   3.024  0.2571 -0.1681 -0.3632
 5962TIP3    H117850   6.407   4.806   2.983 -3.8751 -1.8975 -1.9257
 5962TIP3    H217851   6.376   4.867   3.118  1.3301 -1.5867 -0.6733
 5963TIP3   OH217852   6.901   2.001   3.391 -0.0074 -0.0950  0.3594
 5963TIP3    H117853   6.901   2.085   3.437 -1.2930 -0.5548  1.2531
 5963TIP3    H217854   6.812   1.993   3.356  0.3112 -0.7717 -0.3250
 5964TIP3   OH217855   6.700   4.402   4.484 -0.3240 -0.2732  0.3443
 5964TIP3    H117856   6.637   4.380   4.552 -1.9035 -2.6581 -1.7182
 5964TIP3    H217857   6.784   4.372   4.519 -1.0305 -1.0987  1.4132
 5965TIP3   OH217858   2.783   5.150   5.700 -0.2438  0.4041 -0.4097
 5965TIP3    H117859   2.724   5.168   5.773 -0.0258  0.2464 -0.1941
 5965TIP3    H217860   2.762   5.061   5.672 -0.0033  0.2893 -0.2311
 5966TIP3   OH217861   4.657   3.043   3.226  0.8678 -0.4866 -0.5278
 5966TIP3    H117862   4.598   2.970   3.249  1.4358 -0.7506  0.1428
 5966TIP3    H217863   4.706   3.060   3.307  1.8960 -0.4483 -1.1390
 5967TIP3   OH217864   4.791   6.586   0.919  0.0944  0.2645 -0.0538
 5967TIP3    H117865   4.813   6.673   0.886 -0.9441  0.9500  0.9822
 5967TIP3    H217866   4.866   6.532   0.895  0.4174  1.2544 -1.4031
 5968TIP3   OH217867   2.231   5.368   2.109  0.5552 -0.3734  0.8181
 5968TIP3    H117868   2.143   5.389   2.138 -0.6934 -1.3562 -1.9627
 5968TIP3    H217869   2.252   5.434   2.043  2.1642  0.1599  1.7962
 5969TIP3   OH217870   6.914   2.469   0.628 -0.4044 -0.4301  0.0863
 5969TIP3    H117871   6.947   2.544   0.579  0.1020 -0.5006  0.3124
 5969TIP3    H217872   6.948   2.481   0.716  1.0680 -1.7601 -0.2613
 5970TIP3   OH217873   3.098   6.706   4.372 -0.1634 -0.4205 -0.2958
 5970TIP3    H117874   3.180   6.709   4.421 -0.2458 -0.3175 -0.1627
 5970TIP3    H217875   3.030   6.715   4.439 -0.3033 -1.1540 -0.3336
 5971TIP3   OH217876   4.523   6.035   4.275 -0.1086  0.4610  0.1183
 5971TIP3    H117877   4.588   6.092   4.234 -1.5630 -0.5665 -4.0555
 5971TIP3    H217878   4.575   5.962   4.309  1.3273  2.1449  1.7793
 5972TIP3   OH217879   1.727   0.588   5.593 -0.5976 -0.1785  0.6022
 5972TIP3    H117880   1.766   0.518   5.647 -0.4543 -1.4814 -1.0874
 5972TIP3    H217881   1.651   0.547   5.552 -0.1757  0.4434 -0.8878
 5973TIP3   OH217882   3.563   2.549   0.122  0.3832  0.2123  0.0195
 5973TIP3    H117883   3.613   2.564   0.202  1.4559  0.0760 -0.5969
 5973TIP3    H217884   3.575   2.629   0.071 -1.5792  0.9261  0.6342
 5974TIP3   OH217885   4.509   5.185   5.452 -0.4729  0.3123 -0.1962
 5974TIP3    H117886   4.522   5.191   5.546 -2.3674 -1.8283  0.2977
 5974TIP3    H217887   4.582   5.132   5.421  1.4911  2.9377 -0.4229
 5975TIP3   OH217888   3.153   6.534   5.220 -0.4868 -0.1559  0.8522
 5975TIP3    H117889   3.133   6.619   5.181 -2.0584  0.2527  2.4414
 5975TIP3    H217890   3.149   6.549   5.314  0.8632 -1.6447  1.1967
 5976TIP3   OH217891   0.331   3.268   0.099 -0.1390 -0.1078  0.3793
 5976TIP3    H117892   0.299   3.284   0.188 -2.9603  1.0630 -0.7266
 5976TIP3    H217893   0.375   3.184   0.104 -2.2777 -1.2239  2.4570
 5977TIP3   OH217894   3.818   6.692   1.679 -0.1779  0.0243 -0.4231
 5977TIP3    H117895   3.864   6.757   1.625 -1.6538  0.5995 -1.0410
 5977TIP3    H217896   3.864   6.610   1.663  1.1763  0.7263 -0.3148
 5978TIP3   OH217897   6.763   1.177   3.599  0.4535 -0.1521 -0.4012
 5978TIP3    H117898   6.779   1.093   3.557 -1.1472 -0.5693 -0.2313
 5978TIP3    H217899   6.797   1.242   3.537 -0.0400 -0.8478 -1.4300
 5979TIP3   OH217900   0.851   5.476   3.438  0.7635 -0.1730 -0.9047
 5979TIP3    H117901   0.845   5.387   3.404 -0.8031 -0.5886  0.3643
 5979TIP3    H217902   0.767   5.492   3.480  1.6903  1.2172  0.5505
 5980TIP3   OH217903   2.568   2.047   3.986 -0.5569 -0.4093 -0.0474
 5980TIP3    H117904   2.555   2.025   4.079  1.1271  0.0116  0.3377
 5980TIP3    H217905   2.631   2.120   3.988  1.4135 -1.9452 -1.5556
 5981TIP3   OH217906   2.003   0.561   3.106 -0.1917 -0.3227  0.3801
 5981TIP3    H117907   2.036   0.619   3.036 -2.0353 -0.5994 -0.7942
 5981TIP3    H217908   2.080   0.542   3.159  0.6098  2.8191  0.5629
 5982TIP3   OH217909   2.944   6.352   0.064 -0.3906  0.5161 -0.3570
 5982TIP3    H117910   2.850   6.366   0.060 -0.5509 -0.1840  0.5728
 5982TIP3    H217911   2.966   6.307  -0.017 -0.9689  0.1249 -0.2981
 5983TIP3   OH217912   4.242   4.897   1.029  0.0006 -0.0015 -0.1826
 5983TIP3    H117913   4.243   4.975   1.084  1.4173  0.8978 -1.4207
 5983TIP3    H217914   4.247   4.930   0.940 -1.3841 -1.4659 -0.8425
 5984TIP3   OH217915   6.295   1.104   4.452  0.0272 -0.2532  0.0382
 5984TIP3    H117916   6.357   1.035   4.428 -0.6265 -1.9430  2.7951
 5984TIP3    H217917   6.271   1.145   4.368  1.2032 -2.6933 -1.6140
 5985TIP3   OH217918   3.722   5.394   2.273  0.0378 -0.2777  0.0957
 5985TIP3    H117919   3.795   5.399   2.334 -0.2846 -0.1753  0.4740
 5985TIP3    H217920   3.677   5.478   2.283 -0.8519 -0.8246  0.7599
 5986TIP3   OH217921   6.237   5.865   1.175 -0.3788  0.2906  0.2672
 5986TIP3    H117922   6.263   5.785   1.221 -1.8490 -0.5356 -0.2890
 5986TIP3    H217923   6.315   5.921   1.178  0.9828 -1.5141 -0.1084
 5987TIP3   OH217924   3.423   5.047   3.114  0.0652  0.3684  0.1424
 5987TIP3    H117925   3.489   5.097   3.162  0.3746 -0.4176  0.5631
 5987TIP3    H217926   3.349   5.107   3.105 -0.0303  0.5256  1.6868
 5988TIP3   OH217927   1.654   5.794   3.649  0.3189  0.2888  0.4344
 5988TIP3    H117928   1.747   5.791   3.668  0.4866  2.8085  0.4491
 5988TIP3    H217929   1.647   5.770   3.557  1.1074  0.9186  0.1992
 5989TIP3   OH217930   0.273   0.576   2.830 -0.4235 -0.1217 -0.2441
 5989TIP3    H117931   0.276   0.555   2.923 -1.8067  0.0848 -0.1344
 5989TIP3    H217932   0.302   0.667   2.825 -1.4188  0.2201  0.1195
 5990TIP3   OH217933   5.074   4.756   0.716  0.3346 -0.5532  0.2071
 5990TIP3    H117934   5.100   4.844   0.744  1.5403 -0.1189 -2.0567
 5990TIP3    H217935   4.982   4.750   0.739 -0.7525  2.6392 -2.4687
 5991TIP3   OH217936   1.983   0.381   4.620 -0.1294 -0.8445 -0.0389
 5991TIP3    H117937   1.896   0.399   4.657 -0.1964  1.4094 -1.1552
 5991TIP3    H217938   2.024   0.323   4.685 -1.0660  1.1059  2.4883
 5992TIP3   OH217939   1.270   4.851   5.344 -0.0723 -0.3864  0.0364
 5992TIP3    H117940   1.218   4.914   5.393  0.3975 -0.2924  0.4208
 5992TIP3    H217941   1.218   4.770   5.346  0.0124 -0.4354  0.8408
 5993TIP3   OH217942   4.447   4.338   3.029  0.5340 -0.2378  0.0739
 5993TIP3    H117943   4.375   4.330   2.967 -1.0853 -3.5166  2.1118
 5993TIP3    H217944   4.499   4.258   3.016  1.6411  0.2620  1.1761
 5994TIP3   OH217945   0.478   2.308   2.593  0.3559  0.4957 -0.5162
 5994TIP3    H117946   0.471   2.387   2.539 -2.0636  0.5013 -0.2894
 5994TIP3    H217947   0.402   2.256   2.569  0.7974 -0.8257  0.8277
 5995TIP3   OH217948   3.867   2.838   0.432 -0.5940 -1.0072 -0.0775
 5995TIP3    H117949   3.829   2.867   0.350 -1.9359  0.6790  1.0683
 5995TIP3    H217950   3.835   2.900   0.497  1.1428 -1.7411  1.5997
 5996TIP3   OH217951   5.398   6.464   4.081  0.3023  0.2673 -0.1752
 5996TIP3    H117952   5.403   6.414   3.999 -0.1933 -0.4609  0.2344
 5996TIP3    H217953   5.400   6.556   4.052  1.8021  0.0562 -0.9004
 5997TIP3   OH217954   5.903   6.734   5.151  0.2353 -0.2061 -0.4345
 5997TIP3    H117955   5.824   6.787   5.150 -1.0596 -2.0510 -0.5565
 5997TIP3    H217956   5.913   6.706   5.242  0.9957  0.3573 -0.3390
 5998TIP3   OH217957   2.639   2.504   4.289 -0.1921 -0.0402  0.4117
 5998TIP3    H117958   2.572   2.449   4.330 -1.7204  0.9564 -0.6402
 5998TIP3    H217959   2.609   2.594   4.305 -0.6568  0.3978 -2.4571
 5999TIP3   OH217960   3.351   4.433   2.668 -1.4011  0.2623 -0.1474
 5999TIP3    H117961   3.270   4.388   2.690 -0.9225 -1.5426 -1.8398
 5999TIP3    H217962   3.402   4.370   2.618  1.8894  0.6315  2.3333
 6000TIP3   OH217963   7.051   3.804   0.008  0.3035 -0.3212  0.6231
 6000TIP3    H117964   6.997   3.866   0.057 -2.6126 -1.8595 -0.4065
 6000TIP3    H217965   7.092   3.750   0.075  0.7065  0.9478  1.4376
 6001TIP3   OH217966   2.351   3.385   1.849  0.1426 -0.3652  0.2277
 6001TIP3    H117967   2.427   3.399   1.905 -0.7780 -2.1355  2.0083
 6001TIP3    H217968   2.388   3.379   1.760  1.6595  2.2212  0.5769
 6002TIP3   OH217969   2.355   0.132   2.396  0.0882  0.0582 -0.3192
 6002TIP3    H117970   2.437   0.092   2.368  0.2897  0.2061  0.0561
 6002TIP3    H217971   2.292   0.060   2.395  0.0177  0.1147 -1.4222
 6003TIP3   OH217972   0.866   6.269   3.344 -0.3506 -0.5627 -0.2288
 6003TIP3    H117973   0.876   6.210   3.419  0.9050 -0.5338 -0.3456
 6003TIP3    H217974   0.881   6.213   3.268  1.6183  0.0025 -0.3159
 6004TIP3   OH217975   3.628   5.140   1.084  0.1647  0.1232  0.3365
 6004TIP3    H117976   3.685   5.203   1.129 -2.7375  1.6204  2.1783
 6004TIP3    H217977   3.610   5.073   1.149  0.0911 -0.5539 -0.3662
 6005TIP3   OH217978   5.242   0.465   4.585  0.4403 -0.3598 -0.2712
 6005TIP3    H117979   5.161   0.515   4.572  0.9926  0.3519 -0.9945
 6005TIP3    H217980   5.218   0.399   4.650 -0.6161  0.1006 -0.1698
 6006TIP3   OH217981   5.629   2.563   4.660 -0.5318 -0.7112 -0.6180
 6006TIP3    H117982   5.708   2.553   4.608  0.0252 -0.7792  0.2339
 6006TIP3    H217983   5.597   2.473   4.673 -1.3022 -0.6307 -1.7726
 6007TIP3   OH217984   2.348   1.292   3.241 -0.1117 -1.1477 -0.3027
 6007TIP3    H117985   2.320   1.370   3.192  0.8662 -1.7326 -1.8619
 6007TIP3    H217986   2.436   1.273   3.208  0.5969 -1.5931  1.7149
 6008TIP3   OH217987   1.909   1.514   4.074 -0.3192  0.3048 -0.5968
 6008TIP3    H117988   1.831   1.561   4.103 -0.4337 -1.2955  1.9599
 6008TIP3    H217989   1.980   1.551   4.126  0.6041  1.2947 -2.4401
 6009TIP3   OH217990   0.868   5.743   3.720 -0.2422 -0.4832 -0.3524
 6009TIP3    H117991   0.866   5.664   3.773 -0.3996  0.0511  0.4607
 6009TIP3    H217992   0.799   5.730   3.654 -1.0357 -0.5449  0.4812
 6010TIP3   OH217993   2.590   1.527   3.520 -0.0866 -0.1224  0.3007
 6010TIP3    H117994   2.545   1.575   3.589  0.0548 -0.4740  0.6437
 6010TIP3    H217995   2.542   1.445   3.513 -0.3232  0.0608 -0.2769
 6011TIP3   OH217996   1.666   1.042   1.002 -0.4067 -0.2225 -0.0896
 6011TIP3    H117997   1.657   1.110   1.069  0.0154 -0.4245  0.1758
 6011TIP3    H217998   1.746   0.996   1.025 -1.5169 -1.8469  0.6734
 6012TIP3   OH217999   3.523   5.119   2.375 -0.3272  0.3616 -0.8225
 6012TIP3    H118000   3.537   5.191   2.313  0.4793  1.1675  0.2657
 6012TIP3    H218001   3.429   5.100   2.369  0.0046 -0.8410 -3.6101
 6013TIP3   OH218002   4.978   1.610   5.244  0.1773 -0.4899 -0.6343
 6013TIP3    H118003   4.935   1.580   5.164  0.2649 -1.5596 -0.2831
 6013TIP3    H218004   5.040   1.541   5.266 -0.3882 -0.5856  0.7846
 6014TIP3   OH218005   2.440   5.353   0.322 -0.1109 -0.3413 -0.2498
 6014TIP3    H118006   2.394   5.434   0.299  0.0727 -0.5825 -1.5159
 6014TIP3    H218007   2.530   5.368   0.293  0.0264 -0.8363 -0.0875
 6015TIP3   OH218008   6.036   4.120   3.655  0.0945  0.1627  0.2942
 6015TIP3    H118009   6.078   4.117   3.741  1.2552  0.6747 -0.2269
 6015TIP3    H218010   6.075   4.047   3.607 -2.2965 -1.6418  0.9074
 6016TIP3   OH218011   0.102   4.422   1.301 -0.5936 -0.3226  0.1608
 6016TIP3    H118012   0.153   4.380   1.232  0.3124 -0.1668  0.7226
 6016TIP3    H218013   0.036   4.357   1.326 -1.1315 -0.2729 -1.0404
 6017TIP3   OH218014   0.553   5.836   3.240 -0.1337 -0.1459 -0.4850
 6017TIP3    H118015   0.638   5.798   3.217 -0.5029 -0.8453 -0.7284
 6017TIP3    H218016   0.574   5.916   3.287  0.7063 -1.4662  1.5226
 6018TIP3   OH218017   2.702   3.181   3.197  0.3277  0.0683  0.0039
 6018TIP3    H118018   2.688   3.202   3.105  1.9913 -0.2477 -0.3575
 6018TIP3    H218019   2.779   3.233   3.222  1.8960 -2.2085  0.2784
 6019TIP3   OH218020   5.760   6.197   5.783  0.1885 -0.0281  0.2030
 6019TIP3    H118021   5.702   6.125   5.809  0.0704  0.4161  1.2305
 6019TIP3    H218022   5.729   6.272   5.834 -0.8599  1.2478 -2.1652
 6020TIP3   OH218023   0.901   5.306   0.815 -0.1749  0.7742  0.2897
 6020TIP3    H118024   0.825   5.252   0.794 -0.2616  1.3061 -0.7973
 6020TIP3    H218025   0.923   5.282   0.905  0.8154 -2.2932 -0.6709
 6021TIP3   OH218026   7.031   2.206   4.889 -0.2434 -0.1421 -0.2256
 6021TIP3    H118027   7.007   2.230   4.800 -0.3574 -0.0806 -0.1793
 6021TIP3    H218028   7.095   2.272   4.915 -1.8156  1.1829  0.5096
 6022TIP3   OH218029   0.220   1.743   1.218 -0.4007  0.0382  0.3022
 6022TIP3    H118030   0.220   1.748   1.123 -2.0136  0.5182  0.3040
 6022TIP3    H218031   0.191   1.654   1.238  0.1024 -0.1181  0.3546
 6023TIP3   OH218032   1.705   2.043   5.559  0.2021 -0.0221  0.4761
 6023TIP3    H118033   1.691   1.950   5.542 -0.6091  0.2580 -0.5379
 6023TIP3    H218034   1.782   2.066   5.507  1.1064 -0.3620  1.6384
 6024TIP3   OH218035   1.571   0.241   2.739 -0.5122  0.1726 -0.0355
 6024TIP3    H118036   1.516   0.199   2.673 -1.9783  0.1231  1.1528
 6024TIP3    H218037   1.508   0.274   2.804  0.7702  1.8750  0.3828
 6025TIP3   OH218038   0.459   0.733   1.030  0.6164 -0.4329 -0.5291
 6025TIP3    H118039   0.389   0.797   1.035 -0.2537 -1.4212  0.6718
 6025TIP3    H218040   0.539   0.785   1.032 -0.0246  0.5942  2.1092
 6026TIP3   OH218041   1.577   2.768   5.829  0.1423  0.2646  0.1917
 6026TIP3    H118042   1.666   2.738   5.846  0.5318  1.1201 -0.2443
 6026TIP3    H218043   1.589   2.852   5.784 -0.8615 -0.4728 -1.5527
 6027TIP3   OH218044   2.300   6.554   5.445 -0.3942  0.3998 -0.5193
 6027TIP3    H118045   2.261   6.581   5.527  0.3867  0.8524 -0.2880
 6027TIP3    H218046   2.288   6.459   5.442  2.6864 -0.2232  1.8580
 6028TIP3   OH218047   5.990   1.772   5.213  0.3226 -0.0323  0.5045
 6028TIP3    H118048   5.945   1.808   5.290 -0.5002 -0.2205  0.1152
 6028TIP3    H218049   5.937   1.697   5.187  0.5281  0.1050 -0.3268
 6029TIP3   OH218050   6.256   4.429   0.552  0.3391  0.4988  0.5164
 6029TIP3    H118051   6.257   4.430   0.647 -1.2041 -0.2738  0.5708
 6029TIP3    H218052   6.170   4.464   0.528 -0.9405 -2.8618 -0.4127
 6030TIP3   OH218053   3.905   6.519   5.160  0.1500  0.1386  0.1081
 6030TIP3    H118054   3.822   6.471   5.149  0.6044 -1.1632  1.9595
 6030TIP3    H218055   3.880   6.603   5.198 -0.4030  0.2558 -0.4856
 6031TIP3   OH218056   5.562   0.086   2.377 -0.1021  0.0581  0.2726
 6031TIP3    H118057   5.525   0.097   2.289 -0.9001  1.6431  0.7433
 6031TIP3    H218058   5.526   0.003   2.409 -0.8692  0.1123 -0.4225
 6032TIP3   OH218059   1.464   2.386   3.603 -0.5087  0.3561  0.0792
 6032TIP3    H118060   1.422   2.427   3.528  0.1689  1.9102  0.5047
 6032TIP3    H218061   1.400   2.391   3.674  0.0693  2.0988  0.5366
 6033TIP3   OH218062   1.185   2.604   2.316  0.3388 -0.0203 -0.0382
 6033TIP3    H118063   1.257   2.622   2.377  0.6776 -0.3590 -0.3352
 6033TIP3    H218064   1.106   2.635   2.362  0.3212 -2.0435  1.3944
 6034TIP3   OH218065   0.667   1.405   3.702 -0.4030  0.2223 -0.5648
 6034TIP3    H118066   0.724   1.464   3.750  1.5182 -1.6346 -0.4299
 6034TIP3    H218067   0.644   1.454   3.622 -0.3722  1.8055  0.3594
 6035TIP3   OH218068   3.315   2.174   1.954 -0.1297 -0.3734 -0.0965
 6035TIP3    H118069   3.367   2.127   1.889  2.3625  0.8857  0.8568
 6035TIP3    H218070   3.310   2.264   1.921  0.1420  0.0053  0.8475
 6036TIP3   OH218071   5.839   0.473   3.405 -0.1307 -0.1834 -0.3651
 6036TIP3    H118072   5.848   0.541   3.338  0.1522  1.7369  1.5262
 6036TIP3    H218073   5.928   0.455   3.433 -0.3831  1.0281  1.3452
 6037TIP3   OH218074   6.809   4.660   3.053  0.4242 -0.3828  0.2834
 6037TIP3    H118075   6.871   4.729   3.033  1.5013 -1.2210  0.6631
 6037TIP3    H218076   6.830   4.590   2.992 -0.5059 -0.4817  0.0553
 6038TIP3   OH218077   0.220   6.461   4.153 -0.7787 -0.0734  0.3121
 6038TIP3    H118078   0.236   6.551   4.124  0.7639 -0.7844 -1.2317
 6038TIP3    H218079   0.159   6.426   4.089 -1.4904 -0.1002  0.9941
 6039TIP3   OH218080   0.646   4.062   0.940  0.2436  0.0010 -0.2498
 6039TIP3    H118081   0.700   4.011   1.000 -0.9291 -1.8266 -0.6747
 6039TIP3    H218082   0.569   4.086   0.990 -0.2118 -0.5433 -0.6746
 6040TIP3   OH218083   0.052   0.293   1.850 -0.1862 -0.0716  0.4941
 6040TIP3    H118084   0.122   0.348   1.816 -1.1585  0.4857 -0.6695
 6040TIP3    H218085   0.037   0.325   1.939  0.9283 -0.1182  0.7181
 6041TIP3   OH218086   1.009   1.115   5.756 -0.1099  0.3011  0.0527
 6041TIP3    H118087   0.948   1.105   5.683 -0.0462  0.7860 -0.0675
 6041TIP3    H218088   0.953   1.129   5.832 -0.2455 -1.7673  0.3814
 6042TIP3   OH218089   3.821   1.610   0.140  0.0690  0.4002  0.2881
 6042TIP3    H118090   3.896   1.587   0.085 -0.4933 -0.0663 -0.2798
 6042TIP3    H218091   3.814   1.706   0.131 -0.2986  0.2815 -0.8178
 6043TIP3   OH218092   3.512   3.617   5.507  0.1382  0.2735  0.5117
 6043TIP3    H118093   3.417   3.612   5.498  0.1233  0.5467  0.5097
 6043TIP3    H218094   3.530   3.711   5.511  0.3736  0.2147  0.8633
 6044TIP3   OH218095   6.377   2.054   3.197  0.5618 -0.1045  0.0781
 6044TIP3    H118096   6.315   2.064   3.125  2.0488  0.5335 -1.1648
 6044TIP3    H218097   6.359   2.129   3.254 -2.2095 -1.8599  1.7083
 6045TIP3   OH218098   2.977   1.249   3.175 -0.3079  0.0762 -0.0129
 6045TIP3    H118099   2.982   1.312   3.247  0.5056 -0.5526  0.4862
 6045TIP3    H218100   2.911   1.186   3.203  1.1624 -1.0990  0.9554
 6046TIP3   OH218101   3.776   6.560   0.535 -0.7292 -0.4702  0.0286
 6046TIP3    H118102   3.733   6.475   0.545  0.6818 -1.5736 -2.4280
 6046TIP3    H218103   3.830   6.569   0.613  0.4323 -2.7181 -0.4398
 6047TIP3   OH218104   5.617   6.273   4.252  0.3198  0.2349 -0.5239
 6047TIP3    H118105   5.582   6.186   4.271 -0.3745  0.9081  1.5113
 6047TIP3    H218106   5.546   6.317   4.204 -0.1801  0.3577  0.3067
 6048TIP3   OH218107   4.078   1.903   3.298  0.5677  0.4600  0.0359
 6048TIP3    H118108   4.072   1.888   3.392  0.9936 -1.5665 -0.2147
 6048TIP3    H218109   4.171   1.896   3.278  0.3044 -1.2568 -0.7993
 6049TIP3   OH218110   3.395   3.185   1.680 -0.0171 -0.1590  0.0589
 6049TIP3    H118111   3.347   3.267   1.692  0.4980  0.1917 -0.2574
 6049TIP3    H218112   3.443   3.172   1.762 -0.2703 -0.2587  0.1916
 6050TIP3   OH218113   4.459   5.852   2.719  0.9342 -0.1138  0.0103
 6050TIP3    H118114   4.515   5.774   2.723 -0.7104 -1.3275  0.4634
 6050TIP3    H218115   4.462   5.888   2.807 -0.1116 -1.0509  0.4658
 6051TIP3   OH218116   3.729   3.588   2.550 -0.2481  0.0191 -0.1220
 6051TIP3    H118117   3.751   3.496   2.568  0.1969  0.3217  0.9753
 6051TIP3    H218118   3.779   3.637   2.615 -0.5155  1.0421 -0.6762
 6052TIP3   OH218119   2.783   2.690   2.434 -0.1819  0.4568 -0.0539
 6052TIP3    H118120   2.850   2.651   2.377 -1.0815  0.0069 -0.8276
 6052TIP3    H218121   2.820   2.685   2.522  0.7088  0.0135 -0.4446
 6053TIP3   OH218122   2.725   5.811   5.214  0.2275  0.4716  0.1660
 6053TIP3    H118123   2.715   5.904   5.193  2.1744  0.6217 -0.3289
 6053TIP3    H218124   2.699   5.804   5.306 -0.9880  1.2827 -0.0943
 6054TIP3   OH218125   0.310   0.282   2.425  0.6452 -0.0181 -0.0956
 6054TIP3    H118126   0.404   0.272   2.439  0.4504 -0.3218  1.1259
 6054TIP3    H218127   0.279   0.193   2.408  0.5710  0.0683 -0.4035
 6055TIP3   OH218128   2.412   0.608   4.973  0.3676 -0.2257  0.1931
 6055TIP3    H118129   2.489   0.553   4.987 -0.8096 -2.1555 -0.4756
 6055TIP3    H218130   2.355   0.589   5.048  0.4731  1.0973  0.6239
 6056TIP3   OH218131   2.387   6.093  -0.010 -0.3887 -0.6284  0.1873
 6056TIP3    H118132   2.372   6.162   0.055 -0.2029 -0.8746  0.4933
 6056TIP3    H218133   2.299   6.071  -0.042 -0.3663  0.5907 -0.7993
 6057TIP3   OH218134   4.158   3.401   5.063 -0.2340 -0.2751  0.4062
 6057TIP3    H118135   4.200   3.450   5.134 -2.0520  0.2329  1.2013
 6057TIP3    H218136   4.082   3.360   5.105 -0.3045 -1.4904 -0.8694
 6058TIP3   OH218137   4.389   2.794   2.578  0.2181  0.1782 -0.0827
 6058TIP3    H118138   4.335   2.750   2.512  1.0232 -1.4802  0.3169
 6058TIP3    H218139   4.407   2.880   2.540 -1.5113  0.2569 -0.8331
 6059TIP3   OH218140   3.009   1.445   4.759  0.0627 -0.4665 -0.5816
 6059TIP3    H118141   3.007   1.539   4.739 -1.9736 -0.6391 -1.3536
 6059TIP3    H218142   3.049   1.405   4.682 -1.2217 -0.4308 -1.2934
 6060TIP3   OH218143   5.211   6.686   0.618 -0.5292 -0.1489 -0.4745
 6060TIP3    H118144   5.211   6.698   0.523 -0.9413  0.4088 -0.4061
 6060TIP3    H218145   5.251   6.599   0.631  0.1999  0.0772 -1.1111
 6061TIP3   OH218146   2.135   3.863   2.404  0.0245  0.2630  0.2543
 6061TIP3    H118147   2.124   3.870   2.309  1.1852  0.7624  0.1449
 6061TIP3    H218148   2.122   3.953   2.436  0.6022  0.2769  0.4580
 6062TIP3   OH218149   2.510   5.622   4.374 -0.3563  0.3635 -0.4061
 6062TIP3    H118150   2.444   5.663   4.429 -0.2939  0.8813 -0.7183
 6062TIP3    H218151   2.593   5.637   4.420 -0.4379 -0.2451 -0.0383
 6063TIP3   OH218152   5.183   5.904   4.600 -0.9664  0.2763 -0.3300
 6063TIP3    H118153   5.111   5.944   4.648 -1.4067 -1.1600  0.2792
 6063TIP3    H218154   5.256   5.905   4.662 -1.2525 -0.6831  0.0449
 6064TIP3   OH218155   6.475   3.220   1.396 -0.0329 -0.2183 -0.7191
 6064TIP3    H118156   6.455   3.126   1.403  1.2010 -0.4792 -0.3722
 6064TIP3    H218157   6.397   3.258   1.357 -0.2908 -1.5142 -1.5496
 6065TIP3   OH218158   5.255   5.404   3.964  0.0184  0.0831 -0.2342
 6065TIP3    H118159   5.183   5.348   3.934  0.0446 -0.9517  1.4909
 6065TIP3    H218160   5.211   5.480   4.001 -0.0748  0.5518 -1.2780
 6066TIP3   OH218161   0.771   5.249   1.916 -0.6178 -0.1273  0.1001
 6066TIP3    H118162   0.802   5.186   1.981  0.9842  1.7650  1.2599
 6066TIP3    H218163   0.713   5.307   1.965  0.9721  1.6065  0.0016
 6067TIP3   OH218164   4.862   5.978   2.278 -0.3967 -0.2024 -0.4037
 6067TIP3    H118165   4.844   5.941   2.365 -1.4645  1.5076  0.1633
 6067TIP3    H218166   4.785   5.955   2.226 -0.0530 -0.6668 -0.7118
 6068TIP3   OH218167   2.450   3.079   4.718  0.4402 -0.1026  0.3814
 6068TIP3    H118168   2.459   3.174   4.730 -0.6182  0.0773 -0.1280
 6068TIP3    H218169   2.493   3.062   4.634  0.0364  0.0479  0.1371
 6069TIP3   OH218170   3.561   5.962   1.557 -0.2855  0.1204  0.0267
 6069TIP3    H118171   3.512   6.041   1.533 -1.3936 -0.4213  0.4184
 6069TIP3    H218172   3.505   5.890   1.526  0.9323 -0.5204 -0.7587
 6070TIP3   OH218173   6.778   2.332   1.132 -0.3155 -0.1333 -0.0046
 6070TIP3    H118174   6.741   2.329   1.221  0.2892 -1.3329  0.2266
 6070TIP3    H218175   6.816   2.420   1.125 -0.9271  0.1967  0.6916
 6071TIP3   OH218176   2.048   3.288   2.041 -0.0194 -0.1169 -0.3465
 6071TIP3    H118177   2.032   3.201   2.003 -0.8357 -0.6394  1.1109
 6071TIP3    H218178   1.974   3.341   2.012 -0.7091 -0.5511  0.5566
 6072TIP3   OH218179   1.680   6.319   0.760 -0.0940  0.2878 -0.9468
 6072TIP3    H118180   1.640   6.269   0.831 -0.3391  0.2580 -1.1034
 6072TIP3    H218181   1.774   6.311   0.775 -0.1347 -0.0781 -0.8757
 6073TIP3   OH218182   7.166   4.141   2.861 -0.2323 -0.0357 -0.1908
 6073TIP3    H118183   7.155   4.090   2.941 -1.2253 -0.8604 -0.8215
 6073TIP3    H218184   7.218   4.217   2.887  0.6535 -0.9922  0.9364
 6074TIP3   OH218185   0.398   2.115   0.654 -0.2814  0.1933 -0.0919
 6074TIP3    H118186   0.318   2.154   0.690 -0.4873 -0.5115  0.2248
 6074TIP3    H218187   0.372   2.027   0.629  0.8741 -0.7850  1.9248
 6075TIP3   OH218188   4.612   6.450   5.823 -0.3322  0.0455 -0.2581
 6075TIP3    H118189   4.623   6.365   5.866  0.7539 -1.0383 -2.5042
 6075TIP3    H218190   4.695   6.495   5.837 -0.2847  0.0266 -0.4647
 6076TIP3   OH218191   2.814   3.145   5.504  0.2567 -0.0001 -0.6579
 6076TIP3    H118192   2.852   3.216   5.557 -0.3513  2.0127 -2.7510
 6076TIP3    H218193   2.862   3.149   5.421 -1.3157 -0.5595 -1.6311
 6077TIP3   OH218194   4.673   5.258   2.717  0.2397 -0.6480 -0.8904
 6077TIP3    H118195   4.761   5.235   2.747 -0.3078 -1.3861  0.2122
 6077TIP3    H218196   4.634   5.174   2.692 -0.2491 -0.3533 -1.1244
 6078TIP3   OH218197   4.194   6.126   3.107  0.0670 -0.0493  0.1219
 6078TIP3    H118198   4.163   6.215   3.086  0.7069  0.6978  2.1016
 6078TIP3    H218199   4.188   6.121   3.202  0.4461 -2.0140  0.0763
 6079TIP3   OH218200   1.892   1.152   1.930 -0.1121 -0.0439 -0.1464
 6079TIP3    H118201   1.799   1.174   1.937  0.1214  0.6753  0.9099
 6079TIP3    H218202   1.914   1.112   2.015  0.1551 -1.7851 -0.9923
 6080TIP3   OH218203   6.583   1.302   4.624  0.0029 -0.3628  0.4482
 6080TIP3    H118204   6.616   1.353   4.550  0.7637  0.4473  1.3174
 6080TIP3    H218205   6.607   1.212   4.604 -3.1606 -0.8271 -2.1230
 6081TIP3   OH218206   0.402   0.427   4.959  0.5955 -0.2308  0.4529
 6081TIP3    H118207   0.375   0.514   4.988  0.3150  0.3249 -1.3633
 6081TIP3    H218208   0.321   0.377   4.954  0.5250 -0.0733 -0.1141
 6082TIP3   OH218209   3.060   0.469   2.868 -0.0308  0.6565  0.2925
 6082TIP3    H118210   3.030   0.420   2.791  0.4652  1.5607 -0.4936
 6082TIP3    H218211   2.995   0.539   2.878 -1.2559 -0.6073  1.9582
 6083TIP3   OH218212   2.654   5.096   0.198  0.5571 -0.1275  0.0214
 6083TIP3    H118213   2.716   5.055   0.137  0.0906 -2.5916  1.0716
 6083TIP3    H218214   2.668   5.050   0.281 -2.2520 -0.3778  0.4335
 6084TIP3   OH218215   5.621   4.281   4.780  0.0831  0.0727 -0.2111
 6084TIP3    H118216   5.692   4.321   4.830  0.0695 -1.0853  0.7850
 6084TIP3    H218217   5.577   4.223   4.842 -1.0492 -0.0758 -1.1058
 6085TIP3   OH218218   3.403   5.210   5.496 -0.4341  0.4281 -0.0552
 6085TIP3    H118219   3.380   5.142   5.433 -0.4259 -0.2402  0.6401
 6085TIP3    H218220   3.319   5.250   5.520 -0.4325  0.7075 -0.5074
 6086TIP3   OH218221   3.521   2.583   3.764 -0.8167 -0.3184  0.3674
 6086TIP3    H118222   3.477   2.667   3.780 -0.2151  0.1323 -0.2533
 6086TIP3    H218223   3.589   2.579   3.832  0.0153  0.3397 -0.4013
 6087TIP3   OH218224   0.819   3.018   2.984 -0.3260 -0.1841  0.2751
 6087TIP3    H118225   0.743   3.010   2.927  0.7109  1.2537 -1.3812
 6087TIP3    H218226   0.879   2.950   2.954 -0.2566 -0.2080  0.4646
 6088TIP3   OH218227   1.579   6.681   1.710  0.0102 -0.3108  0.5160
 6088TIP3    H118228   1.586   6.640   1.797  0.1987 -2.8645 -0.6137
 6088TIP3    H218229   1.519   6.625   1.662  0.1649  0.8700 -1.1385
 6089TIP3   OH218230   5.553   4.837   1.452  0.2320  0.1656 -0.3083
 6089TIP3    H118231   5.482   4.854   1.390  0.7016 -2.2823 -1.6245
 6089TIP3    H218232   5.526   4.758   1.498 -0.0022  1.7985  2.5842
 6090TIP3   OH218233   4.038   1.425   3.096 -0.1633  0.0057 -0.1888
 6090TIP3    H118234   3.978   1.464   3.032 -0.1259  2.1975  1.0097
 6090TIP3    H218235   4.120   1.472   3.082 -0.0820  0.3261  1.2708
 6091TIP3   OH218236   4.634   3.517   4.085 -0.9523 -0.0765  0.3150
 6091TIP3    H118237   4.709   3.546   4.136 -1.3372  3.7250 -0.9988
 6091TIP3    H218238   4.565   3.502   4.150 -0.0533 -0.2026  1.2552
 6092TIP3   OH218239   5.807   2.526   5.021  0.3169  0.7140 -0.1165
 6092TIP3    H118240   5.847   2.467   5.084 -0.4423  0.3489  0.0393
 6092TIP3    H218241   5.876   2.589   5.000  1.5312 -0.8963 -1.1938
 6093TIP3   OH218242   3.514   0.616   3.375 -0.4178 -0.0897  0.0388
 6093TIP3    H118243   3.577   0.577   3.436 -0.1822  0.0464 -0.1204
 6093TIP3    H218244   3.551   0.601   3.288 -0.4376  0.2834 -0.0370
 6094TIP3   OH218245   6.408   3.067   0.177 -0.0486 -0.1197  0.0271
 6094TIP3    H118246   6.447   3.002   0.120 -0.9286 -0.4699 -0.2014
 6094TIP3    H218247   6.388   3.020   0.257  1.6329  0.4873  0.8451
 6095TIP3   OH218248   4.968   1.358   4.557 -0.5856 -0.4265  0.1258
 6095TIP3    H118249   4.932   1.446   4.555 -0.4518 -0.3660  0.4039
 6095TIP3    H218250   4.984   1.336   4.465  2.4429  1.0763  0.1635
 6096TIP3   OH218251   0.593   3.302   0.282  0.5626  0.0593  0.2493
 6096TIP3    H118252   0.535   3.365   0.326  0.9983  1.8363 -1.5848
 6096TIP3    H218253   0.681   3.338   0.295  1.0149 -1.1586  0.6912
 6097TIP3   OH218254   5.299   6.148   1.214  0.1702  0.0391  0.2780
 6097TIP3    H118255   5.239   6.080   1.183 -0.8051  1.0957 -0.2096
 6097TIP3    H218256   5.357   6.103   1.275 -1.8776 -0.8019  1.6963
 6098TIP3   OH218257   2.416   2.777   1.580  0.8428 -0.1719  0.2303
 6098TIP3    H118258   2.394   2.866   1.606 -0.0871 -0.3201 -0.0107
 6098TIP3    H218259   2.391   2.723   1.655  0.6340 -0.3145  0.0600
 6099TIP3   OH218260   4.809   2.102   0.540 -0.6050 -0.5567  0.2567
 6099TIP3    H118261   4.805   2.187   0.497 -2.3763 -0.1936  1.0349
 6099TIP3    H218262   4.889   2.106   0.593 -0.7857  0.7437  0.4814
 6100TIP3   OH218263   4.846   1.108   4.384 -0.1862  0.5918  0.7524
 6100TIP3    H118264   4.910   1.173   4.354 -0.8495  0.5174 -0.9373
 6100TIP3    H218265   4.850   1.038   4.318 -1.8102  0.4751  0.7326
 6101TIP3   OH218266   1.374   2.754   5.478  0.1783  0.0141 -0.0890
 6101TIP3    H118267   1.449   2.799   5.439  1.1528  0.1907  1.8369
 6101TIP3    H218268   1.303   2.767   5.416  1.4872  0.6737 -1.5238
 6102TIP3   OH218269   0.219   4.312   4.069 -0.5570  0.3166 -0.1980
 6102TIP3    H118270   0.175   4.323   4.154 -1.0402 -1.0158 -0.2544
 6102TIP3    H218271   0.213   4.218   4.051  0.9450  0.3477 -0.9610
 6103TIP3   OH218272   3.017   2.127   5.730 -0.3599 -0.4493 -0.1194
 6103TIP3    H118273   3.044   2.112   5.820  1.3129 -0.3883 -0.5811
 6103TIP3    H218274   3.038   2.046   5.684 -1.6274 -0.6493 -0.3776
 6104TIP3   OH218275   5.737   0.826   2.782  0.3810 -0.1553 -0.4088
 6104TIP3    H118276   5.695   0.785   2.706  0.4761  0.7769 -0.9864
 6104TIP3    H218277   5.756   0.915   2.753  2.6780 -0.5001 -0.1556
 6105TIP3   OH218278   4.179   2.571   3.100 -0.1971  0.0373  0.3581
 6105TIP3    H118279   4.105   2.608   3.052  0.5566 -0.2074 -1.0383
 6105TIP3    H218280   4.143   2.493   3.143 -0.7972  0.0339 -0.1342
 6106TIP3   OH218281   5.167   2.633   0.464 -0.4699  0.2315  0.4750
 6106TIP3    H118282   5.196   2.543   0.450 -0.2011  0.5671 -1.3225
 6106TIP3    H218283   5.081   2.637   0.423 -0.3078  0.9003  0.1919
 6107TIP3   OH218284   2.764   1.715   0.924 -0.5675 -0.3150  0.1379
 6107TIP3    H118285   2.847   1.757   0.949 -0.3132  0.4532 -1.8140
 6107TIP3    H218286   2.764   1.633   0.973  2.7789 -1.7387 -1.8494
 6108TIP3   OH218287   2.400   5.800   1.208 -0.5411 -0.3907  0.5713
 6108TIP3    H118288   2.341   5.836   1.275  0.5860  0.3513  1.2006
 6108TIP3    H218289   2.343   5.748   1.152 -2.2280  2.0353 -0.1581
 6109TIP3   OH218290   5.977   4.818   5.779 -0.5315  0.1812 -0.2604
 6109TIP3    H118291   5.965   4.912   5.775 -0.7796  0.1252 -0.8027
 6109TIP3    H218292   5.982   4.799   5.873  2.7682  1.1493 -0.1165
 6110TIP3   OH218293   4.671   5.580   4.546  0.3781 -0.0945 -0.4917
 6110TIP3    H118294   4.670   5.572   4.450  0.1688 -0.8212 -0.4264
 6110TIP3    H218295   4.755   5.543   4.572  0.4058  0.0424 -0.3826
 6111TIP3   OH218296   6.652   1.786   2.283  0.1141  0.0211  0.2983
 6111TIP3    H118297   6.733   1.836   2.286  0.6364 -0.8574  1.5059
 6111TIP3    H218298   6.657   1.737   2.201  0.0064  1.2309 -0.4531
 6112TIP3   OH218299   2.800   0.015   5.400 -0.4005  0.5020  0.4273
 6112TIP3    H118300   2.811  -0.064   5.348  0.1501  0.6939  0.2479
 6112TIP3    H218301   2.884   0.061   5.394  0.7602 -0.8463  3.8300
 6113TIP3   OH218302   6.286   4.155   5.773 -0.8314  0.6822  0.3956
 6113TIP3    H118303   6.222   4.084   5.780  0.1731 -0.1515  1.4086
 6113TIP3    H218304   6.316   4.151   5.682  0.0052 -0.9257  0.7037
 6114TIP3   OH218305   3.307   6.416   3.704  0.2022 -0.3220  0.8124
 6114TIP3    H118306   3.240   6.370   3.654  1.0347  0.3404 -1.0020
 6114TIP3    H218307   3.263   6.491   3.742  0.0276  0.4703 -0.9049
 6115TIP3   OH218308   4.992   3.669   1.789  0.2366 -0.0427  0.5940
 6115TIP3    H118309   4.945   3.599   1.834  0.5151 -1.4682 -1.1933
 6115TIP3    H218310   5.062   3.693   1.848 -0.0476 -1.0844  1.3760
 6116TIP3   OH218311   0.313   6.000   0.273 -0.3052 -0.2026 -0.2859
 6116TIP3    H118312   0.292   5.957   0.190 -2.2365 -1.3337  0.7062
 6116TIP3    H218313   0.270   6.085   0.267 -2.0535 -0.9930  0.1992
 6117TIP3   OH218314   1.932   0.066   2.160  0.0481 -0.3981  0.5617
 6117TIP3    H118315   1.975   0.111   2.233  1.5669 -0.0941 -0.4760
 6117TIP3    H218316   1.980  -0.016   2.150 -0.4235 -0.6343  0.1608
 6118TIP3   OH218317   3.559   3.807   3.449 -0.2980 -0.2800  0.1705
 6118TIP3    H118318   3.629   3.801   3.514 -0.6242  0.0822  0.5648
 6118TIP3    H218319   3.603   3.837   3.369 -0.0546  0.2826  0.5073
 6119TIP3   OH218320   3.436   5.124   4.105 -0.0196 -0.8518 -1.0465
 6119TIP3    H118321   3.430   5.216   4.077 -1.1206 -0.5444  0.0798
 6119TIP3    H218322   3.530   5.105   4.106  0.4018  0.9416  0.7059
 6120TIP3   OH218323   3.943   0.945   5.088 -0.1637  0.9639  0.4848
 6120TIP3    H118324   4.026   0.900   5.072 -0.5253 -0.0365  1.3206
 6120TIP3    H218325   3.964   1.038   5.076  1.0081  0.7099  0.3999
 6121TIP3   OH218326   5.581   4.779   5.677  0.0168 -0.1639 -0.2503
 6121TIP3    H118327   5.529   4.804   5.753  1.3177 -0.0233  0.6288
 6121TIP3    H218328   5.571   4.852   5.616 -0.3597  0.1081  0.1341
 6122TIP3   OH218329   6.851   1.284   0.232  0.0948 -0.7818  0.0273
 6122TIP3    H118330   6.826   1.192   0.225 -0.5371 -0.6440  0.4931
 6122TIP3    H218331   6.848   1.316   0.142 -2.5779 -0.4584  0.1721
 6123TIP3   OH218332   0.545   6.338   4.271 -0.0125  0.3416 -0.1810
 6123TIP3    H118333   0.572   6.428   4.254  0.2345  0.5702  1.3539
 6123TIP3    H218334   0.622   6.297   4.311  0.0197 -0.6848 -1.2213
 6124TIP3   OH218335   0.113   5.393   1.108  0.0833 -0.1058  0.7033
 6124TIP3    H118336   0.199   5.351   1.097  1.3304  2.1224  1.3377
 6124TIP3    H218337   0.078   5.400   1.020  0.2367 -1.6120  0.4979
 6125TIP3   OH218338   6.116   1.943   0.584  0.5583  0.2080 -0.3646
 6125TIP3    H118339   6.079   1.899   0.507  0.8791 -2.6564  0.9647
 6125TIP3    H218340   6.104   2.036   0.567 -2.4597 -0.3950 -2.3575
 6126TIP3   OH218341   6.430   2.138   3.951 -0.4407 -0.1904  0.4206
 6126TIP3    H118342   6.395   2.129   4.039  0.4222 -0.8713  0.7082
 6126TIP3    H218343   6.493   2.067   3.943  1.6101  1.5700  0.2584
 6127TIP3   OH218344   4.812   2.218   0.185 -0.3696 -0.0118 -1.1498
 6127TIP3    H118345   4.833   2.126   0.165  0.8765 -0.6938  2.5556
 6127TIP3    H218346   4.897   2.262   0.183 -0.5173  0.3534  0.0508
 6128TIP3   OH218347   1.292   5.784   5.621  0.2850 -0.0555  0.8473
 6128TIP3    H118348   1.283   5.691   5.639  0.5012 -0.4668 -0.9424
 6128TIP3    H218349   1.386   5.802   5.632  0.1762  0.0542  1.6112
 6129TIP3   OH218350   5.836   4.235   3.809 -0.9249 -0.1789 -0.0451
 6129TIP3    H118351   5.864   4.308   3.864  1.0303 -0.6997 -0.2828
 6129TIP3    H218352   5.897   4.235   3.736 -1.5544 -1.4248 -0.6036
 6130TIP3   OH218353   2.258   1.464   4.851 -0.2932 -0.1593 -0.1012
 6130TIP3    H118354   2.343   1.484   4.890  0.2346 -0.8514 -0.8796
 6130TIP3    H218355   2.250   1.369   4.857 -0.5289 -0.2049 -1.0263
 6131TIP3   OH218356   5.464   5.651   4.306 -0.2323 -0.1208 -0.0845
 6131TIP3    H118357   5.502   5.730   4.344  0.5378  0.2371 -1.5372
 6131TIP3    H218358   5.538   5.591   4.296 -0.3188 -0.0452 -1.3743
 6132TIP3   OH218359   0.567   2.829   5.696  0.5148 -0.4048 -0.0507
 6132TIP3    H118360   0.487   2.779   5.683  1.5500 -1.7971 -1.4667
 6132TIP3    H218361   0.638   2.765   5.691  1.7739  0.8698  0.4814
 6133TIP3   OH218362   1.110   6.314   1.078 -0.2420  0.0218  0.0674
 6133TIP3    H118363   1.086   6.222   1.087  1.6330 -0.6263 -0.9983
 6133TIP3    H218364   1.206   6.314   1.073 -0.2043  2.0102 -0.2203
 6134TIP3   OH218365   4.584   6.216   2.339  0.0376 -0.0435 -0.2844
 6134TIP3    H118366   4.556   6.254   2.255  0.9140 -1.0497 -1.0597
 6134TIP3    H218367   4.676   6.242   2.348 -0.1688  0.4383  0.6115
 6135TIP3   OH218368   3.131   3.037   3.294 -0.1665  0.4415 -0.7046
 6135TIP3    H118369   3.084   3.101   3.240 -1.1734  2.2184  2.0413
 6135TIP3    H218370   3.215   3.079   3.313 -0.9509  1.2306  1.3678
 6136TIP3   OH218371   1.588   6.559   3.524 -0.0477  0.0650 -0.7260
 6136TIP3    H118372   1.655   6.530   3.586 -0.5751  1.0589  0.3512
 6136TIP3    H218373   1.523   6.489   3.525 -0.1054  0.1195 -0.0598
 6137TIP3   OH218374   0.766   0.209   4.590 -0.0777  0.5742  0.3275
 6137TIP3    H118375   0.803   0.121   4.599 -0.3115  0.4198 -0.1454
 6137TIP3    H218376   0.824   0.265   4.641  0.2973  0.2021  0.3160
 6138TIP3   OH218377   5.191   3.190   5.058 -0.3391  0.2903 -0.0207
 6138TIP3    H118378   5.109   3.188   5.107  0.7541  0.3005  1.8885
 6138TIP3    H218379   5.178   3.259   4.993 -1.5355  0.8940  0.8080
 6139TIP3   OH218380   0.671   4.182   5.608  0.1761  0.2832 -0.8570
 6139TIP3    H118381   0.727   4.152   5.536  1.8083  0.6303  0.1978
 6139TIP3    H218382   0.719   4.256   5.646 -1.0396  0.6218  0.0832
 6140TIP3   OH218383   4.782   4.814   2.167  0.0256 -0.1718 -0.2033
 6140TIP3    H118384   4.742   4.862   2.240 -1.4714  0.8937 -1.6439
 6140TIP3    H218385   4.719   4.824   2.095  1.9306 -0.2680 -1.9686
 6141TIP3   OH218386   0.909   1.513   4.032  0.3570  0.1383  0.6450
 6141TIP3    H118387   0.936   1.501   3.941 -0.0677  1.3950  0.3377
 6141TIP3    H218388   0.885   1.605   4.038  0.5730  0.1226  2.0895
 6142TIP3   OH218389   0.733   4.899   2.351 -0.2354 -0.1182 -0.1638
 6142TIP3    H118390   0.675   4.834   2.391  0.5819 -0.6771  0.1345
 6142TIP3    H218391   0.687   4.982   2.361 -0.8406 -0.5085  0.3489
 6143TIP3   OH218392   6.213   0.737   5.259  0.4388  0.0025  0.0467
 6143TIP3    H118393   6.301   0.741   5.222  0.4514 -3.1523 -0.5600
 6143TIP3    H218394   6.155   0.759   5.187  0.6665  1.2723  0.2304
 6144TIP3   OH218395   5.047   6.362   1.136 -0.2614  0.0412  0.2685
 6144TIP3    H118396   5.141   6.348   1.123 -0.6467 -1.0477 -1.7628
 6144TIP3    H218397   5.014   6.390   1.051 -1.9452 -0.5638  0.6684
 6145TIP3   OH218398   6.227   5.458   0.095  0.5099  0.3371  0.5170
 6145TIP3    H118399   6.240   5.535   0.040 -1.5149  1.8206  1.9333
 6145TIP3    H218400   6.262   5.484   0.181 -1.0202  0.0900  1.2531
 6146TIP3   OH218401   3.919   3.904   1.705 -0.0387 -0.4354  0.0980
 6146TIP3    H118402   3.835   3.859   1.701  0.9208 -2.5301  1.6363
 6146TIP3    H218403   3.934   3.935   1.616 -3.5091  2.2688  0.2195
 6147TIP3   OH218404   2.025   2.495   2.361  0.3477  0.7022  0.2901
 6147TIP3    H118405   1.991   2.484   2.450 -0.9159 -1.0500 -0.3293
 6147TIP3    H218406   2.031   2.589   2.348 -0.8013  1.0103  1.7551
 6148TIP3   OH218407   0.903   0.001   5.671 -0.2135 -0.2057  0.4240
 6148TIP3    H118408   0.943   0.087   5.659  0.1623 -0.3656  0.5094
 6148TIP3    H218409   0.809   0.018   5.676 -0.1722  0.1511 -0.0109
 6149TIP3   OH218410   2.592   1.289   5.140 -0.3730 -0.1406  0.1790
 6149TIP3    H118411   2.617   1.330   5.222  0.2284 -0.4308  0.1498
 6149TIP3    H218412   2.558   1.360   5.086 -2.3709 -0.1980  1.2634
 6150TIP3   OH218413   1.442   4.515   5.495 -0.5742 -0.2157  0.4739
 6150TIP3    H118414   1.508   4.554   5.552 -0.5064 -1.2317  1.1178
 6150TIP3    H218415   1.362   4.514   5.548 -0.8369  0.0102  0.0860
 6151TIP3   OH218416   0.068   0.810   2.064 -0.0207 -0.3868  0.2223
 6151TIP3    H118417   0.062   0.822   2.159 -0.6600 -0.5447  0.2026
 6151TIP3    H218418   0.044   0.895   2.028 -0.0311 -0.4035  0.1906
 6152TIP3   OH218419   6.881   5.627   4.405  0.4837 -0.1614 -0.1919
 6152TIP3    H118420   6.832   5.709   4.414 -1.5566 -1.5175  2.4178
 6152TIP3    H218421   6.967   5.654   4.372 -0.6777  2.7779 -1.1752
 6153TIP3   OH218422   4.468   1.309   2.863 -0.1776  0.5538 -0.0456
 6153TIP3    H118423   4.474   1.291   2.957  0.9776  0.1189 -0.1855
 6153TIP3    H218424   4.375   1.302   2.843 -0.4457  0.6818  1.0686
 6154TIP3   OH218425   5.091   2.025   5.227  0.0042  0.9255 -0.3771
 6154TIP3    H118426   5.021   2.053   5.286 -0.6333  0.8250 -1.0701
 6154TIP3    H218427   5.086   1.929   5.228  0.3566  0.9060 -0.1730
 6155TIP3   OH218428   7.074   5.375   1.521 -0.0738  0.5094 -0.1229
 6155TIP3    H118429   7.164   5.345   1.508 -1.0490 -2.1482 -1.5799
 6155TIP3    H218430   7.053   5.347   1.610  0.5733  1.3945  0.3313
 6156TIP3   OH218431   3.384   4.252   3.775  0.9041  0.5574 -0.6125
 6156TIP3    H118432   3.412   4.342   3.792  0.6005  0.3772  1.0819
 6156TIP3    H218433   3.301   4.261   3.728  2.3939  1.0993 -3.3196
 6157TIP3   OH218434   3.669   4.491   0.138 -0.4212 -0.9832  0.0145
 6157TIP3    H118435   3.688   4.570   0.086  4.1900 -2.0218 -0.3161
 6157TIP3    H218436   3.654   4.523   0.226  0.5790  0.3698 -0.2708
 6158TIP3   OH218437   3.649   4.968   2.567 -0.2431 -0.3051 -0.4129
 6158TIP3    H118438   3.738   5.000   2.581 -1.0017  1.9732 -0.4754
 6158TIP3    H218439   3.608   5.033   2.511 -2.3578 -0.5906  0.7128
 6159TIP3   OH218440   1.691   4.835   0.860  0.0570 -0.0141 -0.0998
 6159TIP3    H118441   1.610   4.885   0.845 -2.3952 -3.3066  0.9501
 6159TIP3    H218442   1.745   4.855   0.784 -2.1997  1.5327 -1.4389
 6160TIP3   OH218443   1.892   5.295   1.113 -0.5180 -0.4765  0.6163
 6160TIP3    H118444   1.932   5.373   1.077 -2.5028  0.5050  0.3986
 6160TIP3    H218445   1.837   5.261   1.042  0.8868 -2.5537  0.4317
 6161TIP3   OH218446   6.592   6.201   2.594  0.0940  0.2577  0.5210
 6161TIP3    H118447   6.515   6.145   2.591 -0.4146  0.9084  1.0294
 6161TIP3    H218448   6.621   6.207   2.503 -1.5570  1.4714  0.0200
 6162TIP3   OH218449   2.399   3.501   2.139 -0.2058 -0.2323 -0.0075
 6162TIP3    H118450   2.398   3.595   2.155  0.6999 -0.6519  3.4543
 6162TIP3    H218451   2.477   3.486   2.086  0.7648  0.8335  1.0706
 6163TIP3   OH218452   2.787   0.521   1.831  0.3236 -0.3746  0.5612
 6163TIP3    H118453   2.703   0.476   1.828  0.6549 -1.0825  1.2901
 6163TIP3    H218454   2.775   0.591   1.895  1.4552 -3.1546  4.1362
 6164TIP3   OH218455   5.730   3.428   0.484  0.1761  0.3953 -0.1300
 6164TIP3    H118456   5.741   3.349   0.536  0.7890  1.3954  1.3325
 6164TIP3    H218457   5.682   3.400   0.407  1.3204 -1.5942 -0.1695
 6165TIP3   OH218458   2.150   0.863   4.112  0.4078  0.1281  0.3145
 6165TIP3    H118459   2.227   0.855   4.169 -0.8220  0.3182  2.1012
 6165TIP3    H218460   2.077   0.835   4.168 -0.7126 -1.1177 -1.6653
 6166TIP3   OH218461   4.302   3.552   3.488 -0.5804  0.1035  0.4828
 6166TIP3    H118462   4.310   3.463   3.452 -0.2524 -0.0223  0.8540
 6166TIP3    H218463   4.251   3.600   3.423 -0.7242 -0.3475  0.2575
 6167TIP3   OH218464   3.994   1.812   5.847 -0.9769 -0.3470 -0.0435
 6167TIP3    H118465   3.969   1.729   5.887 -1.6163 -0.1606 -0.0424
 6167TIP3    H218466   3.983   1.876   5.918  0.2443 -0.3612  0.1802
 6168TIP3   OH218467   0.630   3.093   5.492  0.0617 -0.5440 -0.0750
 6168TIP3    H118468   0.608   3.100   5.585  0.0054  0.2021 -0.1346
 6168TIP3    H218469   0.558   3.042   5.455  0.5943 -1.7178  0.4558
 6169TIP3   OH218470   3.056   5.390   0.707 -0.1618 -0.5333  0.3793
 6169TIP3    H118471   3.130   5.424   0.757  1.1831  0.9006 -2.3801
 6169TIP3    H218472   2.979   5.423   0.753  1.0057  1.3208  1.1202
 6170TIP3   OH218473   7.050   3.309   2.331  0.0096 -0.0337  0.0053
 6170TIP3    H118474   6.963   3.318   2.293  0.1820 -0.2132 -0.4353
 6170TIP3    H218475   7.046   3.228   2.382 -0.3824  0.4856  0.8218
 6171TIP3   OH218476   2.699   5.265   0.509 -0.4381 -0.0851  0.7645
 6171TIP3    H118477   2.607   5.263   0.484 -0.2552  0.8476 -0.0419
 6171TIP3    H218478   2.698   5.253   0.604 -1.3551 -0.4294  0.7276
 6172TIP3   OH218479   6.871   5.261   5.327 -0.4841 -0.0835  0.4686
 6172TIP3    H118480   6.902   5.307   5.405 -0.2090  0.4969  0.0244
 6172TIP3    H218481   6.932   5.188   5.317  1.1971  1.3815 -0.7367
 6173TIP3   OH218482   6.067   4.332   1.803  0.6323  0.4808  0.9522
 6173TIP3    H118483   6.103   4.273   1.736 -0.3932 -1.2387  1.8438
 6173TIP3    H218484   6.144   4.367   1.848  1.3299  1.5115 -0.9380
 6174TIP3   OH218485   2.314   1.801   1.364 -0.1832  0.7632 -0.1748
 6174TIP3    H118486   2.333   1.750   1.443  1.2544  1.5763  0.0455
 6174TIP3    H218487   2.248   1.750   1.318 -0.6971  0.0246  1.3074
 6175TIP3   OH218488   3.976   4.185   4.732  0.4487 -0.5294  0.0770
 6175TIP3    H118489   4.058   4.139   4.713  1.1516 -0.3120  2.2901
 6175TIP3    H218490   3.908   4.118   4.723  1.1331 -1.2856  0.4362
 6176TIP3   OH218491   2.946   0.213   2.677 -0.1093 -0.1098  0.0459
 6176TIP3    H118492   2.856   0.219   2.710 -0.7148 -2.4431 -0.9695
 6176TIP3    H218493   2.952   0.124   2.642  0.7851  1.6506 -5.0574
 6177TIP3   OH218494   3.862   3.687   2.765 -0.5055  0.2741  0.0740
 6177TIP3    H118495   3.797   3.700   2.833 -0.2152 -0.5032  0.5122
 6177TIP3    H218496   3.931   3.750   2.785  0.0974 -0.7079  1.1694
 6178TIP3   OH218497   6.983   1.045   1.499  0.1414 -0.0049  0.2156
 6178TIP3    H118498   7.003   0.952   1.490  0.0510 -0.2394  2.0175
 6178TIP3    H218499   6.889   1.047   1.518  0.0378  0.4984 -0.3402
 6179TIP3   OH218500   6.762   4.641   0.162 -0.6352  0.0757  0.0222
 6179TIP3    H118501   6.801   4.637   0.074 -0.2271 -0.4594  0.2227
 6179TIP3    H218502   6.836   4.638   0.221 -0.9602 -0.6169  0.4058
 6180TIP3   OH218503   3.144   6.044   5.443 -0.3144 -0.0241 -0.0135
 6180TIP3    H118504   3.206   5.976   5.417  3.3304  2.8048  0.4084
 6180TIP3    H218505   3.084   6.052   5.369  0.0752 -2.6002 -0.6776
 6181TIP3   OH218506   5.483   2.997   1.669 -0.0446 -0.7030  0.1939
 6181TIP3    H118507   5.524   3.005   1.583 -0.3197 -1.8686 -0.0757
 6181TIP3    H218508   5.494   3.082   1.710  0.7858 -0.3699 -0.6926
 6182TIP3   OH218509   4.324   6.802   3.942 -0.4996 -0.3549  0.0944
 6182TIP3    H118510   4.370   6.799   3.858 -2.8226  0.9323 -1.3099
 6182TIP3    H218511   4.390   6.775   4.006  1.5368 -0.7446 -2.0355
 6183TIP3   OH218512   0.624   2.820   4.950 -0.3418 -0.7173 -0.1234
 6183TIP3    H118513   0.626   2.734   4.907  0.9178 -0.9432  0.3451
 6183TIP3    H218514   0.687   2.873   4.900 -1.5490  0.1427 -0.7864
 6184TIP3   OH218515   2.526   5.312   4.373  0.7224 -0.6230  0.2731
 6184TIP3    H118516   2.613   5.272   4.368  0.8390 -0.2642 -0.5573
 6184TIP3    H218517   2.541   5.406   4.363  0.2192 -0.5755 -0.0941
 6185TIP3   OH218518   0.988   5.749   5.647  0.4022  0.1244  1.0500
 6185TIP3    H118519   0.986   5.669   5.595 -0.3358 -0.0081  1.2679
 6185TIP3    H218520   1.032   5.813   5.591 -0.0556 -0.1142  0.4078
 6186TIP3   OH218521   0.388   6.681   0.860 -0.8886  0.2425  0.1289
 6186TIP3    H118522   0.405   6.651   0.949 -1.4608 -0.7356 -0.0795
 6186TIP3    H218523   0.411   6.774   0.861 -0.2192  0.0796  1.1056
 6187TIP3   OH218524   4.102   2.713   4.403  0.5340 -0.1849 -0.3297
 6187TIP3    H118525   4.060   2.773   4.465  0.2459 -1.1918  0.4750
 6187TIP3    H218526   4.036   2.697   4.336  0.6193  0.4012 -0.5582
 6188TIP3   OH218527   0.258   6.786   3.284 -0.0532 -0.1741  0.2164
 6188TIP3    H118528   0.312   6.720   3.240 -0.9605 -2.8669  2.8109
 6188TIP3    H218529   0.172   6.744   3.293 -1.5423  2.5238 -0.4631
 6189TIP3   OH218530   1.647   1.643   3.558  0.3529 -0.5211  0.2540
 6189TIP3    H118531   1.651   1.633   3.462 -1.7454 -0.3383  0.1081
 6189TIP3    H218532   1.570   1.698   3.573  1.5753  0.8186  1.9986
 6190TIP3   OH218533   4.444   5.994   2.945  0.2173  0.0781  0.4014
 6190TIP3    H118534   4.381   6.061   2.921 -0.5731 -0.2691  1.4270
 6190TIP3    H218535   4.491   6.030   3.020 -0.6983 -0.7446  1.4201
 6191TIP3   OH218536   3.256   4.793   4.933  0.3147  0.0117  0.0494
 6191TIP3    H118537   3.181   4.823   4.985  0.9262  1.3073  0.2042
 6191TIP3    H218538   3.230   4.809   4.842 -1.0947 -3.0029 -0.2161
 6192TIP3   OH218539   4.902   0.287   5.101  0.0445  0.1171 -0.2848
 6192TIP3    H118540   4.882   0.362   5.157  0.3012  1.1489 -1.5283
 6192TIP3    H218541   4.994   0.269   5.117  0.0524  0.2451 -0.1824
 6193TIP3   OH218542   4.259   3.997   4.221  0.0285 -0.0513 -0.0363
 6193TIP3    H118543   4.233   4.012   4.130  0.0716  2.2355  0.2700
 6193TIP3    H218544   4.238   3.905   4.237 -2.1736  0.0775 -1.6558
 6194TIP3   OH218545   6.923   5.149   2.356 -0.1221 -0.6341 -0.3233
 6194TIP3    H118546   6.994   5.100   2.396  0.9415  0.9018 -0.2146
 6194TIP3    H218547   6.966   5.202   2.288 -0.7264  1.9424  1.1449
 6195TIP3   OH218548   5.936   0.763   4.804  0.1523 -0.1431  0.1833
 6195TIP3    H118549   5.841   0.772   4.803 -0.0227 -0.8511  3.0659
 6195TIP3    H218550   5.968   0.846   4.841  0.7890  0.4018 -1.4530
 6196TIP3   OH218551   4.969   6.656   2.619 -0.0910  0.4732  0.8579
 6196TIP3    H118552   4.880   6.633   2.594  0.4856 -1.0123  0.0434
 6196TIP3    H218553   5.000   6.712   2.548  0.3119 -0.7581  0.0237
 6197TIP3   OH218554   1.138   4.263   3.550 -0.0991 -0.2294 -0.4731
 6197TIP3    H118555   1.110   4.272   3.458  0.0571 -0.7412 -0.5737
 6197TIP3    H218556   1.203   4.332   3.562  0.3279 -0.5468 -0.9260
 6198TIP3   OH218557   4.914   2.278   2.097  0.3790 -0.2364 -0.8260
 6198TIP3    H118558   4.989   2.280   2.156  0.4563 -2.0983 -0.8053
 6198TIP3    H218559   4.880   2.368   2.098  0.5293 -0.1454  1.8122
 6199TIP3   OH218560   2.255   5.570   1.897  0.5353  0.4735 -0.2222
 6199TIP3    H118561   2.327   5.542   1.840  1.1610  0.7632  0.4071
 6199TIP3    H218562   2.179   5.575   1.839  1.1328  0.6584 -1.0075
 6200TIP3   OH218563   1.188   5.585   0.871  0.1854  0.8711  0.2220
 6200TIP3    H118564   1.243   5.650   0.916  0.8813  0.6946 -0.3606
 6200TIP3    H218565   1.105   5.631   0.855  0.2721  1.2457  0.8179
 6201TIP3   OH218566   2.853   5.453   3.373 -0.0228  0.1663  0.5572
 6201TIP3    H118567   2.909   5.530   3.368  2.6402 -1.5088  1.8268
 6201TIP3    H218568   2.834   5.432   3.282 -0.8989  2.3108  0.1902
 6202TIP3   OH218569   0.160   0.265   1.291  0.5232 -0.4102 -0.1629
 6202TIP3    H118570   0.068   0.291   1.300  0.5263  0.0796 -1.3266
 6202TIP3    H218571   0.173   0.254   1.196  1.5676 -0.8348  0.0125
 6203TIP3   OH218572   2.099   2.137   2.391  0.1351 -0.1516 -0.2358
 6203TIP3    H118573   2.174   2.160   2.446 -0.4542  1.1910  0.0294
 6203TIP3    H218574   2.031   2.199   2.416 -0.9700 -1.1530 -0.7016
 6204TIP3   OH218575   0.635   5.587   3.904  0.3173  0.1159  0.3155
 6204TIP3    H118576   0.545   5.588   3.938  0.8540  0.7886  1.8171
 6204TIP3    H218577   0.643   5.501   3.863 -1.8423  1.0360 -2.3525
 6205TIP3   OH218578   4.529   4.936   0.837 -0.1004 -0.0560  0.1326
 6205TIP3    H118579   4.546   4.861   0.780  1.2918 -0.0246  0.4769
 6205TIP3    H218580   4.548   4.904   0.925 -2.5162 -0.2024  0.6892
 6206TIP3   OH218581   1.363   0.533   2.878  0.3040 -0.1452  0.0604
 6206TIP3    H118582   1.306   0.572   2.944  0.4080 -0.4353  0.3261
 6206TIP3    H218583   1.334   0.442   2.873 -1.6419  0.5017 -2.3566
 6207TIP3   OH218584   0.910   2.275   0.411  0.0375 -0.0538  0.9146
 6207TIP3    H118585   0.905   2.208   0.479 -0.8905 -1.9188 -0.8842
 6207TIP3    H218586   0.837   2.255   0.352  1.3448  0.9043 -1.1393
 6208TIP3   OH218587   4.435   3.822   5.650 -0.0643  0.1768 -0.1862
 6208TIP3    H118588   4.346   3.793   5.673  0.6060 -1.7697  0.1684
 6208TIP3    H218589   4.483   3.821   5.733  1.0131 -1.7490 -0.7538
 6209TIP3   OH218590   4.291   2.566   1.354  0.1221 -0.1168 -0.1205
 6209TIP3    H118591   4.236   2.643   1.349  1.7920  1.0582 -1.9041
 6209TIP3    H218592   4.267   2.514   1.278  1.2678  0.3194 -0.8137
 6210TIP3   OH218593   2.643   2.626   0.892 -0.5707  0.3512 -0.7705
 6210TIP3    H118594   2.711   2.675   0.938  0.6001 -0.9845 -1.0091
 6210TIP3    H218595   2.562   2.670   0.915  0.0135  0.1654  2.0472
 6211TIP3   OH218596   4.916   2.635   0.378  0.1314 -0.0462  0.1287
 6211TIP3    H118597   4.889   2.636   0.286  1.3794  0.5129 -0.2493
 6211TIP3    H218598   4.880   2.716   0.415  0.4986  0.2389 -0.1350
 6212TIP3   OH218599   6.150   4.983   1.826  0.2336 -0.0247  0.7058
 6212TIP3    H118600   6.133   4.903   1.776  0.8474  0.6892 -0.7138
 6212TIP3    H218601   6.068   5.002   1.872 -0.9370  0.2009 -1.3776
 6213TIP3   OH218602   0.075   2.743   5.456  0.2007 -0.8150  0.0318
 6213TIP3    H118603   0.090   2.697   5.374  0.1527 -2.4294  0.8768
 6213TIP3    H218604  -0.016   2.771   5.452  0.3341 -0.4760 -0.6554
 6214TIP3   OH218605   1.780   6.769   3.584  0.2793 -0.5444  0.3402
 6214TIP3    H118606   1.800   6.775   3.491  2.0315 -1.1764  0.6326
 6214TIP3    H218607   1.697   6.722   3.588  0.1560 -0.4621 -0.8900
 6215TIP3   OH218608   6.944   0.232   1.430  0.1415  0.2742  0.4748
 6215TIP3    H118609   6.977   0.183   1.505 -0.8728  0.8604  1.3373
 6215TIP3    H218610   6.857   0.261   1.457  0.0842  1.1976 -0.6206
 6216TIP3   OH218611   1.955   3.302   4.487 -0.3127 -0.5604  0.6604
 6216TIP3    H118612   1.898   3.378   4.498  0.0890 -0.2395  0.5479
 6216TIP3    H218613   1.924   3.240   4.553  1.0598  0.7109  2.6258
 6217TIP3   OH218614   4.204   4.092   4.608  0.0522 -0.4603  0.0165
 6217TIP3    H118615   4.243   4.012   4.642  0.2978  0.4096  1.8858
 6217TIP3    H218616   4.149   4.063   4.535  1.0664 -2.1692 -0.1105
 6218TIP3   OH218617   1.886   1.023   0.032  0.4988 -0.0391  0.0686
 6218TIP3    H118618   1.862   0.946  -0.018  0.9604  0.4135 -0.8725
 6218TIP3    H218619   1.822   1.025   0.104  0.0268 -0.8782 -0.3070
 6219TIP3   OH218620   7.066   5.793   4.156  0.0442 -0.2057 -0.5508
 6219TIP3    H118621   7.137   5.742   4.117 -0.6447 -0.8950 -0.9207
 6219TIP3    H218622   6.990   5.777   4.100 -0.7043 -0.3997  0.4736
 6220TIP3   OH218623   7.148   6.136   4.017 -0.3318  0.4850 -0.0694
 6220TIP3    H118624   7.077   6.136   3.952 -1.6135 -1.3014  1.2204
 6220TIP3    H218625   7.204   6.209   3.991 -0.3869 -0.5037 -3.5800
 6221TIP3   OH218626   3.253   6.274   4.625  0.9179 -0.2360 -0.2865
 6221TIP3    H118627   3.276   6.305   4.538 -0.3052  1.0968 -0.1530
 6221TIP3    H218628   3.331   6.293   4.678  1.2179  0.0300 -0.8162
 6222TIP3   OH218629   5.975   3.713   2.500 -0.5707  0.2995  0.2508
 6222TIP3    H118630   6.057   3.664   2.501  0.0872  1.3738  0.9107
 6222TIP3    H218631   5.912   3.653   2.460  0.4997 -0.5893 -0.1627
 6223TIP3   OH218632   1.672   2.224   3.309 -0.1730 -0.0777 -0.7420
 6223TIP3    H118633   1.745   2.219   3.247  1.8222  1.8759  1.2721
 6223TIP3    H218634   1.698   2.169   3.382 -0.4120  1.0962  0.2512
 6224TIP3   OH218635   2.836   1.894   2.642  0.1603 -0.6879 -0.2535
 6224TIP3    H118636   2.780   1.890   2.720  0.0317  0.3615 -0.2746
 6224TIP3    H218637   2.920   1.926   2.675 -0.2260  0.8664 -0.6843
 6225TIP3   OH218638   0.034   0.611   4.451 -0.3718  0.4171  0.3448
 6225TIP3    H118639   0.114   0.600   4.400 -0.7927  1.6462 -0.6105
 6225TIP3    H218640  -0.026   0.657   4.393 -1.3116  0.7214  1.5187
 6226TIP3   OH218641   1.723   5.581   5.812 -0.4034  0.6263 -0.3230
 6226TIP3    H118642   1.689   5.654   5.864 -0.5570  0.1990  0.1797
 6226TIP3    H218643   1.701   5.503   5.862 -1.2485  0.1448 -1.4083
 6227TIP3   OH218644   5.880   4.753   2.278  0.1097 -0.0123  0.2954
 6227TIP3    H118645   5.824   4.830   2.284  0.2740  0.1553 -0.2396
 6227TIP3    H218646   5.833   4.685   2.326  1.4412  1.2333  3.5979
 6228TIP3   OH218647   6.729   5.387   0.701  0.3542  0.1769 -0.2824
 6228TIP3    H118648   6.662   5.371   0.767  0.7009  0.2736  0.0981
 6228TIP3    H218649   6.699   5.338   0.625 -1.1166  1.7194 -0.7669
 6229TIP3   OH218650   4.363   0.930   2.849 -0.0557 -0.1182  0.8694
 6229TIP3    H118651   4.288   0.952   2.793  0.2528  0.8471  0.8146
 6229TIP3    H218652   4.439   0.956   2.797  0.5305 -3.4430 -0.1873
 6230TIP3   OH218653   5.299   2.501   1.295 -0.4911 -0.5749 -0.1979
 6230TIP3    H118654   5.297   2.517   1.390  0.7762  0.4997 -0.3111
 6230TIP3    H218655   5.241   2.568   1.259  0.4182  0.2005 -0.2768
 6231TIP3   OH218656   7.075   3.394   4.406 -0.1363  0.1111  0.0099
 6231TIP3    H118657   7.020   3.472   4.413  1.4981  1.3096 -0.1317
 6231TIP3    H218658   7.025   3.326   4.452 -2.0254  0.9561 -0.6807
 6232TIP3   OH218659   1.357   3.668   1.290 -0.4271  0.2733 -0.3522
 6232TIP3    H118660   1.389   3.621   1.213  0.3518  2.2105 -1.3035
 6232TIP3    H218661   1.379   3.612   1.364 -0.0833 -1.0906 -1.4449
 6233TIP3   OH218662   4.535   4.061   3.080  0.1585 -0.2185 -0.0656
 6233TIP3    H118663   4.620   4.020   3.063 -0.0690  0.0196 -2.0456
 6233TIP3    H218664   4.511   4.031   3.168  1.5102 -1.6501 -0.1346
 6234TIP3   OH218665   1.043   2.776   4.275 -0.5586 -0.3575  0.0897
 6234TIP3    H118666   1.037   2.700   4.333  1.8869 -0.7338 -0.0605
 6234TIP3    H218667   1.060   2.850   4.334 -0.2763 -0.3717  0.0258
 6235TIP3   OH218668   6.120   5.181   5.279  0.4713  0.6059 -0.6752
 6235TIP3    H118669   6.028   5.162   5.297  0.5863  1.3369  0.7636
 6235TIP3    H218670   6.167   5.102   5.307  0.2938  0.1156 -1.6767
 6236TIP3   OH218671   4.326   6.222   1.163 -0.0330 -0.2802 -0.0713
 6236TIP3    H118672   4.273   6.172   1.225 -1.0833  1.0457  0.1484
 6236TIP3    H218673   4.384   6.275   1.218  0.2269 -0.3575 -0.2684
 6237TIP3   OH218674   2.234   3.336   4.342 -0.7857 -0.0105 -0.1772
 6237TIP3    H118675   2.154   3.300   4.381 -1.7392  0.5950 -1.5080
 6237TIP3    H218676   2.262   3.403   4.404 -2.0369  0.6549 -0.3009
 6238TIP3   OH218677   2.515   1.067   2.272 -0.5554 -0.6570 -0.1318
 6238TIP3    H118678   2.485   1.156   2.290 -2.6606 -1.3784  0.2082
 6238TIP3    H218679   2.555   1.038   2.354 -1.3092 -0.5522  0.2841
 6239TIP3   OH218680   3.939   2.390   4.271  0.1613 -0.4902  0.1150
 6239TIP3    H118681   3.879   2.465   4.267 -0.1060 -0.6428  0.9689
 6239TIP3    H218682   4.025   2.428   4.255  0.0413  0.0315  0.6389
 6240TIP3   OH218683   5.344   3.087   5.702 -0.3219  0.3538 -0.3983
 6240TIP3    H118684   5.388   3.171   5.707 -1.3040  0.9181 -1.0391
 6240TIP3    H218685   5.415   3.023   5.693  0.4832  1.0103  0.9345
 6241TIP3   OH218686   0.397   6.686   4.304 -0.3954 -0.0052 -0.1929
 6241TIP3    H118687   0.469   6.746   4.320 -0.3012 -0.5449  1.5344
 6241TIP3    H218688   0.428   6.630   4.232  0.7539  0.0222  0.2593
 6242TIP3   OH218689   5.508   6.754   0.717 -0.6401 -0.1515 -0.9644
 6242TIP3    H118690   5.562   6.832   0.726  0.2269 -0.9190  1.1210
 6242TIP3    H218691   5.522   6.725   0.627  0.5644  1.0112 -1.1805
 6243TIP3   OH218692   1.912   3.504   1.915 -0.3260  0.6186  0.3888
 6243TIP3    H118693   1.986   3.558   1.941  0.2660 -0.8377  1.9316
 6243TIP3    H218694   1.835   3.557   1.937  0.2358  0.9282  1.7359
 6244TIP3   OH218695   2.819   1.783   4.252  0.6535 -0.0690 -0.2903
 6244TIP3    H118696   2.851   1.767   4.341 -0.5292 -0.4195  0.0926
 6244TIP3    H218697   2.839   1.875   4.235 -0.6305  0.4826  1.0066
 6245TIP3   OH218698   0.715   0.577   1.085 -0.2665  0.0090 -0.2016
 6245TIP3    H118699   0.652   0.630   1.133 -0.5846  0.2387 -0.8643
 6245TIP3    H218700   0.791   0.635   1.072  0.5411 -0.5904  1.5097
 6246TIP3   OH218701   3.098   1.943   2.702  0.2101 -0.1854 -0.3487
 6246TIP3    H118702   3.189   1.915   2.692  0.1388 -0.9666  0.9008
 6246TIP3    H218703   3.101   2.013   2.768 -0.1556 -0.7698  0.3082
 6247TIP3   OH218704   2.226   1.021   2.244 -0.8327  0.2365 -0.1469
 6247TIP3    H118705   2.229   1.116   2.249  0.2005  0.2717 -1.1392
 6247TIP3    H218706   2.316   0.993   2.260 -1.2407 -0.6241  0.7451
 6248TIP3   OH218707   5.496   6.637   0.414 -0.2323  0.3019  0.0006
 6248TIP3    H118708   5.536   6.577   0.351  0.2796 -0.8901  1.4113
 6248TIP3    H218709   5.425   6.587   0.453 -0.8401  1.1859  0.0446
 6249TIP3   OH218710   6.097   2.210   0.480 -0.1018 -0.0048  0.1151
 6249TIP3    H118711   6.111   2.302   0.502  1.5277  0.0100 -0.7571
 6249TIP3    H218712   6.154   2.196   0.404 -1.5776 -1.3226 -0.8039
 6250TIP3   OH218713   0.621   4.184   5.275  0.1781 -0.4850 -0.3149
 6250TIP3    H118714   0.597   4.276   5.266 -0.6494 -0.8122 -1.7881
 6250TIP3    H218715   0.704   4.185   5.322 -1.2391  0.8524  2.3846
 6251TIP3   OH218716   7.048   4.336   0.154 -0.1455 -0.0787 -0.7022
 6251TIP3    H118717   7.074   4.377   0.071  1.1025  2.3955  0.7705
 6251TIP3    H218718   7.122   4.279   0.176 -0.2420 -0.3361 -1.0432
 6252TIP3   OH218719   4.525   4.484   3.873  0.5191  0.7191  0.4671
 6252TIP3    H118720   4.485   4.484   3.786  2.1319 -0.8110 -0.3278
 6252TIP3    H218721   4.495   4.566   3.913  0.7563  2.1127 -1.9963
 6253TIP3   OH218722   1.007   6.800   1.194 -0.7133  0.1510  0.2316
 6253TIP3    H118723   0.977   6.722   1.147 -0.7307 -0.7050  1.6092
 6253TIP3    H218724   0.999   6.871   1.130  0.9490 -1.2308 -1.6253
 6254TIP3   OH218725   5.200   5.373   4.459 -0.6739 -0.4612  0.5152
 6254TIP3    H118726   5.251   5.452   4.471 -0.5636 -0.4596  0.0463
 6254TIP3    H218727   5.265   5.303   4.451 -0.7835 -0.7001  1.6195
 6255TIP3   OH218728   1.141   5.067   0.315  0.0137 -0.3311  0.5466
 6255TIP3    H118729   1.069   5.025   0.362 -0.6513 -0.5972 -0.6536
 6255TIP3    H218730   1.139   5.026   0.228 -0.2293  1.6757 -0.4627
 6256TIP3   OH218731   2.544   1.205   4.524 -0.2799  0.1032  0.5936
 6256TIP3    H118732   2.537   1.136   4.458 -1.9191 -0.4604  1.3002
 6256TIP3    H218733   2.492   1.277   4.488 -0.8962 -0.0817  1.0930
 6257TIP3   OH218734   7.114   1.090   1.759 -0.2209  0.2608  0.0924
 6257TIP3    H118735   7.198   1.136   1.766  0.4565 -0.9946  0.4206
 6257TIP3    H218736   7.100   1.080   1.665  0.8298 -0.9636  0.0370
 6258TIP3   OH218737   4.785   0.226   5.400 -0.6449 -0.0953  0.0988
 6258TIP3    H118738   4.806   0.224   5.493  1.1026 -2.4379 -0.2396
 6258TIP3    H218739   4.797   0.317   5.374  2.6223 -0.0197  1.4256
 6259TIP3   OH218740   5.727   5.729   5.365 -0.6928 -0.1948 -0.1997
 6259TIP3    H118741   5.753   5.818   5.344  0.6399 -0.7865 -1.2004
 6259TIP3    H218742   5.640   5.738   5.405 -0.7638  1.5036 -0.6628
 6260TIP3   OH218743   4.867   3.911   1.714  0.3001 -0.3503 -0.5144
 6260TIP3    H118744   4.914   3.829   1.731  1.0973  0.1139 -0.4270
 6260TIP3    H218745   4.824   3.932   1.797 -1.2662 -1.5101 -0.9816
 6261TIP3   OH218746   5.616   1.907   0.806 -0.4985  0.2230  0.1727
 6261TIP3    H118747   5.673   1.957   0.747  0.0175 -0.0031  0.4702
 6261TIP3    H218748   5.528   1.934   0.782 -0.2186  1.7794  0.7683
 6262TIP3   OH218749   3.337   0.387   2.356  0.0011  0.3437 -0.1679
 6262TIP3    H118750   3.371   0.367   2.269 -0.4354 -1.3598  0.0115
 6262TIP3    H218751   3.250   0.423   2.340 -0.0904  0.0066 -0.4373
 6263TIP3   OH218752   3.663   2.503   2.137 -0.2994 -0.3775  0.6316
 6263TIP3    H118753   3.567   2.508   2.146 -0.2223  0.6091  0.9763
 6263TIP3    H218754   3.684   2.563   2.066 -0.1122 -2.1412 -0.8694
 6264TIP3   OH218755   3.050   1.378   5.121  0.0332  0.1440  0.0857
 6264TIP3    H118756   3.094   1.325   5.187  0.3111  0.8053  0.4471
 6264TIP3    H218757   2.999   1.316   5.069  1.6783 -0.7033 -0.5907
 6265TIP3   OH218758   0.102   4.632   5.298  0.2437  0.0622 -0.6119
 6265TIP3    H118759   0.051   4.707   5.268 -0.2211  0.4006  0.9236
 6265TIP3    H218760   0.140   4.661   5.381  0.7058 -1.1336 -0.3866
 6266TIP3   OH218761   3.352   6.791   1.450  0.6314 -0.5475  0.6755
 6266TIP3    H118762   3.398   6.780   1.532 -0.4311  1.9504  1.7037
 6266TIP3    H218763   3.308   6.707   1.435  0.9461 -1.0805  2.5761
 6267TIP3   OH218764   2.063   4.383   5.371  0.0444  0.1317 -0.0688
 6267TIP3    H118765   1.995   4.389   5.439 -0.0378 -0.5813 -0.0827
 6267TIP3    H218766   2.026   4.432   5.297 -0.2142  0.2204  0.1148
 6268TIP3   OH218767   1.710   5.754   4.567  0.4965  0.2121  0.8759
 6268TIP3    H118768   1.771   5.746   4.494  0.1999 -1.1037  0.7452
 6268TIP3    H218769   1.656   5.829   4.544 -1.0293 -1.4329 -1.3973
 6269TIP3   OH218770   2.917   5.698   5.831  0.2359  0.2062 -0.3797
 6269TIP3    H118771   2.960   5.783   5.830 -0.5751  0.6174 -0.2932
 6269TIP3    H218772   2.970   5.643   5.773  1.0832  0.6050  0.0071
 6270TIP3   OH218773   6.626   5.161   3.840 -0.0932 -0.0071  0.2112
 6270TIP3    H118774   6.580   5.241   3.864  0.6423  0.7369 -0.7972
 6270TIP3    H218775   6.590   5.138   3.754 -1.4723 -1.6900  1.1654
 6271TIP3   OH218776   4.655   2.133   3.053 -0.2727  0.1234  0.1507
 6271TIP3    H118777   4.605   2.208   3.021 -0.2767 -0.4330 -1.2339
 6271TIP3    H218778   4.604   2.057   3.023 -0.3859 -0.4567  1.7070
 6272TIP3   OH218779   1.037   2.143   1.026 -0.0673  0.1978  0.2032
 6272TIP3    H118780   1.100   2.072   1.037 -1.5849 -1.1160  0.8716
 6272TIP3    H218781   1.027   2.179   1.114 -0.6742  0.0010  0.2182
 6273TIP3   OH218782   1.983   5.317   4.425  0.1226  0.0701  0.1322
 6273TIP3    H118783   2.047   5.384   4.449  0.2925  0.4553 -1.3448
 6273TIP3    H218784   1.922   5.361   4.366 -0.7258 -0.6522  0.4418
 6274TIP3   OH218785   3.821   2.215   1.033 -0.0224  0.3052  0.0923
 6274TIP3    H118786   3.826   2.152   1.104 -0.9597  0.7664  0.5920
 6274TIP3    H218787   3.762   2.175   0.969 -0.9169  0.8078  0.5790
 6275TIP3   OH218788   4.181   2.629   4.933 -0.1371 -0.1808 -0.0259
 6275TIP3    H118789   4.248   2.694   4.954 -0.8586  0.5690 -0.0066
 6275TIP3    H218790   4.100   2.667   4.966 -0.4491 -1.4913  0.7849
 6276TIP3   OH218791   1.884   5.601   1.050  0.0339  0.2266  0.0944
 6276TIP3    H118792   1.888   5.690   1.015 -0.4008  1.0279  1.9797
 6276TIP3    H218793   1.794   5.573   1.037  0.3438 -0.2560 -1.1658
 6277TIP3   OH218794   4.828   5.933   0.214  0.2891  0.0566 -0.2022
 6277TIP3    H118795   4.748   5.957   0.262 -0.2030 -1.9739  0.0637
 6277TIP3    H218796   4.810   5.961   0.124 -1.3990 -1.7032 -0.4827
 6278TIP3   OH218797   1.204   5.692   0.219 -0.6714  0.1552  0.5649
 6278TIP3    H118798   1.198   5.781   0.183 -1.6395 -0.0516  0.1768
 6278TIP3    H218799   1.256   5.702   0.298 -1.1468  1.1581  0.7726
 6279TIP3   OH218800   3.832   3.460   1.362 -0.6325 -0.1435 -0.0120
 6279TIP3    H118801   3.815   3.485   1.453 -1.1663 -4.0456  1.1624
 6279TIP3    H218802   3.748   3.472   1.317  0.1970  4.1848 -0.8697
 6280TIP3   OH218803   5.076   2.299   2.313  0.7338  0.4228 -0.4526
 6280TIP3    H118804   5.170   2.295   2.334  1.0831 -1.1711 -2.0368
 6280TIP3    H218805   5.049   2.387   2.339  1.9036 -0.0471  2.9738
 6281TIP3   OH218806   7.247   1.388   4.676 -0.3411  0.3245  0.2029
 6281TIP3    H118807   7.174   1.449   4.683 -1.7610 -1.3820  1.0448
 6281TIP3    H218808   7.219   1.325   4.609  0.7507  0.1354 -0.0916
 6282TIP3   OH218809   3.317   2.948   1.520 -0.1915 -0.3125 -0.1533
 6282TIP3    H118810   3.329   2.992   1.604  1.4622 -0.9594 -0.0131
 6282TIP3    H218811   3.320   3.020   1.456 -0.1620  0.0507  0.2465
 6283TIP3   OH218812   4.225   1.328   3.463  0.3594 -0.4307 -0.2282
 6283TIP3    H118813   4.251   1.420   3.468  1.8686 -0.6757 -2.1233
 6283TIP3    H218814   4.221   1.298   3.554  0.6225  1.2958  0.3742
 6284TIP3   OH218815   5.368   2.940   1.027  0.5153 -0.3609 -0.0075
 6284TIP3    H118816   5.294   2.924   0.969 -1.6979 -0.5621  2.6346
 6284TIP3    H218817   5.348   3.024   1.068  1.6397 -0.5208  0.9034
 6285TIP3   OH218818   4.783   3.081   3.482  0.4968  0.0494  0.3400
 6285TIP3    H118819   4.757   3.089   3.574 -3.7473 -2.7914 -0.3006
 6285TIP3    H218820   4.828   2.997   3.478 -1.0384 -0.8021 -0.3098
 6286TIP3   OH218821   5.530   5.919   4.660 -0.2535 -0.1713  0.3250
 6286TIP3    H118822   5.523   5.969   4.741 -1.6727  0.4970 -0.1686
 6286TIP3    H218823   5.504   5.830   4.685 -2.0027  0.3180  0.3841
 6287TIP3   OH218824   6.775   4.287   3.992 -0.3551 -0.7106  0.0220
 6287TIP3    H118825   6.723   4.349   4.043 -0.7693 -1.1670  0.1537
 6287TIP3    H218826   6.817   4.232   4.057 -0.0276 -0.6076 -0.0984
 6288TIP3   OH218827   1.926   6.303   1.074 -0.2488 -0.0401  0.0931
 6288TIP3    H118828   1.897   6.379   1.125 -2.7913 -0.4522 -0.5855
 6288TIP3    H218829   1.895   6.228   1.125 -0.7505 -0.5045 -0.8685
 6289TIP3   OH218830   4.485   0.801   1.861 -0.0602  0.0388 -0.1179
 6289TIP3    H118831   4.427   0.863   1.906  0.1241 -1.4095  2.3178
 6289TIP3    H218832   4.543   0.856   1.808 -1.7958  1.7075 -0.3724
 6290TIP3   OH218833   3.268   5.961   2.649 -0.3413 -0.3634 -0.2867
 6290TIP3    H118834   3.188   6.011   2.665 -1.1081 -1.3515 -0.8701
 6290TIP3    H218835   3.245   5.902   2.577  1.2950  0.1627 -1.2998
 6291TIP3   OH218836   1.991   0.237   5.051 -0.1483  0.1368  0.3394
 6291TIP3    H118837   2.025   0.301   4.989  1.3332 -0.4072  0.5413
 6291TIP3    H218838   2.040   0.157   5.033 -1.0701 -0.5850  0.9253
 6292TIP3   OH218839   0.613   5.137   3.369 -0.3177 -0.4714 -0.4269
 6292TIP3    H118840   0.702   5.160   3.395 -0.7192  1.0057 -0.2488
 6292TIP3    H218841   0.572   5.102   3.448  0.4757 -2.5073 -0.8423
 6293TIP3   OH218842   4.853   4.209   4.605 -0.3947 -0.7858 -0.1341
 6293TIP3    H118843   4.791   4.156   4.656 -0.0321 -0.6613  0.4428
 6293TIP3    H218844   4.938   4.170   4.623  0.1045  0.9403  1.5898
 6294TIP3   OH218845   5.568   0.385   5.813 -0.1681 -0.2407 -0.1195
 6294TIP3    H118846   5.554   0.309   5.870 -0.3431 -0.5907 -0.6237
 6294TIP3    H218847   5.496   0.445   5.833  0.3721  0.1254  0.8058
 6295TIP3   OH218848   5.376   1.345   2.579  0.1779  0.3052  0.3602
 6295TIP3    H118849   5.328   1.333   2.661 -1.1265  0.2674 -0.3814
 6295TIP3    H218850   5.467   1.325   2.602 -0.4376 -1.6947  1.3589
 6296TIP3   OH218851   1.527   5.902   4.858 -0.2226  0.1635 -0.2433
 6296TIP3    H118852   1.513   5.981   4.805 -1.5154  1.1699  1.4937
 6296TIP3    H218853   1.489   5.924   4.943  1.1283 -1.6516  0.8851
 6297TIP3   OH218854   1.055   1.074   0.419 -0.6482  0.0902  0.3866
 6297TIP3    H118855   1.009   1.112   0.494  0.4946  0.5732  0.8696
 6297TIP3    H218856   1.097   1.148   0.377  1.2293 -0.5263  1.0731
 6298TIP3   OH218857   1.223   6.516   3.428 -0.0237 -0.5550 -0.2500
 6298TIP3    H118858   1.286   6.577   3.466 -1.8667  0.4131  1.4520
 6298TIP3    H218859   1.200   6.555   3.343  0.5678 -0.1553 -0.2309
 6299TIP3   OH218860   4.907   2.176   1.632  0.3582 -0.0127  0.2143
 6299TIP3    H118861   4.843   2.244   1.610  0.0192 -0.5363 -0.4632
 6299TIP3    H218862   4.963   2.217   1.697 -1.1826  0.1870  1.4768
 6300TIP3   OH218863   1.725   4.455   1.142 -0.4491 -1.1902  0.0949
 6300TIP3    H118864   1.710   4.376   1.090 -1.0027 -0.5933 -0.6757
 6300TIP3    H218865   1.645   4.506   1.131 -0.7374 -1.2129  1.8704
 6301TIP3   OH218866   6.769   0.034   4.249 -0.2593 -0.1871 -0.0184
 6301TIP3    H118867   6.820   0.080   4.315  0.5881  1.0678 -1.4603
 6301TIP3    H218868   6.832  -0.025   4.207 -1.0323 -1.7380  0.9458
 6302TIP3   OH218869   3.285   5.587   1.312 -0.0224  0.1078  0.1506
 6302TIP3    H118870   3.191   5.586   1.293  0.1611  1.6210 -0.9816
 6302TIP3    H218871   3.327   5.569   1.228  0.7159  2.4120 -0.0509
 6303TIP3   OH218872   2.410   1.364   5.543  0.0863 -0.4974  0.4928
 6303TIP3    H118873   2.377   1.369   5.633 -0.9558  0.2535  0.0982
 6303TIP3    H218874   2.354   1.298   5.501  0.8400 -1.1493  0.4913
 6304TIP3   OH218875   1.242   2.133   2.689  0.8203 -0.3747 -0.0213
 6304TIP3    H118876   1.272   2.221   2.713 -0.9071 -0.2644  1.9410
 6304TIP3    H218877   1.252   2.081   2.768 -0.0425 -1.4394 -0.5821
 6305TIP3   OH218878   0.136   2.493   4.625 -0.1615  0.3013  0.0575
 6305TIP3    H118879   0.166   2.438   4.697 -1.3257  0.3924  0.6424
 6305TIP3    H218880   0.116   2.432   4.554  0.6990  0.1854 -0.0895
 6306TIP3   OH218881   0.478   2.697   2.299 -0.0176 -0.0425  0.3677
 6306TIP3    H118882   0.574   2.693   2.302 -0.0025  0.2805  0.3373
 6306TIP3    H218883   0.457   2.789   2.317 -0.3096 -0.0510  0.0793
 6307TIP3   OH218884   6.619   5.567   3.209  0.3772  0.5801 -0.3698
 6307TIP3    H118885   6.634   5.496   3.272  0.5977  0.2995 -0.7358
 6307TIP3    H218886   6.688   5.630   3.228  0.1009  0.7659  0.0458
 6308TIP3   OH218887   6.818   5.942   1.149  0.0834  0.6935 -0.6713
 6308TIP3    H118888   6.788   5.951   1.059 -1.0019 -0.6089 -0.4756
 6308TIP3    H218889   6.868   6.022   1.167 -1.0360  1.6992 -1.8910
 6309TIP3   OH218890   5.433   2.760   3.534  0.3063 -0.1936 -1.1435
 6309TIP3    H118891   5.492   2.753   3.459  0.9675  0.5755 -0.7052
 6309TIP3    H218892   5.443   2.678   3.581  1.1043 -0.0322 -1.0240
 6310TIP3   OH218893   1.404   1.722   0.469  0.1281 -0.1955 -0.3701
 6310TIP3    H118894   1.350   1.736   0.547  1.2528 -0.4257  0.4711
 6310TIP3    H218895   1.351   1.665   0.413 -0.7680  0.1267  0.1307
 6311TIP3   OH218896   1.008   5.116   4.952  0.2649  0.2190 -0.1614
 6311TIP3    H118897   1.051   5.037   4.986  0.9935  1.3156  1.5969
 6311TIP3    H218898   1.024   5.183   5.019 -0.8340  1.7199 -1.3286
 6312TIP3   OH218899   2.682   3.897   1.265 -0.1750  0.7167  0.9008
 6312TIP3    H118900   2.750   3.886   1.332 -0.5433  0.9895  1.3299
 6312TIP3    H218901   2.729   3.925   1.187  0.4140 -0.8294  0.6694
 6313TIP3   OH218902   5.249   6.216   2.422 -0.0913 -0.2362 -0.7194
 6313TIP3    H118903   5.231   6.286   2.485 -0.7481 -0.8285 -0.2334
 6313TIP3    H218904   5.330   6.176   2.452  1.0553  1.1808 -1.7888
 6314TIP3   OH218905   4.338   3.278   1.575  0.1195  0.4116 -0.3008
 6314TIP3    H118906   4.246   3.297   1.558 -0.8387  0.1494  3.6449
 6314TIP3    H218907   4.376   3.364   1.596  0.0437  0.2111  0.7225
 6315TIP3   OH218908   6.535   4.233   4.217  0.3279  0.0231 -0.1620
 6315TIP3    H118909   6.602   4.181   4.262  1.1022  0.0643 -1.2368
 6315TIP3    H218910   6.509   4.180   4.142  0.6728  0.8943 -0.9216
 6316TIP3   OH218911   0.981   5.468   2.834 -0.1354  0.2942  0.2251
 6316TIP3    H118912   1.029   5.440   2.912  0.6920  0.0642 -0.3536
 6316TIP3    H218913   1.004   5.403   2.768  1.1795  1.8700 -0.9289
 6317TIP3   OH218914   3.851   4.264   0.710 -0.3767  0.0848 -0.2831
 6317TIP3    H118915   3.800   4.256   0.791 -0.2049 -0.7191 -0.2510
 6317TIP3    H218916   3.941   4.244   0.736 -0.0914  1.1118 -0.4205
 6318TIP3   OH218917   0.613   6.593   1.644  0.3443 -0.1655  0.1218
 6318TIP3    H118918   0.562   6.515   1.621  0.9293 -0.8130  0.9085
 6318TIP3    H218919   0.598   6.604   1.738  0.1188  0.8007 -0.0154
 6319TIP3   OH218920   5.851   1.001   0.064 -0.2769 -0.1921 -0.3156
 6319TIP3    H118921   5.828   1.045   0.146  2.4475  1.1078 -0.1068
 6319TIP3    H218922   5.866   0.910   0.089  0.7348  0.2330  0.7333
 6320TIP3   OH218923   2.018   4.353   2.216  0.0678  0.4099  0.4563
 6320TIP3    H118924   1.960   4.295   2.265 -0.6947  0.5536 -0.2707
 6320TIP3    H218925   2.084   4.294   2.178 -1.6714 -0.2916 -1.7130
 6321TIP3   OH218926   1.196   4.293   3.150 -0.8030  0.0137 -0.0199
 6321TIP3    H118927   1.199   4.348   3.072 -1.3944 -0.2562 -0.2412
 6321TIP3    H218928   1.284   4.257   3.158 -0.2352  1.4500  0.4703
 6322TIP3   OH218929   5.804   0.814   5.459 -0.1658  0.3162 -0.3447
 6322TIP3    H118930   5.751   0.809   5.379  0.3974  1.0825 -0.7866
 6322TIP3    H218931   5.746   0.782   5.528 -0.9201  0.3453 -0.9448
 6323TIP3   OH218932   4.837   6.571   5.879  0.0286 -0.4916  0.0016
 6323TIP3    H118933   4.906   6.537   5.821 -1.1065 -1.6363 -0.7396
 6323TIP3    H218934   4.861   6.662   5.893  0.9261 -0.4684 -1.4224
 6324TIP3   OH218935   0.122   3.546   4.495 -0.0923  0.3340 -0.4018
 6324TIP3    H118936   0.168   3.625   4.466 -0.1016  0.5532  0.1877
 6324TIP3    H218937   0.144   3.481   4.428  2.1980  0.0326  0.5636
 6325TIP3   OH218938   6.770   0.433   1.938  0.1146  0.1009 -0.4358
 6325TIP3    H118939   6.800   0.354   1.894  0.5435  0.5610 -0.9827
 6325TIP3    H218940   6.842   0.459   1.995  0.5434  0.8898 -1.3260
 6326TIP3   OH218941   2.455   5.501   1.044 -0.1091  0.0373 -0.0641
 6326TIP3    H118942   2.537   5.459   1.070  0.7047  0.6648 -1.5108
 6326TIP3    H218943   2.481   5.573   0.987 -1.5915  1.3379  0.8143
 6327TIP3   OH218944   3.523   6.647   2.344 -0.2022 -0.4337 -0.3929
 6327TIP3    H118945   3.609   6.678   2.374 -1.0401 -0.2405  1.9173
 6327TIP3    H218946   3.543   6.566   2.297  1.2884 -0.1514 -0.3116
 6328TIP3   OH218947   6.281   3.376   1.250  0.0237 -0.1997 -0.0138
 6328TIP3    H118948   6.319   3.336   1.172  1.0303 -1.0739  0.8805
 6328TIP3    H218949   6.323   3.462   1.256  0.4822 -0.4187 -0.0445
 6329TIP3   OH218950   7.195   6.212   0.409 -0.0164 -0.3714 -0.1045
 6329TIP3    H118951   7.180   6.125   0.372 -0.5938 -0.5095  0.4240
 6329TIP3    H218952   7.239   6.195   0.493  0.9373 -0.0848 -0.5318
 6330TIP3   OH218953   6.464   3.978   3.033 -0.4628  0.0584  0.3318
 6330TIP3    H118954   6.492   4.029   2.957  0.0929 -1.3398 -0.4431
 6330TIP3    H218955   6.407   3.910   2.997  2.2923 -2.6297  0.5821
 6331TIP3   OH218956   5.223   2.594   2.269  0.4838 -0.1318 -0.0252
 6331TIP3    H118957   5.249   2.523   2.211 -0.2061  0.9852 -1.8094
 6331TIP3    H218958   5.212   2.553   2.354 -2.6089 -2.8060 -1.4697
 6332TIP3   OH218959   6.087   5.969   0.928 -0.3846 -0.4577 -0.5195
 6332TIP3    H118960   6.132   5.921   0.858  1.6562 -0.9608  1.0555
 6332TIP3    H218961   6.157   5.998   0.986 -1.8536  1.7069  0.2812
 6333TIP3   OH218962   5.407   0.514   3.833 -0.4937  0.2682  0.1353
 6333TIP3    H118963   5.432   0.582   3.895  0.4630  0.2265 -0.1826
 6333TIP3    H218964   5.474   0.446   3.843 -1.4975 -0.6907  0.5314
 6334TIP3   OH218965   6.822   4.825   1.130  0.6296  0.1102  0.0474
 6334TIP3    H118966   6.812   4.807   1.037  0.8007 -1.2150  0.2700
 6334TIP3    H218967   6.892   4.891   1.134  0.6329  0.1642 -0.7517
 6335TIP3   OH218968   0.760   0.811   4.824  0.0224  0.0939 -0.1669
 6335TIP3    H118969   0.802   0.757   4.757  0.2398 -1.5374  1.2105
 6335TIP3    H218970   0.829   0.825   4.889 -1.1296 -1.5580  1.5136
 6336TIP3   OH218971   4.404   0.431   0.834  0.0393 -0.2427  0.9578
 6336TIP3    H118972   4.407   0.425   0.930  1.8519 -1.0944  0.8980
 6336TIP3    H218973   4.365   0.348   0.807 -3.3046  1.1895  0.9823
 6337TIP3   OH218974   2.907   2.046   4.217 -0.0921  0.4274  0.1930
 6337TIP3    H118975   2.943   2.018   4.132 -0.1070 -0.4922  0.4751
 6337TIP3    H218976   2.941   2.135   4.229 -0.6975  0.8557 -1.1141
 6338TIP3   OH218977   3.330   4.105   2.353  0.0041  0.3699 -0.0722
 6338TIP3    H118978   3.403   4.085   2.294 -0.1384  1.4465 -0.6412
 6338TIP3    H218979   3.309   4.021   2.394  2.3170  0.2262  1.0077
 6339TIP3   OH218980   4.141   4.634   2.678  0.0839 -0.1233  0.2293
 6339TIP3    H118981   4.105   4.684   2.605 -0.6366 -0.6189  0.2450
 6339TIP3    H218982   4.179   4.701   2.735 -0.2956  0.3565 -0.0656
 6340TIP3   OH218983   4.240   0.793   4.257  0.2588  0.5787  0.9456
 6340TIP3    H118984   4.280   0.727   4.201 -0.1765  1.6205 -0.6756
 6340TIP3    H218985   4.190   0.849   4.197 -1.4265  0.9172  2.5536
 6341TIP3   OH218986   0.182   5.962   4.180 -0.1085 -0.4673 -0.1414
 6341TIP3    H118987   0.092   5.982   4.155 -0.2954 -0.7784  0.2587
 6341TIP3    H218988   0.223   6.047   4.194 -0.7839 -0.3314  1.1962
 6342TIP3   OH218989   1.532   1.265   5.679  0.5065 -0.5313 -0.2962
 6342TIP3    H118990   1.508   1.173   5.670 -0.2806 -0.2443 -1.2300
 6342TIP3    H218991   1.545   1.296   5.589  0.8642  0.2492  0.0113
 6343TIP3   OH218992   4.719   5.843   4.335  0.5072 -0.0269 -0.0086
 6343TIP3    H118993   4.754   5.862   4.248 -0.0635 -0.0783 -0.2567
 6343TIP3    H218994   4.796   5.824   4.389  1.2201  3.3050  0.3568
 6344TIP3   OH218995   5.897   1.089   2.093 -0.1978 -0.1918 -0.0036
 6344TIP3    H118996   5.816   1.038   2.100  1.0478 -2.1406  1.3842
 6344TIP3    H218997   5.877   1.171   2.137 -1.0193 -1.2737  1.7795
 6345TIP3   OH218998   4.604   6.429   1.125  0.0453  0.3116 -0.2796
 6345TIP3    H118999   4.588   6.402   1.216 -1.9662 -0.6118 -0.8523
 6345TIP3    H219000   4.699   6.439   1.119  0.3255 -0.8438  1.5851
 6346TIP3   OH219001   1.396   6.408   4.374  0.0237  0.0623 -0.2399
 6346TIP3    H119002   1.355   6.329   4.337 -0.8117  0.4682 -0.2078
 6346TIP3    H219003   1.476   6.376   4.416  0.1522 -0.6358 -0.9985
 6347TIP3   OH219004   6.113   0.591   3.342  0.5792  0.3263  0.4459
 6347TIP3    H119005   6.060   0.640   3.278 -1.7732  0.0469  2.0690
 6347TIP3    H219006   6.171   0.536   3.288 -1.9714 -0.6222 -1.5277
 6348TIP3   OH219007   3.354   4.263   3.293 -0.0548 -0.0509  0.2523
 6348TIP3    H119008   3.350   4.263   3.197 -1.2444  2.0304  0.2289
 6348TIP3    H219009   3.268   4.231   3.321 -0.7124  1.8222  0.5323
 6349TIP3   OH219010   1.746   4.015   5.224  0.0337  0.6514 -0.1631
 6349TIP3    H119011   1.658   4.054   5.232  0.1256  0.6407  1.1644
 6349TIP3    H219012   1.787   4.063   5.153 -1.0530  0.6605 -0.8039
 6350TIP3   OH219013   3.714   2.203   4.706 -0.0044 -0.5667 -0.0401
 6350TIP3    H119014   3.716   2.131   4.768 -1.2972 -0.1724  0.5023
 6350TIP3    H219015   3.806   2.229   4.696  0.6091 -2.8995 -1.0301
 6351TIP3   OH219016   5.957   3.990   1.492  0.6988  0.7135  0.5827
 6351TIP3    H119017   6.026   4.011   1.429 -0.1123  0.1237 -0.5405
 6351TIP3    H219018   5.945   4.071   1.542  0.9387  1.4038 -0.4479
 6352TIP3   OH219019   0.149   2.073   5.550  0.1869 -0.0990  0.1434
 6352TIP3    H119020   0.166   2.118   5.633 -0.4438 -1.6314  1.1515
 6352TIP3    H219021   0.216   2.005   5.545  3.1104  2.6236 -2.8483
 6353TIP3   OH219022   1.085   4.324   1.444  0.3711  0.0788  0.2136
 6353TIP3    H119023   1.130   4.283   1.517 -2.0224 -1.8140  0.7593
 6353TIP3    H219024   1.139   4.302   1.367  1.5709 -0.0947  1.0756
 6354TIP3   OH219025   6.158   3.223   4.558 -0.0489  0.1277  0.3149
 6354TIP3    H119026   6.211   3.252   4.484  1.5304 -0.5851  1.1218
 6354TIP3    H219027   6.191   3.136   4.580  0.0489  0.6236  2.3203
 6355TIP3   OH219028   4.448   5.636   2.054 -0.6347 -0.1522 -1.0510
 6355TIP3    H119029   4.500   5.713   2.031  0.3657 -0.0605  1.2879
 6355TIP3    H219030   4.501   5.589   2.118 -1.9600 -1.9259 -1.1832
 6356TIP3   OH219031   5.995   4.167   0.543 -0.2490 -0.2163  0.7174
 6356TIP3    H119032   5.965   4.090   0.495  0.7837 -0.2955  0.1758
 6356TIP3    H219033   6.079   4.141   0.581  0.2199  0.7005  0.3434
 6357TIP3   OH219034   0.328   2.789   1.668 -0.5710 -0.0316 -0.1502
 6357TIP3    H119035   0.342   2.856   1.735 -1.8214 -0.0090  0.1178
 6357TIP3    H219036   0.348   2.833   1.585  0.6259  0.0493  0.1646
 6358TIP3   OH219037   3.169   3.182   0.976  0.9574 -0.3763  0.5058
 6358TIP3    H119038   3.136   3.112   0.920  2.1045 -0.3654 -0.2194
 6358TIP3    H219039   3.259   3.157   0.995  1.5157  1.0902 -0.0986
 6359TIP3   OH219040   3.377   1.256   0.535 -0.2556  0.1202 -0.3060
 6359TIP3    H119041   3.288   1.291   0.540 -0.4398 -0.4370  0.4508
 6359TIP3    H219042   3.365   1.162   0.520  0.2298  0.4721 -3.7034
 6360TIP3   OH219043   1.376   0.827   2.441 -0.0601 -0.2827 -0.3319
 6360TIP3    H119044   1.305   0.770   2.411 -0.1040 -1.4489  1.7806
 6360TIP3    H219045   1.374   0.819   2.537  3.2096 -0.7516 -0.1991
 6361TIP3   OH219046   3.185   6.636   3.882  0.0100 -0.0117 -0.1793
 6361TIP3    H119047   3.205   6.722   3.845 -1.0390  0.3429  0.0432
 6361TIP3    H219048   3.165   6.653   3.974  0.5365 -0.5994  0.0497
 6362TIP3   OH219049   6.419   3.777   4.300 -0.2862  0.0097 -0.1278
 6362TIP3    H119050   6.438   3.868   4.324  1.1140  0.3634 -2.3041
 6362TIP3    H219051   6.348   3.784   4.236  0.0294 -0.4142 -0.5272
 6363TIP3   OH219052   3.772   2.446   5.539 -0.0803  0.3919 -0.0319
 6363TIP3    H119053   3.783   2.516   5.475 -3.7988  0.8047 -0.4616
 6363TIP3    H219054   3.775   2.491   5.624  0.0042  0.6570 -0.1744
 6364TIP3   OH219055   3.201   1.617   0.528  0.1406  0.0205 -0.1174
 6364TIP3    H119056   3.106   1.630   0.522  0.0607 -0.3529  0.2537
 6364TIP3    H219057   3.215   1.587   0.618  0.6885  0.6567  0.0147
 6365TIP3   OH219058   1.554   1.426   0.436  0.7243  0.1099 -0.5123
 6365TIP3    H119059   1.507   1.379   0.504  0.6669  1.5396  0.4889
 6365TIP3    H219060   1.544   1.372   0.358 -1.1191 -0.4754  0.0688
 6366TIP3   OH219061   3.966   6.480   1.561  0.2530 -0.0319  0.1309
 6366TIP3    H119062   4.045   6.465   1.612  0.8500  0.7643 -0.5373
 6366TIP3    H219063   3.918   6.397   1.566  0.7275 -0.2633  1.2097
 6367TIP3   OH219064   5.065   6.770   4.651 -0.0972 -0.2990 -0.2108
 6367TIP3    H119065   5.044   6.858   4.680  2.2433 -0.1782  1.4078
 6367TIP3    H219066   5.114   6.732   4.724 -1.3977 -3.1103 -0.6893
 6368TIP3   OH219067   3.777   2.166   5.408 -0.5528 -0.0501  0.2616
 6368TIP3    H119068   3.706   2.152   5.470 -0.1465  0.3957  0.8341
 6368TIP3    H219069   3.800   2.258   5.418  0.7600 -0.4096  0.8044
 6369TIP3   OH219070   1.673   2.930   4.213 -0.4160  0.8602 -0.3236
 6369TIP3    H119071   1.597   2.883   4.179 -0.3789  0.1495  0.5513
 6369TIP3    H219072   1.731   2.938   4.138 -0.4431 -0.4634 -0.5046
 6370TIP3   OH219073   6.588   2.824   3.896 -0.0302  0.1254 -0.2593
 6370TIP3    H119074   6.511   2.822   3.953  1.1005  2.0963  1.4810
 6370TIP3    H219075   6.620   2.734   3.897 -2.1012 -0.6901 -0.8116
 6371TIP3   OH219076   1.326   4.150   3.757 -0.4615 -0.0474 -0.0708
 6371TIP3    H119077   1.283   4.227   3.795 -1.4996 -0.5786 -0.1391
 6371TIP3    H219078   1.346   4.176   3.667 -0.5124  0.2492  0.0008
 6372TIP3   OH219079   1.484   4.545   0.532  0.0308  0.4071  0.6728
 6372TIP3    H119080   1.453   4.592   0.609  0.9817 -0.7117  1.7812
 6372TIP3    H219081   1.511   4.614   0.471  2.6532  1.3999  2.7602
 6373TIP3   OH219082   0.869   1.073   1.071  0.7479 -0.1086 -0.2718
 6373TIP3    H119083   0.813   1.147   1.047  1.0868 -0.2565 -1.6256
 6373TIP3    H219084   0.945   1.113   1.113  0.9525  0.3291 -1.0384
 6374TIP3   OH219085   6.769   1.932   3.746 -0.1210 -0.3618 -0.5245
 6374TIP3    H119086   6.780   2.014   3.698  0.4271  0.2535  0.6213
 6374TIP3    H219087   6.830   1.871   3.704  2.6087  0.9919  1.1700
 6375TIP3   OH219088   2.208   2.720   4.591 -0.2044 -0.0061 -0.4035
 6375TIP3    H119089   2.136   2.776   4.561  0.5892  1.0112 -0.4634
 6375TIP3    H219090   2.269   2.718   4.518 -0.1941 -0.9268 -0.3811
 6376TIP3   OH219091   1.273   2.457   4.281  0.2943 -0.2187  0.7680
 6376TIP3    H119092   1.225   2.515   4.341  0.3387  0.7523 -0.1025
 6376TIP3    H219093   1.205   2.417   4.227  0.3491  0.1123  0.4437
 6377TIP3   OH219094   4.597   0.055   2.031  0.1994  0.8766 -0.6645
 6377TIP3    H119095   4.581   0.019   1.944 -1.8179 -0.2401  0.0811
 6377TIP3    H219096   4.667   0.000   2.068 -0.2538  0.1081 -0.9161
 6378TIP3   OH219097   6.750   5.443   2.158  0.2592 -0.0028  0.7222
 6378TIP3    H119098   6.733   5.358   2.199 -0.4860 -1.1660 -1.8021
 6378TIP3    H219099   6.807   5.489   2.219  1.2790 -2.6144  1.8373
 6379TIP3   OH219100   4.102   0.519   2.622 -0.0166 -0.0144  0.0338
 6379TIP3    H119101   4.009   0.502   2.605  0.1391  1.0030 -2.2621
 6379TIP3    H219102   4.147   0.445   2.582  0.1898  0.0570  0.1377
 6380TIP3   OH219103   0.459   5.943   4.718 -0.1176  0.3800  0.2289
 6380TIP3    H119104   0.411   6.004   4.775 -2.2990  0.1276 -1.1892
 6380TIP3    H219105   0.481   5.995   4.641 -0.5485 -0.1819 -0.2868
 6381TIP3   OH219106   5.968   2.973   5.128 -0.2076 -0.0384  0.2680
 6381TIP3    H119107   6.011   3.036   5.185  0.5980 -0.1275 -0.2202
 6381TIP3    H219108   5.990   3.003   5.039 -1.9914  0.4969 -0.0399
 6382TIP3   OH219109   2.031   4.208   3.601 -0.1608 -0.1322 -0.2324
 6382TIP3    H119110   2.004   4.298   3.624  0.4710 -0.0704  0.2890
 6382TIP3    H219111   2.022   4.159   3.683  1.7284 -0.0085  0.0800
 6383TIP3   OH219112   3.506   2.009   2.326 -0.8096  0.1477 -0.2213
 6383TIP3    H119113   3.502   1.932   2.383 -1.5822  1.3839  1.5099
 6383TIP3    H219114   3.550   1.979   2.247  0.7042 -1.5855  1.1849
 6384TIP3   OH219115   0.687   4.784   1.142  0.3371 -0.3046  0.1265
 6384TIP3    H119116   0.637   4.776   1.223  2.2496  0.3927  1.4320
 6384TIP3    H219117   0.768   4.738   1.158  0.2763 -1.2437 -1.8830
 6385TIP3   OH219118   0.472   1.642   3.592  0.0242  0.0154 -0.3403
 6385TIP3    H119119   0.435   1.717   3.546 -0.2943 -1.1126 -2.0126
 6385TIP3    H219120   0.399   1.608   3.644 -0.2075  0.0711 -0.6249
 6386TIP3   OH219121   6.163   2.770   4.365 -0.6010 -0.0936 -0.5693
 6386TIP3    H119122   6.073   2.755   4.393  0.2194 -1.9525  1.3697
 6386TIP3    H219123   6.171   2.720   4.284 -0.9604 -1.0072 -0.0499
 6387TIP3   OH219124   6.991   4.427   3.885  0.5333  0.1382  0.5762
 6387TIP3    H119125   7.056   4.356   3.880  0.5081  0.1867 -2.1433
 6387TIP3    H219126   6.912   4.384   3.918  0.9987 -0.6934  0.6526
 6388TIP3   OH219127   0.928   0.590   5.419 -0.1339  0.3598  0.0126
 6388TIP3    H119128   0.908   0.610   5.327 -0.0402 -0.5500 -0.2115
 6388TIP3    H219129   0.957   0.674   5.456 -0.8019  0.8763 -0.6144
 6389TIP3   OH219130   1.526   1.526   4.999 -0.3649 -0.0646 -0.1312
 6389TIP3    H119131   1.615   1.558   5.000 -0.3673  0.0201 -1.0622
 6389TIP3    H219132   1.491   1.554   4.914 -1.3482  0.1018  0.3064
 6390TIP3   OH219133   4.239   4.806   2.863  0.2154 -0.1775 -0.1275
 6390TIP3    H119134   4.329   4.784   2.884  0.3427 -1.3520 -1.7447
 6390TIP3    H219135   4.193   4.804   2.947  1.6813  0.5396  0.7316
 6391TIP3   OH219136   2.656   2.957   3.888 -0.1928 -0.2063 -0.0617
 6391TIP3    H119137   2.602   3.035   3.893 -0.0198 -0.1285  3.6872
 6391TIP3    H219138   2.743   2.989   3.865  0.0964  0.9795  2.3560
 6392TIP3   OH219139   0.096   4.511   0.477  0.0105 -0.0400 -0.1119
 6392TIP3    H119140   0.132   4.457   0.407 -1.0282 -0.4980 -0.2952
 6392TIP3    H219141   0.155   4.588   0.480 -0.1664  0.1905 -1.7461
 6393TIP3   OH219142   1.567   6.491   4.705  0.0041  0.1182  0.1608
 6393TIP3    H119143   1.633   6.461   4.767  1.1171 -0.3542 -1.2014
 6393TIP3    H219144   1.608   6.567   4.662 -0.8042  0.5317  0.1133
 6394TIP3   OH219145   7.079   3.714   3.930  0.9740 -0.1560 -0.0471
 6394TIP3    H119146   7.047   3.786   3.875  0.2207 -1.7893 -1.8654
 6394TIP3    H219147   7.052   3.737   4.018  0.9655  1.8919 -0.5419
 6395TIP3   OH219148   5.141   6.063   4.839 -0.2307 -0.0296  0.0705
 6395TIP3    H119149   5.220   6.118   4.839  0.2810 -0.7389 -0.7736
 6395TIP3    H219150   5.069   6.126   4.843  0.3075  0.8206 -1.9131
 6396TIP3   OH219151   1.476   3.658   0.600  0.5264 -0.0185  0.2150
 6396TIP3    H119152   1.416   3.726   0.629  0.0714 -0.5479  0.5329
 6396TIP3    H219153   1.488   3.602   0.677 -1.0003 -1.6630 -0.6735
 6397TIP3   OH219154   6.586   4.140   1.935 -0.2889  0.2076  0.3821
 6397TIP3    H119155   6.556   4.066   1.989  0.9889 -0.1881  0.6003
 6397TIP3    H219156   6.563   4.217   1.986 -2.4473  0.0273 -0.2596
 6398TIP3   OH219157   3.714   1.764   0.810 -0.8911  0.3219  0.3303
 6398TIP3    H119158   3.769   1.757   0.889  0.7318 -3.9343 -0.8433
 6398TIP3    H219159   3.630   1.727   0.836 -0.8613  0.3422  0.4556
 6399TIP3   OH219160   6.471   1.452   1.833  0.1279  0.5320  0.7516
 6399TIP3    H119161   6.532   1.382   1.808 -0.4876  0.1533  0.2667
 6399TIP3    H219162   6.526   1.517   1.876  0.6620 -0.4039  1.5298
 6400TIP3   OH219163   3.377   3.525   1.690  0.2166  0.0490 -0.1566
 6400TIP3    H119164   3.349   3.616   1.680  1.1638  0.4443  0.6773
 6400TIP3    H219165   3.415   3.502   1.605 -0.4694  0.2616 -0.5310
 6401TIP3   OH219166   2.529   2.227   5.068 -0.1200  0.3213  0.0093
 6401TIP3    H119167   2.598   2.293   5.054  0.3539 -0.2776 -0.5697
 6401TIP3    H219168   2.571   2.160   5.122 -1.0108  1.1271  1.7466
 6402TIP3   OH219169   0.621   5.423   4.175  0.0650 -0.4419 -0.0644
 6402TIP3    H119170   0.552   5.488   4.190  0.3067 -0.2902  0.4366
 6402TIP3    H219171   0.599   5.351   4.234  0.7967 -0.0258  0.7435
 6403TIP3   OH219172   2.514   3.731   1.919  0.5643 -0.2580 -0.5592
 6403TIP3    H119173   2.496   3.747   1.826  3.3373 -2.0737 -1.5285
 6403TIP3    H219174   2.565   3.650   1.920  1.7512  0.3863  2.4541
 6404TIP3   OH219175   3.523   1.725   3.601 -1.0140 -0.1105  0.0327
 6404TIP3    H119176   3.454   1.724   3.667  0.1857  1.1714  1.3775
 6404TIP3    H219177   3.598   1.685   3.645 -0.5301 -0.3387 -0.9778
 6405TIP3   OH219178   5.186   2.049   2.364 -0.1972  0.2222 -0.8777
 6405TIP3    H119179   5.131   1.973   2.383  1.2174 -0.4717  0.7801
 6405TIP3    H219180   5.130   2.108   2.314 -2.2660 -0.6395  0.3097
 6406TIP3   OH219181   4.230   5.878   4.419 -0.1519 -0.3285  0.3682
 6406TIP3    H119182   4.263   5.968   4.430  1.2937 -0.7819  0.0032
 6406TIP3    H219183   4.137   5.884   4.439 -0.2768  1.4339 -0.5620
 6407TIP3   OH219184   5.891   2.895   2.815  0.4954  0.7629 -0.2315
 6407TIP3    H119185   5.946   2.879   2.738 -1.1822 -0.0647 -1.3250
 6407TIP3    H219186   5.866   2.987   2.808 -0.3634  0.4766 -1.2121
 6408TIP3   OH219187   6.434   1.936   5.828  0.4342 -0.3712  0.7032
 6408TIP3    H119188   6.388   1.933   5.745  0.6947  1.4873  0.4321
 6408TIP3    H219189   6.430   1.847   5.862 -0.1670 -1.0399 -1.0217
 6409TIP3   OH219190   4.114   2.803   0.364 -0.6434 -0.5649  0.1705
 6409TIP3    H119191   4.032   2.816   0.411 -0.3325 -1.3312  0.9440
 6409TIP3    H219192   4.175   2.864   0.405 -0.8461  0.1096 -0.5010
 6410TIP3   OH219193   3.914   1.738   4.467  0.2471  0.6973  0.4745
 6410TIP3    H119194   3.898   1.684   4.389  0.3824 -1.1889  1.7165
 6410TIP3    H219195   3.940   1.677   4.535  1.3209  2.4392  1.7200
 6411TIP3   OH219196   3.249   5.430   1.863  0.1048  0.6081 -0.4724
 6411TIP3    H119197   3.190   5.505   1.865 -2.0835 -1.0385 -0.1050
 6411TIP3    H219198   3.259   5.404   1.954 -0.4629 -0.4842 -0.7035
 6412TIP3   OH219199   0.186   4.999   1.537  0.4128  0.0519 -0.0394
 6412TIP3    H119200   0.244   5.064   1.497  1.1908 -1.5306 -1.6416
 6412TIP3    H219201   0.232   4.970   1.616 -0.4737  2.1857  1.3490
 6413TIP3   OH219202   4.898   3.441   1.930 -0.7389 -0.2422  0.0854
 6413TIP3    H119203   4.865   3.424   2.019  1.3017 -0.5959  0.8290
 6413TIP3    H219204   4.990   3.416   1.934 -0.3146  0.8587 -1.8230
 6414TIP3   OH219205   1.539   0.160   3.396  0.7919  0.2187 -0.0891
 6414TIP3    H119206   1.457   0.196   3.431  1.9179  1.0709  1.8551
 6414TIP3    H219207   1.607   0.194   3.455  2.5119 -0.7825 -1.4007
 6415TIP3   OH219208   0.084   2.096   1.593 -0.1146  0.4198  0.3120
 6415TIP3    H119209   0.104   2.108   1.500 -1.2021  0.8532  0.1166
 6415TIP3    H219210   0.128   2.015   1.617  1.4548  1.0964 -0.1891
 6416TIP3   OH219211   0.432   1.628   5.870 -0.0578 -0.5605 -0.4684
 6416TIP3    H119212   0.397   1.683   5.800  0.7749 -1.1248 -1.3441
 6416TIP3    H219213   0.422   1.538   5.838 -1.6599 -0.9818  1.0651
 6417TIP3   OH219214   6.694   0.940   3.511 -0.4620 -0.1329  0.3941
 6417TIP3    H119215   6.643   0.980   3.441  0.2262 -0.5115 -0.3461
 6417TIP3    H219216   6.630   0.892   3.563 -0.6501 -2.4621 -1.8036
 6418TIP3   OH219217   2.316   4.041   0.072  0.3596 -0.0211 -0.1535
 6418TIP3    H119218   2.235   4.081   0.102  1.3660  1.0502  1.3073
 6418TIP3    H219219   2.312   3.951   0.105  0.0025  0.1877  0.3895
 6419TIP3   OH219220   1.942   3.683   5.025  0.0807 -0.1133 -0.5050
 6419TIP3    H119221   1.947   3.653   4.934  0.9925 -0.9114 -0.2212
 6419TIP3    H219222   2.008   3.752   5.030 -0.0668  0.0248 -0.4852
 6420TIP3   OH219223   6.663   5.378   3.422  0.3652 -0.2192 -0.1424
 6420TIP3    H119224   6.604   5.401   3.494 -1.1069  0.8120 -1.6183
 6420TIP3    H219225   6.631   5.293   3.391  1.5773 -1.1119  0.9720
 6421TIP3   OH219226   3.962   4.264   2.298 -0.4958  0.0241 -0.1849
 6421TIP3    H119227   3.987   4.215   2.376 -0.4883 -2.1326 -1.4678
 6421TIP3    H219228   3.866   4.268   2.303 -0.6454 -1.7004 -0.9027
 6422TIP3   OH219229   6.085   0.176   2.272 -0.6626  0.1509 -0.7374
 6422TIP3    H119230   6.092   0.139   2.360  0.4944 -0.7847 -1.2028
 6422TIP3    H219231   6.126   0.263   2.279 -0.5853  0.0832 -0.3457
 6423TIP3   OH219232   6.845   0.492   2.595 -0.5451 -0.1158  0.0219
 6423TIP3    H119233   6.869   0.574   2.638  0.5283  0.4463 -1.5410
 6423TIP3    H219234   6.914   0.431   2.622 -1.6817 -0.7343  1.6851
 6424TIP3   OH219235   1.117   3.420   3.583 -0.4394  0.1433 -0.1958
 6424TIP3    H119236   1.032   3.448   3.616  0.0954  1.8932 -0.2123
 6424TIP3    H219237   1.096   3.364   3.508 -1.5767  0.8785 -0.4478
 6425TIP3   OH219238   2.643   1.308   5.813  0.0253 -0.3675  0.5128
 6425TIP3    H119239   2.623   1.401   5.822 -0.2729 -0.1045 -2.1789
 6425TIP3    H219240   2.720   1.305   5.757 -0.1104 -1.7626  0.3517
 6426TIP3   OH219241   6.018   0.821   0.693 -0.1018 -0.0710 -0.4332
 6426TIP3    H119242   6.062   0.885   0.750  0.9791 -1.3204  0.1826
 6426TIP3    H219243   5.925   0.841   0.703  0.1831  1.0196  0.2183
 6427TIP3   OH219244   2.227   2.891   5.359 -0.2189  0.9250 -0.6504
 6427TIP3    H119245   2.251   2.968   5.307  1.4603  1.4294  0.7521
 6427TIP3    H219246   2.206   2.927   5.445  1.5250 -0.2077  0.3110
 6428TIP3   OH219247   0.842   6.046   4.121 -0.2382 -0.0569  0.1187
 6428TIP3    H119248   0.795   6.069   4.201  0.7166  1.1810  0.3452
 6428TIP3    H219249   0.903   6.119   4.107  3.1528 -2.4751  0.9970
 6429TIP3   OH219250   0.078   6.817   2.039 -0.1779 -0.6609  0.5470
 6429TIP3    H119251  -0.016   6.831   2.033 -0.2419 -1.4808 -0.9262
 6429TIP3    H219252   0.088   6.721   2.040  0.6600 -0.5993 -0.2013
 6430TIP3   OH219253   1.949   1.617   0.298  0.4032  0.8056  0.3038
 6430TIP3    H119254   2.041   1.630   0.274  0.7585 -0.0518  1.1602
 6430TIP3    H219255   1.951   1.551   0.367 -0.7053  2.1423  1.6770
 6431TIP3   OH219256   6.299   1.673   0.656  0.6259  0.0913 -0.1187
 6431TIP3    H119257   6.334   1.754   0.693  0.7690 -0.3464  0.7303
 6431TIP3    H219258   6.345   1.664   0.572 -0.8512  1.9193 -1.2146
 6432TIP3   OH219259   5.750   1.453   1.034 -0.0914 -0.7398  0.0012
 6432TIP3    H119260   5.662   1.484   1.053 -0.3279 -1.0085 -0.6148
 6432TIP3    H219261   5.781   1.415   1.116 -0.4820 -0.4881  0.2676
 6433TIP3   OH219262   3.666   2.627   2.608 -0.2578 -0.3605 -0.4676
 6433TIP3    H119263   3.665   2.570   2.531  0.3604 -1.8680  0.5889
 6433TIP3    H219264   3.575   2.631   2.636 -0.5756  0.6390 -1.5477
 6434TIP3   OH219265   5.667   5.581   4.944  0.4672  0.1226  0.0843
 6434TIP3    H119266   5.751   5.560   4.903 -0.0517 -1.8227 -0.0606
 6434TIP3    H219267   5.602   5.566   4.876 -0.0910  0.4751  0.5362
 6435TIP3   OH219268   6.810   6.432   0.878  0.4642  0.6594 -0.2326
 6435TIP3    H119269   6.842   6.436   0.968 -3.7389  3.2397  1.4024
 6435TIP3    H219270   6.753   6.355   0.876  1.6976 -0.2832 -1.2529
 6436TIP3   OH219271   0.795   2.072   1.362  0.5415 -0.0257 -0.1031
 6436TIP3    H119272   0.724   2.114   1.410 -0.2666 -0.5091 -0.8266
 6436TIP3    H219273   0.773   1.978   1.364  2.9788 -0.6917  2.6207
 6437TIP3   OH219274   2.966   3.667   4.535  0.0322 -0.2053  0.1505
 6437TIP3    H119275   3.050   3.633   4.504  0.2973 -0.8238  1.4680
 6437TIP3    H219276   2.909   3.665   4.458  1.0307 -0.4041 -0.6020
 6438TIP3   OH219277   0.897   5.561   0.731  0.1841 -0.0935 -0.2002
 6438TIP3    H119278   0.927   5.474   0.757 -0.4614 -1.1448 -2.6457
 6438TIP3    H219279   0.802   5.554   0.731  0.1333  0.5541 -0.6382
 6439TIP3   OH219280   0.834   0.580   1.752  0.0157 -0.1800 -1.1737
 6439TIP3    H119281   0.888   0.656   1.772  0.0326 -0.2996 -0.7594
 6439TIP3    H219282   0.744   0.610   1.763  0.0234 -0.2289 -0.9771
 6440TIP3   OH219283   6.238   2.443   1.452 -0.2531  0.2403  0.2607
 6440TIP3    H119284   6.192   2.514   1.407  1.4151  0.5082 -1.1087
 6440TIP3    H219285   6.254   2.378   1.384 -1.3027 -1.2731  1.3923
 6441TIP3   OH219286   3.498   6.527   3.864  0.0188  0.2424  0.0054
 6441TIP3    H119287   3.453   6.542   3.947  0.4739  0.4379  0.2154
 6441TIP3    H219288   3.429   6.493   3.806 -0.4756  0.8654  0.2201
 6442TIP3   OH219289   4.636   3.362   1.218 -0.1619  0.5845 -0.3825
 6442TIP3    H119290   4.637   3.313   1.300 -2.3706 -1.8817 -1.6810
 6442TIP3    H219291   4.695   3.314   1.160 -0.2962  1.0235 -0.8989
 6443TIP3   OH219292   2.789   0.557   3.482 -0.1044 -0.0607 -0.2964
 6443TIP3    H119293   2.869   0.545   3.432  0.7864  0.7634  0.8860
 6443TIP3    H219294   2.754   0.468   3.492  1.3962 -0.6194  0.3393
 6444TIP3   OH219295   4.901   0.239   2.877  0.4321  0.1101  0.3564
 6444TIP3    H119296   4.973   0.200   2.827  1.0496 -0.2135  1.4586
 6444TIP3    H219297   4.861   0.165   2.922 -0.2902  0.3594  0.1371
 6445TIP3   OH219298   2.026   4.205   1.153 -0.1675 -0.2940 -0.5217
 6445TIP3    H119299   2.085   4.235   1.085 -0.1664 -0.2764 -0.5130
 6445TIP3    H219300   2.020   4.278   1.215  2.1363 -1.3161  1.0597
 6446TIP3   OH219301   5.486   0.619   1.224  0.3015  0.0838  0.0690
 6446TIP3    H119302   5.458   0.691   1.167 -0.4141  0.0696  0.3995
 6446TIP3    H219303   5.470   0.651   1.313 -1.0032 -0.8737  0.2024
 6447TIP3   OH219304   3.422   3.151   5.087 -0.1951  0.0983  0.0477
 6447TIP3    H119305   3.448   3.061   5.068  0.6246  0.8102 -2.5822
 6447TIP3    H219306   3.472   3.175   5.164  1.4104 -0.9614 -0.6166
 6448TIP3   OH219307   2.252   1.064   3.942 -0.6213 -0.0772 -0.4983
 6448TIP3    H119308   2.283   1.115   4.017  1.3188 -1.2133 -0.4337
 6448TIP3    H219309   2.210   0.987   3.982 -2.1295  0.6656 -0.6004
 6449TIP3   OH219310   7.058   6.607   3.097  0.1525  0.1433  0.3174
 6449TIP3    H119311   6.984   6.666   3.107  0.7079  0.7996  0.6932
 6449TIP3    H219312   7.048   6.570   3.009 -0.9685 -0.2927  0.6109
 6450TIP3   OH219313   4.962   1.030   5.446 -0.1203  0.2834  0.0737
 6450TIP3    H119314   4.871   1.046   5.423  0.2115  1.2319 -0.6508
 6450TIP3    H219315   4.976   1.081   5.526 -0.5017 -0.7161  0.7894
 6451TIP3   OH219316   4.481   6.223   5.483 -0.3905 -0.1627  0.1742
 6451TIP3    H119317   4.428   6.303   5.473  0.7747  0.5190 -0.9153
 6451TIP3    H219318   4.454   6.168   5.409  0.3168  0.1476 -0.3284
 6452TIP3   OH219319   1.979   4.736   4.062 -0.2989  0.3281 -0.5057
 6452TIP3    H119320   1.937   4.820   4.078 -2.0365 -0.4731 -0.6436
 6452TIP3    H219321   2.019   4.745   3.976  0.1379  1.2267 -0.2219
 6453TIP3   OH219322   4.816   1.596   0.743  0.1444  0.2835 -0.2889
 6453TIP3    H119323   4.819   1.679   0.791 -1.1467  0.7674 -0.9957
 6453TIP3    H219324   4.871   1.537   0.794 -2.8211  0.1311  3.0565
 6454TIP3   OH219325   3.546   1.821   1.504 -0.0965 -0.1204  0.1640
 6454TIP3    H119326   3.641   1.811   1.510 -0.0332  0.3921  0.0817
 6454TIP3    H219327   3.522   1.871   1.581 -0.2839 -0.1245  0.1101
 6455TIP3   OH219328   4.320   5.896   4.026  0.3283 -0.0730 -0.3866
 6455TIP3    H119329   4.229   5.891   4.057  0.7939 -1.5048  0.8780
 6455TIP3    H219330   4.315   5.949   3.947 -1.7468 -0.8742 -0.8648
 6456TIP3   OH219331   3.959   1.808   0.483  0.1001  0.2941 -0.2172
 6456TIP3    H119332   4.012   1.838   0.410 -0.7609 -1.2798 -1.5738
 6456TIP3    H219333   4.022   1.774   0.547  0.8085  0.4618 -0.8165
 6457TIP3   OH219334   3.351   3.001   4.403 -0.4841  1.3094  0.7474
 6457TIP3    H119335   3.280   3.049   4.446  0.5625  1.9389  1.8431
 6457TIP3    H219336   3.411   3.069   4.372 -0.7443  0.8229 -0.9348
 6458TIP3   OH219337   5.404   3.141   3.363  0.1682  0.2830  0.3896
 6458TIP3    H119338   5.398   3.224   3.411  1.1882 -0.2221  1.4543
 6458TIP3    H219339   5.315   3.106   3.364  0.2181  0.0943  2.3323
 6459TIP3   OH219340   4.170   1.583   3.960  0.2612 -0.4412  0.1950
 6459TIP3    H119341   4.159   1.619   3.872  1.7668  1.8250  0.8532
 6459TIP3    H219342   4.258   1.547   3.960  0.1568 -0.7026  0.6918
 6460TIP3   OH219343   3.224   3.450   4.670  0.5512 -0.2919 -0.2813
 6460TIP3    H119344   3.289   3.518   4.651 -0.4215  0.2043 -2.0780
 6460TIP3    H219345   3.269   3.389   4.728  2.0251  0.9603 -0.0401
 6461TIP3   OH219346   1.484   6.232   2.871  0.2101  0.2853 -0.0398
 6461TIP3    H119347   1.441   6.156   2.911  0.3428 -0.1079 -0.6303
 6461TIP3    H219348   1.468   6.303   2.933 -2.0134  0.3751 -0.6191
 6462TIP3   OH219349   0.091   5.243   4.808  0.2121 -0.2440  0.1918
 6462TIP3    H119350   0.009   5.244   4.857  0.2839 -3.9798  0.6519
 6462TIP3    H219351   0.095   5.329   4.766 -2.6683  0.9862  2.1309
 6463TIP3   OH219352   4.717   1.201   1.363  0.4205 -0.6873  0.2421
 6463TIP3    H119353   4.779   1.240   1.426 -0.3664 -1.3150  1.4339
 6463TIP3    H219354   4.637   1.253   1.373 -0.2978 -1.9026  1.0875
 6464TIP3   OH219355   1.306   3.921   3.191  0.1801  0.1241 -0.1955
 6464TIP3    H119356   1.354   3.988   3.240  0.3377 -0.3298  0.2849
 6464TIP3    H219357   1.214   3.935   3.214 -0.0478  1.4986 -1.7274
 6465TIP3   OH219358   6.480   2.828   0.960  0.4868  0.0118 -0.1531
 6465TIP3    H119359   6.483   2.884   0.882 -2.1408  0.6091  0.0594
 6465TIP3    H219360   6.386   2.812   0.973  1.0366 -3.0607  0.8031
 6466TIP3   OH219361   6.701   6.814   3.388  0.3476  0.3426 -0.2083
 6466TIP3    H119362   6.612   6.785   3.404  0.3227  1.1677  1.3519
 6466TIP3    H219363   6.748   6.795   3.469  2.2597 -2.2937 -1.7600
 6467TIP3   OH219364   4.500   6.194   0.943  0.3482 -0.1291  0.4883
 6467TIP3    H119365   4.512   6.109   0.986  1.9359  0.1159  0.6073
 6467TIP3    H219366   4.443   6.243   1.002 -1.6288 -1.4984 -0.1746
 6468TIP3   OH219367   5.799   4.313   1.838 -0.4430  0.1653  0.4369
 6468TIP3    H119368   5.885   4.355   1.838  0.2118 -1.0495  2.0014
 6468TIP3    H219369   5.785   4.287   1.929 -1.8310 -0.9230 -0.0463
 6469TIP3   OH219370   5.283   0.122   5.463 -0.2579 -0.3258 -0.2725
 6469TIP3    H119371   5.296   0.214   5.486  1.1475 -1.0948  2.3870
 6469TIP3    H219372   5.195   0.101   5.495 -0.0385 -0.2416  0.3974
 6470TIP3   OH219373   3.884   0.825   5.502  0.5028  0.0491 -0.5414
 6470TIP3    H119374   3.804   0.775   5.518  1.1157 -0.2917  1.8672
 6470TIP3    H219375   3.859   0.916   5.514  0.4706 -0.0556  0.2015
 6471TIP3   OH219376   3.968   5.296   4.211  0.0277 -0.0298  0.5360
 6471TIP3    H119377   4.050   5.303   4.260  0.2817 -0.4410  0.1823
 6471TIP3    H219378   3.931   5.384   4.215  1.2674  0.5915 -0.6188
 6472TIP3   OH219379   6.358   3.685   5.335  0.4666 -0.5467  0.0845
 6472TIP3    H119380   6.297   3.665   5.265  1.3956 -0.3465 -0.8155
 6472TIP3    H219381   6.443   3.656   5.302  0.7585 -1.6420  1.6445
 6473TIP3   OH219382   3.493   6.781   4.743  0.1189 -0.3812 -0.4658
 6473TIP3    H119383   3.426   6.843   4.772  1.4998  0.3800  1.3613
 6473TIP3    H219384   3.457   6.695   4.763 -0.8545 -0.0573 -0.7958
 6474TIP3   OH219385   2.707   4.742   0.634 -0.0440  0.6891  0.2238
 6474TIP3    H119386   2.612   4.736   0.647 -0.0943 -1.1599 -0.5792
 6474TIP3    H219387   2.737   4.804   0.700 -1.8244  1.3914  0.4262
 6475TIP3   OH219388   6.990   0.239   2.106 -0.8651 -0.2430 -0.1768
 6475TIP3    H119389   7.013   0.332   2.107  1.1285 -0.7005 -0.4303
 6475TIP3    H219390   6.921   0.231   2.172 -0.2211  1.2099  0.7185
 6476TIP3   OH219391   6.833   5.579   0.958  0.2413 -0.2998  0.3272
 6476TIP3    H119392   6.876   5.581   1.044  1.0547  0.3276 -0.0864
 6476TIP3    H219393   6.789   5.493   0.956  2.0636 -1.2888  0.4754
 6477TIP3   OH219394   2.850   6.285   3.585 -0.2709 -0.5632 -0.6121
 6477TIP3    H119395   2.771   6.338   3.575 -0.1293 -0.3195 -0.4464
 6477TIP3    H219396   2.862   6.244   3.499 -0.6048 -0.6442 -0.6230
 6478TIP3   OH219397   2.067   1.152   0.611 -0.4927  0.1163 -0.2446
 6478TIP3    H119398   2.042   1.215   0.543 -1.0915 -0.2227 -0.3470
 6478TIP3    H219399   1.996   1.158   0.675 -1.2262 -1.3529 -0.8679
 6479TIP3   OH219400   6.806   3.674   5.852  0.0171 -0.3055 -0.5483
 6479TIP3    H119401   6.867   3.743   5.879 -1.5316  0.7496  0.4134
 6479TIP3    H219402   6.764   3.708   5.772 -0.2292 -0.4529 -0.4846
 6480TIP3   OH219403   4.444   5.914   2.431 -0.3761 -0.0260 -0.2955
 6480TIP3    H119404   4.446   5.890   2.524  4.2738 -0.2496 -0.2311
 6480TIP3    H219405   4.407   6.002   2.430 -0.5033 -0.0046  1.7772
 6481TIP3   OH219406   4.525   2.457   4.375  0.6007  0.2808  0.5016
 6481TIP3    H119407   4.593   2.391   4.386 -0.2706 -0.7514 -0.0661
 6481TIP3    H219408   4.455   2.430   4.434 -0.2579 -0.0212 -0.5991
 6482TIP3   OH219409   3.974   4.169   2.046 -0.0232 -0.1715  0.1186
 6482TIP3    H119410   3.978   4.200   2.136 -0.0966 -1.6761  0.6557
 6482TIP3    H219411   3.926   4.086   2.051  0.6787 -0.6784 -1.1849
 6483TIP3   OH219412   3.620   5.356   1.478 -0.4262 -0.2985 -0.6304
 6483TIP3    H119413   3.543   5.317   1.519  0.1332 -0.2900  0.4647
 6483TIP3    H219414   3.600   5.450   1.474 -0.0467 -0.1462  0.6600
 6484TIP3   OH219415   1.360   6.095   3.425  0.2231 -0.2352 -0.1127
 6484TIP3    H119416   1.334   6.141   3.345 -0.5987 -0.2606  0.1260
 6484TIP3    H219417   1.313   6.011   3.420  0.1732 -0.2397  0.3869
 6485TIP3   OH219418   4.139   1.767   1.174 -0.4546  0.6013 -0.1174
 6485TIP3    H119419   4.083   1.822   1.229 -0.8941  1.5410 -1.4716
 6485TIP3    H219420   4.122   1.796   1.085  2.4501  1.2053 -0.5841
 6486TIP3   OH219421   1.294   5.464   5.395 -0.3460 -0.1920 -0.1001
 6486TIP3    H119422   1.223   5.513   5.353  0.7077  1.7406  0.2672
 6486TIP3    H219423   1.365   5.527   5.402  1.2443 -1.9291  0.0279
 6487TIP3   OH219424   4.830   4.435   3.233  0.2744 -0.0487  0.3096
 6487TIP3    H119425   4.797   4.348   3.252  2.1934 -0.9358 -0.1942
 6487TIP3    H219426   4.826   4.442   3.137 -0.6876  0.7848  0.3898
 6488TIP3   OH219427   2.661   4.586   0.047  0.2553  0.6692  0.5333
 6488TIP3    H119428   2.581   4.554   0.006  1.3017 -0.8308 -0.4638
 6488TIP3    H219429   2.640   4.595   0.139 -0.4545 -1.9409  0.6989
 6489TIP3   OH219430   0.499   4.527   3.880  1.2323  0.1386  0.0810
 6489TIP3    H119431   0.480   4.487   3.965  2.1580  0.0352  0.2513
 6489TIP3    H219432   0.502   4.453   3.819  5.4242 -0.5745  0.7948
 6490TIP3   OH219433   4.883   2.318   0.912 -0.9839  0.3180  0.2008
 6490TIP3    H119434   4.875   2.342   1.004 -2.0104  1.2594 -0.1161
 6490TIP3    H219435   4.897   2.401   0.866 -0.6192 -0.1238 -0.5011
 6491TIP3   OH219436   5.561   6.683   3.645  0.4931  0.1741  0.1581
 6491TIP3    H119437   5.612   6.717   3.718  0.9917 -0.8793  0.3175
 6491TIP3    H219438   5.625   6.639   3.589 -0.2606 -1.5969  0.6123
 6492TIP3   OH219439   1.905   1.188   0.838 -0.4790 -0.2353  0.0786
 6492TIP3    H119440   1.944   1.231   0.914 -0.8001  1.8652 -0.8660
 6492TIP3    H219441   1.834   1.247   0.811  0.3568 -0.2719 -2.5180
 6493TIP3   OH219442   0.176   5.222   2.884  0.3012  0.2902  0.2059
 6493TIP3    H119443   0.262   5.234   2.844  0.8465 -2.4831  0.3173
 6493TIP3    H219444   0.117   5.208   2.810  0.2171  0.7308  0.1868
 6494TIP3   OH219445   3.353   5.759   1.525  0.7300 -0.4709 -0.0877
 6494TIP3    H119446   3.270   5.807   1.519  0.4671 -0.5546  2.2218
 6494TIP3    H219447   3.341   5.684   1.466 -0.8025 -0.4241  0.1246
 6495TIP3   OH219448   2.890   5.066   4.267 -0.0894  0.3351 -0.3522
 6495TIP3    H119449   2.918   5.118   4.192  1.5759 -1.7443 -1.2936
 6495TIP3    H219450   2.796   5.055   4.255 -0.1444  1.4924 -1.1474
 6496TIP3   OH219451   5.302   5.687   2.024  0.2488 -0.1072  0.0918
 6496TIP3    H119452   5.364   5.614   2.016 -0.2988 -0.5956  0.2717
 6496TIP3    H219453   5.340   5.743   2.092  1.8919  1.0143 -1.6202
 6497TIP3   OH219454   6.983   5.117   5.729  0.2944 -0.1027 -0.1772
 6497TIP3    H119455   6.951   5.152   5.812  0.4403  1.3450 -0.6935
 6497TIP3    H219456   7.051   5.179   5.701  3.7742 -3.1010  0.9267
 6498TIP3   OH219457   2.161   1.634   1.193 -0.2796 -0.7510  0.4486
 6498TIP3    H119458   2.107   1.650   1.115  1.5728  1.2846 -0.5028
 6498TIP3    H219459   2.099   1.642   1.266 -1.5574 -0.0459 -0.6587
 6499TIP3   OH219460   0.609   6.302   2.616  0.1605  0.1193 -0.1702
 6499TIP3    H119461   0.675   6.241   2.582 -0.7760  0.1876 -2.2711
 6499TIP3    H219462   0.648   6.389   2.606  0.0945  0.1035 -0.5478
 6500TIP3   OH219463   1.404   2.542   3.988  0.0894 -0.3425  0.1197
 6500TIP3    H119464   1.420   2.468   4.047 -2.2089 -0.8652  0.1733
 6500TIP3    H219465   1.352   2.603   4.040  2.0371  1.4490  0.1118
 6501TIP3   OH219466   4.375   4.112   0.410  0.1145  0.1664 -0.2161
 6501TIP3    H119467   4.441   4.043   0.416  1.2079  1.2458  0.4022
 6501TIP3    H219468   4.424   4.191   0.386 -0.7788  1.2027  1.2295
 6502TIP3   OH219469   6.816   6.556   1.615 -0.3237  0.5527  0.9132
 6502TIP3    H119470   6.733   6.575   1.570  0.5985  1.6640 -0.4112
 6502TIP3    H219471   6.800   6.475   1.662 -1.8928  0.2605 -0.0633
 6503TIP3   OH219472   0.391   2.340   1.784 -0.0887 -0.2453 -0.1399
 6503TIP3    H119473   0.425   2.425   1.756 -0.9312  0.3426  0.5749
 6503TIP3    H219474   0.437   2.321   1.866  1.7437 -1.5655 -1.3684
 6504TIP3   OH219475   2.001   5.008   0.927  0.0364  0.1487 -0.1336
 6504TIP3    H119476   1.935   5.076   0.919 -0.2521  0.2423  2.2260
 6504TIP3    H219477   1.976   4.941   0.864 -0.1480  1.8169 -1.9034
 6505TIP3   OH219478   6.888   5.938   4.910 -0.1605 -0.0846 -0.6002
 6505TIP3    H119479   6.944   5.882   4.963 -0.0853  0.7242  0.2094
 6505TIP3    H219480   6.945   6.011   4.885 -0.8472  0.7744  0.2767
 6506TIP3   OH219481   2.810   6.504   1.924  0.0765 -0.5131 -0.1015
 6506TIP3    H119482   2.716   6.490   1.912  0.0583  1.3809 -3.0494
 6506TIP3    H219483   2.819   6.598   1.936  1.6833 -0.3838 -1.8060
 6507TIP3   OH219484   4.735   0.775   5.743  0.7828  0.6177  0.5668
 6507TIP3    H119485   4.722   0.870   5.748  2.8918  1.0002 -0.0530
 6507TIP3    H219486   4.789   0.755   5.819  1.6770  0.2020 -0.1664
 6508TIP3   OH219487   6.899   5.660   5.432 -0.1171 -0.6469 -0.1085
 6508TIP3    H119488   6.986   5.699   5.435 -0.0894 -0.5150 -1.8925
 6508TIP3    H219489   6.841   5.729   5.465  0.4648 -0.8915  1.5164
 6509TIP3   OH219490   1.118   6.462   2.373 -0.1229 -0.2894 -0.4693
 6509TIP3    H119491   1.197   6.446   2.322 -0.3285  0.0198 -0.8843
 6509TIP3    H219492   1.096   6.553   2.356 -0.2160 -0.1893  0.1435
 6510TIP3   OH219493   0.193   0.665   3.896 -0.8369 -0.1463  0.7042
 6510TIP3    H119494   0.121   0.644   3.955 -0.9974 -0.2609  0.4663
 6510TIP3    H219495   0.271   0.662   3.952 -0.6473 -2.8507  0.4266
 6511TIP3   OH219496   4.432   0.386   4.098 -0.6425 -0.3160  0.0382
 6511TIP3    H119497   4.366   0.456   4.103 -1.2294 -0.8673  0.1266
 6511TIP3    H219498   4.462   0.375   4.188  0.4340  0.7227 -0.1560
 6512TIP3   OH219499   0.038   6.617   3.307 -0.0789  0.0329 -0.3164
 6512TIP3    H119500  -0.040   6.625   3.253 -0.9789  1.8738  1.1310
 6512TIP3    H219501   0.007   6.631   3.397  1.6953 -0.6715  0.4672
 6513TIP3   OH219502   0.994   6.023   4.389  0.2576  0.1391  0.4174
 6513TIP3    H119503   0.967   5.932   4.382 -2.6560  1.0420 -1.6937
 6513TIP3    H219504   1.074   6.029   4.336  0.6347 -1.1921  0.7962
 6514TIP3   OH219505   5.484   5.495   4.726  0.6303  0.5456 -0.0837
 6514TIP3    H119506   5.531   5.423   4.683  0.4278  0.7299 -0.6126
 6514TIP3    H219507   5.418   5.523   4.663 -1.1157 -0.5951  1.1436
 6515TIP3   OH219508   3.699   0.244   3.352 -0.1057 -0.3568  0.3003
 6515TIP3    H119509   3.713   0.162   3.398  1.6471 -1.3589 -1.8547
 6515TIP3    H219510   3.632   0.225   3.286 -0.7517  0.3771  0.7145
 6516TIP3   OH219511   0.225   4.323   0.635  0.0163 -0.5520 -0.7439
 6516TIP3    H119512   0.274   4.268   0.574 -0.5928 -1.5778 -0.3371
 6516TIP3    H219513   0.179   4.387   0.579  1.0456 -0.1894 -1.1880
 6517TIP3   OH219514   3.190   4.130   1.279  0.0845 -0.1262 -0.1853
 6517TIP3    H119515   3.229   4.202   1.328 -0.4575 -0.0415  0.1285
 6517TIP3    H219516   3.096   4.138   1.294  0.0415 -1.1378  0.1754
 6518TIP3   OH219517   0.960   0.529   3.524 -0.0691 -0.1826 -0.4970
 6518TIP3    H119518   0.968   0.577   3.442 -0.6306  0.5339 -0.1405
 6518TIP3    H219519   0.881   0.563   3.564  0.2366 -0.4818  0.3790
 6519TIP3   OH219520   6.221   6.310   0.716  0.2307 -0.0317 -0.2775
 6519TIP3    H119521   6.154   6.258   0.761  0.7531  0.1730  0.7636
 6519TIP3    H219522   6.190   6.400   0.724  0.1124 -0.0313 -0.7150
 6520TIP3   OH219523   6.690   6.185   3.235  0.2279  0.0603  0.2493
 6520TIP3    H119524   6.735   6.104   3.211 -0.5399 -0.0542 -0.9081
 6520TIP3    H219525   6.740   6.254   3.194 -1.0586 -0.1326 -1.7945
 6521TIP3   OH219526   6.582   2.747   2.075 -0.5718 -0.4482  0.0090
 6521TIP3    H119527   6.671   2.730   2.045 -0.4637 -0.1969  0.1861
 6521TIP3    H219528   6.574   2.699   2.157 -0.1148  0.6908  0.7491
 6522TIP3   OH219529   1.116   6.461   1.780  0.2917  0.1806  0.3082
 6522TIP3    H119530   1.043   6.455   1.718  0.0292 -0.7020  0.6990
 6522TIP3    H219531   1.088   6.527   1.843 -0.2244 -0.2347  0.5226
 6523TIP3   OH219532   5.343   0.677   2.492 -0.0897  0.2405 -0.1992
 6523TIP3    H119533   5.340   0.772   2.501  1.8592  0.5898 -2.2022
 6523TIP3    H219534   5.432   0.653   2.520 -0.3667 -0.9040 -0.2591
 6524TIP3   OH219535   0.708   1.676   3.738 -0.3637  0.0641  0.2860
 6524TIP3    H119536   0.621   1.671   3.698 -1.1013 -0.9110  1.9131
 6524TIP3    H219537   0.768   1.689   3.664 -1.9323  1.5708 -0.8191
 6525TIP3   OH219538   5.112   0.417   0.578  0.1839 -0.2079 -0.2966
 6525TIP3    H119539   5.138   0.418   0.670 -1.5711 -1.4158  0.2679
 6525TIP3    H219540   5.052   0.491   0.569  1.4944  0.8249 -0.8802
 6526TIP3   OH219541   0.874   4.465   1.424  0.2052  0.7150 -0.2070
 6526TIP3    H119542   0.836   4.379   1.445 -2.0831  1.0586 -2.3964
 6526TIP3    H219543   0.968   4.449   1.420 -0.0871 -1.5445  0.1211
 6527TIP3   OH219544   6.487   5.518   5.155  0.1079 -0.5272 -0.0271
 6527TIP3    H119545   6.432   5.455   5.202 -0.6701  1.1978  1.5011
 6527TIP3    H219546   6.577   5.486   5.169 -0.0930 -0.1946  2.5977
 6528TIP3   OH219547   3.726   2.298   5.835 -0.1235  0.8660  0.0104
 6528TIP3    H119548   3.784   2.355   5.885 -0.7196  0.7149  0.9125
 6528TIP3    H219549   3.649   2.351   5.817 -0.1815  0.7178 -0.1820
 6529TIP3   OH219550   0.833   5.095   2.135  0.6448  0.1148 -0.1610
 6529TIP3    H119551   0.871   5.016   2.174  1.5993  0.8760  0.4816
 6529TIP3    H219552   0.802   5.147   2.209 -0.4282  0.1406 -0.6064
 6530TIP3   OH219553   0.495   1.775   1.058  0.2971 -0.1205 -0.5204
 6530TIP3    H119554   0.556   1.759   0.986  0.3110 -2.3128 -0.0715
 6530TIP3    H219555   0.413   1.799   1.014  0.4872 -0.7816 -1.2576
 6531TIP3   OH219556   4.929   3.884   1.447  0.5862 -0.1098 -0.3364
 6531TIP3    H119557   4.856   3.842   1.401  0.3473 -0.5696  0.4315
 6531TIP3    H219558   4.901   3.885   1.539  0.7728  1.3668 -0.2762
 6532TIP3   OH219559   6.950   2.975   2.020  0.1422  0.0796  0.5076
 6532TIP3    H119560   7.042   2.975   1.995  0.0970  0.6573  0.3443
 6532TIP3    H219561   6.902   2.961   1.938  0.0976 -0.7193  0.6605
 6533TIP3   OH219562   4.048   5.485   2.937  0.3476  0.2561 -0.0538
 6533TIP3    H119563   4.140   5.481   2.913  0.2444  0.8255 -0.6024
 6533TIP3    H219564   4.047   5.491   3.032  0.8676  0.0997 -0.0376
 6534TIP3   OH219565   0.966   4.012  -0.003  0.6302 -0.3633  0.2081
 6534TIP3    H119566   0.896   3.946  -0.003  1.0002 -0.8043  1.9268
 6534TIP3    H219567   0.921   4.094   0.018  0.6014 -0.6512  1.3425
 6535TIP3   OH219568   5.129   1.904   5.770 -0.5089 -0.7789  0.4165
 6535TIP3    H119569   5.091   1.974   5.717 -0.1985 -1.5249 -0.8422
 6535TIP3    H219570   5.198   1.946   5.821 -1.0633  0.0281  0.5207
 6536TIP3   OH219571   0.549   6.056   1.545  0.4649  0.3342  0.5167
 6536TIP3    H119572   0.596   6.039   1.463  0.5903 -2.3338  1.0414
 6536TIP3    H219573   0.459   6.031   1.526  0.7054 -1.4498  1.4217
 6537TIP3   OH219574   5.694   6.476   1.474  0.7666  0.1235  0.0349
 6537TIP3    H119575   5.721   6.444   1.560  0.1135  0.3463  0.3293
 6537TIP3    H219576   5.654   6.399   1.432 -1.8047  0.7361  1.1608
 6538TIP3   OH219577   5.216   4.951   0.048 -0.3960 -0.3868 -0.3354
 6538TIP3    H119578   5.249   5.029   0.091 -2.3621  1.1659 -1.4732
 6538TIP3    H219579   5.284   4.885   0.062  0.2699  0.7876  2.7192
 6539TIP3   OH219580   5.880   5.142   3.660 -0.4122  0.1472  0.0848
 6539TIP3    H119581   5.811   5.187   3.612 -0.2075  0.6128  0.2185
 6539TIP3    H219582   5.907   5.204   3.727 -0.4878 -0.3836  0.6169
 6540TIP3   OH219583   1.690   2.878   2.984 -0.2966  0.0440 -0.8127
 6540TIP3    H119584   1.741   2.944   3.032 -1.1610  1.2025 -1.4403
 6540TIP3    H219585   1.599   2.895   3.008 -0.4374 -2.2102  0.5511
 6541TIP3   OH219586   1.453   3.837   2.955 -0.1642 -0.7246 -0.0241
 6541TIP3    H119587   1.382   3.806   2.899  0.4023 -2.1951  0.0261
 6541TIP3    H219588   1.409   3.885   3.025 -0.9827 -0.1882 -0.8825
 6542TIP3   OH219589   1.118   2.035   2.278 -0.0274  0.3471  0.1483
 6542TIP3    H119590   1.070   2.014   2.197  2.2266 -0.3012 -1.1201
 6542TIP3    H219591   1.142   1.950   2.314 -0.5558  0.6460  1.2498
 6543TIP3   OH219592   6.423   2.691   1.608  0.3415 -0.7578 -0.3791
 6543TIP3    H119593   6.333   2.657   1.605 -0.6044  1.5981 -1.0412
 6543TIP3    H219594   6.436   2.714   1.700  0.4893 -1.5718 -0.1848
 6544TIP3   OH219595   6.278   3.155   3.649 -0.4022  0.2022 -0.1741
 6544TIP3    H119596   6.334   3.079   3.663 -1.5496 -0.8302 -1.0115
 6544TIP3    H219597   6.295   3.211   3.725  0.1364 -1.0775  0.6890
 6545TIP3   OH219598   3.281   3.931   1.438  0.9209  0.0411  0.3135
 6545TIP3    H119599   3.226   4.003   1.469  0.1514 -0.0088 -0.8580
 6545TIP3    H219600   3.325   3.967   1.360 -2.1724 -1.7088 -2.4958
 6546TIP3   OH219601   4.300   0.938   3.510 -0.0027 -0.2762 -0.2394
 6546TIP3    H119602   4.220   0.940   3.562 -0.2453  0.9614 -0.6324
 6546TIP3    H219603   4.296   0.856   3.462 -0.4982 -0.7374  0.5641
 6547TIP3   OH219604   5.403   1.624   4.776  0.3566 -0.1309 -0.2580
 6547TIP3    H119605   5.361   1.688   4.719  1.1651  0.7515  0.1187
 6547TIP3    H219606   5.347   1.546   4.769 -3.3217  1.8875  2.6709
 6548TIP3   OH219607   3.190   6.310   0.928 -0.7638 -0.2784 -0.0224
 6548TIP3    H119608   3.239   6.353   0.998 -0.0588  2.1438 -1.8553
 6548TIP3    H219609   3.254   6.296   0.858 -2.1187  0.7281 -1.5465
 6549TIP3   OH219610   1.923   1.152   3.779 -0.2342  0.4901 -0.8298
 6549TIP3    H119611   1.967   1.138   3.695  2.9358  1.7345  0.4806
 6549TIP3    H219612   1.902   1.245   3.781 -0.4004  0.4483 -0.2911
 6550TIP3   OH219613   3.763   0.495   4.160  0.0557  0.7652  0.6946
 6550TIP3    H119614   3.720   0.538   4.086  0.1034  0.4045  0.4516
 6550TIP3    H219615   3.691   0.470   4.219 -0.3621 -1.9099 -0.7903
 6551TIP3   OH219616   6.604   3.484   4.954  0.4883  0.5367  0.2674
 6551TIP3    H119617   6.679   3.452   4.903  0.4003  0.4773  0.1768
 6551TIP3    H219618   6.540   3.510   4.888 -0.4074 -1.3442  0.3446
 6552TIP3   OH219619   5.155   5.918   3.039  0.0255 -0.1986 -0.1853
 6552TIP3    H119620   5.179   5.841   3.089 -0.4821 -0.0083  0.3562
 6552TIP3    H219621   5.217   5.920   2.966  1.3532  0.0277  0.9173
 6553TIP3   OH219622   4.186   4.987   4.160  0.0292  0.3553 -0.3118
 6553TIP3    H119623   4.148   5.017   4.242 -1.4627 -0.6653 -0.5946
 6553TIP3    H219624   4.213   4.897   4.176 -1.6064 -0.3590 -1.3030
 6554TIP3   OH219625   3.730   0.651   3.191 -0.3130  0.4396  0.2661
 6554TIP3    H119626   3.797   0.719   3.194  1.8877 -1.5272 -0.9582
 6554TIP3    H219627   3.670   0.679   3.122  0.2830  1.3689  0.1165
 6555TIP3   OH219628   3.462   6.521   1.411  0.3288  0.2630  0.2953
 6555TIP3    H119629   3.529   6.583   1.441 -0.7876  1.0040  1.3210
 6555TIP3    H219630   3.429   6.481   1.491 -0.2902 -0.2718 -0.2193
 6556TIP3   OH219631   2.888   0.020   3.463 -0.0216  0.0400  0.3189
 6556TIP3    H119632   2.875   0.043   3.371 -0.4240 -0.3999  0.2594
 6556TIP3    H219633   2.806  -0.023   3.488  1.1028 -2.3392  0.1120
 6557TIP3   OH219634   3.465   4.601   1.009 -0.3506  0.1447  0.2314
 6557TIP3    H119635   3.388   4.580   1.061 -0.2938 -0.3088  0.1381
 6557TIP3    H219636   3.447   4.687   0.971 -0.2468  0.6487  1.2833
 6558TIP3   OH219637   1.631   3.796   3.215  0.3917 -0.2817 -0.2431
 6558TIP3    H119638   1.554   3.838   3.252 -0.1014 -0.3167 -1.1801
 6558TIP3    H219639   1.595   3.731   3.154  1.0270  2.4514 -3.8936
 6559TIP3   OH219640   4.794   5.856   5.154 -0.1718 -0.0552 -0.0701
 6559TIP3    H119641   4.716   5.892   5.112  0.4401  0.7281 -0.5617
 6559TIP3    H219642   4.860   5.925   5.146  0.6652 -0.8162  0.0766
 6560TIP3   OH219643   1.844   0.105   4.474 -0.5553 -0.7880 -0.1095
 6560TIP3    H119644   1.783   0.155   4.528 -0.4285 -1.3293  0.5412
 6560TIP3    H219645   1.789   0.046   4.423 -0.5976 -1.1093  0.3034
 6561TIP3   OH219646   4.331   2.200   3.950 -0.0946 -0.3773  0.2506
 6561TIP3    H119647   4.279   2.204   4.031 -0.5331  1.0238 -0.0706
 6561TIP3    H219648   4.420   2.219   3.978 -0.1115 -0.6805  0.5134
 6562TIP3   OH219649   1.446   3.312   2.346 -0.2806  0.3858 -0.5609
 6562TIP3    H119650   1.402   3.255   2.409  0.6813  0.5188  0.2725
 6562TIP3    H219651   1.426   3.401   2.377  0.1981  0.4511 -0.4202
 6563TIP3   OH219652   6.287   5.471   4.077  0.0675  0.2643 -0.0326
 6563TIP3    H119653   6.262   5.425   4.157  0.8413  0.1795  0.1700
 6563TIP3    H219654   6.213   5.458   4.017  0.0434 -0.7837  0.2107
 6564TIP3   OH219655   4.424   2.125   0.976  0.1362 -0.5454 -0.0703
 6564TIP3    H119656   4.461   2.045   0.939  0.7096 -1.0215  1.4521
 6564TIP3    H219657   4.457   2.195   0.920  0.2549 -1.2953 -0.9663
 6565TIP3   OH219658   0.934   4.293   1.089  0.5703 -0.4905  0.0598
 6565TIP3    H119659   1.027   4.300   1.109  0.6692  1.7287 -0.9487
 6565TIP3    H219660   0.930   4.252   1.003  0.8367  1.9936 -1.2238
 6566TIP3   OH219661   5.198   1.458   4.753 -0.3170  0.1106  0.4018
 6566TIP3    H119662   5.210   1.418   4.839  0.0065  0.3815  0.4871
 6566TIP3    H219663   5.120   1.416   4.717  0.2532 -0.8997  0.3064
 6567TIP3   OH219664   4.969   6.648   3.637 -0.6803  0.0409 -0.0904
 6567TIP3    H119665   4.914   6.574   3.661 -0.7045 -0.2815 -1.1068
 6567TIP3    H219666   5.044   6.643   3.696 -1.8626  0.6919  1.5691
 6568TIP3   OH219667   6.332   6.704   5.409 -0.0356 -0.5528 -0.4483
 6568TIP3    H119668   6.365   6.635   5.351  0.2587 -1.4380  0.7266
 6568TIP3    H219669   6.348   6.785   5.361  1.7441 -1.1285 -0.9201
 6569TIP3   OH219670   3.693   1.102   3.722  0.4504 -0.0295  0.6739
 6569TIP3    H119671   3.652   1.017   3.738 -0.4190 -0.9799 -4.5821
 6569TIP3    H219672   3.620   1.161   3.706  0.8656 -0.1452 -2.3610
 6570TIP3   OH219673   0.541   3.017   0.275 -0.5558 -0.7247 -0.0531
 6570TIP3    H119674   0.476   2.995   0.209  0.3359 -0.5904 -1.0176
 6570TIP3    H219675   0.544   3.113   0.275 -0.7992 -0.7175  0.4316
 6571TIP3   OH219676   6.041   0.521   0.219 -0.1072 -0.2752 -0.0257
 6571TIP3    H119677   6.062   0.585   0.288 -0.5705 -0.2179  0.0704
 6571TIP3    H219678   5.982   0.569   0.160  0.0777 -0.4072 -0.3162
 6572TIP3   OH219679   2.671   1.991   4.523 -0.0232 -0.6012  0.5910
 6572TIP3    H119680   2.765   1.984   4.510  0.0986 -2.5408  2.0736
 6572TIP3    H219681   2.661   2.061   4.589  0.3040  0.0602 -0.0512
 6573TIP3   OH219682   0.369   4.114   2.240  0.3223 -0.1849  0.2240
 6573TIP3    H119683   0.420   4.165   2.177 -0.4627  0.5046  0.1370
 6573TIP3    H219684   0.304   4.068   2.186 -0.5366  0.6252  0.5300
 6574TIP3   OH219685   4.128   0.549   3.162 -0.4044 -0.2285 -0.5604
 6574TIP3    H119686   4.078   0.473   3.191  0.1476 -1.0182 -1.5934
 6574TIP3    H219687   4.099   0.563   3.071 -0.5712  0.8642 -0.3480
 6575TIP3   OH219688   5.110   5.185   4.131  0.4584  0.0645 -0.1075
 6575TIP3    H119689   5.136   5.121   4.196  1.9883  0.2817 -0.4635
 6575TIP3    H219690   5.067   5.255   4.181 -0.3400 -0.7601  0.3889
 6576TIP3   OH219691   4.905   2.667   4.933 -0.3642 -0.2568  0.0014
 6576TIP3    H119692   4.993   2.666   4.897 -0.6029 -0.4860 -0.5918
 6576TIP3    H219693   4.917   2.670   5.028  0.2769 -0.2524 -0.0813
 6577TIP3   OH219694   3.581   3.215   2.604  0.1158 -0.0950  0.0717
 6577TIP3    H119695   3.515   3.214   2.673 -0.4562 -0.8150 -0.4643
 6577TIP3    H219696   3.664   3.221   2.650 -0.1881 -1.7607  0.8875
 6578TIP3   OH219697   6.018   4.420   5.070 -0.4817 -0.8710  0.0698
 6578TIP3    H119698   6.037   4.482   5.000 -2.1956  2.4175  2.2392
 6578TIP3    H219699   5.969   4.350   5.027  1.2861 -0.6826 -2.4736
 6579TIP3   OH219700   3.464   0.415   3.090 -0.3551  0.3937 -0.1700
 6579TIP3    H119701   3.418   0.365   3.158  0.4279 -1.3437 -0.8527
 6579TIP3    H219702   3.400   0.424   3.020 -0.2248 -0.4522 -0.4030
 6580TIP3   OH219703   7.187   5.916   0.655  0.4500 -0.2980 -0.4058
 6580TIP3    H119704   7.262   5.969   0.682  0.2141 -0.2420  0.1451
 6580TIP3    H219705   7.137   5.973   0.597 -0.1939  0.3598  0.7552
 6581TIP3   OH219706   4.553   3.233   2.179 -0.5725 -0.1985  0.1466
 6581TIP3    H119707   4.553   3.211   2.086 -2.1709  0.8364 -0.1416
 6581TIP3    H219708   4.613   3.307   2.187 -1.2672  0.4167 -0.2663
 6582TIP3   OH219709   3.389   2.607   1.080  0.6346  0.3545  0.0659
 6582TIP3    H119710   3.381   2.698   1.051 -2.1191  0.7323  1.6628
 6582TIP3    H219711   3.410   2.559   1.000  1.9097  2.3115 -0.8668
 6583TIP3   OH219712   0.272   4.854   4.392  0.1349 -0.1209 -0.5823
 6583TIP3    H119713   0.282   4.947   4.416  0.6338 -0.6663  1.5952
 6583TIP3    H219714   0.204   4.822   4.451 -0.3722 -1.0510 -1.6480
 6584TIP3   OH219715   6.407   1.202   3.093  0.1312 -0.1453  0.2589
 6584TIP3    H119716   6.475   1.267   3.112  0.3486 -0.8166  1.9786
 6584TIP3    H219717   6.401   1.201   2.997 -0.1319  2.6364  0.1584
 6585TIP3   OH219718   0.252   2.185   2.519 -0.1450  0.7124  0.2407
 6585TIP3    H119719   0.201   2.219   2.445  1.6151  1.4148 -0.7130
 6585TIP3    H219720   0.191   2.128   2.566 -1.4776  0.6549 -1.4487
 6586TIP3   OH219721   0.845   4.936   5.263 -0.3546  0.3145  0.7533
 6586TIP3    H119722   0.779   4.936   5.194  1.3954  0.3526 -1.0145
 6586TIP3    H219723   0.815   4.869   5.325 -2.7339  1.3141  0.7831
 6587TIP3   OH219724   5.410   5.384   4.954  0.8292  0.1441  0.3471
 6587TIP3    H119725   5.334   5.436   4.981  0.1673 -0.3902 -0.4226
 6587TIP3    H219726   5.434   5.419   4.869  0.0874 -1.0596 -0.3974
 6588TIP3   OH219727   0.434   3.424   3.351 -0.6095  0.0345 -0.2321
 6588TIP3    H119728   0.526   3.403   3.336 -0.3344  0.6494  0.5575
 6588TIP3    H219729   0.402   3.354   3.408 -0.2843  0.5078  0.5475
 6589TIP3   OH219730   3.560   5.686  -0.007 -0.0004 -0.1094 -0.0213
 6589TIP3    H119731   3.530   5.596  -0.018  1.7854 -0.9009  1.1426
 6589TIP3    H219732   3.495   5.725   0.052 -0.0996 -1.0385  0.5041
 6590TIP3   OH219733   0.920   0.954   4.372 -0.0528 -0.2230  0.0463
 6590TIP3    H119734   0.976   0.966   4.449 -0.7331 -1.5115  0.7751
 6590TIP3    H219735   0.850   1.019   4.382  0.7234  0.6852 -0.3272
 6591TIP3   OH219736   0.463   3.514   4.087  0.1579 -0.1035  0.2158
 6591TIP3    H119737   0.435   3.435   4.132  0.1403 -1.0910 -1.4373
 6591TIP3    H219738   0.450   3.494   3.994  4.6668 -0.0680 -0.6554
 6592TIP3   OH219739   0.484   1.912   4.449  0.2615  0.4596 -0.7462
 6592TIP3    H119740   0.389   1.907   4.461  0.5146 -0.9209  1.2894
 6592TIP3    H219741   0.502   2.006   4.439 -1.2167  0.8727  0.0748
 6593TIP3   OH219742   5.084   4.494   5.515  0.5143 -0.2016  0.0781
 6593TIP3    H119743   5.030   4.442   5.456  2.0646 -2.1046  0.2335
 6593TIP3    H219744   5.172   4.488   5.478  0.9255  1.5510  0.6680
 6594TIP3   OH219745   2.123   4.383   0.142  0.2711  0.1630 -0.2573
 6594TIP3    H119746   2.053   4.394   0.206 -0.7261 -0.3323 -1.2234
 6594TIP3    H219747   2.182   4.319   0.182 -1.0776 -1.2314 -0.3956
 6595TIP3   OH219748   5.287   1.941   0.682 -0.6036  0.2860 -0.2866
 6595TIP3    H119749   5.214   1.986   0.640 -1.9348 -0.7453  0.7923
 6595TIP3    H219750   5.301   1.990   0.763  1.1082  1.5172 -1.2751
 6596TIP3   OH219751   3.789   5.612   4.530 -0.0554 -0.1099 -0.2058
 6596TIP3    H119752   3.782   5.546   4.461  0.9040  0.3744 -0.7840
 6596TIP3    H219753   3.790   5.562   4.611  0.2256 -0.7771 -0.6169
 6597TIP3   OH219754   4.195   2.967   2.050 -0.1546 -0.2178 -0.3109
 6597TIP3    H119755   4.193   3.015   1.966 -1.4932  2.1358  0.9437
 6597TIP3    H219756   4.114   2.917   2.050  0.3560 -1.0691 -0.8374
 6598TIP3   OH219757   4.013   3.090   5.237 -0.4431  0.3802 -0.5437
 6598TIP3    H119758   4.043   3.073   5.326 -0.9390  2.4708  0.0699
 6598TIP3    H219759   4.085   3.059   5.182  1.0645  1.4622  0.7149
 6599TIP3   OH219760   4.014   0.934   3.812  0.5820 -0.3040  0.0799
 6599TIP3    H119761   4.005   1.028   3.795  0.1421 -0.3263  0.1630
 6599TIP3    H219762   4.018   0.894   3.725 -2.0562 -0.4556 -0.0579
 6600TIP3   OH219763   0.833   2.391   3.973  0.2319 -0.4891  0.4684
 6600TIP3    H119764   0.818   2.483   3.995  0.3071 -0.0998 -1.0102
 6600TIP3    H219765   0.766   2.344   4.023 -0.2644  0.4375  0.7040
 6601TIP3   OH219766   2.613   4.612   0.326 -0.0137 -0.7190  0.1934
 6601TIP3    H119767   2.696   4.632   0.369 -0.3517  0.5702  0.2838
 6601TIP3    H219768   2.563   4.562   0.391 -0.0305  0.1284  0.8483
 6602TIP3   OH219769   1.340   3.172   2.543 -0.3417  0.0386  0.1092
 6602TIP3    H119770   1.409   3.132   2.595 -0.4538 -0.6375 -0.2491
 6602TIP3    H219771   1.264   3.173   2.601 -0.8178 -1.8670 -0.4193
 6603TIP3   OH219772   1.662   4.021   5.857  0.0483  0.1464 -0.0769
 6603TIP3    H119773   1.667   4.075   5.936  0.8190  0.9229 -0.6319
 6603TIP3    H219774   1.670   4.084   5.785  2.8642 -0.8267 -0.7466
 6604TIP3   OH219775   3.806   3.108   0.029  0.3185  0.4331 -0.6381
 6604TIP3    H119776   3.734   3.064  -0.015 -0.4813  1.4586 -0.3879
 6604TIP3    H219777   3.873   3.040   0.040 -1.1216 -0.8903  0.3101
 6605TIP3   OH219778   5.725   5.806   0.190 -0.4768 -0.2585  0.4097
 6605TIP3    H119779   5.752   5.748   0.261  1.1075 -1.1872 -0.8765
 6605TIP3    H219780   5.672   5.750   0.133 -0.8382  0.1861  0.3036
 6606TIP3   OH219781   3.315   3.665   2.184 -0.4129  0.2646 -0.0066
 6606TIP3    H119782   3.223   3.656   2.209 -0.5770 -0.0638 -0.7096
 6606TIP3    H219783   3.316   3.654   2.089  0.3175  0.5541 -0.0425
 6607TIP3   OH219784   2.449   0.281   1.108  0.3193 -0.2879 -1.0784
 6607TIP3    H119785   2.504   0.355   1.082 -0.6520  1.9636  2.5657
 6607TIP3    H219786   2.364   0.300   1.069  0.2062  0.2323 -0.5761
 6608TIP3   OH219787   4.904   3.718   3.042  0.2815 -0.0582 -0.4382
 6608TIP3    H119788   4.884   3.666   3.119  1.2301  1.9341  1.2567
 6608TIP3    H219789   4.997   3.701   3.025  0.2736  0.1071 -0.6480
 6609TIP3   OH219790   3.426   4.056   5.462 -0.1697 -0.0792 -0.1059
 6609TIP3    H119791   3.438   3.997   5.536 -0.1692  0.8343  0.6311
 6609TIP3    H219792   3.381   4.132   5.499  2.1706  1.5729 -0.4644
 6610TIP3   OH219793   1.599   0.515   4.971  0.3302 -0.3664  0.0223
 6610TIP3    H119794   1.505   0.501   4.983  0.5093 -0.1660  1.8874
 6610TIP3    H219795   1.606   0.603   4.934 -0.1649  0.1447  1.1161
 6611TIP3   OH219796   5.559   3.224   5.615 -0.3496 -0.6588  0.2845
 6611TIP3    H119797   5.599   3.264   5.538  0.8259 -0.9219  0.7448
 6611TIP3    H219798   5.632   3.186   5.664 -1.0324 -0.2277  1.7033
 6612TIP3   OH219799   4.952   5.894   3.323 -0.3285 -0.1536 -0.2528
 6612TIP3    H119800   4.886   5.843   3.275  1.1064 -0.1874 -2.3147
 6612TIP3    H219801   4.939   5.984   3.294 -0.5170  0.1145  0.6250
 6613TIP3   OH219802   1.997   6.265   5.155  0.6361  0.7033 -0.3765
 6613TIP3    H119803   1.990   6.339   5.095  0.0211  0.2038 -0.9347
 6613TIP3    H219804   1.906   6.242   5.175  0.7338 -1.2692 -1.9290
 6614TIP3   OH219805   4.688   4.852   4.033  0.8095  0.0088  0.5713
 6614TIP3    H119806   4.714   4.773   4.080 -0.8268 -0.6737  0.3961
 6614TIP3    H219807   4.658   4.912   4.101  2.8668  0.8699  0.7930
 6615TIP3   OH219808   1.559   1.758   4.775  0.4354  0.3755  0.0641
 6615TIP3    H119809   1.550   1.779   4.682 -0.9508  2.0728  0.5183
 6615TIP3    H219810   1.651   1.774   4.795  0.8132 -0.2878 -1.0510
 6616TIP3   OH219811   1.746   6.333   2.853 -0.1378 -0.2997 -0.2257
 6616TIP3    H119812   1.783   6.392   2.918 -1.2990 -0.5558  0.7020
 6616TIP3    H219813   1.667   6.297   2.894 -1.0495 -0.2941 -1.8514
 6617TIP3   OH219814   2.068   2.329   5.335 -0.0039  0.3891 -0.1685
 6617TIP3    H119815   2.137   2.325   5.269 -0.8609  2.4380 -1.2777
 6617TIP3    H219816   2.000   2.384   5.296 -1.4594 -0.0152  1.6240
 6618TIP3   OH219817   1.170   4.538   5.576 -0.2065 -0.0049 -0.0479
 6618TIP3    H119818   1.128   4.453   5.584  1.5905 -0.9675 -0.4312
 6618TIP3    H219819   1.139   4.587   5.653 -2.7864 -0.2515 -0.8362
 6619TIP3   OH219820   3.764   0.086   4.494  0.5108 -0.1757 -0.0594
 6619TIP3    H119821   3.811   0.007   4.520 -1.5551 -1.0463  1.3700
 6619TIP3    H219822   3.772   0.144   4.570 -1.7123 -0.8863  0.8150
 6620TIP3   OH219823   1.397   1.325   5.138  0.6526 -0.1570 -0.1933
 6620TIP3    H119824   1.450   1.397   5.103 -1.7939  2.6519  1.4266
 6620TIP3    H219825   1.381   1.268   5.062  2.1680  1.2715 -1.6832
 6621TIP3   OH219826   2.934   2.384   5.529 -0.1655 -0.3138 -0.0333
 6621TIP3    H119827   2.989   2.308   5.547 -1.4390 -1.6461 -1.4008
 6621TIP3    H219828   2.863   2.379   5.593  0.0482  0.0479  0.2330
 6622TIP3   OH219829   4.738   3.074   3.749  0.4781 -0.2160  0.4996
 6622TIP3    H119830   4.691   3.086   3.831 -0.3244 -2.1143  0.3914
 6622TIP3    H219831   4.810   3.015   3.771 -0.0538 -1.1727 -0.2224
 6623TIP3   OH219832   5.621   0.191   5.376 -0.0746  0.0526  0.1011
 6623TIP3    H119833   5.606   0.131   5.449  0.1709  1.0531  0.9999
 6623TIP3    H219834   5.587   0.275   5.407  3.7423  1.5542  0.7843
 6624TIP3   OH219835   4.499   5.748   5.079  0.5912 -0.0457 -0.3577
 6624TIP3    H119836   4.523   5.676   5.138 -0.4746  0.4949  0.7747
 6624TIP3    H219837   4.550   5.732   5.000  2.6313 -0.3995  0.9630
 6625TIP3   OH219838   2.656   6.353   4.831 -0.3791  0.0373  0.3582
 6625TIP3    H119839   2.742   6.376   4.867 -1.2442  0.5191  2.2913
 6625TIP3    H219840   2.636   6.267   4.868  0.1653 -1.0921 -1.8432
 6626TIP3   OH219841   4.085   1.227   1.403 -0.5918 -0.2481  0.0002
 6626TIP3    H119842   4.175   1.195   1.406 -0.2335  0.7730  0.6907
 6626TIP3    H219843   4.038   1.163   1.349  0.0980 -1.8753  1.2534
 6627TIP3   OH219844   2.596   3.069   4.495 -0.6335  0.4501 -0.0730
 6627TIP3    H119845   2.523   3.073   4.434 -1.2311  1.1820  0.6707
 6627TIP3    H219846   2.655   3.140   4.467 -0.4390  0.1740 -0.3723
 6628TIP3   OH219847   1.570   5.557   5.566 -0.6943  0.4210  0.0865
 6628TIP3    H119848   1.598   5.590   5.480  0.6304  0.6755  0.5800
 6628TIP3    H219849   1.625   5.605   5.628  0.0853 -1.4895  0.9429
 6629TIP3   OH219850   1.190   4.180   5.055  0.5460 -0.1292  0.3738
 6629TIP3    H119851   1.148   4.094   5.062  2.3295 -0.9517  1.8398
 6629TIP3    H219852   1.267   4.164   5.001 -0.5047  1.2064 -1.6848
 6630TIP3   OH219853   3.622   4.893   2.257  0.2215  0.0441  0.2555
 6630TIP3    H119854   3.618   4.953   2.333 -0.5849  0.8030 -0.3611
 6630TIP3    H219855   3.613   4.951   2.181  2.6795 -0.5040 -0.5443
 6631TIP3   OH219856   3.850   3.944   2.041  0.1862 -0.1483  1.2012
 6631TIP3    H119857   3.905   3.867   2.061  1.1494 -0.0748 -0.8389
 6631TIP3    H219858   3.797   3.916   1.967 -2.3886 -0.0880  2.9070
 6632TIP3   OH219859   2.635   6.101   5.369  0.4717  0.0844 -0.0484
 6632TIP3    H119860   2.607   6.175   5.316  1.2654 -0.0420 -0.6570
 6632TIP3    H219861   2.555   6.052   5.387 -0.5222  2.3255  2.3777
 6633TIP3   OH219862   5.973   0.075   3.095 -0.4154 -0.3910  0.2755
 6633TIP3    H119863   5.879   0.090   3.085 -0.1686  1.7920  0.6637
 6633TIP3    H219864   5.987  -0.013   3.062 -3.1819 -2.4250  3.7933
 6634TIP3   OH219865   2.389   1.400   3.963 -0.2931 -0.0614  0.5312
 6634TIP3    H119866   2.353   1.378   4.049  1.0380 -1.4398  0.7862
 6634TIP3    H219867   2.315   1.388   3.903 -0.7682 -0.9223  1.2556
 6635TIP3   OH219868   4.144   6.371   2.571 -0.1388  0.2692  0.4099
 6635TIP3    H119869   4.206   6.337   2.507  0.8068  2.5451  0.0138
 6635TIP3    H219870   4.198   6.412   2.639 -1.1676  0.6185  1.0569
 6636TIP3   OH219871   6.785   0.881   4.209  0.1545 -0.4472 -0.0446
 6636TIP3    H119872   6.702   0.905   4.167 -0.1091 -1.0298  0.1385
 6636TIP3    H219873   6.849   0.887   4.138  0.0655  0.5544 -0.0633
 6637TIP3   OH219874   1.932   1.633   2.611  0.2515  0.5570 -0.3594
 6637TIP3    H119875   1.849   1.675   2.590 -0.3932  0.7260  2.1867
 6637TIP3    H219876   1.998   1.689   2.570 -0.8230 -0.4854 -3.8612
 6638TIP3   OH219877   0.512   0.831   3.907 -0.3099  0.0539  0.1512
 6638TIP3    H119878   0.460   0.804   3.831  0.1164 -0.9694  0.2107
 6638TIP3    H219879   0.481   0.920   3.926 -2.5630 -0.7580  0.6386
 6639TIP3   OH219880   3.277   5.472   0.263  0.0702  0.1054  0.3261
 6639TIP3    H119881   3.232   5.431   0.337  1.2697  0.7444  1.4572
 6639TIP3    H219882   3.262   5.566   0.275  0.1660  0.2063 -0.3183
 6640TIP3   OH219883   1.872   0.910   3.535 -0.3039 -0.4884  0.8914
 6640TIP3    H119884   1.928   0.981   3.566 -1.4484  0.9300 -0.1226
 6640TIP3    H219885   1.930   0.852   3.488  0.4530  0.6045  0.4266
 6641TIP3   OH219886   6.904   3.640   1.720  0.0025  0.1052 -0.3817
 6641TIP3    H119887   6.977   3.579   1.705 -0.5658 -0.6840  0.0063
 6641TIP3    H219888   6.825   3.588   1.705 -0.5287  0.2405  1.6737
 6642TIP3   OH219889   3.600   5.908   4.727 -0.1128  0.1957 -0.4417
 6642TIP3    H119890   3.599   5.996   4.765 -2.5654 -0.4187  1.1727
 6642TIP3    H219891   3.612   5.922   4.633  0.4702  2.1598 -0.1220
 6643TIP3   OH219892   2.487   4.601   1.592 -0.4014  0.4513 -0.2446
 6643TIP3    H119893   2.494   4.623   1.685 -2.7276  0.1345  0.0669
 6643TIP3    H219894   2.521   4.678   1.546  1.0289  0.5007  0.8293
 6644TIP3   OH219895   5.230   3.330   2.467  0.1749 -0.4487 -0.6002
 6644TIP3    H119896   5.217   3.310   2.374 -2.4294 -0.2166 -0.3623
 6644TIP3    H219897   5.167   3.275   2.513  0.1534  0.7407  0.8946
 6645TIP3   OH219898   1.618   4.694   4.021 -0.2023  0.0938 -0.1098
 6645TIP3    H119899   1.612   4.600   4.037 -0.9322  0.3163  1.0897
 6645TIP3    H219900   1.557   4.711   3.949  0.5723 -0.4633 -0.9069
 6646TIP3   OH219901   0.288   4.219   1.055 -0.2557 -0.4700  0.4351
 6646TIP3    H119902   0.320   4.171   1.131  1.1426  1.3262  1.0551
 6646TIP3    H219903   0.357   4.282   1.035 -0.0657 -1.5448 -3.0404
 6647TIP3   OH219904   0.309   5.138   1.828  0.3012  0.3629 -0.3278
 6647TIP3    H119905   0.370   5.107   1.761  0.0096  1.1124 -0.9492
 6647TIP3    H219906   0.320   5.076   1.900  0.6480 -0.4272 -1.0458
 6648TIP3   OH219907   4.370   2.299   5.043  0.1234 -0.2438 -0.2650
 6648TIP3    H119908   4.311   2.246   5.096 -1.5268  0.9031 -0.8772
 6648TIP3    H219909   4.453   2.300   5.092 -0.9501 -0.2783  1.6374
 6649TIP3   OH219910   1.251   5.025   0.606 -0.6775 -0.0997  0.1603
 6649TIP3    H119911   1.204   4.987   0.532 -2.9773  3.4631 -0.4518
 6649TIP3    H219912   1.185   5.031   0.675 -0.4031  2.3451  0.2964
 6650TIP3   OH219913   1.904   3.122   2.279 -0.3685 -0.4317  0.6843
 6650TIP3    H119914   1.818   3.162   2.270 -0.6174 -1.0965 -0.1069
 6650TIP3    H219915   1.930   3.101   2.189  0.3817 -0.7250  0.9585
 6651TIP3   OH219916   2.402   1.634   2.375 -0.1685 -0.2433 -0.1770
 6651TIP3    H119917   2.378   1.726   2.360 -1.4379 -0.2699  1.4064
 6651TIP3    H219918   2.325   1.596   2.418 -0.1045 -2.3735 -1.7725
 6652TIP3   OH219919   6.165   2.671   2.364  0.3287 -0.3077 -0.3576
 6652TIP3    H119920   6.219   2.669   2.285 -0.5071  2.3398 -1.1124
 6652TIP3    H219921   6.227   2.670   2.436  1.2502 -0.2349 -1.1348
 6653TIP3   OH219922   0.815   4.573   2.399  0.0562  0.4105  0.3396
 6653TIP3    H119923   0.746   4.599   2.338  0.4245 -0.0532 -0.2861
 6653TIP3    H219924   0.769   4.555   2.481 -0.8374 -1.5789 -0.5251
 6654TIP3   OH219925   4.641   5.176   0.724 -0.2254 -0.5677 -0.0992
 6654TIP3    H119926   4.577   5.247   0.726  0.9036  0.5091 -0.5210
 6654TIP3    H219927   4.596   5.101   0.762 -1.3671  0.4491  0.6190
 6655TIP3   OH219928   3.835   5.824   1.231 -0.4913 -0.0856 -0.3671
 6655TIP3    H119929   3.897   5.774   1.178 -0.1124 -0.4226  0.3799
 6655TIP3    H219930   3.813   5.900   1.177  0.8152  0.2020 -0.5048
 6656TIP3   OH219931   0.693   2.873   4.054 -0.1691 -0.0426 -0.2966
 6656TIP3    H119932   0.644   2.867   4.136 -0.2095 -1.9168 -0.4142
 6656TIP3    H219933   0.626   2.893   3.988 -1.0853 -3.4677 -0.5991
 6657TIP3   OH219934   2.001  -0.022   0.621  0.1742  0.7721  0.2544
 6657TIP3    H119935   1.952   0.053   0.587  1.8592  1.7930 -0.0278
 6657TIP3    H219936   2.061   0.016   0.685  2.0425 -0.0945 -0.8976
 6658TIP3   OH219937   5.499   2.903   3.779  0.1612  0.1934 -0.2416
 6658TIP3    H119938   5.414   2.921   3.819 -0.1657 -1.9198  0.1425
 6658TIP3    H219939   5.479   2.855   3.699  0.9382 -2.7136  1.1428
 6659TIP3   OH219940   4.298   6.636   0.537 -0.6931  0.2548  0.2587
 6659TIP3    H119941   4.267   6.725   0.556  0.0742  0.9008 -1.3383
 6659TIP3    H219942   4.378   6.627   0.588  0.1638  1.1584 -0.8693
 6660TIP3   OH219943   5.436   5.609   3.853 -0.2977 -0.1805 -0.4793
 6660TIP3    H119944   5.379   5.623   3.929  1.9266  0.4064  1.1929
 6660TIP3    H219945   5.468   5.520   3.863  0.8597  0.2600 -0.0606
 6661TIP3   OH219946   5.041   4.906   2.805 -0.1247 -0.4381 -0.5204
 6661TIP3    H119947   5.018   4.930   2.716  0.8357  0.7550 -0.4737
 6661TIP3    H219948   4.957   4.894   2.849 -0.6486  0.8592 -1.1067
 6662TIP3   OH219949   0.467   0.332   0.128 -0.3011  0.3086 -0.2654
 6662TIP3    H119950   0.378   0.300   0.113  0.0307 -0.3741 -0.8134
 6662TIP3    H219951   0.493   0.371   0.045  0.7149 -1.4804 -0.8271
 6663TIP3   OH219952   1.011   6.467   0.238 -0.2945 -0.6349 -0.9068
 6663TIP3    H119953   1.038   6.390   0.289  0.0965 -0.4830 -0.8807
 6663TIP3    H219954   1.072   6.470   0.164 -0.6656 -0.6728 -1.2155
 6664TIP3   OH219955   0.646   4.632   4.184 -0.0508  0.1475 -0.1878
 6664TIP3    H119956   0.604   4.551   4.156 -0.8198  1.0624 -1.7848
 6664TIP3    H219957   0.738   4.620   4.161 -0.4348  0.3326 -1.9001
 6665TIP3   OH219958   2.619   3.560   0.273 -0.1539  0.0901  0.4838
 6665TIP3    H119959   2.573   3.496   0.327  1.7790 -2.4830 -0.7178
 6665TIP3    H219960   2.701   3.577   0.320 -0.3631  1.2321  0.4660
 6666TIP3   OH219961   1.696   1.393   0.031  0.0917  0.0403  0.9756
 6666TIP3    H119962   1.746   1.463  -0.011 -0.8145 -0.5416 -1.2039
 6666TIP3    H219963   1.716   1.315  -0.020 -1.9136 -0.4949  0.9188
 6667TIP3   OH219964   5.471   4.620   2.746  0.1507 -0.0975 -0.4502
 6667TIP3    H119965   5.564   4.610   2.763  1.4247 -0.4717 -5.8788
 6667TIP3    H219966   5.438   4.530   2.743 -0.1138 -0.0252  0.1328
 6668TIP3   OH219967   2.074   4.654   2.361  0.2987  0.3702 -0.2004
 6668TIP3    H119968   2.143   4.698   2.311  1.6167 -0.5693  0.7474
 6668TIP3    H219969   2.015   4.618   2.294  1.2786  0.2990 -1.0495
 6669TIP3   OH219970   4.721   1.983   4.343 -0.2675  0.0138 -0.8894
 6669TIP3    H119971   4.678   1.969   4.258  0.1906 -3.1051 -0.7206
 6669TIP3    H219972   4.649   1.984   4.406 -0.4283 -0.3436 -1.0655
 6670TIP3   OH219973   5.753   3.062   5.380 -0.3311 -0.1576 -0.2054
 6670TIP3    H119974   5.667   3.021   5.381  0.1857 -1.2814 -0.1632
 6670TIP3    H219975   5.755   3.112   5.298 -1.7464  1.5438  0.7354
 6671TIP3   OH219976   4.339   1.117   1.403 -0.4914 -0.7030 -0.2027
 6671TIP3    H119977   4.369   1.145   1.317 -1.4540 -0.7632 -0.5767
 6671TIP3    H219978   4.391   1.039   1.423 -0.4139 -0.8182 -0.8360
 6672TIP3   OH219979   6.728   6.572   0.427  0.1933  0.3175  0.4084
 6672TIP3    H119980   6.725   6.638   0.496  1.3260 -1.2970  2.0970
 6672TIP3    H219981   6.811   6.527   0.441 -1.5023 -2.9757  0.8564
 6673TIP3   OH219982   2.080   4.416   2.744 -0.3012 -0.4884 -0.0994
 6673TIP3    H119983   2.121   4.413   2.657  2.8079  3.1494  0.9976
 6673TIP3    H219984   2.000   4.467   2.731  1.4994  2.4458 -0.5793
 6674TIP3   OH219985   6.224   1.535   1.911 -0.2398  0.6963  0.1038
 6674TIP3    H119986   6.306   1.493   1.887 -0.6443  0.6260 -1.2302
 6674TIP3    H219987   6.219   1.525   2.006  1.1273  0.4254  0.1722
 6675TIP3   OH219988   6.133   6.170   3.418  0.2216  0.1390 -0.2969
 6675TIP3    H119989   6.122   6.246   3.361  1.8881  0.5834 -0.0867
 6675TIP3    H219990   6.224   6.143   3.404  0.1532 -0.7729  0.8933
 6676TIP3   OH219991   2.585   4.164   5.031 -0.0438  0.0125 -0.1446
 6676TIP3    H119992   2.540   4.152   4.947  1.5174 -0.4488 -0.9608
 6676TIP3    H219993   2.554   4.092   5.085  0.0228 -0.5426 -0.8334
 6677TIP3   OH219994   1.222   1.247   2.145  0.3632 -0.6278 -0.1791
 6677TIP3    H119995   1.138   1.288   2.168  0.4909 -0.0403 -0.7495
 6677TIP3    H219996   1.219   1.162   2.190 -0.4651 -0.5481 -0.0520
 6678TIP3   OH219997   6.767   2.980   5.592 -0.3634  0.0539 -0.5202
 6678TIP3    H119998   6.732   2.981   5.681  0.8306 -2.2428  0.0594
 6678TIP3    H219999   6.724   2.906   5.550  0.6362 -0.1995 -1.1439
 6679TIP3   OH220000   2.062   5.186   3.424 -0.4446  0.0582  1.0368
 6679TIP3    H120001   1.980   5.165   3.468  0.5738 -2.0771  2.0803
 6679TIP3    H220002   2.103   5.253   3.479 -0.7952  0.0097  1.3571
 6680TIP3   OH220003   5.557   4.558   1.869  0.0454  0.2484  0.6758
 6680TIP3    H120004   5.597   4.522   1.948 -0.9292  0.0011  1.0699
 6680TIP3    H220005   5.559   4.487   1.806 -1.6703 -0.4755  1.3806
 6681TIP3   OH220006   6.600   0.596   1.816 -0.0135 -0.4373 -0.3515
 6681TIP3    H120007   6.683   0.561   1.848 -0.1970  0.5575  1.3441
 6681TIP3    H220008   6.579   0.542   1.741  0.8540 -2.4397  0.7652
 6682TIP3   OH220009   0.536   2.610   1.736  0.2513 -0.1388 -0.6406
 6682TIP3    H120010   0.460   2.668   1.744 -0.4029 -1.2135  2.0119
 6682TIP3    H220011   0.611   2.664   1.761 -0.2997 -0.2566  1.4049
 6683TIP3   OH220012   1.950   0.193   1.700 -0.2217  0.1631  0.8305
 6683TIP3    H120013   2.024   0.136   1.718  0.3984 -0.4431 -2.7481
 6683TIP3    H220014   1.873   0.136   1.705 -0.1043  0.0735  1.5987
 6684TIP3   OH220015   6.688   2.986   3.128 -0.6872 -0.3149 -0.0803
 6684TIP3    H120016   6.609   3.039   3.140 -0.5199 -0.0402 -0.1897
 6684TIP3    H220017   6.693   2.971   3.034 -2.1722 -2.7344  0.1213
 6685TIP3   OH220018   2.053   0.744   3.852  0.3561 -0.1408  0.2455
 6685TIP3    H120019   1.961   0.766   3.863  0.3781  1.8637 -2.6249
 6685TIP3    H220020   2.093   0.763   3.937 -1.3004  2.2069  0.5722
 6686TIP3   OH220021   0.662   0.381   4.927 -0.0293 -0.3182 -0.1323
 6686TIP3    H120022   0.665   0.407   4.835 -0.7765 -1.6994 -0.5729
 6686TIP3    H220023   0.570   0.392   4.952  0.3058  0.7897  0.6975
 6687TIP3   OH220024   6.630   4.656   1.237  0.7468 -0.3087  0.3053
 6687TIP3    H120025   6.694   4.724   1.216 -0.9361  0.5755 -2.3769
 6687TIP3    H220026   6.546   4.701   1.241 -0.1085 -1.8597  1.0950
 6688TIP3   OH220027   2.280   1.128   0.271  0.1113 -0.0749 -0.3283
 6688TIP3    H120028   2.310   1.147   0.182 -0.4922 -1.7725 -0.9465
 6688TIP3    H220029   2.312   1.039   0.287 -0.0426  0.1021  1.0526
 6689TIP3   OH220030   0.788   5.015   4.468 -0.3057 -0.1941  0.8735
 6689TIP3    H120031   0.726   4.946   4.442  0.5259 -0.4695 -0.4533
 6689TIP3    H220032   0.815   4.990   4.556  0.9788 -2.3672 -0.0372
 6690TIP3   OH220033   2.165   3.157   3.348 -0.1281 -0.6884  0.0526
 6690TIP3    H120034   2.136   3.248   3.338  1.3058  0.0908  2.1442
 6690TIP3    H220035   2.143   3.134   3.438  0.4049 -2.0815 -0.1390
 6691TIP3   OH220036   4.634   1.077   0.193 -0.1635  0.0538 -0.0520
 6691TIP3    H120037   4.577   1.013   0.151  1.0361 -1.9712  1.2558
 6691TIP3    H220038   4.720   1.061   0.155  0.2940  0.4394  0.7989
 6692TIP3   OH220039   1.571   3.713   5.913  0.3465 -0.2869  0.7757
 6692TIP3    H120040   1.567   3.784   5.848 -0.0173 -1.1228 -0.1369
 6692TIP3    H220041   1.657   3.673   5.900  0.0681 -0.7845  0.4474
 6693TIP3   OH220042   4.105   3.076   5.496  0.1546 -0.5011 -0.7352
 6693TIP3    H120043   4.122   3.164   5.528 -0.7215 -0.7854  0.6225
 6693TIP3    H220044   4.184   3.027   5.517  0.5920 -0.0730 -1.3770
 6694TIP3   OH220045   2.613   1.625   1.331 -0.0996  0.3831 -0.2336
 6694TIP3    H120046   2.631   1.640   1.424 -0.4270 -0.8160  0.0342
 6694TIP3    H220047   2.551   1.695   1.308  0.0338  0.7318  0.4268
 6695TIP3   OH220048   3.451   6.227   0.437  0.2272 -0.5413 -0.1124
 6695TIP3    H120049   3.521   6.286   0.466  0.2438 -1.3324  1.5738
 6695TIP3    H220050   3.492   6.140   0.434  0.4164 -0.4892 -3.3101
 6696TIP3   OH220051   1.336   6.542   1.643  0.2872  0.6894 -0.2822
 6696TIP3    H120052   1.271   6.612   1.653 -0.1450  0.0668  1.6358
 6696TIP3    H220053   1.296   6.465   1.683  1.3209 -0.2963 -1.0781
 6697TIP3   OH220054   6.857   5.045   4.007  0.0903 -0.4298  0.2531
 6697TIP3    H120055   6.812   5.093   3.937  0.5701 -0.8696 -0.3696
 6697TIP3    H220056   6.946   5.081   4.008 -0.2881  0.5263  1.5672
 6698TIP3   OH220057   1.523   4.296   0.923  0.1690 -0.3937 -0.1834
 6698TIP3    H120058   1.601   4.257   0.960  1.1210  1.4349 -0.1469
 6698TIP3    H220059   1.545   4.313   0.831 -0.6827 -1.1111 -0.5338
 6699TIP3   OH220060   0.129   3.473   4.103 -0.5024  0.7765  0.1927
 6699TIP3    H120061   0.035   3.463   4.115 -0.3845 -3.6315 -0.7820
 6699TIP3    H220062   0.167   3.403   4.156  2.0775  1.0087 -1.1973
 6700TIP3   OH220063   5.070   5.568   3.656  0.0338  0.0246  0.1183
 6700TIP3    H120064   5.144   5.547   3.601  0.8894  0.1531  1.1804
 6700TIP3    H220065   5.019   5.487   3.660 -0.7655  0.3699 -1.8737
 6701TIP3   OH220066   2.405   6.333   1.147 -0.1013 -0.1325  0.3478
 6701TIP3    H120067   2.346   6.383   1.091  0.1373  0.8722  0.9658
 6701TIP3    H220068   2.486   6.326   1.096 -0.9709 -2.2642 -0.8669
 6702TIP3   OH220069   3.356   6.135   1.473 -0.2085  0.1175  0.0927
 6702TIP3    H120070   3.262   6.123   1.462 -0.1193  1.0764 -2.2956
 6702TIP3    H220071   3.366   6.226   1.502  0.0325  0.4909 -1.1242
 6703TIP3   OH220072   7.024   1.436   0.399  0.0616  0.4056  0.5627
 6703TIP3    H120073   7.003   1.498   0.330 -0.0605  0.3984  0.5933
 6703TIP3    H220074   6.978   1.356   0.375 -0.4177  0.5673  0.9304
 6704TIP3   OH220075   1.188   1.151   2.935  0.1593 -0.4105 -0.0400
 6704TIP3    H120076   1.259   1.207   2.903  0.9490 -1.5080 -0.2908
 6704TIP3    H220077   1.199   1.069   2.886 -1.0318 -0.7551  0.2327
 6705TIP3   OH220078   4.279  -0.009   0.655 -0.1588  0.0228  0.3234
 6705TIP3    H120079   4.361  -0.045   0.622  0.1237 -0.9357  1.9529
 6705TIP3    H220080   4.293   0.086   0.657  1.0418 -0.1511  0.9057
 6706TIP3   OH220081   2.068   0.754   4.590 -0.2127  0.0331  0.3537
 6706TIP3    H120082   2.111   0.740   4.506 -3.3428 -0.7460 -1.3075
 6706TIP3    H220083   2.052   0.848   4.593 -0.6428 -0.0093 -0.2826
 6707TIP3   OH220084   6.407   0.830   4.160  0.3975 -0.3713  0.6906
 6707TIP3    H120085   6.324   0.876   4.153  0.7798  0.3737  0.9884
 6707TIP3    H220086   6.461   0.869   4.091  0.8017 -0.2135  1.0970
 6708TIP3   OH220087   6.384   3.958   5.064 -0.2078  0.6119  0.1023
 6708TIP3    H120088   6.391   3.967   5.159 -0.5655  0.5987  0.1316
 6708TIP3    H220089   6.425   3.874   5.045 -0.2249  0.5687  0.2563
 6709TIP3   OH220090   1.420   1.471   4.609  0.2708  0.1603 -0.3837
 6709TIP3    H120091   1.497   1.478   4.664 -0.9890  0.0191  1.4766
 6709TIP3    H220092   1.454   1.443   4.524  2.2720  0.3389  0.3069
 6710TIP3   OH220093   4.530   0.231   5.736  0.1051  0.7660 -0.1015
 6710TIP3    H120094   4.448   0.248   5.784 -0.5221  3.1907 -1.8428
 6710TIP3    H220095   4.592   0.295   5.772  0.6302  0.3458 -0.2495
 6711TIP3   OH220096   4.338   2.186   2.260  0.1028  0.6670  0.1029
 6711TIP3    H120097   4.422   2.147   2.285 -0.6509 -0.7453  0.5413
 6711TIP3    H220098   4.320   2.151   2.173 -1.6591 -1.9682  1.3801
 6712TIP3   OH220099   2.047   4.960   5.608  0.1094  0.0701 -0.3513
 6712TIP3    H120100   2.032   4.952   5.514 -1.1411  1.2431 -0.2791
 6712TIP3    H220101   2.005   5.043   5.632 -0.1410 -0.5204  1.3493
 6713TIP3   OH220102   1.692   5.082   5.448  0.3395  0.0424  0.2404
 6713TIP3    H120103   1.766   5.139   5.425  0.9349 -0.4767  0.8346
 6713TIP3    H220104   1.688   5.085   5.543  0.0139 -0.4603  0.2436
 6714TIP3   OH220105   1.265   0.989   2.746  0.3053 -0.1307  0.3462
 6714TIP3    H120106   1.297   1.068   2.701  2.5558 -0.6667  0.8846
 6714TIP3    H220107   1.324   0.920   2.718 -2.4323 -2.0466 -1.2058
 6715TIP3   OH220108   2.367   1.408   4.442 -0.0829 -0.3603  0.0713
 6715TIP3    H120109   2.406   1.476   4.387  0.2580  0.4520  1.2690
 6715TIP3    H220110   2.298   1.453   4.490 -2.0363 -1.6008 -1.4376
 6716TIP3   OH220111   6.693   3.139   2.097  0.2217  0.4146 -0.2355
 6716TIP3    H120112   6.752   3.176   2.032 -1.2529  0.2025 -1.7625
 6716TIP3    H220113   6.684   3.209   2.163  0.3607  1.3487 -1.1789
 6717TIP3   OH220114   1.375   6.628   5.786 -0.1075  0.3227  0.6608
 6717TIP3    H120115   1.325   6.581   5.852 -0.4308 -1.6061 -0.8879
 6717TIP3    H220116   1.445   6.568   5.761 -0.2734  0.8165 -1.0799
 6718TIP3   OH220117   5.746   4.463   3.403 -0.3117  0.2823 -0.1515
 6718TIP3    H120118   5.786   4.533   3.351 -0.4704 -0.2480 -1.0056
 6718TIP3    H220119   5.740   4.389   3.343 -1.9828  0.1404  0.1332
 6719TIP3   OH220120   6.682   3.443   3.696  0.1317  0.3819 -0.2742
 6719TIP3    H120121   6.665   3.470   3.787 -0.2710  1.9215 -0.7638
 6719TIP3    H220122   6.654   3.352   3.693  0.6503  0.1382  1.2805
 6720TIP3   OH220123   6.041   6.700   4.903  0.3802 -0.8235 -0.3432
 6720TIP3    H120124   5.997   6.702   4.988  0.9876  0.3828 -0.0239
 6720TIP3    H220125   6.130   6.730   4.922 -0.2711  2.4778 -1.7873
 6721TIP3   OH220126   1.587   6.316   0.494 -0.3348 -0.1251  0.2253
 6721TIP3    H120127   1.608   6.324   0.587 -0.2898  1.4441  0.1196
 6721TIP3    H220128   1.520   6.382   0.479  1.0886  1.1003 -1.2265
 6722TIP3   OH220129   0.723   0.534   0.733 -0.0330  0.2671 -0.6038
 6722TIP3    H120130   0.652   0.473   0.714 -0.6342  0.9502 -0.5581
 6722TIP3    H220131   0.747   0.515   0.824  0.5160 -0.6330 -0.9231
 6723TIP3   OH220132  -0.015   4.815   1.491  0.0989  0.7709 -0.1083
 6723TIP3    H120133   0.043   4.891   1.498 -1.0199  1.6153  0.3594
 6723TIP3    H220134  -0.022   4.800   1.396  0.3171  1.2734 -0.2098
 6724TIP3   OH220135   0.591   2.971   2.824  0.3028 -0.3603 -0.0525
 6724TIP3    H120136   0.527   2.972   2.895 -0.1225  1.9388 -0.3857
 6724TIP3    H220137   0.554   2.911   2.759 -1.0912  0.2457  0.1475
 6725TIP3   OH220138   4.895   0.533   4.881 -0.3354  0.1177  0.3752
 6725TIP3    H120139   4.845   0.579   4.948  0.9399 -0.7593  1.9919
 6725TIP3    H220140   4.967   0.593   4.860 -0.5234  0.2340  0.0594
 6726TIP3   OH220141   5.542   3.491   0.732  0.4885 -0.1021  0.3414
 6726TIP3    H120142   5.598   3.548   0.785  1.3604 -0.2311 -0.4176
 6726TIP3    H220143   5.599   3.460   0.662 -0.8309  0.6729 -1.1373
 6727TIP3   OH220144   6.962   4.949   1.608 -0.1472  0.4249 -0.0280
 6727TIP3    H120145   7.040   4.908   1.572  0.0793  1.6593 -1.0209
 6727TIP3    H220146   6.903   4.959   1.533 -2.1079 -2.2361  1.0408
 6728TIP3   OH220147   4.269   5.570   1.014 -0.2292  0.1660 -0.0958
 6728TIP3    H120148   4.297   5.480   1.031  0.8371  0.9894  3.1943
 6728TIP3    H220149   4.333   5.603   0.951  0.8679 -0.6839  0.5246
 6729TIP3   OH220150   2.881   2.575   4.191  0.2174 -0.1966  0.0814
 6729TIP3    H120151   2.799   2.541   4.228  0.5823 -0.8086  0.3398
 6729TIP3    H220152   2.855   2.612   4.107 -0.1651 -1.3670 -0.3411
 6730TIP3   OH220153   4.589   0.761   1.182 -0.5850  0.2186 -0.5298
 6730TIP3    H120154   4.648   0.741   1.109 -1.6638 -1.2565 -1.0253
 6730TIP3    H220155   4.611   0.851   1.206  2.8758 -0.6834  0.2636
 6731TIP3   OH220156   4.659   2.323   4.861  0.8176  0.1541 -0.3284
 6731TIP3    H120157   4.696   2.390   4.918 -0.2115 -0.3360  0.9631
 6731TIP3    H220158   4.708   2.332   4.779  0.7089  2.4973 -0.2179
 6732TIP3   OH220159   5.496   5.725   5.541  0.4522  0.0628 -0.3008
 6732TIP3    H120160   5.534   5.713   5.628  1.1191 -1.1261 -0.7366
 6732TIP3    H220161   5.422   5.664   5.539 -0.0201  0.6216 -0.3213
 6733TIP3   OH220162   3.758   1.681   3.747 -0.3605  0.0170 -0.3661
 6733TIP3    H120163   3.727   1.634   3.824  0.1273  1.3433  0.6740
 6733TIP3    H220164   3.823   1.743   3.780  1.0157 -0.4223 -2.0529
 6734TIP3   OH220165   5.408   2.084   0.907 -0.3632 -0.2871 -0.3632
 6734TIP3    H120166   5.392   2.152   0.842 -0.2581  0.5573  0.4734
 6734TIP3    H220167   5.486   2.113   0.954  0.7558 -1.8752 -1.1316
 6735TIP3   OH220168   5.963   4.026   0.876 -0.4769  0.0462  0.0545
 6735TIP3    H120169   6.027   4.010   0.807 -0.2713 -1.1844  0.5162
 6735TIP3    H220170   6.014   4.068   0.946 -0.4535  0.2575 -0.0873
 6736TIP3   OH220171   4.385   5.362   4.610 -0.5309  0.0188  0.3057
 6736TIP3    H120172   4.336   5.390   4.532  0.0462  1.1451  0.3130
 6736TIP3    H220173   4.477   5.370   4.584 -0.3150  0.9932  1.2694
 6737TIP3   OH220174   6.477   6.228   4.941 -0.0071 -0.3719 -0.2795
 6737TIP3    H120175   6.516   6.153   4.896  1.5117  0.7070 -0.8202
 6737TIP3    H220176   6.508   6.304   4.893 -0.4957  0.6842  1.0138
 6738TIP3   OH220177   6.547   5.014   4.878 -0.3088 -0.3306  0.2150
 6738TIP3    H120178   6.620   4.982   4.824  0.1550  0.2350  0.5004
 6738TIP3    H220179   6.589   5.053   4.954 -0.9287 -0.2601  0.5259
 6739TIP3   OH220180   6.898   5.526   2.367 -0.3900 -0.5699  0.2425
 6739TIP3    H120181   6.842   5.603   2.367  2.6567  1.8170  0.7944
 6739TIP3    H220182   6.892   5.491   2.456 -0.2054  0.2877  0.5951
 6740TIP3   OH220183   4.170   2.488   5.169  0.8241 -0.5747 -0.5213
 6740TIP3    H120184   4.165   2.514   5.077 -0.1098 -1.5944 -0.7732
 6740TIP3    H220185   4.203   2.399   5.167 -0.8385 -1.2333  0.0039
 6741TIP3   OH220186   3.093   1.492   3.628 -0.1149 -0.6625  0.0216
 6741TIP3    H120187   3.088   1.436   3.705 -1.3888 -0.5968  0.0039
 6741TIP3    H220188   3.012   1.543   3.630 -0.9244 -1.7285 -2.1493
 6742TIP3   OH220189   5.207   2.830   2.147  0.0011 -0.6513 -0.0715
 6742TIP3    H120190   5.210   2.754   2.205  3.1866  1.0694  2.3755
 6742TIP3    H220191   5.167   2.899   2.201 -0.7415  0.0355 -1.4360
 6743TIP3   OH220192   4.582   4.000   5.016 -0.1409  1.2785  0.5422
 6743TIP3    H120193   4.630   3.942   5.075 -0.8217 -1.1246 -1.1114
 6743TIP3    H220194   4.650   4.042   4.963  0.3090 -0.4523 -0.3271
 6744TIP3   OH220195   1.675   1.684   0.404  0.2683 -0.1201 -0.1789
 6744TIP3    H120196   1.768   1.669   0.389  0.0342 -0.3895 -1.5166
 6744TIP3    H220197   1.642   1.600   0.435 -0.1441 -1.1634 -3.1003
 6745TIP3   OH220198   2.832   6.595   2.735 -0.5472  0.3148  0.2327
 6745TIP3    H120199   2.846   6.604   2.640 -1.7481  1.1740  0.1067
 6745TIP3    H220200   2.746   6.553   2.743 -0.8229  0.9821  0.9278
 6746TIP3   OH220201   6.928   5.786   3.922 -0.3173 -0.1043 -0.1883
 6746TIP3    H120202   6.856   5.723   3.933  0.6400 -1.2090 -0.0785
 6746TIP3    H220203   6.897   5.846   3.854 -1.5105 -0.3003  0.1636
 6747TIP3   OH220204   4.951   0.078   0.408 -0.3327 -0.3706  0.2737
 6747TIP3    H120205   4.946  -0.015   0.384 -1.2586 -0.6928  1.5631
 6747TIP3    H220206   5.042   0.092   0.432 -0.3345 -1.1341  0.7529
 6748TIP3   OH220207   5.582   1.014   0.357  0.0988  0.0183 -0.4509
 6748TIP3    H120208   5.549   1.079   0.418  0.2236 -0.2099 -0.1414
 6748TIP3    H220209   5.547   1.042   0.272 -1.0034 -0.2848 -0.1204
 6749TIP3   OH220210   0.272   2.708   2.026  0.9772 -0.2578 -0.6870
 6749TIP3    H120211   0.278   2.618   2.057 -0.4855 -0.5179 -1.0802
 6749TIP3    H220212   0.202   2.706   1.961 -0.9693  1.6419  1.1702
 6750TIP3   OH220213   6.940   5.461   0.324 -0.0758  0.1180  0.7721
 6750TIP3    H120214   6.869   5.512   0.363 -1.2472 -1.7287  1.1656
 6750TIP3    H220215   6.899   5.378   0.299  1.6378 -0.4387 -0.3394
 6751TIP3   OH220216   2.673   5.563   3.557 -0.5258  0.4188 -0.1095
 6751TIP3    H120217   2.729   5.554   3.480  0.0102 -0.0665  0.3285
 6751TIP3    H220218   2.730   5.539   3.630 -1.2184  0.2323  0.3724
 6752TIP3   OH220219   2.752   4.251   1.783  0.0253 -0.1740  0.1187
 6752TIP3    H120220   2.757   4.168   1.737 -0.5025  0.5888 -1.3877
 6752TIP3    H220221   2.716   4.312   1.719  0.9172  1.3512  0.9894
 6753TIP3   OH220222   4.686   5.669   2.775 -0.2548  0.0351 -0.1797
 6753TIP3    H120223   4.760   5.614   2.799 -0.9740 -0.1375  1.8102
 6753TIP3    H220224   4.612   5.608   2.767 -0.5269  0.4042 -0.5139
 6754TIP3   OH220225   1.524   0.273   4.343  0.4547  0.0258 -0.1104
 6754TIP3    H120226   1.454   0.336   4.357  0.8859  0.5751 -0.4087
 6754TIP3    H220227   1.592   0.299   4.405  0.1675 -0.8673  0.6029
 6755TIP3   OH220228   6.408   4.819   3.316  0.4882 -0.1062 -0.1018
 6755TIP3    H120229   6.495   4.831   3.279  0.7164 -2.6926 -0.5540
 6755TIP3    H220230   6.420   4.835   3.410  1.5133 -0.7182 -0.1151
 6756TIP3   OH220231   6.529   2.661   1.217 -0.1713  0.5288  0.2079
 6756TIP3    H120232   6.565   2.623   1.137 -1.6124  0.7100 -0.5552
 6756TIP3    H220233   6.509   2.752   1.195 -2.2863  0.1077  0.1516
 6757TIP3   OH220234   0.892   6.542   1.618  0.4049 -0.1255 -0.0655
 6757TIP3    H120235   0.807   6.572   1.650 -0.0509 -0.8795 -0.5377
 6757TIP3    H220236   0.890   6.559   1.524  1.6134  1.7903  0.2023
 6758TIP3   OH220237   4.847   2.424   5.138  0.0905 -0.1181 -0.4171
 6758TIP3    H120238   4.936   2.390   5.128  0.9020  2.0937 -1.7200
 6758TIP3    H220239   4.855   2.493   5.204 -1.0933 -1.1156  0.8190
 6759TIP3   OH220240   2.492   5.924   2.026 -0.4400  0.5538  0.0200
 6759TIP3    H120241   2.459   5.965   1.946 -0.8659  1.7921  0.7993
 6759TIP3    H220242   2.423   5.863   2.052 -0.0927 -0.2075 -0.7946
 6760TIP3   OH220243   4.557   6.606   0.265 -0.0230  0.4514  0.0189
 6760TIP3    H120244   4.618   6.604   0.190 -0.2045  0.5361 -0.1318
 6760TIP3    H220245   4.503   6.683   0.249 -0.8595 -0.2099 -0.3917
 6761TIP3   OH220246   5.027   2.168   1.319  0.3420 -0.6857  0.0869
 6761TIP3    H120247   5.036   2.200   1.409  0.5716 -0.8185  0.1110
 6761TIP3    H220248   5.116   2.166   1.285  0.1139  0.8634 -0.6676
 6762TIP3   OH220249   2.759   5.982   4.481 -0.2086  0.4624  0.4435
 6762TIP3    H120250   2.676   6.027   4.499 -0.0543  1.1238 -0.4318
 6762TIP3    H220251   2.764   5.980   4.386  0.9312  0.7080  0.4880
 6763TIP3   OH220252   6.113   1.200   2.857 -0.0595 -0.1028 -0.8208
 6763TIP3    H120253   6.091   1.266   2.923 -2.3876  0.3279 -1.9356
 6763TIP3    H220254   6.199   1.227   2.825  0.8229  0.0631  1.5236
 6764TIP3   OH220255   0.636   4.291   2.722  0.1667 -0.4168 -0.3023
 6764TIP3    H120256   0.693   4.336   2.784 -1.9347  0.4162  1.1790
 6764TIP3    H220257   0.635   4.200   2.752  0.2091 -0.2917  0.0919
 6765TIP3   OH220258   3.907   6.005   3.409 -0.0264 -0.1604  0.1808
 6765TIP3    H120259   3.905   6.020   3.503  0.4994 -1.9162  0.5084
 6765TIP3    H220260   3.854   5.926   3.396  0.2239 -0.1621 -0.9384
 6766TIP3   OH220261   3.125   4.425   0.371  0.2249 -0.1988  0.4202
 6766TIP3    H120262   3.101   4.515   0.350  1.6961  0.7199  2.3335
 6766TIP3    H220263   3.043   4.384   0.399 -0.6774  0.1583 -1.5418
 6767TIP3   OH220264   6.736   4.425   1.624 -0.1629  0.1695  0.1605
 6767TIP3    H120265   6.789   4.446   1.702  0.4582  0.8947 -0.4400
 6767TIP3    H220266   6.788   4.458   1.551  1.6207 -4.6239 -1.0777
 6768TIP3   OH220267   3.162   3.375   5.837 -0.1816  0.3310  0.2047
 6768TIP3    H120268   3.255   3.386   5.858 -0.3330  2.8258 -0.1742
 6768TIP3    H220269   3.135   3.460   5.804 -2.1755 -0.8830 -1.4885
 6769TIP3   OH220270   3.761   5.977   2.806  0.0555  0.7175 -0.0025
 6769TIP3    H120271   3.755   5.966   2.711 -0.5220 -0.7159  0.1767
 6769TIP3    H220272   3.848   6.016   2.820  0.4601  0.2464 -1.0694
 6770TIP3   OH220273   2.552   3.841   0.121 -0.7258  0.4033  0.0123
 6770TIP3    H120274   2.537   3.847   0.026 -0.9840  0.1609  0.0337
 6770TIP3    H220275   2.647   3.832   0.130 -0.8302 -1.4844 -0.3426
 6771TIP3   OH220276   0.064   6.756   0.313  0.1108  0.0512  0.3703
 6771TIP3    H120277  -0.025   6.788   0.326  0.2406  0.0763  1.2977
 6771TIP3    H220278   0.068   6.675   0.364  0.2640 -0.6074 -0.6584
 6772TIP3   OH220279   3.271   0.881   4.350 -0.0672  0.1553 -0.4618
 6772TIP3    H120280   3.352   0.835   4.372  0.1120  0.7008  0.0354
 6772TIP3    H220281   3.217   0.815   4.307 -0.3504 -0.9156  1.4309
 6773TIP3   OH220282   5.506   1.864   2.605 -0.4047  0.1845 -0.3025
 6773TIP3    H120283   5.585   1.916   2.618  0.9107 -1.9674  0.8788
 6773TIP3    H220284   5.435   1.928   2.605  1.2282  2.0939 -0.3945
 6774TIP3   OH220285   1.098   5.062   3.717 -0.2973  0.1620 -0.4774
 6774TIP3    H120286   1.152   5.064   3.796  0.9082  1.5585 -1.3087
 6774TIP3    H220287   1.074   4.970   3.707  1.7683 -0.4623  0.0243
 6775TIP3   OH220288   4.410   5.362   0.698  0.0703  0.6507 -0.3125
 6775TIP3    H120289   4.347   5.434   0.700 -1.7022 -0.7096 -2.3317
 6775TIP3    H220290   4.451   5.369   0.612  0.9109  0.0712  0.0278
 6776TIP3   OH220291   5.920   2.362   3.044  0.7261  0.0707 -0.1887
 6776TIP3    H120292   5.856   2.380   3.113 -1.4802  0.0226 -2.0655
 6776TIP3    H220293   5.894   2.277   3.009  0.5731  0.8859 -2.2124
 6777TIP3   OH220294   1.167   5.999   2.672 -0.2579  0.2532 -0.3121
 6777TIP3    H120295   1.255   5.969   2.650 -0.5220  0.1166 -1.2373
 6777TIP3    H220296   1.132   6.032   2.590 -1.1396  0.1406  0.0085
 6778TIP3   OH220297   1.169   2.330   0.323 -0.2262 -0.1340 -0.1432
 6778TIP3    H120298   1.190   2.310   0.232  0.9466 -2.3049  0.5354
 6778TIP3    H220299   1.077   2.307   0.332 -0.1811 -0.5370 -0.6355
 6779TIP3   OH220300   0.042   4.606   3.314  0.6397  0.3670 -0.1619
 6779TIP3    H120301  -0.026   4.556   3.270  1.2140 -1.8096  1.2501
 6779TIP3    H220302   0.123   4.586   3.266  0.5995  1.5166 -0.7482
 6780TIP3   OH220303   3.477   6.190   3.106 -0.2257  0.1637  0.0400
 6780TIP3    H120304   3.508   6.217   3.019  1.6117 -0.3260  0.5047
 6780TIP3    H220305   3.490   6.266   3.161  1.1846 -0.3532  0.4614
 6781TIP3   OH220306   4.801   3.727   3.411  0.2408  0.5427  0.0988
 6781TIP3    H120307   4.717   3.753   3.448 -0.5431 -0.3445 -0.9629
 6781TIP3    H220308   4.856   3.709   3.487 -1.8011 -2.8158  1.0209
 6782TIP3   OH220309   7.175   3.043   3.954 -0.0570  0.1913  0.4848
 6782TIP3    H120310   7.132   3.083   4.030  1.1632  2.0373  0.2841
 6782TIP3    H220311   7.267   3.066   3.965 -0.0892  2.4686 -2.6034
 6783TIP3   OH220312   3.259   6.215   2.173  0.3072  0.1724 -0.2150
 6783TIP3    H120313   3.196   6.285   2.158 -0.5986 -0.7764 -1.0089
 6783TIP3    H220314   3.341   6.260   2.195 -0.1739  1.4730 -0.9956
 6784TIP3   OH220315   3.761   4.029   2.890 -0.0107  0.4399 -0.0942
 6784TIP3    H120316   3.700   4.001   2.822 -0.2374 -1.7846  0.9384
 6784TIP3    H220317   3.833   3.966   2.886  0.3753  0.7651  1.1813
 6785TIP3   OH220318   3.984   2.580   2.240  0.1921  0.5278 -0.7273
 6785TIP3    H120319   4.061   2.529   2.213 -2.3243 -3.5707 -0.9764
 6785TIP3    H220320   3.934   2.520   2.296 -2.8548  2.9423 -0.6056
 6786TIP3   OH220321   2.689   3.740   5.011  0.0565 -0.1720 -0.6037
 6786TIP3    H120322   2.725   3.783   4.933  0.8980  1.4546  0.6264
 6786TIP3    H220323   2.747   3.665   5.025 -0.2663 -0.6364 -1.6894
 6787TIP3   OH220324   7.002   1.806   4.938 -0.1116 -0.3261  0.1640
 6787TIP3    H120325   7.024   1.879   4.995 -0.2144 -0.4266  0.3312
 6787TIP3    H220326   6.958   1.743   4.995 -2.3233  0.5560 -0.4694
 6788TIP3   OH220327   3.860   6.152   1.299  0.2355  0.5787  0.5171
 6788TIP3    H120328   3.811   6.168   1.380 -3.9648  0.1437 -1.6685
 6788TIP3    H220329   3.839   6.226   1.243  2.5702  0.5755 -0.4969
 6789TIP3   OH220330   0.306   3.195   5.185  0.0425  0.5283 -0.2300
 6789TIP3    H120331   0.360   3.256   5.134  2.1344 -1.6668 -0.8402
 6789TIP3    H220332   0.241   3.251   5.228  0.7376  2.9466 -2.0753
 6790TIP3   OH220333   6.682   0.821   2.677  0.5741  0.0130  0.4513
 6790TIP3    H120334   6.718   0.767   2.607  0.9182  0.0726  0.5793
 6790TIP3    H220335   6.759   0.861   2.719  0.3383  0.4297  0.4961
 6791TIP3   OH220336   1.728   3.119   3.290  0.8092 -0.1340 -0.1822
 6791TIP3    H120337   1.788   3.105   3.217  0.7448 -0.6255 -0.1476
 6791TIP3    H220338   1.729   3.214   3.305  2.7279 -0.2601  0.7920
 6792TIP3   OH220339   0.766   6.161   4.409  0.0168 -0.1093 -0.7195
 6792TIP3    H120340   0.733   6.164   4.499  0.3682 -0.2513 -0.5841
 6792TIP3    H220341   0.850   6.115   4.416  1.0914  1.7409 -0.7982
 6793TIP3   OH220342   6.865   3.688   3.259 -0.1863 -0.0521  0.2855
 6793TIP3    H120343   6.957   3.663   3.267 -0.5646 -1.4111  0.6970
 6793TIP3    H220344   6.821   3.638   3.328 -1.2648  0.4293 -0.0355
 6794TIP3   OH220345   6.306   0.369   1.948  0.2697 -0.0397 -0.4382
 6794TIP3    H120346   6.381   0.317   1.976 -1.0921 -1.0291  1.6041
 6794TIP3    H220347   6.253   0.307   1.896 -0.7867 -0.4399  1.0385
 6795TIP3   OH220348   2.782   3.917   4.501  0.5549  0.2088 -0.0446
 6795TIP3    H120349   2.726   3.849   4.463  0.1802 -0.5661  1.7906
 6795TIP3    H220350   2.731   3.997   4.492 -0.4216 -0.3127  0.6685
 6796TIP3   OH220351   6.692   3.161   1.204  0.1836  0.4188  0.0773
 6796TIP3    H120352   6.732   3.248   1.204 -0.4171  0.6952  0.2318
 6796TIP3    H220353   6.598   3.177   1.200  0.0742 -0.2283 -0.0694
 6797TIP3   OH220354   0.524   5.511   2.065  0.1488  0.4001  0.2432
 6797TIP3    H120355   0.454   5.472   2.117  0.0566  3.2656  2.5329
 6797TIP3    H220356   0.603   5.500   2.119  0.6552  0.8232 -0.3854
 6798TIP3   OH220357   4.179   0.574   5.520  0.1634  0.0727 -0.8492
 6798TIP3    H120358   4.094   0.592   5.481  0.1763 -0.6416 -1.2204
 6798TIP3    H220359   4.161   0.513   5.592  0.4859 -1.0966 -1.7254
 6799TIP3   OH220360   4.690   1.567   4.771  0.5811 -0.1722  0.0891
 6799TIP3    H120361   4.598   1.577   4.795  0.5393  0.8253 -0.4233
 6799TIP3    H220362   4.687   1.530   4.683  0.6059  1.6081 -0.7023
 6800TIP3   OH220363   5.257   0.293   3.769  0.3963  0.5563  0.3304
 6800TIP3    H120364   5.285   0.366   3.824  0.9082  0.4808  0.1831
 6800TIP3    H220365   5.165   0.280   3.790  0.3259  1.1782  0.4338
 6801TIP3   OH220366   1.312   4.463   3.582 -0.1832  0.6981  0.0349
 6801TIP3    H120367   1.263   4.528   3.531 -0.5165  1.2223  1.0137
 6801TIP3    H220368   1.334   4.507   3.664 -0.5380 -0.4741  0.7880
 6802TIP3   OH220369   6.674   2.940   2.863 -0.2695  0.4037 -0.6922
 6802TIP3    H120370   6.609   2.908   2.800  0.3529 -0.0913 -1.0828
 6802TIP3    H220371   6.747   2.970   2.809  1.0362 -1.6635 -0.1704
 6803TIP3   OH220372   6.957   0.656   1.788  0.5436  0.3422  0.0415
 6803TIP3    H120373   6.862   0.666   1.794  0.6599  1.2003  0.5748
 6803TIP3    H220374   6.978   0.587   1.851  0.4260  1.1386  0.9735
 6804TIP3   OH220375   4.244   2.905   1.581  0.2483 -0.2804 -0.0065
 6804TIP3    H120376   4.212   2.996   1.584  2.3146  0.5040 -0.4079
 6804TIP3    H220377   4.218   2.873   1.495 -0.4951 -0.0778  0.1358
 6805TIP3   OH220378   3.670   1.290   0.495  0.5538  0.2530 -0.4236
 6805TIP3    H120379   3.575   1.280   0.498  0.6758 -1.2617 -0.7497
 6805TIP3    H220380   3.684   1.383   0.478 -0.8301  0.8303  1.2765
 6806TIP3   OH220381   2.685   0.980   2.466  0.1032  0.4875  0.1671
 6806TIP3    H120382   2.772   0.941   2.454 -0.1389 -0.9638  2.5797
 6806TIP3    H220383   2.703   1.073   2.481  1.1689  0.3480 -0.1470
 6807TIP3   OH220384   7.085   5.368   4.560  0.3080  0.0175  0.4770
 6807TIP3    H120385   6.997   5.368   4.596 -0.0508  2.4638 -0.2130
 6807TIP3    H220386   7.076   5.324   4.476 -0.4115  0.7641  0.1451
 6808TIP3   OH220387   1.978   1.302   3.144 -0.2356  0.1014 -0.6177
 6808TIP3    H120388   1.916   1.376   3.141 -1.0266 -0.4853  0.4534
 6808TIP3    H220389   1.999   1.285   3.052 -1.7579  0.2640 -1.0267
 6809TIP3   OH220390   2.056   0.817   2.225 -0.3871 -0.3390 -0.6714
 6809TIP3    H120391   2.127   0.880   2.233 -1.8688  1.1900  1.4783
 6809TIP3    H220392   2.086   0.740   2.273 -0.0049  0.1284 -0.1572
 6810TIP3   OH220393   6.892   0.153   4.469  0.1607 -0.3070  0.3880
 6810TIP3    H120394   6.955   0.223   4.452  1.4209 -0.9474  2.1446
 6810TIP3    H220395   6.819   0.197   4.513 -0.1258  0.2535 -0.6227
 6811TIP3   OH220396   4.055   5.803   0.195 -0.3129 -0.6714  0.1862
 6811TIP3    H120397   3.965   5.785   0.168 -0.4182 -0.2518  0.2606
 6811TIP3    H220398   4.047   5.869   0.264  0.0547 -0.5935  0.1576
 6812TIP3   OH220399   2.431   3.902   4.518  0.1505  0.4241 -0.4458
 6812TIP3    H120400   2.484   3.979   4.497  2.7150 -1.3351 -0.9580
 6812TIP3    H220401   2.460   3.876   4.605 -0.7829  0.1298 -0.2203
 6813TIP3   OH220402   2.480   5.155   2.727 -0.2940  0.0733 -0.1661
 6813TIP3    H120403   2.405   5.100   2.752  0.2111 -0.5880 -0.0817
 6813TIP3    H220404   2.529   5.167   2.809  1.3095 -2.0083 -0.7405
 6814TIP3   OH220405   2.045   2.130   2.724  0.2593 -0.1293 -0.1372
 6814TIP3    H120406   1.989   2.146   2.648  0.6659 -1.0015 -0.6299
 6814TIP3    H220407   2.015   2.194   2.789  0.1669  0.8858 -1.1502
 6815TIP3   OH220408   6.917   0.834   0.057  0.1129 -0.3345 -0.1392
 6815TIP3    H120409   6.949   0.924   0.058 -1.4096  0.2212  0.6122
 6815TIP3    H220410   6.931   0.803   0.146  0.6896 -0.8873 -0.4115
 6816TIP3   OH220411   4.516   5.360   0.101  0.1361 -0.0455 -0.0089
 6816TIP3    H120412   4.602   5.377   0.138  0.8367 -0.7505 -1.2484
 6816TIP3    H220413   4.523   5.273   0.062 -1.5266 -0.6622  0.9458
 6817TIP3   OH220414   4.972   3.355   3.924 -0.0210 -0.3950  0.1670
 6817TIP3    H120415   4.911   3.364   3.851  0.8821  0.6650 -0.4926
 6817TIP3    H220416   5.005   3.444   3.939  0.6405 -0.7877  1.1448
 6818TIP3   OH220417   2.095   2.126   1.475 -0.1958 -0.0483 -0.3245
 6818TIP3    H120418   2.182   2.132   1.436  0.2608  0.2959  0.7141
 6818TIP3    H220419   2.106   2.068   1.550 -0.6262  0.8385  0.4423
 6819TIP3   OH220420   6.312   3.322   0.134 -0.0086  0.1152  0.5333
 6819TIP3    H120421   6.359   3.238   0.128  2.1930  1.2215  1.1536
 6819TIP3    H220422   6.262   3.327   0.053  1.0886 -1.0982 -0.2629
 6820TIP3   OH220423   5.385   2.548   5.109  0.0514 -0.1074  0.1464
 6820TIP3    H120424   5.445   2.619   5.086 -1.9841  1.4926 -0.5808
 6820TIP3    H220425   5.360   2.566   5.200  0.3419 -0.5563  0.3224
 6821TIP3   OH220426   6.060   4.304   2.807 -0.2177  0.2530  0.6374
 6821TIP3    H120427   6.083   4.376   2.866  1.6886  0.8948 -0.7704
 6821TIP3    H220428   6.030   4.347   2.727  1.9122 -0.3721 -0.6108
 6822TIP3   OH220429   0.719   3.997   4.690 -0.2929  0.5441  0.3860
 6822TIP3    H120430   0.776   3.947   4.749  0.1791 -0.2163 -0.6809
 6822TIP3    H220431   0.758   4.084   4.686  0.7600  0.0494 -0.2748
 6823TIP3   OH220432   0.094   5.679   0.574  0.1959 -0.2665 -0.4086
 6823TIP3    H120433   0.173   5.726   0.547  0.9556 -1.4207 -0.2778
 6823TIP3    H220434   0.051   5.738   0.636  0.1666  0.9999 -1.5988
 6824TIP3   OH220435   5.106   0.717   3.798  0.4103  0.1193  0.0804
 6824TIP3    H120436   5.041   0.732   3.730 -0.8614 -0.5963  1.0860
 6824TIP3    H220437   5.096   0.791   3.858  1.8001  0.9602 -0.6804
 6825TIP3   OH220438   6.046   3.866   3.495  0.5116  0.0657 -0.0055
 6825TIP3    H120439   5.964   3.890   3.452  1.4598 -0.1901 -2.0882
 6825TIP3    H220440   6.031   3.777   3.527 -0.1307  0.1619 -0.0270
 6826TIP3   OH220441   6.447   1.934   2.209  0.0192  0.2592 -0.2880
 6826TIP3    H120442   6.497   1.866   2.255 -0.9621 -0.2388  0.0601
 6826TIP3    H220443   6.488   1.938   2.123 -0.9486 -2.0245 -0.9394
 6827TIP3   OH220444   1.516   0.808   5.474  0.1920 -0.2739  0.4984
 6827TIP3    H120445   1.479   0.720   5.480 -0.5641 -0.0389 -0.3985
 6827TIP3    H220446   1.520   0.826   5.380 -1.2192  1.2489  0.6665
 6828TIP3   OH220447   4.690   3.058   4.827  0.3619  0.3780 -0.2952
 6828TIP3    H120448   4.699   2.966   4.803 -0.4925  0.4282 -0.8556
 6828TIP3    H220449   4.669   3.103   4.745  1.8447  1.2580 -0.2364
 6829TIP3   OH220450   3.169   3.023   3.849 -0.3628  0.3847 -0.1050
 6829TIP3    H120451   3.249   3.039   3.799 -0.1708  0.9412  0.3751
 6829TIP3    H220452   3.153   3.105   3.896 -2.5028  1.1734 -1.9630
 6830TIP3   OH220453   5.894   5.800   1.242 -0.2783  0.0177 -0.2555
 6830TIP3    H120454   5.900   5.895   1.234 -0.0482  0.1280  0.9539
 6830TIP3    H220455   5.893   5.768   1.152 -1.4880  1.2274 -0.7081
 6831TIP3   OH220456   5.078   0.096   2.722 -0.4765 -0.0953  0.0913
 6831TIP3    H120457   5.066   0.051   2.638 -1.6572 -1.1754  0.7948
 6831TIP3    H220458   5.169   0.126   2.720 -0.3897 -0.3593 -1.4463
 6832TIP3   OH220459   2.938   4.541   3.425  0.3730 -0.2979 -0.0698
 6832TIP3    H120460   3.002   4.549   3.496 -0.7661  0.6664  0.8999
 6832TIP3    H220461   2.868   4.488   3.462 -0.0721 -0.0954 -0.6094
 6833TIP3   OH220462   5.316   0.441   1.796 -0.1494 -0.3672  0.1049
 6833TIP3    H120463   5.313   0.492   1.876 -1.7327 -1.1137  0.5668
 6833TIP3    H220464   5.286   0.501   1.728  0.9969  0.2052  0.0861
 6834TIP3   OH220465   6.833   0.390   5.250 -0.0464 -0.5367 -0.1280
 6834TIP3    H120466   6.927   0.389   5.235  0.0332 -0.9034  0.3786
 6834TIP3    H220467   6.796   0.354   5.169  0.2031  0.1498 -0.5653
 6835TIP3   OH220468   0.688   0.486   3.783  0.4632 -0.4290 -0.6751
 6835TIP3    H120469   0.644   0.502   3.867  1.4451 -0.7220 -0.0914
 6835TIP3    H220470   0.696   0.572   3.744  0.3281 -0.2412 -0.3010
 6836TIP3   OH220471   1.598   2.309   5.671  0.4305 -0.1539 -0.4903
 6836TIP3    H120472   1.684   2.317   5.712  0.4636 -1.9030 -0.1018
 6836TIP3    H220473   1.544   2.375   5.714  1.0732 -0.3986  0.7416
 6837TIP3   OH220474   3.079   2.463   1.081  0.8834 -0.4160 -0.2657
 6837TIP3    H120475   3.120   2.382   1.112  1.6846  0.2296  0.4068
 6837TIP3    H220476   3.068   2.449   0.987  2.1049 -0.8638 -0.3648
 6838TIP3   OH220477   5.745   4.649   3.208  0.1635 -0.4814 -0.0259
 6838TIP3    H120478   5.743   4.663   3.113  0.5303  1.2135  0.1857
 6838TIP3    H220479   5.661   4.607   3.228 -0.7429  0.8568 -0.8627
 6839TIP3   OH220480   2.555   2.463   3.349  0.4730  0.1155  0.0341
 6839TIP3    H120481   2.526   2.467   3.258  1.5604  2.5721 -0.2922
 6839TIP3    H220482   2.608   2.542   3.361  0.4718 -0.1936  2.7721
 6840TIP3   OH220483   2.527   6.265   3.812 -0.1525  0.5569  0.5281
 6840TIP3    H120484   2.462   6.222   3.868 -0.5284 -0.7953 -0.8625
 6840TIP3    H220485   2.571   6.193   3.768 -0.1749  1.5768 -1.2343
 6841TIP3   OH220486   3.594   1.861   4.526  0.3468 -0.0940 -0.2118
 6841TIP3    H120487   3.624   1.819   4.445  0.5407 -0.4473  0.0480
 6841TIP3    H220488   3.542   1.794   4.570  1.6583 -0.4829  0.7947
 6842TIP3   OH220489   1.467   4.557   1.070  0.2595  0.1833  0.1675
 6842TIP3    H120490   1.467   4.620   0.999 -2.1501  1.2146  0.9856
 6842TIP3    H220491   1.460   4.472   1.027  2.0178  0.5185 -0.8868
 6843TIP3   OH220492   3.360   0.162   0.964 -0.3063  0.0965 -0.1205
 6843TIP3    H120493   3.403   0.237   0.922  0.3212  0.2585  0.7636
 6843TIP3    H220494   3.289   0.201   1.015  0.0240  0.1035  0.3449
 6844TIP3   OH220495   2.676   6.371   0.076  0.3112  0.2720 -0.1088
 6844TIP3    H120496   2.602   6.426   0.101 -0.5916 -0.4920 -1.0153
 6844TIP3    H220497   2.637   6.300   0.025  1.5263 -0.8120  0.4074
 6845TIP3   OH220498   5.377   2.434   2.832 -0.1245 -0.1695  0.8655
 6845TIP3    H120499   5.304   2.495   2.848  1.8056  2.0233  1.9558
 6845TIP3    H220500   5.432   2.441   2.910  1.0157 -2.1616  0.3148
 6846TIP3   OH220501   6.317   2.901   5.045  0.0808 -0.4904 -0.9565
 6846TIP3    H120502   6.288   2.840   5.113  1.0356 -0.0089 -0.0866
 6846TIP3    H220503   6.334   2.846   4.969 -0.5726 -1.0981 -0.6710
 6847TIP3   OH220504   7.132   2.296   5.628  0.3069 -0.0356 -0.2194
 6847TIP3    H120505   7.188   2.257   5.561 -0.3002  0.7350 -1.2051
 6847TIP3    H220506   7.166   2.385   5.639 -0.6800  0.4411 -0.8277
 6848TIP3   OH220507   0.688   2.733   4.332  0.1711 -0.5231  0.1633
 6848TIP3    H120508   0.733   2.817   4.336  0.9390 -0.9567  1.2370
 6848TIP3    H220509   0.643   2.725   4.416 -1.8808 -0.1539 -0.8425
 6849TIP3   OH220510   6.352   4.600   0.772 -0.4023 -0.1708  0.0023
 6849TIP3    H120511   6.381   4.662   0.839 -0.6565  0.5305 -0.5338
 6849TIP3    H220512   6.434   4.567   0.734 -0.2367 -1.0905  1.1116
 6850TIP3   OH220513   3.189   4.976   4.103  0.1707 -0.6554  0.1517
 6850TIP3    H120514   3.267   4.925   4.085  0.9403  0.7017 -0.5618
 6850TIP3    H220515   3.222   5.059   4.137 -0.9461 -0.0082 -0.2916
 6851TIP3   OH220516   3.030   2.096   0.724  0.1962  0.2408 -0.5599
 6851TIP3    H120517   3.117   2.102   0.763  0.9768 -0.2137 -2.1338
 6851TIP3    H220518   3.041   2.132   0.636 -0.9603 -0.7425 -1.1360
 6852TIP3   OH220519   1.883   6.375   2.362 -0.1946 -0.0652 -0.2437
 6852TIP3    H120520   1.844   6.287   2.368 -0.1334 -0.0470  0.6632
 6852TIP3    H220521   1.909   6.395   2.452  0.9683  0.3608 -0.6560
 6853TIP3   OH220522   3.318   4.900   5.583 -0.1096  0.3629  0.2650
 6853TIP3    H120523   3.340   4.990   5.607  0.8171  0.0448  0.6283
 6853TIP3    H220524   3.245   4.910   5.522  0.3121  1.3858 -0.1036
 6854TIP3   OH220525   7.101   1.210   1.173 -0.1864 -0.4933  0.0828
 6854TIP3    H120526   7.109   1.124   1.214  0.7516 -1.0052 -1.1278
 6854TIP3    H220527   7.014   1.241   1.200 -0.5665 -1.8441  0.4858
 6855TIP3   OH220528   5.620   3.527   0.129  0.4789 -0.5628  0.4509
 6855TIP3    H120529   5.640   3.619   0.145 -0.7655  0.1178 -1.4662
 6855TIP3    H220530   5.693   3.495   0.077 -0.8303  0.5407 -2.3028
 6856TIP3   OH220531   2.728   0.929   4.166  0.0437 -0.5972  0.3254
 6856TIP3    H120532   2.763   0.868   4.231  2.0598  0.1552  0.0436
 6856TIP3    H220533   2.746   0.887   4.082  1.4142  0.2940  0.1320
 6857TIP3   OH220534   4.685   3.347   3.058 -0.3315  0.3998 -0.5733
 6857TIP3    H120535   4.594   3.330   3.082  0.1153 -1.7052 -0.1380
 6857TIP3    H220536   4.716   3.408   3.125 -1.3710  1.0499 -0.6627
 6858TIP3   OH220537   4.428   2.785   0.678  0.2687 -0.1288 -0.6291
 6858TIP3    H120538   4.433   2.789   0.773  0.6724  0.1505 -0.6592
 6858TIP3    H220539   4.344   2.743   0.660 -0.7181  1.5652 -0.1860
 6859TIP3   OH220540   5.154   3.994   1.612 -0.0453  0.6905  0.1045
 6859TIP3    H120541   5.065   3.976   1.640 -1.9050  3.4505 -3.3107
 6859TIP3    H220542   5.189   4.053   1.679 -0.7494 -0.3500  1.4330
 6860TIP3   OH220543   1.429   1.054   1.255 -0.2398 -0.0723 -0.2817
 6860TIP3    H120544   1.437   1.089   1.167 -1.5330  1.0018 -0.0040
 6860TIP3    H220545   1.515   1.017   1.274  0.4302  0.7791 -1.5228
 6861TIP3   OH220546   2.888   0.306   2.152  0.3007 -0.2634 -0.2344
 6861TIP3    H120547   2.808   0.254   2.149 -0.4736  0.8119  1.0055
 6861TIP3    H220548   2.937   0.271   2.226 -0.2256  0.7475  0.6079
 6862TIP3   OH220549   1.153   2.703   3.167  0.6073 -0.0957  0.1230
 6862TIP3    H120550   1.064   2.733   3.185  0.1245 -1.4534  0.1752
 6862TIP3    H220551   1.208   2.746   3.232  0.1785  1.6303 -0.6149
 6863TIP3   OH220552   2.055   4.072   0.151 -0.4274 -0.3228 -0.0818
 6863TIP3    H120553   1.965   4.039   0.153 -1.0503  1.1486 -1.6686
 6863TIP3    H220554   2.078   4.084   0.243 -2.5865  1.1162  0.3361
 6864TIP3   OH220555   2.805   6.102   1.798 -0.2701  0.8479  0.0866
 6864TIP3    H120556   2.878   6.161   1.782  1.2067 -1.0926 -0.7739
 6864TIP3    H220557   2.737   6.131   1.737 -0.0874  2.4193  0.5936
 6865TIP3   OH220558   1.177   0.850   0.359 -0.2239  0.1879 -0.5046
 6865TIP3    H120559   1.213   0.813   0.439 -0.5101  2.2052  0.6383
 6865TIP3    H220560   1.146   0.937   0.385 -1.1723  0.5375 -2.6086
 6866TIP3   OH220561   1.145   1.917   5.153 -0.0020  0.4912 -0.8974
 6866TIP3    H120562   1.061   1.960   5.136 -0.4964  0.6655  1.5303
 6866TIP3    H220563   1.126   1.824   5.139 -0.1310  0.6601 -1.9334
 6867TIP3   OH220564   3.138   5.224   2.930  0.3711  0.8716  0.6731
 6867TIP3    H120565   3.141   5.294   2.995 -0.6851  0.2958  1.3612
 6867TIP3    H220566   3.197   5.254   2.860  0.8219  1.9080  1.4718
 6868TIP3   OH220567   1.488   5.334   2.379 -0.2697 -0.2243  0.2137
 6868TIP3    H120568   1.408   5.333   2.327 -0.9554 -0.8168  1.2454
 6868TIP3    H220569   1.536   5.257   2.350  0.4188  0.6634 -1.1054
 6869TIP3   OH220570   6.247   1.005   5.804 -0.1597  0.0147 -0.1640
 6869TIP3    H120571   6.281   1.030   5.718 -0.1646  4.2350  0.8491
 6869TIP3    H220572   6.324   1.005   5.861 -0.1256 -2.9216 -0.0933
 6870TIP3   OH220573   6.481   4.420   2.064  0.7934  0.1632  0.7625
 6870TIP3    H120574   6.567   4.457   2.042  1.0934 -0.5674  0.6591
 6870TIP3    H220575   6.460   4.458   2.149  1.6076 -0.2702  1.1715
 6871TIP3   OH220576   0.679   2.440   3.243 -0.2940 -0.3130 -0.6068
 6871TIP3    H120577   0.625   2.387   3.302 -1.3084  1.2749 -0.0577
 6871TIP3    H220578   0.707   2.514   3.295  2.8654 -1.2572 -0.7446
 6872TIP3   OH220579   0.270   4.006   0.819  0.1381 -0.4502 -0.3177
 6872TIP3    H120580   0.247   4.043   0.904  0.4289 -1.6211  0.3006
 6872TIP3    H220581   0.186   3.993   0.774  0.0083  0.5004 -0.3628
 6873TIP3   OH220582   6.437   0.324   5.457 -0.1896 -0.2691  0.2110
 6873TIP3    H120583   6.522   0.368   5.465 -0.4478  0.5145 -1.1521
 6873TIP3    H220584   6.379   0.391   5.421 -0.9978 -1.2641 -0.3697
 6874TIP3   OH220585   5.796   2.716   2.047 -0.9456  0.4088  0.0289
 6874TIP3    H120586   5.841   2.673   2.120 -2.3494  0.7028  1.1129
 6874TIP3    H220587   5.841   2.800   2.037 -0.7620  0.3834  0.5836
 6875TIP3   OH220588   4.692   3.610   1.077 -0.0515  0.3224 -0.0146
 6875TIP3    H120589   4.623   3.656   1.028 -0.2819 -1.3795 -1.3766
 6875TIP3    H220590   4.651   3.528   1.105  0.2304  1.0232  2.6940
 6876TIP3   OH220591   3.259   4.972   4.661 -0.2868 -0.2714 -0.8908
 6876TIP3    H120592   3.310   4.891   4.671  0.9904  0.5546 -0.4165
 6876TIP3    H220593   3.294   5.013   4.582 -0.1673  0.3303 -0.5353
 6877TIP3   OH220594   5.960   3.187   0.640  0.2946 -0.4812 -0.6603
 6877TIP3    H120595   5.871   3.196   0.605  0.6370 -0.9683 -1.7212
 6877TIP3    H220596   6.005   3.265   0.607  0.0045  0.3247  0.7774
 6878TIP3   OH220597   3.302   0.358   2.891 -0.2519 -0.6435  0.5108
 6878TIP3    H120598   3.219   0.398   2.918 -0.1484 -1.0032  1.4186
 6878TIP3    H220599   3.280   0.309   2.812 -1.0428 -1.1742  1.0377
 6879TIP3   OH220600   5.772   3.329   5.802  0.4320 -0.1567 -0.8052
 6879TIP3    H120601   5.757   3.418   5.771  0.5515 -0.2577 -1.1587
 6879TIP3    H220602   5.708   3.316   5.872 -1.3643 -0.6926 -2.4754
 6880TIP3   OH220603   6.706   5.273   5.633 -0.5909  0.1350 -0.2136
 6880TIP3    H120604   6.799   5.293   5.649 -0.7876 -0.3622  1.7924
 6880TIP3    H220605   6.703   5.178   5.626 -0.6556  0.2558 -2.7650
 6881TIP3   OH220606   6.824   0.539   0.092 -0.1198  0.2826 -0.0642
 6881TIP3    H120607   6.782   0.555   0.008  2.1611 -0.1815 -1.3613
 6881TIP3    H220608   6.887   0.611   0.102  0.9268 -0.6577  0.3399
 6882TIP3   OH220609   5.015   3.009   0.600 -0.1890 -0.0863  0.0115
 6882TIP3    H120610   5.106   3.005   0.628  0.3194 -0.2242 -1.5442
 6882TIP3    H220611   4.988   3.099   0.619  0.5558  0.2159 -0.3251
 6883TIP3   OH220612   0.075   3.374   5.271 -0.0843 -0.1655  0.1599
 6883TIP3    H120613  -0.016   3.345   5.276  0.0373 -0.4041  1.2622
 6883TIP3    H220614   0.069   3.470   5.273 -0.2320 -0.1529  3.1347
 6884TIP3   OH220615   5.884   2.420   4.008 -0.6456  0.1938 -0.5753
 6884TIP3    H120616   5.818   2.488   4.021 -0.1421  0.5497  0.2458
 6884TIP3    H220617   5.904   2.424   3.915 -1.7968  0.0580 -0.8468
 6885TIP3   OH220618   1.825   5.604   5.361 -0.2258 -0.1482  0.0892
 6885TIP3    H120619   1.910   5.626   5.322 -0.1276  1.2766  1.0440
 6885TIP3    H220620   1.846   5.581   5.452 -0.8756  0.5040  0.4127
 6886TIP3   OH220621   5.509   0.966   1.436 -0.4583  0.7531  0.3417
 6886TIP3    H120622   5.565   0.906   1.486  0.3373  2.1242  1.1602
 6886TIP3    H220623   5.537   1.053   1.463 -0.8143  1.5442 -1.6467
 6887TIP3   OH220624   4.042   3.133   3.270  0.3921  0.3366  0.2118
 6887TIP3    H120625   4.080   3.046   3.276  1.4296  0.6839 -0.8970
 6887TIP3    H220626   3.948   3.119   3.263  0.6862 -0.7966 -1.9453
 6888TIP3   OH220627   1.858   6.508   1.697  0.4815 -0.0484 -0.0431
 6888TIP3    H120628   1.784   6.466   1.742  1.7580 -0.9170  1.3569
 6888TIP3    H220629   1.851   6.601   1.721 -0.3500 -0.0616 -0.2141
 6889TIP3   OH220630   5.685   0.442   2.291 -0.2905  0.0007  0.4794
 6889TIP3    H120631   5.624   0.407   2.356  0.3287 -0.1690  0.9842
 6889TIP3    H220632   5.655   0.531   2.276 -1.2608 -0.3935 -0.0365
 6890TIP3   OH220633   0.803   6.480   1.264 -0.2575  0.4608  0.0856
 6890TIP3    H120634   0.770   6.391   1.277 -0.0271  0.6212  2.0052
 6890TIP3    H220635   0.893   6.477   1.297 -0.4599  1.5534  0.7993
 6891TIP3   OH220636   5.014   6.256   5.570 -0.0537 -0.1817 -0.9230
 6891TIP3    H120637   5.017   6.324   5.637  0.3982  0.6763 -1.7750
 6891TIP3    H220638   5.019   6.174   5.618  0.1078  0.4040  0.0930
 6892TIP3   OH220639   2.265   0.108   2.970  0.2354 -0.2260 -0.3120
 6892TIP3    H120640   2.178   0.076   2.993  0.1124 -1.4077 -2.2030
 6892TIP3    H220641   2.256   0.137   2.879  1.4987  0.9498 -0.0988
 6893TIP3   OH220642   4.294   4.930   3.480 -0.0618  0.2889  0.3261
 6893TIP3    H120643   4.389   4.938   3.487  0.2286 -1.8570 -0.4746
 6893TIP3    H220644   4.279   4.837   3.464 -2.1375  0.9373 -2.1540
 6894TIP3   OH220645   3.782   2.810   2.775 -0.0904  0.4060  0.0791
 6894TIP3    H120646   3.877   2.795   2.769 -0.2412 -1.7836  1.7342
 6894TIP3    H220647   3.748   2.776   2.692  0.4670 -0.2749  0.1107
 6895TIP3   OH220648   2.246   0.902   3.715  0.4696 -0.5175  0.4476
 6895TIP3    H120649   2.179   0.839   3.742 -0.3152  0.6527  1.2755
 6895TIP3    H220650   2.249   0.966   3.785  0.3600  1.0732 -0.9425
 6896TIP3   OH220651   0.298   5.852   1.041  0.4552  0.2646  0.1743
 6896TIP3    H120652   0.214   5.808   1.028  0.1393  1.0582 -0.5651
 6896TIP3    H220653   0.364   5.784   1.024 -0.0068  0.2641 -1.8838
 6897TIP3   OH220654   0.005   6.395   2.011  0.1133 -0.4480 -0.1899
 6897TIP3    H120655   0.005   6.439   2.096 -1.2779 -1.6835  0.4968
 6897TIP3    H220656   0.073   6.440   1.961 -1.4195  2.6677  0.3026
 6898TIP3   OH220657   2.029   0.534   0.867  0.4148  0.1886 -0.1232
 6898TIP3    H120658   2.051   0.615   0.913  1.0300  0.1308 -0.3067
 6898TIP3    H220659   2.052   0.551   0.776  4.1111 -1.3618  0.3025
 6899TIP3   OH220660   1.176   0.512   2.432 -0.4965  0.1823 -0.7833
 6899TIP3    H120661   1.120   0.530   2.357 -0.0647  0.8134 -0.9621
 6899TIP3    H220662   1.228   0.436   2.407  0.3122  0.9495 -1.5080
 6900TIP3   OH220663   1.482   6.284   1.738 -0.3419  0.7176  0.1631
 6900TIP3    H120664   1.562   6.289   1.790 -0.0603 -1.9783  0.1318
 6900TIP3    H220665   1.512   6.289   1.647 -0.2553  0.1155  0.1589
 6901TIP3   OH220666   1.108   0.230   4.378 -0.1249 -0.3538 -0.9694
 6901TIP3    H120667   1.042   0.198   4.318 -0.8546 -0.2828 -0.2195
 6901TIP3    H220668   1.118   0.160   4.443  1.2049 -0.7569 -1.5824
 6902TIP3   OH220669   2.489   2.813   0.512 -0.3881 -0.4841 -0.4241
 6902TIP3    H120670   2.458   2.724   0.523 -1.4046 -0.1923 -0.8698
 6902TIP3    H220671   2.584   2.807   0.524 -0.7648 -0.7710  5.2922
 6903TIP3   OH220672   5.732   6.068   2.729  0.1447 -0.2236 -0.4480
 6903TIP3    H120673   5.679   6.148   2.736 -1.3365 -1.1814 -0.3632
 6903TIP3    H220674   5.698   6.023   2.652 -1.2779 -2.3360  1.3125
 6904TIP3   OH220675   2.592   5.035   4.318 -0.0017  0.2912 -0.6672
 6904TIP3    H120676   2.520   4.983   4.282 -1.4552  0.7482  1.4076
 6904TIP3    H220677   2.573   5.040   4.412  3.9105 -1.3826  0.3785
 6905TIP3   OH220678   0.344   2.088   0.987  0.1035 -0.4447 -0.0921
 6905TIP3    H120679   0.350   2.137   0.905 -0.2534 -2.2328 -1.2428
 6905TIP3    H220680   0.432   2.053   1.000  0.3261  0.3573  0.6639
 6906TIP3   OH220681   5.781   6.452   1.756  0.7391 -0.0314  0.0460
 6906TIP3    H120682   5.687   6.439   1.757  0.8123 -0.9392 -1.5860
 6906TIP3    H220683   5.816   6.377   1.804  0.6760 -0.2641 -0.2706
 6907TIP3   OH220684   2.702   1.989   0.622 -0.5576  0.1872 -0.0622
 6907TIP3    H120685   2.654   1.907   0.610 -1.1875  0.5236  0.0823
 6907TIP3    H220686   2.790   1.962   0.646 -0.6233 -0.4485 -0.5131
 6908TIP3   OH220687   6.776   0.361   3.463  0.0036 -0.8169 -0.0035
 6908TIP3    H120688   6.802   0.319   3.545 -0.3580  0.3615  0.7279
 6908TIP3    H220689   6.682   0.344   3.456  0.1813 -1.6301 -0.6170
 6909TIP3   OH220690   2.692   6.166   4.046  0.0080 -0.1354 -0.4034
 6909TIP3    H120691   2.766   6.178   3.986 -0.2285 -0.1681 -0.7044
 6909TIP3    H220692   2.708   6.229   4.116  0.5388 -0.4295 -0.2502
 6910TIP3   OH220693   1.229   3.461   4.848  0.2677  0.1903 -0.1508
 6910TIP3    H120694   1.173   3.441   4.923  1.1943  0.2308  0.5790
 6910TIP3    H220695   1.274   3.542   4.873 -1.7156  2.0105 -2.0886
 6911TIP3   OH220696   1.159   2.965   5.648 -0.2364  0.5585 -0.2292
 6911TIP3    H120697   1.209   2.888   5.618  0.1493  1.0898 -0.9859
 6911TIP3    H220698   1.077   2.929   5.682  0.7074 -0.3593  1.2136
 6912TIP3   OH220699   0.213   2.258   3.105  0.0238 -0.4533  0.0165
 6912TIP3    H120700   0.304   2.234   3.087 -0.5443 -1.0414 -2.4689
 6912TIP3    H220701   0.163   2.178   3.086 -1.0994  0.1134  0.4982
 6913TIP3   OH220702   4.716   6.376   5.558 -0.1437  0.5451 -0.4678
 6913TIP3    H120703   4.679   6.420   5.634 -1.1132  0.0071 -0.6170
 6913TIP3    H220704   4.673   6.290   5.556 -1.1031  1.0216 -2.3526
 6914TIP3   OH220705   0.689   4.626   1.563  0.0918 -0.4659  0.1367
 6914TIP3    H120706   0.679   4.592   1.652  0.2106 -1.3249 -0.1629
 6914TIP3    H220707   0.747   4.563   1.520  2.9299  1.7767  0.4322
 6915TIP3   OH220708   4.955   4.668   1.705  0.2760 -0.3364  0.4631
 6915TIP3    H120709   4.945   4.758   1.738  0.6435 -0.5808  1.2836
 6915TIP3    H220710   4.946   4.613   1.783  0.8744 -0.9590  0.1093
 6916TIP3   OH220711   5.712   6.004   3.779  1.0912 -0.1825  0.0382
 6916TIP3    H120712   5.665   6.027   3.859 -0.3024 -1.2705 -0.4156
 6916TIP3    H220713   5.695   6.077   3.719  0.3428 -0.3505  0.0376
 6917TIP3   OH220714   2.387   1.672   1.599 -0.0841  0.1407  0.2850
 6917TIP3    H120715   2.340   1.649   1.679  0.8924 -0.7046  0.6263
 6917TIP3    H220716   2.476   1.691   1.627  0.4608 -0.8779 -0.6722
 6918TIP3   OH220717   3.040   6.394   5.783 -0.2191 -0.1162 -0.1962
 6918TIP3    H120718   3.076   6.421   5.868  0.5189 -0.8691 -0.2496
 6918TIP3    H220719   2.963   6.449   5.771 -1.5374 -1.3372  1.9154
 6919TIP3   OH220720   2.021   4.628   4.364  0.1840 -0.3938 -0.1588
 6919TIP3    H120721   2.069   4.624   4.447  0.9380 -0.2957 -0.5763
 6919TIP3    H220722   2.067   4.567   4.306 -1.0606 -1.3671 -0.1600
 6920TIP3   OH220723   2.861   4.568   0.500 -0.2542 -0.1997 -0.2463
 6920TIP3    H120724   2.915   4.622   0.443  0.7700 -1.1609 -0.2167
 6920TIP3    H220725   2.827   4.628   0.566  0.7203  0.4368 -0.3103
 6921TIP3   OH220726   5.425   6.172   5.181 -0.3076 -0.3188  0.5386
 6921TIP3    H120727   5.513   6.137   5.168 -0.8954 -1.2087 -1.4205
 6921TIP3    H220728   5.436   6.267   5.170  0.3343 -0.4709 -0.2409
 6922TIP3   OH220729   6.874   1.906   4.724 -0.6676 -0.5348 -0.5078
 6922TIP3    H120730   6.835   1.973   4.781 -0.8347  0.3591 -1.6429
 6922TIP3    H220731   6.961   1.892   4.759 -0.7663  0.0084 -0.0325
 6923TIP3   OH220732   3.751   1.654   3.333  0.1269 -0.4581  0.1178
 6923TIP3    H120733   3.752   1.624   3.242 -1.6511 -0.4008  0.0326
 6923TIP3    H220734   3.821   1.606   3.376  0.1492 -1.4723 -0.9994
 6924TIP3   OH220735   4.472   2.611   4.168 -0.6069  0.1948  0.1468
 6924TIP3    H120736   4.487   2.542   4.232 -0.5713  1.1512  1.2140
 6924TIP3    H220737   4.560   2.647   4.151 -0.7038  0.4187  0.1169
 6925TIP3   OH220738   6.610   2.101   0.717 -0.3167 -0.2653 -0.5765
 6925TIP3    H120739   6.607   2.190   0.684  1.8870 -0.5908 -1.8575
 6925TIP3    H220740   6.676   2.104   0.787 -0.9648 -0.7029  0.0693
 6926TIP3   OH220741   6.442   5.162   5.471  0.2728 -0.1854  0.2301
 6926TIP3    H120742   6.363   5.133   5.516 -0.2779 -0.2357 -0.7383
 6926TIP3    H220743   6.514   5.119   5.517 -0.3945 -1.6122 -0.0259
 6927TIP3   OH220744   3.138   5.698   1.870  0.4501  0.3833 -0.1137
 6927TIP3    H120745   3.107   5.708   1.960  3.2381  0.7129  0.9164
 6927TIP3    H220746   3.124   5.784   1.830 -0.3493  0.3787  0.1445
 6928TIP3   OH220747   4.712   3.984   1.942 -0.5775  0.1229 -0.0263
 6928TIP3    H120748   4.784   4.033   1.981 -0.0847  0.0681 -0.8632
 6928TIP3    H220749   4.641   3.990   2.007 -0.2547  1.2482  0.2357
 6929TIP3   OH220750   4.258   5.049   2.174 -0.2503  0.3676  0.0301
 6929TIP3    H120751   4.293   4.997   2.102 -0.0277 -0.5800  0.8133
 6929TIP3    H220752   4.209   5.119   2.131 -0.7681 -0.6319 -1.0430
 6930TIP3   OH220753   4.649   1.261   5.448 -0.1606  0.1478 -0.2514
 6930TIP3    H120754   4.599   1.273   5.367 -0.1321  1.4398 -0.0822
 6930TIP3    H220755   4.584   1.249   5.516 -0.2085  0.3112 -0.2691
 6931TIP3   OH220756   7.167   1.999   4.753  0.2799 -0.2339 -0.1891
 6931TIP3    H120757   7.258   1.996   4.783  0.1882  2.1374  0.4987
 6931TIP3    H220758   7.122   2.056   4.816 -1.4650 -0.5330 -1.0908
 6932TIP3   OH220759   6.685   3.571   2.515 -0.0864 -0.4593 -0.3727
 6932TIP3    H120760   6.733   3.492   2.542 -1.0529 -0.9721 -0.0888
 6932TIP3    H220761   6.603   3.567   2.565  0.9447  2.1387  1.7438
 6933TIP3   OH220762   0.892   4.645   3.599  0.0543 -0.4627  0.5081
 6933TIP3    H120763   0.865   4.736   3.588  0.0722 -0.4929  0.2122
 6933TIP3    H220764   0.968   4.649   3.658 -0.4897 -0.3617  1.2165
 6934TIP3   OH220765   2.914   3.895   1.416 -0.5935  0.0254  0.0065
 6934TIP3    H120766   2.971   3.903   1.492  1.0208 -1.2676 -0.9923
 6934TIP3    H220767   2.920   3.980   1.372 -0.8618  0.4894  0.8561
 6935TIP3   OH220768   6.128   5.883   3.157 -0.2465  0.1211  0.1486
 6935TIP3    H120769   6.202   5.883   3.096 -0.6095 -1.6549 -0.3511
 6935TIP3    H220770   6.061   5.935   3.113 -0.6276 -1.4070 -1.2202
 6936TIP3   OH220771   4.811   5.746   3.139  0.3347  0.7326 -0.0404
 6936TIP3    H120772   4.880   5.688   3.109  1.0839  1.2618  0.6070
 6936TIP3    H220773   4.733   5.691   3.144  0.4945  0.3270 -1.6112
 6937TIP3   OH220774   1.932   4.583   5.221  0.1646  0.5649  0.0592
 6937TIP3    H120775   1.925   4.632   5.139  0.8053  0.6289  0.0381
 6937TIP3    H220776   1.866   4.623   5.279  1.3000  2.0773  0.3626
 6938TIP3   OH220777   1.448   4.252   4.576 -0.4198 -0.0457  0.6593
 6938TIP3    H120778   1.485   4.318   4.634 -0.7228  0.5760  0.1569
 6938TIP3    H220779   1.517   4.186   4.568  0.5047  0.9641 -0.0567
 6939TIP3   OH220780   6.677   4.971   1.781 -0.4760 -0.0709  0.4951
 6939TIP3    H120781   6.623   4.892   1.790  1.3065 -1.7551 -2.0473
 6939TIP3    H220782   6.726   4.977   1.863 -1.2487 -1.1329  1.0558
 6940TIP3   OH220783   6.355   2.568   2.102  0.2202  0.2150 -0.0137
 6940TIP3    H120784   6.351   2.664   2.099  0.0462  0.1945 -0.5252
 6940TIP3    H220785   6.423   2.544   2.039  0.4835  0.0155  0.3447
 6941TIP3   OH220786   4.212   2.840   3.482  0.8184 -0.3267  0.5830
 6941TIP3    H120787   4.130   2.792   3.473 -0.2938  1.7624 -2.4376
 6941TIP3    H220788   4.185   2.928   3.511  1.8094  0.5730 -1.0312
 6942TIP3   OH220789   1.035   2.957   0.061 -0.0261 -0.2176  0.1372
 6942TIP3    H120790   1.052   2.865   0.081  0.3468  0.2999  2.4201
 6942TIP3    H220791   0.940   2.964   0.062 -0.0586 -0.5760 -0.0803
 6943TIP3   OH220792   0.493   4.036   1.812  0.2140 -0.4521  0.9980
 6943TIP3    H120793   0.429   4.030   1.883 -0.3827 -1.2978  0.4218
 6943TIP3    H220794   0.576   4.053   1.855  0.0879 -2.1738  2.0350
 6944TIP3   OH220795   6.876   1.911   0.960  0.4211  0.1144 -0.2162
 6944TIP3    H120796   6.873   2.003   0.936 -0.7646 -0.1889 -1.3835
 6944TIP3    H220797   6.833   1.907   1.045  1.4224  0.7551  0.3364
 6945TIP3   OH220798   3.202   5.489   0.917 -0.0735  0.5912  0.5618
 6945TIP3    H120799   3.291   5.476   0.950  0.2371  0.6286 -0.2403
 6945TIP3    H220800   3.200   5.581   0.890  0.2435  0.1327 -1.1354
 6946TIP3   OH220801   3.678   0.099   1.574  0.4821 -0.5205  0.3832
 6946TIP3    H120802   3.767   0.066   1.587  0.0346 -2.0480 -0.2184
 6946TIP3    H220803   3.637   0.089   1.660  1.1680  1.1608  0.9364
 6947TIP3   OH220804   2.396   4.441   1.347 -0.1698 -0.0861 -0.0749
 6947TIP3    H120805   2.408   4.494   1.426 -0.1813 -0.3780  0.1232
 6947TIP3    H220806   2.369   4.355   1.379 -0.7903 -0.0286 -0.4266
 6948TIP3   OH220807   4.184   1.129   5.499  0.0020 -0.7033  0.3508
 6948TIP3    H120808   4.236   1.209   5.497 -1.2562  0.1419  0.5457
 6948TIP3    H220809   4.210   1.086   5.580  0.3115 -0.2389  0.5034
 6949TIP3   OH220810   6.452   1.350   2.303  0.1883 -0.4652 -0.1928
 6949TIP3    H120811   6.448   1.269   2.252  0.8496 -0.3663 -0.4147
 6949TIP3    H220812   6.370   1.351   2.353 -0.7109 -0.3247 -1.6159
 6950TIP3   OH220813   3.282   0.963   3.707  0.3662  1.2707  0.7714
 6950TIP3    H120814   3.360   0.957   3.763  0.5851  3.1138  0.7170
 6950TIP3    H220815   3.208   0.960   3.768  0.4340 -0.3932  0.8306
 6951TIP3   OH220816   3.027   5.670   3.366  0.1929 -0.3823 -0.0316
 6951TIP3    H120817   2.980   5.731   3.422 -0.0172 -1.4101  0.9588
 6951TIP3    H220818   3.034   5.714   3.281 -1.1797  0.4226  0.2587
 6952TIP3   OH220819   4.086   6.721   3.601 -0.3637  0.3169 -0.8665
 6952TIP3    H120820   4.004   6.692   3.560  0.6070  0.7022 -3.2490
 6952TIP3    H220821   4.155   6.682   3.547  1.0405  0.7535  0.5328
 6953TIP3   OH220822   5.175   1.925   0.057 -0.1355 -0.5399 -0.8972
 6953TIP3    H120823   5.153   1.883   0.140  0.5993  1.4375  0.3656
 6953TIP3    H220824   5.187   1.852  -0.004  2.5767 -2.3019  1.4918
 6954TIP3   OH220825   6.170   5.474   3.805  0.4818 -0.3858 -0.1426
 6954TIP3    H120826   6.196   5.506   3.718 -0.2490 -1.0065 -0.6079
 6954TIP3    H220827   6.076   5.490   3.809  0.3555 -1.1655  0.1807
 6955TIP3   OH220828   0.561   0.143   4.790  0.0996  0.4565 -0.3164
 6955TIP3    H120829   0.493   0.101   4.843 -0.5594  1.1724 -0.5770
 6955TIP3    H220830   0.615   0.191   4.853  1.8921 -2.0690  0.2075
 6956TIP3   OH220831   5.386   4.201   3.866 -0.1568  0.1487 -0.5528
 6956TIP3    H120832   5.456   4.148   3.903  0.3263 -0.2004 -1.9483
 6956TIP3    H220833   5.381   4.176   3.774 -1.2197  1.1312 -0.7964
 6957TIP3   OH220834   7.194   1.880   0.320  0.4180 -0.4264 -0.1777
 6957TIP3    H120835   7.117   1.921   0.282  1.5690  2.1790  0.0706
 6957TIP3    H220836   7.175   1.878   0.414 -0.3578 -2.2231 -0.3295
 6958TIP3   OH220837   4.529   0.108   0.310 -0.3475  0.6602 -0.0756
 6958TIP3    H120838   4.621   0.128   0.297 -0.4520  1.7745  0.6830
 6958TIP3    H220839   4.494   0.185   0.356 -1.5424  0.0569  0.0829
 6959TIP3   OH220840   4.806   0.676   2.058 -0.1998 -0.1792  0.0324
 6959TIP3    H120841   4.749   0.652   2.131 -0.3342 -0.4814 -0.1724
 6959TIP3    H220842   4.764   0.638   1.981  0.0675 -0.0634 -0.1718
 6960TIP3   OH220843   5.542   5.345   3.916 -0.0316 -0.1926  0.0450
 6960TIP3    H120844   5.613   5.352   3.852  0.2132 -1.6728  0.1000
 6960TIP3    H220845   5.576   5.386   3.995  0.0948  0.6530 -0.4444
 6961TIP3   OH220846   6.894   3.925   5.539 -0.4669 -0.1376 -0.4345
 6961TIP3    H120847   6.846   3.909   5.620  0.1467 -2.0872 -0.3950
 6961TIP3    H220848   6.977   3.963   5.566 -0.6337  0.0717 -0.2206
 6962TIP3   OH220849   2.158   0.657   0.655 -0.4400  0.4536  0.3275
 6962TIP3    H120850   2.134   0.687   0.567 -2.9160 -1.2466  0.3524
 6962TIP3    H220851   2.154   0.737   0.708 -0.8736  1.1625 -0.7172
 6963TIP3   OH220852   3.651   1.346   2.575 -0.0640 -0.0737 -0.0918
 6963TIP3    H120853   3.699   1.355   2.657 -0.1174 -0.4173 -0.0221
 6963TIP3    H220854   3.559   1.355   2.599  0.0178  4.0031 -0.6572
 6964TIP3   OH220855   6.260   4.154   1.641 -0.5845 -0.4019  0.4783
 6964TIP3    H120856   6.269   4.217   1.569 -1.5240 -0.9790 -0.1664
 6964TIP3    H220857   6.341   4.163   1.691  0.5208 -0.6207 -1.1791
 6965TIP3   OH220858   0.576   5.232   2.868  0.1128  0.0936  0.3017
 6965TIP3    H120859   0.582   5.263   2.958  1.5449 -1.6315  0.8474
 6965TIP3    H220860   0.598   5.310   2.815  1.0765  0.6771  1.5076
 6966TIP3   OH220861   3.889   0.415   3.241 -0.5228  0.9239 -0.7340
 6966TIP3    H120862   3.851   0.340   3.286  1.2815  0.1527 -0.3935
 6966TIP3    H220863   3.814   0.469   3.217 -1.6976  0.7640  2.1004
 6967TIP3   OH220864   2.287   6.249   2.275 -0.2490  0.3486  0.4686
 6967TIP3    H120865   2.304   6.212   2.362  1.2016 -2.4189 -0.8686
 6967TIP3    H220866   2.360   6.310   2.261 -0.6715  1.0675  1.2913
 6968TIP3   OH220867   0.330   0.670   0.022  0.6516  0.0081  0.4358
 6968TIP3    H120868   0.388   0.689  -0.051  0.2894 -0.8266 -0.0793
 6968TIP3    H220869   0.386   0.678   0.100  0.8192  1.7877  0.1592
 6969TIP3   OH220870   4.043   4.620   5.247  0.1722 -0.2849 -0.2347
 6969TIP3    H120871   3.968   4.590   5.298 -0.3820 -0.9405 -1.3868
 6969TIP3    H220872   4.018   4.708   5.217  0.0548 -0.3216 -0.2437
 6970TIP3   OH220873   0.988   3.093   1.876 -0.1193 -0.3415  0.4002
 6970TIP3    H120874   1.008   3.048   1.958 -1.7694 -0.1479  0.9480
 6970TIP3    H220875   0.895   3.077   1.862 -0.5704  2.1524  0.1554
 6971TIP3   OH220876   0.321   3.816   1.301  0.6563 -0.1895  0.0726
 6971TIP3    H120877   0.404   3.849   1.335  0.7133 -0.9744  0.7226
 6971TIP3    H220878   0.340   3.792   1.210  1.3417 -1.0237  0.4199
 6972TIP3   OH220879   3.088   5.970   1.776  0.1505  0.3388  0.0450
 6972TIP3    H120880   3.078   6.065   1.781 -1.2741  0.1597  1.1706
 6972TIP3    H220881   3.095   5.952   1.682 -0.8882  1.4473 -0.2714
 6973TIP3   OH220882   2.266   0.901   5.821 -0.2379  0.5020 -0.2742
 6973TIP3    H120883   2.236   0.893   5.911  0.1551  0.9607 -0.0952
 6973TIP3    H220884   2.347   0.850   5.818  0.6531  1.8502  0.0823
 6974TIP3   OH220885   3.260   0.233   3.542  0.0820 -0.4843 -0.0888
 6974TIP3    H120886   3.255   0.307   3.603  0.7300  0.4347 -1.1029
 6974TIP3    H220887   3.194   0.171   3.574 -0.7369  0.6836  0.5812
 6975TIP3   OH220888   5.386   2.198   5.614  0.1568  0.1337 -0.1456
 6975TIP3    H120889   5.480   2.186   5.629 -0.3526 -2.0278  1.8785
 6975TIP3    H220890   5.355   2.114   5.581 -1.3046  0.2838  0.7191
 6976TIP3   OH220891   1.795   6.017   4.929 -0.4931  0.2236 -0.0277
 6976TIP3    H120892   1.774   6.090   4.988  1.6337  0.3265  0.6900
 6976TIP3    H220893   1.714   5.967   4.924 -0.9522  0.5269  2.5524
 6977TIP3   OH220894   3.297   0.649   3.163  0.0774  0.7740 -0.2693
 6977TIP3    H120895   3.319   0.671   3.253  2.0231  2.9293 -1.1603
 6977TIP3    H220896   3.325   0.558   3.153 -3.3381 -0.7529  2.1251
 6978TIP3   OH220897   6.259   6.215   1.653 -0.0849 -0.1443  0.1157
 6978TIP3    H120898   6.167   6.220   1.626 -0.0781  0.1247  0.1393
 6978TIP3    H220899   6.302   6.170   1.581  0.3541  2.5744 -1.4475
 6979TIP3   OH220900   5.176   1.678   3.617  0.3364  0.3109  0.8839
 6979TIP3    H120901   5.134   1.594   3.599  0.4448  0.5385 -0.5719
 6979TIP3    H220902   5.269   1.659   3.615  0.4114  0.6477 -0.7242
 6980TIP3   OH220903   1.805   2.832   1.028  0.1110  0.4673  0.3013
 6980TIP3    H120904   1.866   2.815   1.100 -1.1650  2.4535  1.9972
 6980TIP3    H220905   1.786   2.926   1.035 -2.4186  0.1049 -0.7037
 6981TIP3   OH220906   4.223   0.998   4.012  0.0716  0.2752  0.6727
 6981TIP3    H120907   4.308   0.963   3.984 -0.2057  0.1604 -0.0440
 6981TIP3    H220908   4.161   0.964   3.948 -0.4076  0.9674  0.7613
 6982TIP3   OH220909   2.887   3.633   3.634  0.6494  0.6151 -0.0552
 6982TIP3    H120910   2.860   3.703   3.693  0.2151 -0.1889  0.7199
 6982TIP3    H220911   2.859   3.663   3.547 -0.0144  1.1585  0.3369
 6983TIP3   OH220912   4.762   1.996   3.664 -0.6334  0.4537  0.0453
 6983TIP3    H120913   4.817   1.984   3.586 -1.6980 -0.2494 -0.6237
 6983TIP3    H220914   4.823   1.990   3.737 -0.0238 -2.0733 -0.5858
 6984TIP3   OH220915   4.892   1.319   5.341 -0.2331 -0.2436 -0.9669
 6984TIP3    H120916   4.811   1.271   5.356  0.5923 -1.7323 -1.0949
 6984TIP3    H220917   4.896   1.381   5.414 -0.6168 -1.3786  0.0668
 6985TIP3   OH220918   1.373   1.277   1.568 -0.0873  0.0373 -0.2621
 6985TIP3    H120919   1.313   1.329   1.621 -0.3572 -0.1694 -0.3639
 6985TIP3    H220920   1.336   1.280   1.480 -0.4202 -0.7910 -0.1626
 6986TIP3   OH220921   4.105   0.991   2.298  0.6506  0.3787  0.2439
 6986TIP3    H120922   4.078   1.033   2.216  1.2110 -0.6230 -0.4641
 6986TIP3    H220923   4.191   0.954   2.280  0.5042 -0.4176  1.0849
 6987TIP3   OH220924   4.491   5.494   2.668  0.2312 -0.3873 -0.1070
 6987TIP3    H120925   4.399   5.512   2.691  0.7758  1.6955  0.6485
 6987TIP3    H220926   4.499   5.398   2.675 -2.0396 -0.7011 -0.8927
 6988TIP3   OH220927   6.431   4.923   2.565  0.4553  0.1474  0.8940
 6988TIP3    H120928   6.383   4.930   2.648  0.1425 -0.0030  0.7292
 6988TIP3    H220929   6.382   4.858   2.515  1.9397 -1.4909  1.4786
 6989TIP3   OH220930   3.933   4.056   4.126  0.5861 -0.3738  0.1803
 6989TIP3    H120931   3.946   3.985   4.063 -2.5620 -1.0220  0.0878
 6989TIP3    H220932   3.974   4.133   4.086  1.4826 -1.4679 -1.0842
 6990TIP3   OH220933   3.356   0.122   2.779  0.3739 -0.0711 -0.6324
 6990TIP3    H120934   3.349   0.105   2.685 -0.5934 -0.7183 -0.4538
 6990TIP3    H220935   3.448   0.106   2.800  0.4167 -0.7633 -1.3138
 6991TIP3   OH220936   3.486   5.491   2.977 -0.0363  0.4350 -0.1373
 6991TIP3    H120937   3.506   5.404   2.943 -1.2119 -0.1579  0.6240
 6991TIP3    H220938   3.547   5.549   2.931  1.3670 -0.8826 -0.0346
 6992TIP3   OH220939   6.769   2.386   2.758 -0.0126 -0.1387 -0.0028
 6992TIP3    H120940   6.802   2.420   2.842  0.8476 -0.6051 -0.1367
 6992TIP3    H220941   6.802   2.296   2.755  0.6688  0.1290 -1.2148
 6993TIP3   OH220942   4.571   0.760   4.743 -0.0083 -0.1678 -0.3115
 6993TIP3    H120943   4.512   0.822   4.785 -0.3963 -1.2164  0.7331
 6993TIP3    H220944   4.537   0.752   4.654 -0.2910  0.6654 -0.2931
 6994TIP3   OH220945   3.460   1.683   0.921  0.5204  0.1750 -0.6818
 6994TIP3    H120946   3.379   1.703   0.968  1.0721  0.7601  0.0436
 6994TIP3    H220947   3.444   1.596   0.883 -0.6412  0.5202 -1.0197
 6995TIP3   OH220948   4.739   0.942   1.483 -0.6768  0.7871  0.2234
 6995TIP3    H120949   4.782   0.894   1.412  0.9619 -0.2126  1.8196
 6995TIP3    H220950   4.760   1.034   1.466 -0.6989  0.6108 -0.8264
 6996TIP3   OH220951   4.128   0.237   1.010 -0.0440 -0.2167 -0.1962
 6996TIP3    H120952   4.073   0.181   1.065 -0.6123 -1.0850 -1.5982
 6996TIP3    H220953   4.085   0.237   0.925  0.7037  1.2596 -0.6206
 6997TIP3   OH220954   4.639   2.791   2.269  0.5186 -0.2286  0.6440
 6997TIP3    H120955   4.605   2.707   2.301  0.0471 -0.3361 -0.1218
 6997TIP3    H220956   4.637   2.783   2.174  3.6474 -0.6157  0.5135
 6998TIP3   OH220957   2.633   3.457   5.662 -0.7123 -0.2059 -0.2511
 6998TIP3    H120958   2.615   3.370   5.627  0.3751 -0.9700  1.0046
 6998TIP3    H220959   2.558   3.476   5.719 -0.2027 -1.0250  0.7141
 6999TIP3   OH220960   2.790   5.444   4.412  0.1295 -0.0184  0.4316
 6999TIP3    H120961   2.812   5.530   4.446  0.6184  0.2112 -0.4402
 6999TIP3    H220962   2.817   5.446   4.320 -2.1818 -0.2299 -0.3114
 7000TIP3   OH220963   5.160   4.877   5.152  0.2510 -0.7268 -0.7279
 7000TIP3    H120964   5.130   4.947   5.210  0.3069 -0.7769 -0.6374
 7000TIP3    H220965   5.221   4.827   5.206  0.8195 -0.3826 -1.0319
 7001TIP3   OH220966   6.871   6.558   5.149  0.2341 -0.1968  0.0191
 7001TIP3    H120967   6.900   6.645   5.122  0.8152 -0.4318 -0.1187
 7001TIP3    H220968   6.775   6.563   5.145  0.2699  0.3433 -0.2833
 7002TIP3   OH220969   4.986   1.298   2.003 -0.5402  0.0845 -0.0048
 7002TIP3    H120970   4.932   1.329   2.076 -0.8408  1.8726 -0.9282
 7002TIP3    H220971   4.923   1.261   1.941 -0.3359 -0.9349  0.3677
 7003TIP3   OH220972   4.260   0.268   0.637  0.1661 -0.1563 -0.6347
 7003TIP3    H120973   4.182   0.249   0.585 -0.5825 -1.9308  1.0183
 7003TIP3    H220974   4.327   0.290   0.573 -1.3187  0.1096 -2.1787
 7004TIP3   OH220975   4.112   0.693   1.312  0.0066  0.7777  1.0411
 7004TIP3    H120976   4.160   0.716   1.232 -0.1003  0.5024  0.8950
 7004TIP3    H220977   4.162   0.621   1.350 -0.3995  0.3530  0.7792
 7005TIP3   OH220978   2.755   0.340   4.844 -0.1693  0.4087  0.0767
 7005TIP3    H120979   2.707   0.375   4.769  0.4801  0.8648 -0.1400
 7005TIP3    H220980   2.845   0.332   4.813 -0.2084 -1.0532  0.2728
 7006TIP3   OH220981   5.122   0.707   4.880  0.0855 -0.1527  0.3143
 7006TIP3    H120982   5.180   0.714   4.804 -1.1905  0.1202 -0.6701
 7006TIP3    H220983   5.182   0.705   4.955  1.3660  2.6349 -0.4636
 7007TIP3   OH220984   4.248   0.631   3.797 -0.2401  0.2478 -0.2134
 7007TIP3    H120985   4.222   0.705   3.741 -2.1090  0.5095  0.9347
 7007TIP3    H220986   4.300   0.575   3.739  1.5751  2.5991 -1.0356
 7008TIP3   OH220987   5.240   0.435   3.147 -0.0391  0.5013  0.7532
 7008TIP3    H120988   5.156   0.448   3.103 -1.3209 -2.5549  2.0026
 7008TIP3    H220989   5.230   0.479   3.231 -0.6855 -0.3694  1.1498
 7009TIP3   OH220990   1.397   2.352   2.799  0.3490 -0.6546  0.8528
 7009TIP3    H120991   1.392   2.445   2.817  0.0889 -0.5143  0.1095
 7009TIP3    H220992   1.457   2.317   2.864  0.2433 -0.0122  1.2972
 7010TIP3   OH220993   0.626   0.852   1.921 -0.4425 -0.2169 -0.7577
 7010TIP3    H120994   0.587   0.794   1.856 -3.7242  0.8398  0.0948
 7010TIP3    H220995   0.636   0.936   1.875  4.6866 -1.2154 -2.1262
 7011TIP3   OH220996   6.747   5.887   5.463 -0.5737  0.1587  0.2847
 7011TIP3    H120997   6.716   5.972   5.495  0.4468  0.6710 -0.0373
 7011TIP3    H220998   6.667   5.839   5.442 -1.2459  2.2996 -2.7716
 7012TIP3   OH220999   6.201   2.827   2.921  0.0469 -0.2184 -0.5372
 7012TIP3    H121000   6.143   2.766   2.875 -1.1913  0.1044  0.5194
 7012TIP3    H221001   6.157   2.843   3.005  1.2981  0.6556 -0.0152
 7013TIP3   OH221002   0.328   6.440   3.606  0.1063 -0.1267  1.1533
 7013TIP3    H121003   0.281   6.443   3.522 -1.6734  1.0550  2.1351
 7013TIP3    H221004   0.420   6.456   3.582 -0.3728  0.3622 -0.5419
 7014TIP3   OH221005   3.365   3.389   2.056 -0.1364  0.1127  0.4508
 7014TIP3    H121006   3.293   3.445   2.030 -1.8894 -1.9295  0.6808
 7014TIP3    H221007   3.359   3.385   2.152 -0.2241 -0.7142  0.4152
 7015TIP3   OH221008   4.235   4.857   3.898 -0.0478 -0.2077  0.5458
 7015TIP3    H121009   4.210   4.918   3.968  1.6534 -0.2949  1.2896
 7015TIP3    H221010   4.163   4.861   3.836 -1.4779  0.1321  2.1311
 7016TIP3   OH221011   4.655   4.124   1.616  0.2010  0.3502 -0.1359
 7016TIP3    H121012   4.724   4.062   1.592  0.3113  0.0575  0.8982
 7016TIP3    H221013   4.603   4.077   1.681 -0.6149  0.7992 -0.4484
 7017TIP3   OH221014   3.456   5.323   4.477  0.6477 -0.4506 -0.2573
 7017TIP3    H121015   3.369   5.291   4.453 -0.5212  1.4361  1.2280
 7017TIP3    H221016   3.513   5.247   4.466 -1.1402 -1.7035 -1.4038
 7018TIP3   OH221017   3.125   0.809   0.034 -0.1126 -0.1002  0.2212
 7018TIP3    H121018   3.083   0.809   0.120  0.6907  1.4652  0.6514
 7018TIP3    H221019   3.121   0.900   0.005  0.1086 -0.5115 -1.1744
 7019TIP3   OH221020   5.448   1.207   5.863 -0.2528  0.7704  0.6142
 7019TIP3    H121021   5.480   1.147   5.796  0.6117  2.3075 -0.4412
 7019TIP3    H221022   5.526   1.229   5.915 -0.1230  2.3369 -0.1676
 7020TIP3   OH221023   1.945   1.837   3.254 -0.6049 -0.0985 -0.0910
 7020TIP3    H121024   1.974   1.771   3.190  0.2644  0.1057  0.0727
 7020TIP3    H221025   1.976   1.803   3.338  1.0822  1.1448 -0.1514
 7021TIP3   OH221026   6.107   2.844   3.203  0.3550 -0.1861  0.5504
 7021TIP3    H121027   6.084   2.921   3.151  0.2452 -0.0042  0.8661
 7021TIP3    H221028   6.028   2.824   3.253 -0.5130 -2.0640 -1.4175
 7022TIP3   OH221029   1.497   1.401   4.046  0.1014 -0.3417  0.8134
 7022TIP3    H121030   1.481   1.495   4.046  0.9637 -0.1693 -0.4834
 7022TIP3    H221031   1.417   1.363   4.009  0.6148  0.1006 -0.8414
 7023TIP3   OH221032   2.129   1.789   2.480  0.1233 -0.2903 -0.0125
 7023TIP3    H121033   2.190   1.861   2.459 -1.5408  1.0671 -0.4665
 7023TIP3    H221034   2.185   1.719   2.513  1.6644  2.2053  3.3052
 7024TIP3   OH221035   5.825   1.515   5.202 -0.2729 -0.1660 -0.3908
 7024TIP3    H121036   5.865   1.464   5.272 -1.7210  1.1193  1.4573
 7024TIP3    H221037   5.859   1.476   5.121  0.6168 -2.3845  0.9791
 7025TIP3   OH221038   1.928   2.773   1.904 -0.5651 -0.0255  0.1701
 7025TIP3    H121039   1.877   2.702   1.865 -0.3334  0.2595 -0.6779
 7025TIP3    H221040   1.883   2.792   1.986 -2.0514  0.4642 -0.7193
 7026TIP3   OH221041   3.912   5.363   2.454  0.7108 -0.0190 -0.2391
 7026TIP3    H121042   3.998   5.333   2.424  1.8975  0.7108  2.2022
 7026TIP3    H221043   3.921   5.372   2.549 -2.1683 -0.1859  0.1443
 7027TIP3   OH221044   5.544   0.169   1.459  0.2818 -0.4710 -0.2669
 7027TIP3    H121045   5.525   0.207   1.545 -1.6884  0.3425 -1.0100
 7027TIP3    H221046   5.637   0.147   1.463  0.9231  2.0475  1.1541
 7028TIP3   OH221047   1.073   6.277   3.553 -0.2366 -0.4361  0.0272
 7028TIP3    H121048   1.095   6.340   3.485  0.9642  0.9305  1.6092
 7028TIP3    H221049   1.140   6.209   3.545  1.1833  0.7699  1.0918
 7029TIP3   OH221050   0.580   0.389   3.570  0.4567 -0.0170 -0.2534
 7029TIP3    H121051   0.491   0.424   3.570  0.6403  0.4530  0.0626
 7029TIP3    H221052   0.622   0.429   3.646  0.3590 -1.7541  0.7463
 7030TIP3   OH221053   0.002   1.600   1.626 -0.0643 -0.0016  0.2577
 7030TIP3    H121054   0.094   1.603   1.598 -0.1497 -0.3968 -0.0718
 7030TIP3    H221055  -0.047   1.637   1.553 -0.4770 -2.8168 -0.9913
 7031TIP3   OH221056   7.128   4.321   3.191 -0.7409  0.1277  0.5222
 7031TIP3    H121057   7.039   4.292   3.213 -1.3088  0.5587 -1.0824
 7031TIP3    H221058   7.115   4.395   3.133  0.6982  1.3361  1.6673
 7032TIP3   OH221059   2.475   2.515   4.801  0.3078 -0.2272  0.7097
 7032TIP3    H121060   2.569   2.526   4.815  0.4444 -0.2088 -0.1931
 7032TIP3    H221061   2.468   2.436   4.746 -0.0677  0.7970 -0.7712
 7033TIP3   OH221062   0.373   2.450   2.374 -0.1022  0.1940 -0.3622
 7033TIP3    H121063   0.401   2.535   2.341 -1.0474  0.3015 -0.9063
 7033TIP3    H221064   0.279   2.449   2.361 -0.2749 -0.4276  0.8256
 7034TIP3   OH221065   4.203   5.496   5.154  0.3213  0.1614  0.2128
 7034TIP3    H121066   4.243   5.562   5.211  1.3872  1.0957 -1.5283
 7034TIP3    H221067   4.175   5.544   5.077 -1.2085 -1.0465 -0.0453
 7035TIP3   OH221068   3.470   1.160   1.431 -0.4613  0.0763  0.1387
 7035TIP3    H121069   3.407   1.165   1.502 -0.9771 -4.2114  0.2236
 7035TIP3    H221070   3.547   1.117   1.468  0.4859  0.5041 -1.2071
 7036TIP3   OH221071   2.708   4.684   4.902  0.3663 -0.1475 -0.3806
 7036TIP3    H121072   2.782   4.658   4.957  0.9112 -0.5693 -1.2933
 7036TIP3    H221073   2.661   4.749   4.955  0.4292 -1.0846  0.8918
 7037TIP3   OH221074   1.587   4.283   0.667 -0.3172  0.6021  0.3353
 7037TIP3    H121075   1.541   4.219   0.613  1.6662  0.0423 -0.7751
 7037TIP3    H221076   1.561   4.368   0.631 -0.0465  0.2783 -0.6598
 7038TIP3   OH221077   1.381   3.865   0.997 -0.2818 -0.1380 -0.1581
 7038TIP3    H121078   1.329   3.802   0.947 -1.9322  0.9765  0.0896
 7038TIP3    H221079   1.433   3.811   1.057 -1.1079 -1.2954 -0.4588
 7039TIP3   OH221080   0.097   3.199   4.991 -0.0890 -0.0712  0.3561
 7039TIP3    H121081   0.188   3.178   4.969 -0.7647 -2.8371 -0.1654
 7039TIP3    H221082   0.103   3.256   5.067  2.0870  1.7678 -1.0469
 7040TIP3   OH221083   1.863   3.079   3.066  0.6562  0.5438 -0.5123
 7040TIP3    H121084   1.950   3.078   3.026  0.9058  1.8331 -0.0569
 7040TIP3    H221085   1.812   3.139   3.011  0.7423  1.6227  0.5574
 7041TIP3   OH221086   5.724   3.831   4.711  0.2672  0.4502  0.2038
 7041TIP3    H121087   5.761   3.908   4.667 -1.0477  1.4537  0.7984
 7041TIP3    H221088   5.668   3.790   4.645 -1.0295  1.4686  0.6448
 7042TIP3   OH221089   2.392   3.079   4.298 -0.0424  0.0140 -0.0764
 7042TIP3    H121090   2.320   3.020   4.277  0.4777 -1.4644  2.0121
 7042TIP3    H221091   2.349   3.160   4.325 -0.8967 -0.4804  0.0882
 7043TIP3   OH221092   4.183   6.546   0.301  0.3763 -0.2525  0.8300
 7043TIP3    H121093   4.171   6.640   0.292  0.7605 -0.1965  0.8891
 7043TIP3    H221094   4.241   6.535   0.377  0.8798 -0.4957  0.4219
 7044TIP3   OH221095   6.588   2.119   2.345  0.5401 -0.4565  0.1438
 7044TIP3    H121096   6.574   2.206   2.307 -1.8522 -0.5412  0.7113
 7044TIP3    H221097   6.528   2.062   2.298  0.1270 -1.2659  1.5944
 7045TIP3   OH221098   4.789   5.387   5.300 -0.0226  0.3833  0.3277
 7045TIP3    H121099   4.711   5.427   5.263 -0.2452 -0.9657 -0.7685
 7045TIP3    H221100   4.773   5.293   5.292  1.7217  0.0754  0.0047
 7046TIP3   OH221101   5.288   0.435   5.257  0.4841 -0.2908  0.5464
 7046TIP3    H121102   5.315   0.477   5.338 -0.7458  0.4150  0.6145
 7046TIP3    H221103   5.368   0.428   5.205  0.8327  1.6324  0.7658
 7047TIP3   OH221104   3.254   3.310   5.214 -0.2559 -0.5336 -0.2330
 7047TIP3    H121105   3.318   3.344   5.277 -0.4451 -1.0834  0.2656
 7047TIP3    H221106   3.292   3.229   5.181 -0.5043 -0.6443 -0.2511
 7048TIP3   OH221107   2.590   1.424   1.626  0.2369 -0.1655 -0.8581
 7048TIP3    H121108   2.550   1.477   1.557  0.6866  2.5664  0.8402
 7048TIP3    H221109   2.518   1.405   1.687  0.4302  0.0493 -0.5593
 7049TIP3   OH221110   6.101   0.266   5.859 -0.3733  0.0026  0.2374
 7049TIP3    H121111   6.084   0.360   5.868  0.1537 -0.1164  3.3987
 7049TIP3    H221112   6.035   0.225   5.915  0.7264 -1.3833  0.5473
 7050TIP3   OH221113   2.691   5.554   0.564  0.0350  0.0015  0.0917
 7050TIP3    H121114   2.776   5.595   0.551 -0.5379  1.0032 -0.6533
 7050TIP3    H221115   2.711   5.461   0.577  1.2163  0.1850 -0.2626
 7051TIP3   OH221116   6.201   2.991   1.670 -0.2565 -0.0380  0.5446
 7051TIP3    H121117   6.216   2.906   1.710  1.5743 -0.0582 -0.0626
 7051TIP3    H221118   6.258   2.991   1.593 -1.9501  0.8755 -0.7574
 7052TIP3   OH221119   0.290   1.884   1.611  0.1816  0.0820 -0.4020
 7052TIP3    H121120   0.353   1.932   1.665  0.7093 -1.0107 -0.0240
 7052TIP3    H221121   0.302   1.920   1.523  0.9042  0.3136 -0.2192
 7053TIP3   OH221122   3.670   4.002   4.190 -0.0923  0.3827  0.2339
 7053TIP3    H121123   3.666   4.054   4.270 -0.1689 -1.6469  1.6336
 7053TIP3    H221124   3.750   4.031   4.147 -1.1531  3.0316 -0.1095
 7054TIP3   OH221125   2.315   5.705   4.760  0.5139  0.5529 -0.0736
 7054TIP3    H121126   2.337   5.769   4.828 -0.1895 -0.3488  1.0344
 7054TIP3    H221127   2.395   5.654   4.748 -0.0102 -0.7932  1.7977
 7055TIP3   OH221128   4.627   5.874   2.207 -0.3313  0.4031 -0.2276
 7055TIP3    H121129   4.540   5.900   2.237 -0.2752  0.6830 -0.3035
 7055TIP3    H221130   4.662   5.820   2.278 -0.2737  0.9049  0.1322
 7056TIP3   OH221131   4.518   4.468   1.186  0.4199  0.2027  0.3984
 7056TIP3    H121132   4.589   4.531   1.179  0.7721 -0.1216  0.9883
 7056TIP3    H221133   4.518   4.442   1.278 -0.9755  0.8041  0.6041
 7057TIP3   OH221134   5.535   3.632   2.044  0.1888 -0.5351  0.7894
 7057TIP3    H121135   5.630   3.636   2.055  0.0548 -0.6221  2.1986
 7057TIP3    H221136   5.502   3.598   2.127 -1.1075 -0.1765  0.4578
 7058TIP3   OH221137   6.834   1.949   1.227 -0.0406  0.9884  0.4693
 7058TIP3    H121138   6.813   2.019   1.289  0.5905  0.0669  1.7418
 7058TIP3    H221139   6.795   1.870   1.264 -0.0610  0.4970 -0.5491
 7059TIP3   OH221140   3.271   1.678   3.442 -0.5915  0.2778  0.1078
 7059TIP3    H121141   3.247   1.655   3.532 -0.7271  1.9510  0.5336
 7059TIP3    H221142   3.367   1.676   3.442 -0.6032 -0.6200  0.0256
 7060TIP3   OH221143   6.895   4.647   4.924 -0.0565  0.3924  0.1764
 7060TIP3    H121144   6.877   4.608   4.838 -1.0947 -0.6891  0.8624
 7060TIP3    H221145   6.908   4.740   4.905  2.6600 -0.1962 -1.5387
 7061TIP3   OH221146   2.300   4.656   0.151 -0.1561 -0.3706 -0.5304
 7061TIP3    H121147   2.279   4.657   0.245 -1.0822 -1.9927 -0.6929
 7061TIP3    H221148   2.364   4.727   0.141 -2.2498  1.8673  0.7685
 7062TIP3   OH221149   0.476   3.211   3.552 -0.2554 -0.4647 -0.1440
 7062TIP3    H121150   0.541   3.279   3.569 -0.3523 -0.3086 -0.3962
 7062TIP3    H221151   0.527   3.134   3.525 -0.2905  0.7979 -4.4370
 7063TIP3   OH221152   5.196   1.769   2.733  0.0708  0.2216 -0.2656
 7063TIP3    H121153   5.181   1.679   2.706  1.6762  0.2566 -1.3988
 7063TIP3    H221154   5.140   1.821   2.675  0.0156  0.0139 -0.3991
 7064TIP3   OH221155   0.544   6.696   1.075  0.7171  0.0778  0.2245
 7064TIP3    H121156   0.510   6.733   1.157 -0.1391  1.2411 -0.6317
 7064TIP3    H221157   0.639   6.694   1.088  0.7067  1.5737  0.7300
 7065TIP3   OH221158   3.472   1.360   4.972 -0.9603 -0.5049  0.2818
 7065TIP3    H121159   3.379   1.340   4.964 -1.1421  0.4018 -0.0452
 7065TIP3    H221160   3.508   1.346   4.885 -1.6258  2.9845 -0.7340
 7066TIP3   OH221161   2.484   1.601   5.206 -0.0998 -0.0595  0.0422
 7066TIP3    H121162   2.509   1.635   5.292 -1.8640  1.3674  0.0600
 7066TIP3    H221163   2.396   1.566   5.219 -0.1722 -0.3184 -1.0583
 7067TIP3   OH221164   5.809   5.207   3.041  0.3999 -0.0289 -0.6365
 7067TIP3    H121165   5.737   5.152   3.011  1.4676 -0.5299 -2.3965
 7067TIP3    H221166   5.878   5.194   2.977  2.6695 -0.7206  1.7645
 7068TIP3   OH221167   3.151   4.668   0.580 -0.3125  0.2203 -0.0292
 7068TIP3    H121168   3.201   4.700   0.505  0.8434  0.1244  0.6871
 7068TIP3    H221169   3.085   4.736   0.595  0.1004  0.7370 -0.4967
 7069TIP3   OH221170   3.127   3.029   5.455 -0.2146  0.0870 -0.0743
 7069TIP3    H121171   3.219   3.026   5.429 -0.1154  2.2245 -0.2173
 7069TIP3    H221172   3.129   3.042   5.550 -0.4367 -1.7034  0.1980
 7070TIP3   OH221173   3.383   5.323   1.674  0.5112  0.0159 -0.3415
 7070TIP3    H121174   3.324   5.323   1.599  0.7705  1.2545 -0.5639
 7070TIP3    H221175   3.331   5.361   1.745  0.8427  0.5380 -0.3775
 7071TIP3   OH221176   0.401   2.806   3.262 -0.4935 -0.5305  0.0004
 7071TIP3    H121177   0.342   2.783   3.334  0.2510  0.1251  0.8558
 7071TIP3    H221178   0.471   2.741   3.268  0.7466  0.8391  1.3593
 7072TIP3   OH221179   1.711   3.094   0.205 -0.3085  0.0134 -0.4376
 7072TIP3    H121180   1.675   3.150   0.136 -0.0484  0.3758 -0.2788
 7072TIP3    H221181   1.802   3.079   0.178  0.0700  0.9039  0.2857
 7073TIP3   OH221182   3.959   2.737   5.562  0.3217 -0.7254  0.0988
 7073TIP3    H121183   3.886   2.710   5.505  0.3228 -2.4461  0.8557
 7073TIP3    H221184   3.920   2.745   5.649  0.5391  0.8917  0.0796
 7074TIP3   OH221185   2.679   4.643   2.111  0.2881 -0.7321 -0.0908
 7074TIP3    H121186   2.619   4.685   2.173 -0.7669 -2.3163  0.0189
 7074TIP3    H221187   2.753   4.616   2.164  0.1908 -0.5417  0.1475
 7075TIP3   OH221188   4.434   2.064   4.341 -0.3879 -0.3478  0.3357
 7075TIP3    H121189   4.461   2.061   4.250 -3.1646 -1.2185 -0.5809
 7075TIP3    H221190   4.351   2.015   4.343 -1.0121  0.6171  3.1092
 7076TIP3   OH221191   3.093   6.631   0.961  0.3318 -0.5549 -0.6130
 7076TIP3    H121192   3.152   6.705   0.943 -1.2649  1.0757  0.4738
 7076TIP3    H221193   3.143   6.576   1.022  1.7224 -0.6668 -1.7857
 7077TIP3   OH221194   2.347   3.710   4.989 -0.4491 -0.2612  0.0672
 7077TIP3    H121195   2.356   3.720   4.895  0.1607  2.9709  0.3373
 7077TIP3    H221196   2.272   3.764   5.013  0.4934  0.4792  1.5738
 7078TIP3   OH221197   5.154   1.541   2.604  0.2202  0.0964 -0.1776
 7078TIP3    H121198   5.249   1.526   2.601  0.1488 -0.1689 -1.4044
 7078TIP3    H221199   5.122   1.511   2.519 -0.6168  2.5818 -0.7964
 7079TIP3   OH221200   1.524   4.672   3.444 -0.0205 -0.3185 -0.3403
 7079TIP3    H121201   1.575   4.720   3.509 -0.3521 -0.5127  0.0689
 7079TIP3    H221202   1.502   4.589   3.487  0.8374 -0.9902 -1.1588
 7080TIP3   OH221203   6.700   4.942   2.900  0.3638 -0.1782 -0.0398
 7080TIP3    H121204   6.793   4.922   2.895  0.0836 -1.3011 -1.2441
 7080TIP3    H221205   6.667   4.928   2.811 -1.0502 -0.3151  0.4753
 7081TIP3   OH221206   3.170   3.015   2.877  0.0594  0.4990 -0.0358
 7081TIP3    H121207   3.120   3.086   2.837  1.3610  0.9694 -0.8993
 7081TIP3    H221208   3.210   3.054   2.954 -0.7553  0.1589  0.5783
 7082TIP3   OH221209   6.294   4.747   5.147 -0.1670  0.6779  0.0319
 7082TIP3    H121210   6.308   4.755   5.053  0.9570  1.6851  0.2605
 7082TIP3    H221211   6.350   4.674   5.173  0.4951  1.1856  0.0846
 7083TIP3   OH221212   5.313   3.701   4.985 -0.6971 -0.1477  0.1561
 7083TIP3    H121213   5.272   3.785   4.965  0.5872  0.0057 -2.0861
 7083TIP3    H221214   5.406   3.715   4.967 -0.5913 -2.3045 -1.3240
 7084TIP3   OH221215   0.118   1.858   4.344  0.2193 -0.3209 -0.0889
 7084TIP3    H121216   0.050   1.919   4.373  1.2462  0.8422 -0.0778
 7084TIP3    H221217   0.148   1.816   4.424  0.4010  0.1050  0.0688
 7085TIP3   OH221218   2.996   3.267   2.848 -0.1343 -0.2154  0.1364
 7085TIP3    H121219   2.991   3.335   2.780 -1.9309  0.6989  1.1178
 7085TIP3    H221220   2.919   3.212   2.832  1.2297 -2.0387 -0.5766
 7086TIP3   OH221221   4.981   1.606   4.419 -0.5204 -0.1035 -0.3685
 7086TIP3    H121222   4.983   1.670   4.490 -1.7362  0.6980 -1.0226
 7086TIP3    H221223   4.894   1.614   4.381  0.7594  1.1196 -3.3881
 7087TIP3   OH221224   6.277   2.184   2.523  0.1843 -0.1776  0.0269
 7087TIP3    H121225   6.245   2.251   2.584  0.9864  0.8244 -0.6314
 7087TIP3    H221226   6.316   2.233   2.451 -0.9359 -1.3277 -1.4367
 7088TIP3   OH221227   4.207   3.674   5.220  0.3632 -0.0294  0.1356
 7088TIP3    H121228   4.247   3.717   5.144 -0.4781 -0.1686 -0.4016
 7088TIP3    H221229   4.162   3.745   5.267 -0.7294 -0.2336 -0.5594
 7089TIP3   OH221230   5.770   1.359   2.118 -0.6660  0.4253 -0.0780
 7089TIP3    H121231   5.819   1.398   2.045  0.2874 -0.0425  0.2935
 7089TIP3    H221232   5.699   1.421   2.134  0.0671  1.3756 -0.3462
 7090TIP3   OH221233   7.090   4.225   5.405 -0.1844  0.6708 -0.3644
 7090TIP3    H121234   7.168   4.262   5.364  0.2685  1.6317  1.2663
 7090TIP3    H221235   7.121   4.187   5.487 -1.6226  2.6054  1.1639
 7091TIP3   OH221236   7.013   4.116   0.851  0.1551 -0.2602  0.7320
 7091TIP3    H121237   7.026   4.205   0.818  0.4785 -1.0327 -1.3612
 7091TIP3    H221238   6.918   4.109   0.862 -0.0295 -0.1283 -0.5973
 7092TIP3   OH221239   1.207   5.942   0.139 -0.3528 -0.2991  0.2322
 7092TIP3    H121240   1.158   6.007   0.089 -0.7907 -0.5347  0.3417
 7092TIP3    H221241   1.255   5.993   0.204  1.4341  0.1563 -1.3616
 7093TIP3   OH221242   6.795   2.656   1.056 -0.5451  0.4335 -0.1469
 7093TIP3    H121243   6.867   2.622   1.109  0.7525  0.9272 -1.5052
 7093TIP3    H221244   6.797   2.751   1.071 -1.6770  0.3430  0.6876
 7094TIP3   OH221245   1.332   5.292   0.562 -0.1210 -0.5855 -0.2289
 7094TIP3    H121246   1.286   5.304   0.479 -0.1396  0.1078 -0.1208
 7094TIP3    H221247   1.318   5.200   0.584  0.3145 -0.9064 -1.2479
 7095TIP3   OH221248   6.442   0.893   2.836  0.1292  0.2375  0.6013
 7095TIP3    H121249   6.452   0.919   2.927 -0.8203 -1.5224  1.2639
 7095TIP3    H221250   6.522   0.844   2.816  0.5246  0.9789  0.3437
 7096TIP3   OH221251   1.909   4.401   0.303  0.6088 -0.4132 -0.4026
 7096TIP3    H121252   1.912   4.473   0.366 -0.3815 -0.1865 -0.6067
 7096TIP3    H221253   1.860   4.332   0.347  1.6159 -1.0116 -0.1821
 7097TIP3   OH221254   5.169   5.884   1.505 -0.3104  0.0673 -0.0959
 7097TIP3    H121255   5.214   5.858   1.425  0.5413 -0.1795  0.4484
 7097TIP3    H221256   5.216   5.839   1.575  1.3504  3.1147  0.9417
 7098TIP3   OH221257   2.047   1.416   2.707 -0.1726  0.5892 -0.1831
 7098TIP3    H121258   2.068   1.376   2.622  1.2574  0.5455  0.1660
 7098TIP3    H221259   1.997   1.495   2.684  0.7016  0.9000 -1.1169
 7099TIP3   OH221260   6.124   0.317   2.641  0.1596  0.3038  0.1686
 7099TIP3    H121261   6.127   0.260   2.718  0.7465 -1.9972 -1.4851
 7099TIP3    H221262   6.215   0.323   2.612 -0.3140 -0.8369 -1.6964
 7100TIP3   OH221263   2.621   4.898   1.715 -0.0539  0.3521  0.8495
 7100TIP3    H121264   2.698   4.949   1.691  0.1442  0.4990  1.7868
 7100TIP3    H221265   2.595   4.855   1.634  0.1585  1.4261  0.1881
 7101TIP3   OH221266   1.589   2.731   3.435 -0.0685  0.7382 -0.2199
 7101TIP3    H121267   1.683   2.738   3.451 -0.1779  1.5792  0.1071
 7101TIP3    H221268   1.578   2.646   3.392  0.5977 -0.2984  1.5497
 7102TIP3   OH221269   6.415   1.095   1.340 -0.1157  0.0153 -0.1332
 7102TIP3    H121270   6.378   1.098   1.428 -0.9132 -1.7853 -0.3773
 7102TIP3    H221271   6.451   1.183   1.327  0.1926  0.2768  2.0419
 7103TIP3   OH221272   0.732   3.848   0.377 -0.2624  0.0343  0.3631
 7103TIP3    H121273   0.825   3.871   0.375 -0.1005 -0.5456 -1.4933
 7103TIP3    H221274   0.722   3.792   0.454  0.4449  1.8003  1.8126
 7104TIP3   OH221275   0.601   5.497   3.570 -0.3782  0.3015 -0.3491
 7104TIP3    H121276   0.560   5.435   3.630 -1.8860  1.0324 -0.5866
 7104TIP3    H221277   0.565   5.475   3.484 -1.3582  1.8049 -0.3584
 7105TIP3   OH221278   0.091   3.055   0.076 -0.0242  0.0053  0.2850
 7105TIP3    H121279   0.011   3.017   0.114 -1.8917  4.6094  1.6706
 7105TIP3    H221280   0.144   3.078   0.152  0.2962  1.4264 -0.3481
 7106TIP3   OH221281   6.571   1.588   2.467 -0.1909 -0.2345  0.3182
 7106TIP3    H121282   6.620   1.662   2.433  1.9160 -2.1399 -1.1023
 7106TIP3    H221283   6.558   1.531   2.392 -2.8982 -0.7743  1.0971
 7107TIP3   OH221284   3.014   4.602   5.330  0.8694  0.0186  0.0705
 7107TIP3    H121285   3.064   4.630   5.253  1.9740  0.9716  1.0902
 7107TIP3    H221286   2.929   4.643   5.319  0.2968 -1.5163 -1.6292
 7108TIP3   OH221287   1.565   4.471   1.940  0.1186  0.0798  0.4883
 7108TIP3    H121288   1.647   4.457   1.893 -0.2642  1.0589 -0.5111
 7108TIP3    H221289   1.577   4.427   2.024  1.3085 -0.5876 -0.0154
 7109TIP3   OH221290   5.164   0.156   1.230 -0.0827  0.1393 -0.0519
 7109TIP3    H121291   5.246   0.157   1.179 -0.5479  2.2875 -0.8468
 7109TIP3    H221292   5.184   0.204   1.310  0.0844 -1.5229  0.9559
 7110TIP3   OH221293   3.030   5.307   5.828 -0.2835 -0.8809  0.0487
 7110TIP3    H121294   3.008   5.356   5.908  1.0412  0.5396 -0.3951
 7110TIP3    H221295   2.948   5.267   5.801 -0.9242 -0.8069  1.7265
 7111TIP3   OH221296   6.459   3.329   5.134 -0.3358 -0.2825 -0.0089
 7111TIP3    H121297   6.511   3.391   5.083 -1.7513  0.6892 -0.3215
 7111TIP3    H221298   6.381   3.314   5.081 -1.2745 -0.1943  1.3074
 7112TIP3   OH221299   4.195   6.368   5.735  0.6525 -1.0588 -0.2647
 7112TIP3    H121300   4.103   6.354   5.759  0.3090  2.0745  0.6641
 7112TIP3    H221301   4.243   6.352   5.816  1.2278 -4.2704 -1.1184
 7113TIP3   OH221302   2.422   4.616   0.765  0.0631  0.3558  0.1701
 7113TIP3    H121303   2.328   4.600   0.761  0.2133 -0.3831 -1.0542
 7113TIP3    H221304   2.461   4.545   0.714  1.2220  1.0689  0.0120
 7114TIP3   OH221305   7.179   0.063   2.231 -0.3327  0.5115  0.7251
 7114TIP3    H121306   7.158  -0.029   2.215  0.5976  0.5729 -1.1881
 7114TIP3    H221307   7.110   0.111   2.186 -0.2695  0.7422  0.8745
 7115TIP3   OH221308   1.834   4.668   1.620 -0.6268 -0.4791  0.0739
 7115TIP3    H121309   1.929   4.672   1.631 -0.5434 -0.3196 -0.6489
 7115TIP3    H221310   1.818   4.707   1.534 -1.5085  1.2090  0.9502
 7116TIP3   OH221311   1.367   4.197   2.303  0.6195 -0.6188 -0.0341
 7116TIP3    H121312   1.329   4.160   2.223  0.3499 -0.3034 -0.0511
 7116TIP3    H221313   1.434   4.134   2.328  1.3205 -0.2683 -1.0041
 7117TIP3   OH221314   6.480   2.868   2.676  0.0377 -0.0727  0.3062
 7117TIP3    H121315   6.427   2.920   2.616  1.0114  0.1613 -0.3680
 7117TIP3    H221316   6.446   2.779   2.665  0.0907 -0.0089 -0.4842
 7118TIP3   OH221317   3.650   2.207   2.435  0.2488 -0.2774 -0.6788
 7118TIP3    H121318   3.579   2.254   2.478  0.1221 -1.2640  0.2093
 7118TIP3    H221319   3.607   2.135   2.390  0.6280 -0.5045 -0.6794
 7119TIP3   OH221320   6.961   1.430   4.417 -0.2235  0.2811 -0.0116
 7119TIP3    H121321   6.991   1.476   4.338 -0.2694 -1.0011 -0.7901
 7119TIP3    H221322   7.037   1.381   4.447  0.3379  2.1212  1.8115
 7120TIP3   OH221323   3.758   0.319   2.152 -0.1128  0.0414  0.1527
 7120TIP3    H121324   3.814   0.358   2.219 -1.2667  1.3393  0.4068
 7120TIP3    H221325   3.784   0.362   2.070 -1.2033  1.1878  0.3894
 7121TIP3   OH221326   2.186   3.860   2.129 -0.0422  0.3327 -0.2246
 7121TIP3    H121327   2.273   3.829   2.152  0.1315 -0.5910 -1.9507
 7121TIP3    H221328   2.158   3.803   2.057 -1.4649  1.5492 -0.7067
 7122TIP3   OH221329   6.035   3.382   1.149  0.2230 -0.3908  0.3001
 7122TIP3    H121330   6.061   3.381   1.057 -0.9248 -1.0277 -0.0345
 7122TIP3    H221331   6.118   3.392   1.197  0.6380  2.3622 -0.8191
 7123TIP3   OH221332   6.788   6.044   4.201 -0.1838 -0.0651  0.4293
 7123TIP3    H121333   6.825   6.009   4.119 -0.2151  0.4786  0.1817
 7123TIP3    H221334   6.697   6.063   4.179 -0.1906  0.0849  0.5907
 7124TIP3   OH221335   3.744   1.487   5.000 -0.1656 -0.2294 -0.2662
 7124TIP3    H121336   3.698   1.567   4.975 -1.5219 -1.0842 -0.6517
 7124TIP3    H221337   3.676   1.419   4.998  0.7103 -1.1952  1.1071
 7125TIP3   OH221338   0.220   0.252   0.040  0.2260 -0.3797 -0.4815
 7125TIP3    H121339   0.148   0.246  -0.022  0.6173 -2.1074 -0.8203
 7125TIP3    H221340   0.187   0.308   0.110 -0.9719 -0.1083 -1.2383
 7126TIP3   OH221341   4.141   5.454   4.839  0.0193 -0.4882  0.3215
 7126TIP3    H121342   4.182   5.371   4.864 -1.5387 -1.2126  0.5766
 7126TIP3    H221343   4.133   5.449   4.744 -2.8275 -2.0510  0.5374
 7127TIP3   OH221344   6.155   5.171   0.540 -0.0522  0.0716 -0.2809
 7127TIP3    H121345   6.091   5.169   0.612 -0.6407 -0.8482 -0.8091
 7127TIP3    H221346   6.227   5.225   0.574  1.2279 -2.9283  2.3025
 7128TIP3   OH221347   0.355   5.258   1.118  0.4072  0.7677 -0.3128
 7128TIP3    H121348   0.306   5.188   1.075 -0.3468  2.0735 -1.6404
 7128TIP3    H221349   0.409   5.212   1.183 -0.7549 -0.9397 -0.4846
 7129TIP3   OH221350   2.653   2.097   1.690 -0.5819  0.2685  0.1790
 7129TIP3    H121351   2.602   2.173   1.718  1.5274  1.7766  0.2186
 7129TIP3    H221352   2.713   2.081   1.763 -1.9654 -2.4633  0.8297
 7130TIP3   OH221353   3.172   0.639   4.263  0.2120 -0.5086 -0.4173
 7130TIP3    H121354   3.169   0.570   4.329  0.5068 -0.4754 -0.3646
 7130TIP3    H221355   3.232   0.606   4.196 -0.0054 -0.4983 -0.6184
 7131TIP3   OH221356   6.665   2.649   1.466  0.1338 -0.5603  0.0570
 7131TIP3    H121357   6.646   2.616   1.378  0.7061  2.7577 -1.4665
 7131TIP3    H221358   6.584   2.635   1.515 -0.5444 -1.5936 -1.3036
 7132TIP3   OH221359   1.253   0.465   1.819 -0.3323  0.4743  0.0866
 7132TIP3    H121360   1.285   0.548   1.783 -0.4758  0.3800 -0.2599
 7132TIP3    H221361   1.324   0.403   1.802 -1.0893  0.0099 -1.6457
 7133TIP3   OH221362   6.896   4.514   4.270 -0.0381 -0.0190  0.9322
 7133TIP3    H121363   6.939   4.431   4.251 -0.4086  0.2838 -1.5903
 7133TIP3    H221364   6.824   4.491   4.329 -1.4353 -1.9225 -1.3239
 7134TIP3   OH221365   6.089   0.390   4.340 -0.0079  0.8038  0.2250
 7134TIP3    H121366   6.126   0.478   4.348 -0.2660  1.0182 -0.7815
 7134TIP3    H221367   6.118   0.345   4.419  1.1313  1.4258  0.1882
 7135TIP3   OH221368   1.912   6.588   5.729  0.5654  0.6979 -0.3981
 7135TIP3    H121369   1.827   6.618   5.697 -0.6653 -1.4218  0.6299
 7135TIP3    H221370   1.946   6.532   5.659 -1.3521 -2.5652  1.0014
 7136TIP3   OH221371   2.341   2.258   4.192  0.2622 -0.1108  0.0378
 7136TIP3    H121372   2.335   2.308   4.273 -2.4836 -1.5229  0.8427
 7136TIP3    H221373   2.345   2.166   4.220  0.4014 -0.5749 -1.4159
 7137TIP3   OH221374   4.080   5.012   3.640  0.3099 -0.0444  0.3495
 7137TIP3    H121375   4.046   5.075   3.577  0.7652  0.6700  0.7977
 7137TIP3    H221376   4.158   4.975   3.598  0.6994  0.5411  0.5420
 7138TIP3   OH221377   4.012   2.444   1.852  0.0471  0.3927  0.0765
 7138TIP3    H121378   3.941   2.441   1.787 -0.4927  1.6385  0.5797
 7138TIP3    H221379   4.032   2.537   1.862  0.8888  0.1434  0.8835
 7139TIP3   OH221380   4.279   5.140   3.286 -0.2122  0.0554  0.8194
 7139TIP3    H121381   4.302   5.076   3.353 -0.4094 -1.6727 -0.6973
 7139TIP3    H221382   4.350   5.133   3.221 -1.5524 -0.5520 -0.6333
 7140TIP3   OH221383   0.906   2.602   4.950  0.0868 -0.4999 -0.2366
 7140TIP3    H121384   0.994   2.578   4.920  0.5928  0.4873  0.4297
 7140TIP3    H221385   0.916   2.691   4.985 -0.7257 -1.1447  1.7621
 7141TIP3   OH221386   6.981   5.344   2.542  0.0524  0.7016 -0.0080
 7141TIP3    H121387   6.992   5.316   2.632 -0.4421  0.4638 -0.0191
 7141TIP3    H221388   6.959   5.264   2.494 -0.6782  0.9824 -0.1608
 7142TIP3   OH221389   3.337   0.141   2.499 -0.6484 -0.1237 -0.7922
 7142TIP3    H121390   3.414   0.195   2.482 -0.9277  0.3049 -0.6958
 7142TIP3    H221391   3.266   0.184   2.451 -0.7346 -0.7858 -1.2812
 7143TIP3   OH221392   4.200   2.335   0.326 -0.1218  0.0323  0.0823
 7143TIP3    H121393   4.207   2.240   0.333 -1.7448 -0.4462 -3.0116
 7143TIP3    H221394   4.155   2.362   0.406 -0.1418 -1.8687  0.7535
 7144TIP3   OH221395   6.479   1.424   2.677 -0.0782 -0.6037 -0.0008
 7144TIP3    H121396   6.389   1.452   2.693  0.0198 -1.0786  1.6522
 7144TIP3    H221397   6.507   1.473   2.600 -1.6211 -0.1606 -0.3014
 7145TIP3   OH221398   3.384   5.741   2.784  0.4203  0.8163 -0.4682
 7145TIP3    H121399   3.458   5.690   2.816 -0.6250 -0.3847  0.1219
 7145TIP3    H221400   3.405   5.758   2.692  1.6331  0.9282 -0.1890
 7146TIP3   OH221401   2.337   5.746   5.195  0.2813  0.6428 -0.0240
 7146TIP3    H121402   2.259   5.699   5.164  0.5074  0.6790 -0.6572
 7146TIP3    H221403   2.403   5.678   5.208  0.2611  0.6566  0.1598
 7147TIP3   OH221404   2.106   4.967   1.472 -0.0751  0.6068  0.2107
 7147TIP3    H121405   2.194   4.996   1.499  0.3243 -0.2930 -0.0875
 7147TIP3    H221406   2.084   5.023   1.398 -0.1722  1.4905  0.8890
 7148TIP3   OH221407   6.549   3.891   1.167  0.3878  0.1014 -0.0073
 7148TIP3    H121408   6.520   3.975   1.133 -0.3153 -0.3878 -0.6428
 7148TIP3    H221409   6.591   3.912   1.250  1.8876  1.2989 -1.0125
 7149TIP3   OH221410   5.773   3.582   2.813 -0.3385 -0.4794  0.3153
 7149TIP3    H121411   5.838   3.526   2.856 -0.8792 -1.2871  0.1046
 7149TIP3    H221412   5.802   3.671   2.831  0.7199 -0.8316  0.3804
 7150TIP3   OH221413   5.926   3.620   3.582 -0.3131  0.2775  0.1777
 7150TIP3    H121414   5.947   3.530   3.608  0.7797  0.4069 -0.2040
 7150TIP3    H221415   5.894   3.612   3.492  1.5564  0.4340 -0.5453
 7151TIP3   OH221416   5.950   1.477   3.244 -0.1442 -0.2404 -0.0618
 7151TIP3    H121417   5.857   1.464   3.264  0.1696  0.0498  1.8184
 7151TIP3    H221418   5.965   1.570   3.262  0.6907 -0.4795  0.5312
 7152TIP3   OH221419   3.066   0.483   3.408  0.2308 -0.0627  0.8119
 7152TIP3    H121420   3.098   0.572   3.393 -0.3296  0.0442  0.2229
 7152TIP3    H221421   3.019   0.461   3.329 -0.3593 -0.5724  1.2976
 7153TIP3   OH221422   3.448   5.267   2.151 -0.1695 -0.2706  0.4835
 7153TIP3    H121423   3.363   5.309   2.162  0.6893  1.1153  2.4966
 7153TIP3    H221424   3.508   5.339   2.134  1.0120 -0.8534  1.8874
 7154TIP3   OH221425   1.676   4.122   3.496 -0.2855 -0.0082 -0.2758
 7154TIP3    H121426   1.668   4.171   3.414  0.7137  1.7334  0.6071
 7154TIP3    H221427   1.683   4.190   3.563  0.8181 -1.3889  1.0595
 7155TIP3   OH221428   4.855   2.670   4.286  0.0527 -0.3090 -0.3529
 7155TIP3    H121429   4.813   2.670   4.372  1.0561 -0.4783  0.1491
 7155TIP3    H221430   4.797   2.724   4.232 -1.0470 -0.9028  0.1860
 7156TIP3   OH221431   3.909   1.121   5.513  0.7377 -0.7657  0.2099
 7156TIP3    H121432   3.890   1.190   5.449 -1.1476 -1.6797 -0.3192
 7156TIP3    H221433   4.003   1.105   5.505  1.0911  1.2332 -0.1351
 7157TIP3   OH221434   4.715   0.370   1.653  0.1413 -0.5885 -0.1617
 7157TIP3    H121435   4.809   0.353   1.652  0.5442  1.3224 -1.3501
 7157TIP3    H221436   4.681   0.320   1.579  0.4277 -0.4313 -0.4074
 7158TIP3   OH221437   6.185   1.244   0.717  0.1845 -0.0652  0.7458
 7158TIP3    H121438   6.156   1.173   0.775 -1.6809  0.9239  1.0948
 7158TIP3    H221439   6.117   1.311   0.726  0.9336  0.9797 -1.0206
 7159TIP3   OH221440   5.611   4.012   5.260 -0.1672  0.1405  0.2944
 7159TIP3    H121441   5.629   3.925   5.226 -2.5307 -0.6546  0.8592
 7159TIP3    H221442   5.682   4.029   5.322  0.9366 -0.8807 -0.6455
 7160TIP3   OH221443   6.565   5.624   2.789  0.1292 -0.1325 -0.3644
 7160TIP3    H121444   6.658   5.601   2.779  0.3867  0.4079  0.6570
 7160TIP3    H221445   6.558   5.710   2.748 -0.4434 -1.1566 -2.5400
 7161TIP3   OH221446   7.187   3.921   0.815  0.2184 -0.5707 -0.2088
 7161TIP3    H121447   7.174   3.894   0.725  2.6551 -0.6805 -0.5937
 7161TIP3    H221448   7.117   3.984   0.832 -1.5279 -2.0801 -1.4591
 7162TIP3   OH221449   5.827   3.841   2.881  0.1303 -0.4600 -0.3324
 7162TIP3    H121450   5.863   3.871   2.965  0.3276  2.3317 -1.3108
 7162TIP3    H221451   5.884   3.879   2.815 -0.5803 -1.8077 -1.7770
 7163TIP3   OH221452   5.298   3.412   3.483 -0.1300  0.1484  0.3188
 7163TIP3    H121453   5.212   3.437   3.516 -0.0801  0.4349  0.2392
 7163TIP3    H221454   5.289   3.417   3.387  0.2342  1.1026  0.3173
 7164TIP3   OH221455   5.608   2.243   3.783  0.4000 -0.1382  0.3503
 7164TIP3    H121456   5.587   2.150   3.789  4.9040 -1.3312  1.8377
 7164TIP3    H221457   5.644   2.253   3.694  0.9289 -0.1109  0.5643
 7165TIP3   OH221458   3.696   2.613   4.199 -0.8957 -0.4374  0.6179
 7165TIP3    H121459   3.702   2.584   4.290 -2.4784 -0.3933  0.7688
 7165TIP3    H221460   3.606   2.592   4.173 -0.7883  0.5026 -0.6024
 7166TIP3   OH221461   6.857   5.137   3.302 -0.2957  0.4422 -0.2588
 7166TIP3    H121462   6.931   5.109   3.248  0.1866  2.7804 -0.9035
 7166TIP3    H221463   6.879   5.226   3.329 -1.3191 -0.0383  2.4337
 7167TIP3   OH221464   2.099   2.487   1.440 -0.3092  0.6200  0.2731
 7167TIP3    H121465   2.177   2.493   1.384  0.6421  1.1185  1.5925
 7167TIP3    H221466   2.062   2.576   1.439  0.1785  0.8405  1.0566
 7168TIP3   OH221467   3.221   2.925   5.167  0.0157 -0.1508  0.3565
 7168TIP3    H121468   3.190   3.006   5.127  0.3818  0.2049  0.7918
 7168TIP3    H221469   3.300   2.902   5.118  0.3615  0.1863  0.7570
 7169TIP3   OH221470   6.969   1.533   4.674 -0.0259  0.1315  0.2907
 7169TIP3    H121471   6.940   1.497   4.590 -0.6427 -1.2816  1.0637
 7169TIP3    H221472   6.895   1.585   4.705  0.0298  0.2901  0.1549
 7170TIP3   OH221473   4.431   1.534   1.713 -0.3447  0.6762  0.4268
 7170TIP3    H121474   4.367   1.490   1.658 -0.7039  1.4553  0.2101
 7170TIP3    H221475   4.438   1.622   1.676 -0.2545  1.0675  1.3470
 7171TIP3   OH221476   1.321   0.868   0.116  0.3465 -0.0679 -0.6016
 7171TIP3    H121477   1.283   0.846   0.201  0.4847 -0.5486 -0.6588
 7171TIP3    H221478   1.252   0.845   0.053  0.5485 -0.5021 -0.6724
 7172TIP3   OH221479   2.189   1.049   3.192 -0.4669 -0.0379 -0.7713
 7172TIP3    H121480   2.255   1.118   3.193 -0.7013  0.1874 -0.8982
 7172TIP3    H221481   2.168   1.035   3.285  0.2917 -0.6244 -0.6822
 7173TIP3   OH221482   3.448   3.845   0.967  0.4648 -0.1432 -0.1025
 7173TIP3    H121483   3.513   3.882   0.909  1.5293 -0.4622  0.8515
 7173TIP3    H221484   3.429   3.759   0.930  0.1914  0.1571 -0.6685
 7174TIP3   OH221485   4.073   1.499   5.717  0.0327 -0.7618 -0.0079
 7174TIP3    H121486   4.050   1.415   5.755  0.6063 -1.3634 -0.9639
 7174TIP3    H221487   4.159   1.520   5.753  0.4271 -1.1711 -0.7003
 7175TIP3   OH221488   4.192   1.963   3.877  0.0204  0.4107  0.8186
 7175TIP3    H121489   4.270   2.019   3.869  1.1216 -0.7787  2.4897
 7175TIP3    H221490   4.123   2.022   3.906  0.6985  1.2023  0.8731
 7176TIP3   OH221491   0.739   3.970   3.393 -0.0467 -0.2899 -0.2500
 7176TIP3    H121492   0.745   3.996   3.301  0.9837  0.0070 -0.1108
 7176TIP3    H221493   0.727   4.053   3.441 -3.0677 -0.6028 -0.2638
 7177TIP3   OH221494   2.169   0.412   4.430 -0.3351 -0.2428 -0.4580
 7177TIP3    H121495   2.091   0.399   4.484  0.0168 -1.9913 -0.3176
 7177TIP3    H221496   2.211   0.327   4.427  0.3125  0.0805 -2.4984
 7178TIP3   OH221497   0.387   6.718   2.830  0.0368 -0.3500 -0.1735
 7178TIP3    H121498   0.339   6.788   2.786  0.3131 -0.6493 -0.9847
 7178TIP3    H221499   0.324   6.646   2.837 -0.1196 -0.1724  0.2708
 7179TIP3   OH221500   6.990   2.587   4.367  0.1705 -0.1445 -0.3682
 7179TIP3    H121501   6.968   2.494   4.361  0.4090 -0.2516  0.3135
 7179TIP3    H221502   6.994   2.604   4.461 -2.2194  1.1175 -0.4044
 7180TIP3   OH221503   2.728   3.389   0.520  0.3657  0.6935 -0.2378
 7180TIP3    H121504   2.662   3.334   0.563  0.0696  0.2614 -1.2277
 7180TIP3    H221505   2.785   3.417   0.592  1.2704 -1.9068  0.1904
 7181TIP3   OH221506   4.795   1.944   1.781 -0.5494 -0.0067 -0.2495
 7181TIP3    H121507   4.870   1.894   1.811  1.1325  0.4327 -3.2783
 7181TIP3    H221508   4.832   2.027   1.751 -2.7894  1.7493  1.4682
 7182TIP3   OH221509   3.162   0.212   0.065  0.2380  0.4371 -0.2418
 7182TIP3    H121510   3.164   0.296   0.110  2.4383 -0.7780  2.2147
 7182TIP3    H221511   3.244   0.207   0.018  1.1075 -1.0543  1.3003
 7183TIP3   OH221512   5.357   5.377   5.242 -0.0988  0.4495 -0.0326
 7183TIP3    H121513   5.397   5.434   5.177  1.2881 -0.4404  0.0151
 7183TIP3    H221514   5.401   5.292   5.231 -1.2166 -0.2697  0.7523
 7184TIP3   OH221515   1.203   0.124   1.973  0.1105  0.0613 -0.0249
 7184TIP3    H121516   1.148   0.063   1.925 -0.9646  1.5936 -0.8134
 7184TIP3    H221517   1.286   0.078   1.983 -0.3326 -1.1355 -1.4672
 7185TIP3   OH221518   1.007   0.871   5.450 -0.4982  0.2018 -0.5450
 7185TIP3    H121519   1.047   0.951   5.416  0.2454  0.2019  0.3140
 7185TIP3    H221520   0.920   0.869   5.409 -0.5320  1.4546 -0.5746
 7186TIP3   OH221521   5.119   5.104   2.063  0.3342  0.4830 -0.4208
 7186TIP3    H121522   5.207   5.143   2.060  0.7338 -0.4023 -0.3279
 7186TIP3    H221523   5.121   5.046   2.139 -0.4962  0.8206 -0.1268
 7187TIP3   OH221524   6.661   6.348   4.304 -0.2207 -0.4089  0.1247
 7187TIP3    H121525   6.676   6.434   4.266  1.8594 -0.2936  1.0568
 7187TIP3    H221526   6.619   6.298   4.234  1.1144  0.5517 -1.4442
 7188TIP3   OH221527   1.313   5.705   3.545  0.1251  0.5790 -0.2792
 7188TIP3    H121528   1.357   5.679   3.464  2.5710 -0.3799  1.2225
 7188TIP3    H221529   1.230   5.657   3.544  1.0708 -1.1342 -1.2535
 7189TIP3   OH221530   6.451   3.323   3.396 -0.1191 -0.1016 -0.1064
 7189TIP3    H121531   6.532   3.328   3.346  0.1383 -0.6859  0.2476
 7189TIP3    H221532   6.414   3.237   3.374 -0.1270 -0.2639  0.5108
 7190TIP3   OH221533   1.995   5.207   5.727  0.1060  0.3610  0.1050
 7190TIP3    H121534   1.901   5.225   5.732  0.1336  0.3711  0.5623
 7190TIP3    H221535   2.035   5.291   5.705  0.0611  0.4752  0.4571
 7191TIP3   OH221536   2.738   2.236   2.622  0.0262  0.1005  0.1001
 7191TIP3    H121537   2.819   2.265   2.665  0.3185 -0.5904  0.0296
 7191TIP3    H221538   2.701   2.316   2.585  1.0580  0.3293 -0.4940
 7192TIP3   OH221539   5.544   6.602   2.012 -1.1658  0.1971 -0.0133
 7192TIP3    H121540   5.593   6.684   2.008  0.0988 -0.5595 -3.2659
 7192TIP3    H221541   5.581   6.555   2.087  0.8822  1.0033 -0.4614
 7193TIP3   OH221542   5.569   4.984   4.227 -0.1453  0.4209 -0.0551
 7193TIP3    H121543   5.545   4.953   4.314 -1.1258 -0.4335 -0.5989
 7193TIP3    H221544   5.623   4.914   4.190  1.1524  1.2408  0.2294
 7194TIP3   OH221545   7.096   4.364   0.540 -0.2330 -0.5178  0.4032
 7194TIP3    H121546   7.085   4.338   0.632  1.1590 -0.1035  0.7085
 7194TIP3    H221547   7.176   4.417   0.539 -0.3128 -0.3801 -1.0285
 7195TIP3   OH221548   5.097   5.549   0.378  1.2086 -0.8656  0.2969
 7195TIP3    H121549   5.085   5.457   0.401 -1.8285 -0.4399  0.8235
 7195TIP3    H221550   5.034   5.565   0.308  3.5067  0.2808 -1.6827
 7196TIP3   OH221551   2.956   3.100   3.533 -0.8145 -0.1671  0.0448
 7196TIP3    H121552   3.022   3.164   3.559  0.1849 -1.1625  0.0338
 7196TIP3    H221553   2.985   3.068   3.447  0.3574 -2.7153  1.2762
 7197TIP3   OH221554   4.510   6.379   0.433 -0.2526 -0.1863 -0.0410
 7197TIP3    H121555   4.511   6.452   0.370 -1.3963 -0.8730 -0.8914
 7197TIP3    H221556   4.527   6.421   0.517 -2.3024  1.3337 -0.2905
 7198TIP3   OH221557   0.488   2.725   2.658  0.1514 -0.0932 -0.0703
 7198TIP3    H121558   0.565   2.669   2.658  1.4019  1.5346 -0.8259
 7198TIP3    H221559   0.462   2.733   2.566  0.2560  0.8713 -0.0330
 7199TIP3   OH221560   2.375   3.398   0.672  0.2990 -0.3068 -0.8123
 7199TIP3    H121561   2.338   3.404   0.760  1.2179  2.0724 -0.5294
 7199TIP3    H221562   2.449   3.338   0.681 -1.5528 -2.7246 -0.7503
 7200TIP3   OH221563   1.717   0.230   1.388 -0.1401  0.2042 -0.0425
 7200TIP3    H121564   1.654   0.238   1.460 -0.9439  0.4384 -0.7476
 7200TIP3    H221565   1.740   0.137   1.386  1.3929  0.4957  1.7346
 7201TIP3   OH221566   6.015   6.725   3.023  0.3884 -0.1648 -0.1394
 7201TIP3    H121567   5.973   6.748   2.940 -0.6646 -0.6616  0.2418
 7201TIP3    H221568   6.092   6.674   2.997  0.0978 -0.2719 -0.8260
 7202TIP3   OH221569   1.153   1.243   0.195 -0.0037 -0.0360 -0.4267
 7202TIP3    H121570   1.060   1.233   0.174 -0.3104 -1.3381  1.3379
 7202TIP3    H221571   1.197   1.240   0.110 -1.4806 -0.5758 -1.2099
 7203TIP3   OH221572   3.006   4.235   1.875  0.3949 -0.2149 -0.1601
 7203TIP3    H121573   2.914   4.228   1.850 -0.3797  3.4195  1.0938
 7203TIP3    H221574   3.044   4.293   1.808  1.2675 -0.1055  0.4216
 7204TIP3   OH221575   1.285   6.265   4.144  0.3403  0.9267  0.7317
 7204TIP3    H121576   1.190   6.251   4.149  0.3714  1.0785  2.4163
 7204TIP3    H221577   1.295   6.359   4.129  0.2403  0.6277 -1.5716
 7205TIP3   OH221578   3.540   1.610   5.233  0.3807  0.6326 -0.2868
 7205TIP3    H121579   3.453   1.570   5.228 -0.4465  1.7686  2.9376
 7205TIP3    H221580   3.591   1.549   5.286  0.5942  1.4648  0.4798
 7206TIP3   OH221581   2.109   3.464   1.491 -0.1252  0.5167  0.1556
 7206TIP3    H121582   2.184   3.504   1.446 -0.4779  0.1764 -0.7511
 7206TIP3    H221583   2.146   3.389   1.536 -0.4642 -2.2780 -3.7118
 7207TIP3   OH221584   4.546   0.154   5.268  0.3351  0.3858 -0.0181
 7207TIP3    H121585   4.516   0.063   5.263 -0.1694  0.6199 -1.5808
 7207TIP3    H221586   4.634   0.147   5.304  0.6382 -0.8059 -0.9115
 7208TIP3   OH221587   5.054   3.175   2.595  0.2497 -0.1586  0.3967
 7208TIP3    H121588   5.120   3.106   2.588  0.2676 -0.0224 -0.9742
 7208TIP3    H221589   4.979   3.132   2.638  1.1521 -0.3409  1.8712
 7209TIP3   OH221590   7.128   0.617   4.033  0.2458 -0.4736 -0.2390
 7209TIP3    H121591   7.071   0.686   3.997 -0.3443 -1.5998 -1.5554
 7209TIP3    H221592   7.134   0.553   3.963  3.9691  0.0211 -0.5595
 7210TIP3   OH221593   4.128   4.485   4.989 -0.3301 -0.1673 -0.1032
 7210TIP3    H121594   4.148   4.561   5.043 -0.7801 -0.4594  0.4989
 7210TIP3    H221595   4.057   4.514   4.931  1.0175  0.5303 -1.4581
 7211TIP3   OH221596   0.978   2.711   3.831 -0.2437  0.2081 -0.1167
 7211TIP3    H121597   0.886   2.702   3.806  0.2618 -3.5771 -1.1561
 7211TIP3    H221598   0.985   2.664   3.913  0.7714  0.5810  0.0199
 7212TIP3   OH221599   2.255   3.630   0.482  0.8216 -0.1430 -0.4405
 7212TIP3    H121600   2.337   3.659   0.522  0.3184  0.0737  0.4595
 7212TIP3    H221601   2.187   3.681   0.527 -0.0988 -2.6200  1.1881
 7213TIP3   OH221602   0.234   4.783   3.790  0.3158  0.1104 -0.1494
 7213TIP3    H121603   0.178   4.759   3.716  1.6100  0.1334 -1.1799
 7213TIP3    H221604   0.235   4.705   3.846 -0.2071 -0.1171 -0.4482
 7214TIP3   OH221605   3.370   4.959   2.703  0.3741  0.1756  0.3159
 7214TIP3    H121606   3.366   4.925   2.792  0.8464 -0.0101  0.2677
 7214TIP3    H221607   3.290   5.010   2.693 -0.6428 -1.3817  0.1994
 7215TIP3   OH221608   3.288   3.536   4.241 -0.2009  0.1386  0.4823
 7215TIP3    H121609   3.298   3.499   4.328 -0.0914  0.8695  0.7814
 7215TIP3    H221610   3.201   3.506   4.212  0.7024 -2.0978 -0.1466
 7216TIP3   OH221611   4.082   6.555   4.737  0.1402  0.1498 -0.0061
 7216TIP3    H121612   4.111   6.644   4.758 -2.1223  1.0584 -0.5240
 7216TIP3    H221613   4.002   6.567   4.686 -1.1490 -2.2104  1.3272
 7217TIP3   OH221614   3.958   4.446   5.473 -0.1291 -0.0600 -0.5135
 7217TIP3    H121615   3.928   4.383   5.539 -1.4668 -0.8166 -1.7995
 7217TIP3    H221616   3.907   4.525   5.491 -0.3934 -0.2217 -0.5400
 7218TIP3   OH221617   6.962   0.719   0.318  0.0796 -0.6266  0.1306
 7218TIP3    H121618   7.035   0.690   0.262  0.2895  1.3531 -0.6892
 7218TIP3    H221619   7.004   0.760   0.393 -0.1682  0.5203 -0.3432
 7219TIP3   OH221620   5.913   3.015   4.489  0.5681 -0.3869 -0.4813
 7219TIP3    H121621   5.929   2.940   4.431  2.3358  0.3499 -1.0008
 7219TIP3    H221622   5.948   2.988   4.573  0.5429 -0.4098 -0.4780
 7220TIP3   OH221623   2.943   2.186   0.959  0.7128 -0.3980  0.4431
 7220TIP3    H121624   2.985   2.136   0.889  0.4116  0.5907 -0.4766
 7220TIP3    H221625   2.871   2.232   0.915 -0.1089 -0.5229  1.6001
 7221TIP3   OH221626   2.759   4.757   4.289 -0.2950  0.2935  0.3396
 7221TIP3    H121627   2.693   4.711   4.237  1.1003  0.1085 -1.3500
 7221TIP3    H221628   2.795   4.822   4.230  1.4638 -0.0301  1.0040
 7222TIP3   OH221629   2.124   0.249   0.707  0.5576 -0.0532  0.0251
 7222TIP3    H121630   2.197   0.291   0.660  0.4168  2.2772  1.6996
 7222TIP3    H221631   2.158   0.234   0.795 -0.2674 -1.1411  0.1812
 7223TIP3   OH221632   4.224   5.196   5.438 -0.1807 -0.0701  0.8076
 7223TIP3    H121633   4.234   5.106   5.470 -0.1726  0.2440  1.7166
 7223TIP3    H221634   4.314   5.226   5.423 -0.0834  0.3407  2.1145
 7224TIP3   OH221635   2.411   4.230   2.519  0.0318 -0.5261  0.2364
 7224TIP3    H121636   2.489   4.244   2.573  0.4654  1.2145 -0.7718
 7224TIP3    H221637   2.441   4.179   2.444 -0.3954 -2.1862  1.1387
 7225TIP3   OH221638   5.477   0.938   5.051  0.0014  0.2185  0.2058
 7225TIP3    H121639   5.439   1.012   5.099 -0.4103 -0.2192  0.5619
 7225TIP3    H221640   5.412   0.918   4.983  0.9623  1.3944 -1.1369
 7226TIP3   OH221641   4.399   6.381   2.947 -0.1627 -0.2372  0.2102
 7226TIP3    H121642   4.439   6.359   3.031 -1.4910 -0.3790  0.8398
 7226TIP3    H221643   4.378   6.296   2.907 -0.9782 -0.1673  0.4728
 7227TIP3   OH221644   6.735   4.914   3.530 -0.5958  0.0089 -0.6313
 7227TIP3    H121645   6.743   4.839   3.472 -1.6351 -1.9405  1.5831
 7227TIP3    H221646   6.650   4.952   3.508 -0.9367 -0.6489 -0.4715
 7228TIP3   OH221647   4.833   2.820   1.686 -0.1182  0.2980  0.0213
 7228TIP3    H121648   4.908   2.782   1.641  0.4993  1.8093 -0.2544
 7228TIP3    H221649   4.757   2.790   1.635  0.4800  0.8611 -1.2284
 7229TIP3   OH221650   3.038   0.454   2.598  0.4320  0.3433  0.2695
 7229TIP3    H121651   3.008   0.364   2.615  1.5055  0.4780  3.4952
 7229TIP3    H221652   3.035   0.462   2.503 -0.1480 -2.9421 -0.1203
 7230TIP3   OH221653   7.040   4.532   1.248 -0.0935  0.0721 -0.2510
 7230TIP3    H121654   7.082   4.617   1.230  1.2691 -0.3435  0.7700
 7230TIP3    H221655   7.112   4.469   1.242 -1.2066 -1.1244 -1.6065
 7231TIP3   OH221656   5.519   5.145   5.169  1.0402 -0.1620 -0.1610
 7231TIP3    H121657   5.606   5.182   5.182  1.0522  0.2647 -1.2844
 7231TIP3    H221658   5.528   5.053   5.194  1.8759 -0.1724 -0.4509
 7232TIP3   OH221659   0.807   3.705   1.994 -0.1476  0.2636  0.4455
 7232TIP3    H121660   0.843   3.700   2.082  3.3426  0.1372 -0.8190
 7232TIP3    H221661   0.823   3.796   1.967 -0.5740  0.1356 -0.2554
 7233TIP3   OH221662   3.522   1.221   5.634  0.0967  0.1680 -0.4056
 7233TIP3    H121663   3.439   1.243   5.593 -0.1582 -1.3718 -0.7909
 7233TIP3    H221664   3.499   1.202   5.725  0.3864  1.8296  0.0456
 7234TIP3   OH221665   1.067   5.548   4.362 -0.9618 -0.1547  0.6541
 7234TIP3    H121666   1.104   5.566   4.448  0.3463 -1.3664  0.4013
 7234TIP3    H221667   0.998   5.613   4.351  0.8346  2.0309  1.3556
 7235TIP3   OH221668   1.696   2.599   0.621 -0.2125 -0.3671  0.6356
 7235TIP3    H121669   1.751   2.661   0.669 -0.1360 -1.4568  2.0568
 7235TIP3    H221670   1.733   2.596   0.533  0.9812  0.1324  1.1008
 7236TIP3   OH221671   1.313   5.817   3.178  0.1942  0.2269 -0.1103
 7236TIP3    H121672   1.246   5.827   3.245  0.9231  0.5202  0.5980
 7236TIP3    H221673   1.353   5.733   3.196  0.1535  0.1409 -0.4084
 7237TIP3   OH221674   5.853   0.167   2.095 -0.3148 -0.0835  0.0281
 7237TIP3    H121675   5.802   0.216   2.159  1.1731  2.6023 -0.6826
 7237TIP3    H221676   5.942   0.167   2.130  0.2579  0.2258 -1.3484
 7238TIP3   OH221677   4.935   1.002   1.294 -0.0281 -0.2613 -0.0502
 7238TIP3    H121678   4.859   1.049   1.258  0.0534 -0.8745 -1.0799
 7238TIP3    H221679   4.982   1.068   1.344 -1.4563  0.0300  0.9714
 7239TIP3   OH221680   1.226   0.357   3.121 -0.3643  0.1061  0.0818
 7239TIP3    H121681   1.175   0.408   3.183  0.3568  0.8215  0.1017
 7239TIP3    H221682   1.251   0.278   3.169  1.4187  1.3021  1.2243
 7240TIP3   OH221683   6.681   1.717   2.775 -0.1865 -0.0455  0.0318
 7240TIP3    H121684   6.601   1.736   2.824  0.4546 -0.6454  1.3576
 7240TIP3    H221685   6.664   1.751   2.688 -1.4770  0.8118  0.5881
 7241TIP3   OH221686   0.959   2.423   1.506 -0.0791 -0.8196  0.0689
 7241TIP3    H121687   0.879   2.446   1.553  0.9792  0.9039  1.1398
 7241TIP3    H221688   0.928   2.388   1.422 -1.9675 -2.1861  1.2606
 7242TIP3   OH221689   4.655   5.895   3.335  0.4315  0.2410  0.5730
 7242TIP3    H121690   4.729   5.929   3.386  2.0828  0.2706 -1.6836
 7242TIP3    H221691   4.675   5.918   3.244 -0.7927 -2.4702 -0.5204
 7243TIP3   OH221692   0.364   0.677   5.065  0.3586  0.1408  0.5187
 7243TIP3    H121693   0.280   0.721   5.072 -0.4162 -1.2149  0.0065
 7243TIP3    H221694   0.384   0.648   5.153 -1.0866 -1.9524  0.2193
 7244TIP3   OH221695   2.568   3.193   5.513 -0.5422  0.2733 -0.1925
 7244TIP3    H121696   2.536   3.114   5.556 -1.7147  0.2012 -1.1415
 7244TIP3    H221697   2.658   3.171   5.487 -0.8734 -0.7849 -0.4997
 7245TIP3   OH221698   5.347   0.088   3.387 -0.4044 -0.4643 -0.1138
 7245TIP3    H121699   5.336   0.092   3.292  3.6961  0.5098 -0.7647
 7245TIP3    H221700   5.387   0.003   3.404 -0.6909 -0.4508  0.6885
 7246TIP3   OH221701   5.089   6.721   2.108  0.3288  0.1602  0.1108
 7246TIP3    H121702   5.086   6.727   2.013  0.0316 -0.2599  0.0932
 7246TIP3    H221703   5.165   6.774   2.133  0.6962 -0.1237 -0.3920
 7247TIP3   OH221704   2.552   5.570   5.202  0.3801  0.1316 -0.1911
 7247TIP3    H121705   2.612   5.644   5.207 -1.0651  1.4043 -1.0364
 7247TIP3    H221706   2.587   5.507   5.265  1.8676  1.3449  0.2623
 7248TIP3   OH221707   5.431   3.753   1.003  0.1530 -0.8468 -0.4837
 7248TIP3    H121708   5.432   3.710   1.089  0.2843 -2.0568 -1.0708
 7248TIP3    H221709   5.489   3.700   0.949 -0.8025 -0.7586 -1.6368
 7249TIP3   OH221710   2.499   4.624   5.778  0.3082  0.6381 -0.2694
 7249TIP3    H121711   2.460   4.676   5.848  0.6423 -0.1057  0.4836
 7249TIP3    H221712   2.434   4.626   5.707  0.2488  1.9298 -0.2004
 7250TIP3   OH221713   6.928   2.358   4.659  0.1091  0.1921  0.4832
 7250TIP3    H121714   6.956   2.449   4.647  1.2473 -0.0407  1.2174
 7250TIP3    H221715   6.832   2.363   4.664 -0.1534  0.9576 -2.6760
 7251TIP3   OH221716   4.518   0.790   5.057  0.1695 -0.2845  0.2348
 7251TIP3    H121717   4.507   0.816   5.149  0.3885 -0.8418  0.4202
 7251TIP3    H221718   4.552   0.701   5.061 -0.4890 -0.5693 -0.3971
 7252TIP3   OH221719   7.024   2.310   4.414 -0.0134  0.3015  0.1930
 7252TIP3    H121720   7.009   2.343   4.502  0.1598  1.9521 -0.3722
 7252TIP3    H221721   6.948   2.254   4.396  0.6291 -1.1975  1.8833
 7253TIP3   OH221722   1.162   3.542   2.412 -0.4413 -0.3486 -0.3868
 7253TIP3    H121723   1.231   3.534   2.347 -1.5972  1.3265 -1.9531
 7253TIP3    H221724   1.184   3.622   2.461 -0.2578 -0.8912  0.4306
 7254TIP3   OH221725   5.393   1.998   1.787 -0.0661 -0.4138 -0.4710
 7254TIP3    H121726   5.305   2.032   1.803 -0.6013 -0.7177 -2.5215
 7254TIP3    H221727   5.400   1.920   1.843  0.0009  1.1508  1.8477
 7255TIP3   OH221728   1.187   5.491   2.576  0.6832 -0.0568  0.0783
 7255TIP3    H121729   1.105   5.539   2.562 -1.0127 -2.4810  0.9993
 7255TIP3    H221730   1.206   5.450   2.492 -1.1993 -2.4437  0.6856
 7256TIP3   OH221731   2.350   4.847   4.315 -0.1452  0.2659 -0.5102
 7256TIP3    H121732   2.332   4.780   4.380  2.9874  0.9785  1.3059
 7256TIP3    H221733   2.311   4.926   4.350 -0.6038  0.1548 -0.7654
 7257TIP3   OH221734   2.743   0.741   4.908  0.4715  0.1125 -0.3524
 7257TIP3    H121735   2.745   0.836   4.919 -1.7860  0.2621 -0.8010
 7257TIP3    H221736   2.666   0.725   4.853  0.1674 -2.0458  0.6083
 7258TIP3   OH221737   1.964   3.552   3.487  0.8212  0.6053  0.4608
 7258TIP3    H121738   1.919   3.591   3.412 -0.8040 -2.2492 -0.2164
 7258TIP3    H221739   1.898   3.551   3.557  1.5495  1.0424  1.1764
 7259TIP3   OH221740   3.768   2.336   3.845 -0.2229  0.0266  0.2712
 7259TIP3    H121741   3.760   2.265   3.781 -0.6841 -0.6397  1.0498
 7259TIP3    H221742   3.837   2.392   3.810  2.3619 -2.4236  1.1282
 7260TIP3   OH221743   4.827   4.517   4.567  0.2150 -0.4966 -0.0981
 7260TIP3    H121744   4.862   4.432   4.540 -0.1286 -1.5126  2.3712
 7260TIP3    H221745   4.748   4.496   4.617  0.8954  1.1323  1.7951
 7261TIP3   OH221746   6.629   3.637   0.425 -1.0987 -0.1581  0.2845
 7261TIP3    H121747   6.598   3.704   0.366 -0.2749  1.9818  2.1398
 7261TIP3    H221748   6.712   3.608   0.387 -1.1711  0.3048 -0.2355
 7262TIP3   OH221749   5.576   5.295   4.570  0.1066  0.9579 -0.6128
 7262TIP3    H121750   5.608   5.229   4.631 -0.2654  0.9528 -0.4199
 7262TIP3    H221751   5.517   5.248   4.512  0.9476  0.8377 -1.3769
 7263TIP3   OH221752   7.052   1.901   2.724 -0.3178 -0.3464  0.2785
 7263TIP3    H121753   7.099   1.823   2.693  0.0348  0.1368 -0.4272
 7263TIP3    H221754   7.000   1.870   2.798 -0.7373 -1.4144 -0.4438
 7264TIP3   OH221755   4.801   0.874   3.879  0.3500 -0.4891 -0.2183
 7264TIP3    H121756   4.836   0.806   3.936  2.9549  1.2638  0.4415
 7264TIP3    H221757   4.818   0.843   3.790  0.2245 -1.2969  0.0350
 7265TIP3   OH221758   3.338   4.053   0.523 -0.3184  0.4000  0.0817
 7265TIP3    H121759   3.287   3.972   0.516 -0.9736  0.9030 -1.4978
 7265TIP3    H221760   3.288   4.108   0.584 -0.3354 -0.0506  0.4756
 7266TIP3   OH221761   4.859   4.315   2.382  0.3213  1.2976 -0.5024
 7266TIP3    H121762   4.765   4.295   2.378  0.6140 -0.0070 -4.5205
 7266TIP3    H221763   4.866   4.400   2.338  0.9977  1.6368  0.2515
 7267TIP3   OH221764   2.817   3.105   1.080  0.0065 -0.1376 -0.1544
 7267TIP3    H121765   2.727   3.088   1.106 -0.8483  0.8806 -2.2306
 7267TIP3    H221766   2.846   3.024   1.037  0.4420 -0.7891  1.2991
 7268TIP3   OH221767   0.505   4.720   1.370 -0.5162 -0.1890  0.4984
 7268TIP3    H121768   0.572   4.685   1.429 -0.8435  0.7361  1.4587
 7268TIP3    H221769   0.422   4.701   1.413 -0.8878 -1.1814 -0.6043
 7269TIP3   OH221770   4.601   1.818   1.490  0.9819 -0.2551 -0.3484
 7269TIP3    H121771   4.641   1.903   1.470  1.6258  0.2537  2.7300
 7269TIP3    H221772   4.675   1.758   1.496  0.5750 -0.9675 -1.8609
 7270TIP3   OH221773   4.479   5.691   1.265 -0.3452 -0.4475 -0.3974
 7270TIP3    H121774   4.548   5.719   1.326 -0.4230  2.0116 -1.2914
 7270TIP3    H221775   4.523   5.629   1.207  0.3486 -1.0594  0.7472
 7271TIP3   OH221776   6.327   0.606   2.084  0.3619  0.5288  0.2482
 7271TIP3    H121777   6.341   0.526   2.033 -2.3899  0.0640  0.0699
 7271TIP3    H221778   6.293   0.669   2.020 -1.0472  0.6159  1.0405
 7272TIP3   OH221779   0.633   6.711   1.383  0.4601 -0.2121 -0.2573
 7272TIP3    H121780   0.604   6.707   1.475  0.5848  0.5857 -0.1721
 7272TIP3    H221781   0.663   6.623   1.364 -0.7649 -0.7209  0.0700
 7273TIP3   OH221782   1.161   4.703   4.056 -0.2359  0.1814 -0.0196
 7273TIP3    H121783   1.213   4.776   4.089  0.5739  0.0642 -1.0037
 7273TIP3    H221784   1.218   4.659   3.993 -0.2479 -2.0212  1.3964
 7274TIP3   OH221785   5.230   4.547   3.794  0.4689  0.4916 -0.2501
 7274TIP3    H121786   5.252   4.609   3.863 -0.3384 -1.1891  1.6355
 7274TIP3    H221787   5.313   4.533   3.747  1.6215  0.1018  1.7613
 7275TIP3   OH221788   0.574   6.581   1.906  0.4935 -0.7261 -0.1715
 7275TIP3    H121789   0.642   6.639   1.941 -0.6034  1.6460 -1.6754
 7275TIP3    H221790   0.526   6.550   1.982  0.5803  1.1217  0.6911
 7276TIP3   OH221791   2.853   6.281   3.146  0.3486 -0.3061 -0.3274
 7276TIP3    H121792   2.884   6.243   3.227 -0.1872 -0.4544 -0.1872
 7276TIP3    H221793   2.882   6.220   3.078 -1.4675 -1.5929 -0.0106
 7277TIP3   OH221794   1.049   1.346   4.968  0.1073 -0.2238 -0.3459
 7277TIP3    H121795   1.081   1.298   5.044  1.2793 -0.4980 -0.9827
 7277TIP3    H221796   1.125   1.351   4.909 -1.0199 -0.8543 -1.9148
 7278TIP3   OH221797   3.827   6.008   3.684 -0.4357 -0.1763  0.1888
 7278TIP3    H121798   3.774   6.044   3.756  1.4331  4.4444 -0.3681
 7278TIP3    H221799   3.910   5.986   3.725  0.2822  1.5125 -0.2617
 7279TIP3   OH221800   5.099   6.531   5.799 -0.5596  0.6605 -0.4802
 7279TIP3    H121801   5.113   6.624   5.785  0.9014  0.7192  0.9764
 7279TIP3    H221802   5.104   6.521   5.895  1.6216 -1.1846 -0.7016
 7280TIP3   OH221803   5.349   4.707   1.957  0.0782  0.2661  0.1188
 7280TIP3    H121804   5.417   4.659   1.910 -0.9533 -1.5341  0.3667
 7280TIP3    H221805   5.333   4.785   1.903  0.0710 -0.9159 -1.6688
 7281TIP3   OH221806   5.397   3.623   5.545  0.3559 -0.0275 -0.3051
 7281TIP3    H121807   5.374   3.678   5.469 -0.6113  0.6003  0.4216
 7281TIP3    H221808   5.491   3.637   5.557  0.0264  1.9832  0.2426
 7282TIP3   OH221809   7.003   5.322   0.829  0.3529  0.8309 -0.1598
 7282TIP3    H121810   6.936   5.353   0.768  0.6785  2.5452  0.3258
 7282TIP3    H221811   7.077   5.381   0.817  0.5019  1.0957  1.7535
 7283TIP3   OH221812   2.783   3.994   1.655 -0.7350 -0.9269  0.0321
 7283TIP3    H121813   2.771   3.966   1.564 -1.8779 -0.2939 -0.0362
 7283TIP3    H221814   2.850   3.935   1.690  0.4873 -0.5101 -1.5060
 7284TIP3   OH221815   6.655   2.053   4.181 -0.2435  0.5010  0.2509
 7284TIP3    H121816   6.615   1.987   4.238  1.0985 -1.5996 -1.0741
 7284TIP3    H221817   6.691   2.118   4.241  1.4107 -1.7596  1.9110
 7285TIP3   OH221818   3.241   3.291   4.424  0.4088 -0.4388  0.2984
 7285TIP3    H121819   3.225   3.265   4.515  0.8976 -0.3197  0.4214
 7285TIP3    H221820   3.192   3.228   4.372 -0.9320  0.2652  0.6723
 7286TIP3   OH221821   5.974   4.136   5.179  0.0654 -0.1765  0.5329
 7286TIP3    H121822   5.973   4.113   5.086 -0.6933  0.6261  0.3315
 7286TIP3    H221823   6.000   4.055   5.223  1.9790 -0.1696 -0.4798
 7287TIP3   OH221824   3.294   1.982   2.927 -0.1572  0.1017 -0.1949
 7287TIP3    H121825   3.229   2.052   2.926 -0.5627 -0.2340  0.7996
 7287TIP3    H221826   3.359   2.007   2.862 -0.8511  0.8660 -0.6021
 7288TIP3   OH221827   5.654   3.989   0.441 -0.2843  0.3288 -0.2604
 7288TIP3    H121828   5.643   4.074   0.399  0.6306 -0.0399 -1.3242
 7288TIP3    H221829   5.733   3.998   0.494 -1.3683  0.7541  1.3527
 7289TIP3   OH221830   4.542   2.961   5.553 -0.7734 -0.6854  0.5183
 7289TIP3    H121831   4.600   2.892   5.586 -0.6294 -0.6298  0.3806
 7289TIP3    H221832   4.599   3.035   5.536 -1.1304 -0.0473  2.0084
 7290TIP3   OH221833   3.768   2.690   5.382 -0.4055  0.0798 -0.4840
 7290TIP3    H121834   3.676   2.714   5.372 -0.5342 -0.4626 -0.6335
 7290TIP3    H221835   3.791   2.650   5.298 -0.4815 -1.2348  0.0898
 7291TIP3   OH221836   0.784   3.867   4.123  0.2636  0.5571  0.2845
 7291TIP3    H121837   0.692   3.886   4.138  0.3384 -0.1059  1.7798
 7291TIP3    H221838   0.802   3.899   4.035 -1.0436  1.9662  0.5019
 7292TIP3   OH221839   6.224   5.843   1.984 -0.0078 -0.2314  0.8219
 7292TIP3    H121840   6.267   5.862   2.067 -0.6594 -0.5450  1.2424
 7292TIP3    H221841   6.157   5.911   1.976  0.2567 -0.0181  0.3975
 7293TIP3   OH221842   1.535   2.857   4.637 -0.2563 -0.1616 -0.2103
 7293TIP3    H121843   1.578   2.813   4.711 -1.3821 -0.4652  0.2733
 7293TIP3    H221844   1.606   2.871   4.574  0.4999 -0.9328  0.4391
 7294TIP3   OH221845   4.921   4.254   3.551 -0.2748 -0.3000  0.6643
 7294TIP3    H121846   4.866   4.206   3.488 -0.4430  0.9001 -0.1363
 7294TIP3    H221847   4.860   4.308   3.600 -0.0423 -0.6031  1.2969
 7295TIP3   OH221848   5.088   2.433   3.527  0.1534 -0.4004  0.1356
 7295TIP3    H121849   4.998   2.408   3.547  0.8522 -3.2188  0.0911
 7295TIP3    H221850   5.142   2.382   3.587  1.8079 -0.4890 -1.3331
 7296TIP3   OH221851   3.120   2.229   3.529 -0.1176 -0.0194  0.3034
 7296TIP3    H121852   3.161   2.298   3.582 -0.9240 -0.8846  2.1412
 7296TIP3    H221853   3.029   2.256   3.519  0.1594  0.4533 -1.2690
 7297TIP3   OH221854   1.110   0.692   2.876 -0.3733 -0.1341 -0.6936
 7297TIP3    H121855   1.074   0.689   2.788 -1.5385  0.1861 -0.2437
 7297TIP3    H221856   1.084   0.777   2.911 -0.4080 -0.4697  0.1420
 7298TIP3   OH221857   3.795   1.798   2.616  0.4598 -0.8199  0.7322
 7298TIP3    H121858   3.888   1.784   2.598  0.6148 -0.3585  1.1672
 7298TIP3    H221859   3.790   1.812   2.710  0.0262 -0.2256  0.6277
 7299TIP3   OH221860   1.511   0.921   5.214  0.5351 -0.5095 -0.1573
 7299TIP3    H121861   1.566   0.980   5.266  2.9612 -0.5540 -2.4478
 7299TIP3    H221862   1.422   0.956   5.225  1.3736  1.3546  1.4428
 7300TIP3   OH221863   2.531   3.191   1.578 -0.4538 -0.0686 -0.3528
 7300TIP3    H121864   2.540   3.286   1.568  0.3077 -0.0693  0.2336
 7300TIP3    H221865   2.574   3.154   1.502  1.9583  0.0073  0.8834
 7301TIP3   OH221866   6.567   0.605   1.410 -0.1716 -0.2094 -0.6700
 7301TIP3    H121867   6.538   0.617   1.320  0.1052 -0.3702 -0.7814
 7301TIP3    H221868   6.577   0.694   1.445  0.6586 -0.1231 -1.1006
 7302TIP3   OH221869   4.232   1.590   3.015 -0.5413  0.0995  0.4852
 7302TIP3    H121870   4.322   1.570   2.987 -0.9979 -2.0825  0.4267
 7302TIP3    H221871   4.182   1.594   2.934 -0.5124  1.5107  0.5035
 7303TIP3   OH221872   5.970   3.466   0.153 -0.1405  0.2638  0.0482
 7303TIP3    H121873   6.002   3.380   0.127  0.6219  0.5030  0.1591
 7303TIP3    H221874   5.893   3.481   0.099 -0.1045 -0.3596 -0.1817
 7304TIP3   OH221875   2.816   3.996   4.136 -0.1259 -0.1623  0.1518
 7304TIP3    H121876   2.744   3.965   4.081  0.1902 -0.5718 -0.0270
 7304TIP3    H221877   2.812   3.941   4.214  0.4881 -0.7195 -0.2024
 7305TIP3   OH221878   2.643   1.658   0.684  0.0677  0.1795  0.3418
 7305TIP3    H121879   2.572   1.600   0.712  1.1469 -0.9195  0.8680
 7305TIP3    H221880   2.669   1.705   0.763 -0.0657  0.5894  0.1479
 7306TIP3   OH221881   4.156   1.162   2.519  0.5860  0.2475  0.2955
 7306TIP3    H121882   4.069   1.180   2.554  0.0195  0.9825 -1.3858
 7306TIP3    H221883   4.143   1.094   2.454  1.3745 -0.0762  0.4594
 7307TIP3   OH221884   6.090   0.409   1.409  0.0398  0.6102 -0.0415
 7307TIP3    H121885   6.094   0.497   1.371  3.9179  1.5189  2.0115
 7307TIP3    H221886   6.048   0.421   1.494 -0.4140  0.2275 -0.2044
 7308TIP3   OH221887   3.605   6.532   2.672 -0.2079  0.0535  0.0176
 7308TIP3    H121888   3.624   6.439   2.676 -0.0170  0.1113  0.6884
 7308TIP3    H221889   3.664   6.567   2.606  0.7944 -0.0621  0.8281
 7309TIP3   OH221890   3.956   1.814   2.221 -0.2635 -0.1867  0.0034
 7309TIP3    H121891   3.948   1.907   2.198  0.5021 -0.0056  0.4195
 7309TIP3    H221892   3.866   1.784   2.231 -0.5224  0.4666 -0.3201
 7310TIP3   OH221893   7.111   0.891   5.389  0.0862  0.2422 -0.1782
 7310TIP3    H121894   7.050   0.918   5.457  0.7263  1.2513  0.0188
 7310TIP3    H221895   7.189   0.945   5.404  0.9029 -0.7753 -0.6240
 7311TIP3   OH221896   2.859   2.317   3.497 -0.5661 -0.3849 -0.5380
 7311TIP3    H121897   2.828   2.308   3.587 -1.1017 -1.7591 -0.8300
 7311TIP3    H221898   2.855   2.410   3.479  2.1872  0.3181  1.7616
 7312TIP3   OH221899   5.989   1.897   2.499  0.3401 -0.4333 -0.2207
 7312TIP3    H121900   6.028   1.879   2.585 -0.1784  1.6681  0.5066
 7312TIP3    H221901   6.040   1.842   2.438  1.3219 -1.2770  1.2886
 7313TIP3   OH221902   5.530   5.664   5.794 -0.4320  0.0375 -0.4158
 7313TIP3    H121903   5.456   5.617   5.833 -0.3745  0.3206  0.0429
 7313TIP3    H221904   5.601   5.656   5.858 -0.3744  0.6058 -0.4001
 7314TIP3   OH221905   3.061   2.847   4.202  0.4349  0.1490  0.2321
 7314TIP3    H121906   3.038   2.788   4.129 -0.2626  0.0112  0.5528
 7314TIP3    H221907   3.154   2.831   4.217  0.8299  0.8339 -1.2228
 7315TIP3   OH221908   3.666   2.116   3.700 -0.5141 -0.3140  0.4973
 7315TIP3    H121909   3.695   2.078   3.617 -0.7762 -0.6916  0.5737
 7315TIP3    H221910   3.673   2.044   3.763  1.8945  0.5647  1.3256
 7316TIP3   OH221911   4.020   6.332   3.302  0.4396  0.3959 -0.4304
 7316TIP3    H121912   4.107   6.343   3.339  0.0854  0.7118  0.3360
 7316TIP3    H221913   3.960   6.340   3.377 -0.2792  0.7626 -1.0244
 7317TIP3   OH221914   2.344   2.124   4.864  0.2614  0.0806  0.1782
 7317TIP3    H121915   2.402   2.159   4.932  1.0089  0.6228 -0.7142
 7317TIP3    H221916   2.345   2.030   4.877  0.3712  0.1811  0.9371
 7318TIP3   OH221917   1.774   3.234   1.357 -0.2338 -0.4967  0.1992
 7318TIP3    H121918   1.762   3.142   1.337  0.7693 -0.7637  0.7801
 7318TIP3    H221919   1.693   3.276   1.327 -0.9905 -1.6514  0.5716
 7319TIP3   OH221920   3.128   5.734   0.268 -0.2770  0.2366  1.1350
 7319TIP3    H121921   3.217   5.762   0.249 -0.5163 -0.3498 -1.1588
 7319TIP3    H221922   3.077   5.761   0.192 -2.2688  1.2528  2.7167
 7320TIP3   OH221923   5.530   5.619   0.903  0.2157  0.4661 -1.0089
 7320TIP3    H121924   5.516   5.541   0.848  0.6209  0.3549 -0.9555
 7320TIP3    H221925   5.496   5.593   0.989  0.7990  0.1738 -0.8624
 7321TIP3   OH221926   1.174   4.319   2.446  0.0263 -0.6804  0.1413
 7321TIP3    H121927   1.232   4.269   2.388 -3.2864 -3.7957 -0.8908
 7321TIP3    H221928   1.101   4.344   2.389 -1.2726  0.0839  2.0639
 7322TIP3   OH221929   6.454   2.001   0.096  0.2928  0.4150  0.1300
 7322TIP3    H121930   6.462   1.906   0.086 -0.8225  0.4323 -1.4117
 7322TIP3    H221931   6.423   2.014   0.185 -0.4720 -0.7543  0.0575
 7323TIP3   OH221932   5.832   3.329   5.277  0.3946  0.1400 -0.4227
 7323TIP3    H121933   5.740   3.305   5.266  0.7625 -0.8905 -1.3509
 7323TIP3    H221934   5.859   3.284   5.357 -0.0053  0.7898  0.0918
 7324TIP3   OH221935   3.240   0.200   2.040  0.2094  0.7059 -0.2398
 7324TIP3    H121936   3.305   0.266   2.065  0.1671  0.5348  0.3204
 7324TIP3    H221937   3.182   0.247   1.979  0.9050  0.8326 -0.8231
 7325TIP3   OH221938   2.307   0.691   1.364  0.0612  0.2375  0.0296
 7325TIP3    H121939   2.295   0.661   1.454  0.0831  1.3715  0.4166
 7325TIP3    H221940   2.361   0.622   1.324 -1.6843 -1.3456  0.2588
 7326TIP3   OH221941   6.262   3.186   5.012 -0.3510  0.3862 -0.8502
 7326TIP3    H121942   6.291   3.095   4.999 -0.7544  0.5059 -2.9484
 7326TIP3    H221943   6.174   3.188   4.975 -1.5043  1.0319  1.6921
 7327TIP3   OH221944   0.826   1.951   0.863 -0.3323 -0.3615 -0.0348
 7327TIP3    H121945   0.747   1.974   0.814 -0.5299 -1.1262 -0.0801
 7327TIP3    H221946   0.797   1.887   0.927  0.1379 -0.1714  0.3740
 7328TIP3   OH221947   1.243   4.438   0.832 -0.0406 -0.4217  0.3436
 7328TIP3    H121948   1.183   4.372   0.866 -1.3188  0.3847 -0.2972
 7328TIP3    H221949   1.285   4.397   0.757 -1.5169 -0.2307 -0.6283
 7329TIP3   OH221950   2.044   6.473   0.146  0.2112 -0.3442  0.1166
 7329TIP3    H121951   1.997   6.501   0.224 -0.4322  1.2032 -0.7673
 7329TIP3    H221952   2.124   6.526   0.146  0.0245 -0.0498 -0.4508
 7330TIP3   OH221953   6.913   1.973   0.511 -0.7599 -0.3130  0.0816
 7330TIP3    H121954   6.834   2.007   0.469 -1.3527 -0.7369  0.8201
 7330TIP3    H221955   6.893   1.881   0.527  1.2248 -1.3843 -2.8787
 7331TIP3   OH221956   0.339   3.382   2.353  0.6266 -0.3374  0.2955
 7331TIP3    H121957   0.370   3.309   2.406 -0.7065 -1.1435  0.0116
 7331TIP3    H221958   0.253   3.355   2.322 -0.2101  1.6202  0.7227
 7332TIP3   OH221959   1.150   5.184   3.438 -0.4607 -0.2437  0.0314
 7332TIP3    H121960   1.243   5.180   3.418 -0.2630  2.9170 -0.2391
 7332TIP3    H221961   1.144   5.164   3.531  0.7860  1.1865  0.4765
 7333TIP3   OH221962   7.185   4.025   4.417  1.1533  0.5838 -0.3235
 7333TIP3    H121963   7.131   4.082   4.362  3.7695  2.2477 -1.3410
 7333TIP3    H221964   7.238   3.976   4.354  0.7574 -1.1498  0.6391
 7334TIP3   OH221965   3.362   1.142   2.805  0.2567 -0.4290  0.1787
 7334TIP3    H121966   3.305   1.191   2.865  0.4129 -0.1585  0.1119
 7334TIP3    H221967   3.303   1.106   2.739  0.1006 -0.6067  0.4137
 7335TIP3   OH221968   4.459   1.273   3.149 -0.3702  1.0113 -0.3166
 7335TIP3    H121969   4.389   1.248   3.210 -0.0697  1.4499  0.2168
 7335TIP3    H221970   4.492   1.356   3.183  0.3377  0.8667 -0.6285
 7336TIP3   OH221971   5.513   6.487   5.139 -0.2215 -0.0304 -0.0444
 7336TIP3    H121972   5.423   6.491   5.107  0.1126 -0.2878 -1.0372
 7336TIP3    H221973   5.562   6.546   5.081  0.1141  0.7256  0.9759
 7337TIP3   OH221974   1.159   1.783   4.174  0.3191 -0.0782  0.3058
 7337TIP3    H121975   1.105   1.755   4.100 -0.0528 -0.2730  0.6450
 7337TIP3    H221976   1.245   1.798   4.137  0.9333 -3.0053  0.2940
 7338TIP3   OH221977   4.357   3.843   1.553  0.2118 -0.3137 -0.5805
 7338TIP3    H121978   4.381   3.927   1.592  2.5879 -1.3173  0.3547
 7338TIP3    H221979   4.352   3.861   1.459  1.1255  0.7996 -0.4455
 7339TIP3   OH221980   3.176   0.850   4.062 -0.0064 -0.0708 -0.5593
 7339TIP3    H121981   3.153   0.813   3.977 -0.1691  1.8768 -1.4124
 7339TIP3    H221982   3.120   0.803   4.124  1.1592 -2.5667 -1.2690
 7340TIP3   OH221983   2.380   4.433   0.522 -0.3061  0.1451  0.1694
 7340TIP3    H121984   2.356   4.373   0.451  0.1050 -0.5322  0.5856
 7340TIP3    H221985   2.440   4.382   0.576  0.0119  0.9261  0.5670
 7341TIP3   OH221986   6.089   4.789   1.319  0.0706  0.2762 -0.4966
 7341TIP3    H121987   6.053   4.825   1.400 -1.3289  1.7029 -1.7010
 7341TIP3    H221988   6.016   4.789   1.258  0.1061 -4.0199 -0.8737
 7342TIP3   OH221989   5.459   6.686   2.501  0.1267 -0.2447  0.2527
 7342TIP3    H121990   5.523   6.639   2.447 -0.7147  0.5470 -1.5205
 7342TIP3    H221991   5.401   6.617   2.534 -0.4214 -0.6273 -1.3863
 7343TIP3   OH221992   1.416   4.682   0.751  0.3574  0.2116 -0.5111
 7343TIP3    H121993   1.425   4.777   0.757  0.2844  0.1332  1.1932
 7343TIP3    H221994   1.343   4.661   0.809  2.7494 -1.2359  2.1947
 7344TIP3   OH221995   3.309   1.220   1.671  0.0364 -0.0814 -0.2669
 7344TIP3    H121996   3.318   1.274   1.750  1.2925 -1.1557  0.3660
 7344TIP3    H221997   3.214   1.211   1.659 -0.1853  1.2446  0.2941
 7345TIP3   OH221998   4.087   1.739   0.858 -0.1357 -0.1633  0.5537
 7345TIP3    H121999   4.090   1.644   0.867  1.3837  0.0275  2.7556
 7345TIP3    H222000   4.105   1.755   0.765 -2.5783 -2.0339 -0.3666
 7346TIP3   OH222001   4.451   1.731   4.405 -0.2476 -0.3759 -0.1698
 7346TIP3    H122002   4.436   1.679   4.483  1.3139 -2.2505 -1.0428
 7346TIP3    H222003   4.497   1.673   4.345  1.9958  2.1148 -1.0629
 7347TIP3   OH222004   1.315   3.427   2.100  0.5036  0.3608  0.2674
 7347TIP3    H122005   1.371   3.361   2.141  0.1591  0.5875  1.1321
 7347TIP3    H222006   1.234   3.381   2.080 -0.5949  0.9434  2.8712
 7348TIP3   OH222007   3.226   1.706   4.779  0.4954  0.1914  0.4036
 7348TIP3    H122008   3.238   1.780   4.719 -0.6376  0.0438 -0.0231
 7348TIP3    H222009   3.311   1.662   4.779  2.2012  3.0345  2.8788
 7349TIP3   OH222010   0.132   4.909   2.276  0.3286 -0.1513  0.1089
 7349TIP3    H122011   0.193   4.951   2.337  0.0817  0.9175 -0.3498
 7349TIP3    H222012   0.170   4.823   2.260  1.5991  0.4023  0.0287
 7350TIP3   OH222013   1.251   1.788   3.045  0.3028  0.1613 -0.2895
 7350TIP3    H122014   1.317   1.722   3.023 -0.6940 -0.6504 -0.9516
 7350TIP3    H222015   1.222   1.764   3.133  2.5654  1.9735  1.0776
 7351TIP3   OH222016   3.277   2.319   1.239 -0.3149 -0.3946  0.4790
 7351TIP3    H122017   3.289   2.413   1.231 -1.3381 -0.1021  1.9157
 7351TIP3    H222018   3.353   2.280   1.196 -1.2628  0.9890 -2.7990
 7352TIP3   OH222019   2.886   5.778   1.425 -0.0754  0.1596  0.1137
 7352TIP3    H122020   2.845   5.809   1.505 -1.1720 -0.3337 -0.2213
 7352TIP3    H222021   2.820   5.796   1.357 -1.3586 -3.8080  0.0433
 7353TIP3   OH222022   0.607   5.171   4.300 -0.4982  0.3159  0.3503
 7353TIP3    H122023   0.551   5.147   4.375 -1.0195 -2.4096 -0.7879
 7353TIP3    H222024   0.695   5.147   4.328 -0.3527  1.3868  0.8679
 7354TIP3   OH222025   6.880   5.353   1.318  0.4689 -0.4346  0.4205
 7354TIP3    H122026   6.940   5.400   1.376  0.2439  1.3395 -0.7034
 7354TIP3    H222027   6.930   5.338   1.238  0.4240 -1.8745  0.6309
 7355TIP3   OH222028   2.575   6.336   3.066  0.2736 -0.0358  0.2250
 7355TIP3    H122029   2.538   6.251   3.090  0.2860  0.2978  1.5104
 7355TIP3    H222030   2.669   6.325   3.077  0.2928  0.0842  0.1782
 7356TIP3   OH222031   2.781   1.348   4.510  0.0684  0.2247 -0.1001
 7356TIP3    H122032   2.839   1.275   4.530  0.8312  0.2919 -1.9164
 7356TIP3    H222033   2.694   1.308   4.501  0.4290 -0.4194 -0.7670
 7357TIP3   OH222034   6.589   1.863   3.936 -0.4197 -1.1652 -0.1851
 7357TIP3    H122035   6.645   1.868   3.858  1.0523  2.3239  0.8977
 7357TIP3    H222036   6.650   1.851   4.009 -1.0505  1.3930  0.8945
 7358TIP3   OH222037   5.954   6.256   1.864 -0.1809 -0.6590  0.7754
 7358TIP3    H122038   5.987   6.342   1.840 -2.2608  0.2935  1.1374
 7358TIP3    H222039   5.951   6.207   1.782  1.9008 -0.7498  0.7072
 7359TIP3   OH222040   6.322   6.363   4.724  0.5187 -0.1960 -0.6225
 7359TIP3    H122041   6.412   6.395   4.713  0.6517 -0.4616 -0.3322
 7359TIP3    H222042   6.305   6.311   4.646  0.6533 -0.2207 -0.6356
 7360TIP3   OH222043   1.105   4.775   3.752  0.2920  0.3472  0.2682
 7360TIP3    H122044   1.083   4.772   3.845  0.1575 -1.8313  0.2111
 7360TIP3    H222045   1.189   4.730   3.746 -1.1200 -2.3142 -0.9692
 7361TIP3   OH222046   2.595   5.546   2.462  0.4646  0.0426  0.0576
 7361TIP3    H122047   2.599   5.457   2.498 -0.6625 -0.6537 -1.4588
 7361TIP3    H222048   2.684   5.563   2.430  0.4693 -0.9084 -0.4719
 7362TIP3   OH222049   4.491   6.579   4.841  0.3214 -0.0015  0.6389
 7362TIP3    H122050   4.482   6.576   4.937 -0.4092 -0.9008  0.5512
 7362TIP3    H222051   4.583   6.603   4.827  0.4573  0.0694  1.5677
 7363TIP3   OH222052   6.046   2.662   1.360  0.5747  0.2926 -0.0918
 7363TIP3    H122053   6.024   2.666   1.267  1.2438  0.2377 -0.2602
 7363TIP3    H222054   6.100   2.740   1.376 -2.9914  2.7197  1.2457
 7364TIP3   OH222055   3.174   6.796   5.550 -0.3574 -0.6812 -0.3959
 7364TIP3    H122056   3.219   6.804   5.634  0.8379  0.5736 -1.1306
 7364TIP3    H222057   3.151   6.703   5.544 -2.7683 -0.4044  2.4464
 7365TIP3   OH222058   3.771   6.506   3.312  0.4492  0.1613  0.8393
 7365TIP3    H122059   3.773   6.447   3.238 -2.1962 -0.8305  1.4221
 7365TIP3    H222060   3.681   6.540   3.313  1.5796  3.5577  1.0570
 7366TIP3   OH222061   3.048   2.821   3.605 -0.1158  0.4518  0.1980
 7366TIP3    H122062   3.110   2.840   3.676 -0.9491  0.1254  1.0250
 7366TIP3    H222063   3.002   2.903   3.592 -0.4620  0.3156  0.5404
 7367TIP3   OH222064   4.847   0.460   5.716  0.3019 -0.3048 -0.1089
 7367TIP3    H122065   4.788   0.465   5.791  1.3801  0.7590  0.6997
 7367TIP3    H222066   4.803   0.511   5.647  0.5980  1.1313  0.7317
 7368TIP3   OH222067   0.457   5.627   2.949  0.4311  0.1812  0.2113
 7368TIP3    H122068   0.458   5.590   3.037  0.0149 -0.2107  0.0608
 7368TIP3    H222069   0.542   5.603   2.912  1.2385  1.6636  1.0150
 7369TIP3   OH222070   2.372   4.664   2.479 -0.5583  0.2781 -0.2237
 7369TIP3    H122071   2.292   4.612   2.469  0.3058 -1.6324  1.8645
 7369TIP3    H222072   2.356   4.718   2.557  0.8042 -1.5704  1.4289
 7370TIP3   OH222073   1.836   0.501   3.404 -0.2066  0.0672  0.0084
 7370TIP3    H122074   1.751   0.542   3.419 -0.1245 -0.3597  1.8719
 7370TIP3    H222075   1.847   0.503   3.308 -2.5827 -0.4237 -0.3455
 7371TIP3   OH222076   7.181   5.374   5.351 -0.3446 -0.2461  0.2917
 7371TIP3    H122077   7.268   5.400   5.382 -0.7638  2.0877 -0.3441
 7371TIP3    H222078   7.121   5.405   5.420 -0.8100 -0.3116 -0.0819
 7372TIP3   OH222079   3.015   3.791   0.912 -0.0852  0.1041 -0.2270
 7372TIP3    H122080   3.097   3.815   0.955 -0.6540  2.0331 -0.0921
 7372TIP3    H222081   2.991   3.707   0.950  1.6646 -0.3575 -0.0608
 7373TIP3   OH222082   3.710   0.447   3.523  0.0183  0.5469 -0.1719
 7373TIP3    H122083   3.707   0.368   3.469  0.2044 -0.3040  1.0296
 7373TIP3    H222084   3.771   0.426   3.593 -1.9856  0.7253  1.7151
 7374TIP3   OH222085   2.544   6.573   1.852 -0.0495  0.3729  0.4434
 7374TIP3    H122086   2.541   6.644   1.916 -0.8722  0.4582  0.3225
 7374TIP3    H222087   2.489   6.604   1.780 -3.6619 -1.8700  1.9646
 7375TIP3   OH222088   0.828   0.274   2.477 -0.5274  0.0081  0.0079
 7375TIP3    H122089   0.794   0.363   2.477  0.5257  0.4912  2.2223
 7375TIP3    H222090   0.836   0.251   2.570 -1.2572 -2.6123 -0.4839
 7376TIP3   OH222091   4.865   5.743   5.495 -0.0007  0.4552 -0.4644
 7376TIP3    H122092   4.877   5.670   5.556  0.1096 -0.7564 -1.8804
 7376TIP3    H222093   4.953   5.761   5.462  0.0350  1.5206  0.1448
 7377TIP3   OH222094   5.910   2.387   5.420 -0.2867 -0.1913 -0.0821
 7377TIP3    H122095   6.003   2.389   5.395 -0.4504 -1.1135 -0.8226
 7377TIP3    H222096   5.906   2.440   5.499  1.0079 -0.7320  0.3796
 7378TIP3   OH222097   0.749   0.006   1.488 -0.1177  0.3847  0.1800
 7378TIP3    H122098   0.678   0.069   1.497  0.5393  1.1681 -0.0308
 7378TIP3    H222099   0.813   0.031   1.555 -0.7750 -1.3599  1.5334
 7379TIP3   OH222100   4.169   4.110   2.796 -0.1494 -0.5068 -0.1243
 7379TIP3    H122101   4.132   4.077   2.714  2.2740 -2.7127 -0.4744
 7379TIP3    H222102   4.260   4.079   2.796  0.7366  1.6785  2.2046
 7380TIP3   OH222103   6.869   5.847   0.687 -0.0863 -0.2458  0.2001
 7380TIP3    H122104   6.801   5.815   0.628 -0.1470 -0.7731  0.5376
 7380TIP3    H222105   6.891   5.934   0.656  0.0803 -0.6228 -0.7652
 7381TIP3   OH222106   3.140   4.408   2.898  0.3051  0.3826 -0.1254
 7381TIP3    H122107   3.065   4.381   2.845 -0.2324  1.6047 -0.0234
 7381TIP3    H222108   3.133   4.503   2.902  1.4528  0.4552  0.5090
 7382TIP3   OH222109   6.110   3.958   5.791  0.2099  0.7167 -0.5229
 7382TIP3    H122110   6.140   3.874   5.825  1.7538  1.7368  0.7907
 7382TIP3    H222111   6.101   3.944   5.696 -1.2967 -1.3707 -0.1477
 7383TIP3   OH222112   1.232   3.568   0.402  0.0281 -0.0736 -0.2621
 7383TIP3    H122113   1.243   3.655   0.363  0.5012  0.3231  0.7148
 7383TIP3    H222114   1.312   3.522   0.381 -0.5582 -0.5684 -1.4756
 7384TIP3   OH222115   1.601   4.291   5.433  0.2600 -0.2123  0.2184
 7384TIP3    H122116   1.583   4.258   5.345 -0.1527 -0.1750  0.2855
 7384TIP3    H222117   1.549   4.372   5.438 -0.3525 -0.6302  0.7765
 7385TIP3   OH222118   2.540   0.018   1.440  0.0754  0.1912  0.1540
 7385TIP3    H122119   2.610  -0.037   1.405 -0.7513  0.0084 -1.2924
 7385TIP3    H222120   2.481   0.031   1.366 -3.2435 -2.4836  2.0632
 7386TIP3   OH222121   0.969   6.551   5.068 -0.2659 -0.1953  0.0662
 7386TIP3    H122122   1.053   6.590   5.090 -0.8754  0.6759  0.8979
 7386TIP3    H222123   0.992   6.466   5.029  0.9712 -0.2100  0.7724
 7387TIP3   OH222124   5.739   5.494   1.118  0.0471 -0.3237 -0.2007
 7387TIP3    H122125   5.666   5.547   1.088  3.0941  4.1241 -0.7498
 7387TIP3    H222126   5.728   5.491   1.213 -0.9176  0.1763 -0.2819
 7388TIP3   OH222127   0.816   2.173   4.861 -0.3251  0.4360 -0.7309
 7388TIP3    H122128   0.815   2.098   4.921 -0.1473  1.4003  0.5386
 7388TIP3    H222129   0.800   2.136   4.775 -2.7560 -0.7834  0.1627
 7389TIP3   OH222130   4.903   1.744   4.689  0.7476  0.4109  0.0325
 7389TIP3    H122131   4.816   1.705   4.694  0.2547  1.4812  0.0141
 7389TIP3    H222132   4.944   1.723   4.773  0.8974 -1.0266 -0.3718
 7390TIP3   OH222133   0.084   0.949   2.352  0.0231 -0.1623  0.1118
 7390TIP3    H122134   0.094   0.860   2.386  0.5809 -0.1965 -0.1332
 7390TIP3    H222135   0.133   1.003   2.414  0.1149 -0.0895 -0.0248
 7391TIP3   OH222136   0.310   6.186   3.498  0.3475  0.2766 -0.6802
 7391TIP3    H122137   0.309   6.249   3.570  0.1693 -0.0601 -0.3878
 7391TIP3    H222138   0.262   6.230   3.428  1.0212  0.8439 -0.8048
 7392TIP3   OH222139   3.072   5.251   3.835  0.5934 -0.5693  0.1606
 7392TIP3    H122140   3.052   5.270   3.743  1.2331  0.5861  0.2371
 7392TIP3    H222141   3.140   5.184   3.831  1.3999  0.2488 -0.2548
 7393TIP3   OH222142   0.430   4.836   2.267  0.5106  0.0538  0.2986
 7393TIP3    H122143   0.427   4.855   2.361  1.5024 -1.6528  0.7161
 7393TIP3    H222144   0.483   4.757   2.260  1.1499  0.5977 -1.7901
 7394TIP3   OH222145   0.970   3.146   3.170 -0.0025  0.2571 -0.3871
 7394TIP3    H122146   1.039   3.181   3.114  0.2317 -1.2572 -1.0939
 7394TIP3    H222147   0.900   3.120   3.109 -0.8849  1.0499  0.2543
 7395TIP3   OH222148   1.906   2.217   0.221 -0.1540  0.6286 -0.2769
 7395TIP3    H122149   1.962   2.286   0.185  1.0842 -0.3057 -0.2239
 7395TIP3    H222150   1.896   2.240   0.314 -0.9309  1.4672 -0.5456
 7396TIP3   OH222151   6.890   2.973   4.939 -0.2666 -0.3141  0.0135
 7396TIP3    H122152   6.826   2.955   5.008 -0.1717 -1.9476 -0.2687
 7396TIP3    H222153   6.970   2.996   4.986 -0.9971  1.6821  0.3716
 7397TIP3   OH222154   2.869   3.530   5.053 -0.0636  0.0987 -0.4962
 7397TIP3    H122155   2.818   3.461   5.012  1.8344 -2.4496  1.0985
 7397TIP3    H222156   2.896   3.493   5.137  0.0876  3.2855  1.0141
 7398TIP3   OH222157   5.626   6.266   1.333  0.4234  0.3959  0.4344
 7398TIP3    H122158   5.667   6.202   1.274 -2.0371 -0.9701  0.0946
 7398TIP3    H222159   5.585   6.213   1.401 -1.3043  1.6169  0.4041
 7399TIP3   OH222160   1.928   3.054   1.548  0.2915  0.0222 -0.3173
 7399TIP3    H122161   1.860   3.015   1.494 -0.0667 -1.3950  1.0649
 7399TIP3    H222162   1.880   3.109   1.610  0.5224  0.1495 -0.2503
 7400TIP3   OH222163   4.263   1.151   4.417 -0.0004  0.0939 -0.5204
 7400TIP3    H122164   4.222   1.081   4.366 -0.4014 -0.1973  0.2006
 7400TIP3    H222165   4.229   1.232   4.377 -0.5074 -0.1323 -0.5607
 7401TIP3   OH222166   5.028   3.408   5.789  0.1063  0.1562  0.6989
 7401TIP3    H122167   5.038   3.367   5.703  0.4308  0.1662  0.7294
 7401TIP3    H222168   4.961   3.356   5.833  1.1915 -0.9636  1.1019
 7402TIP3   OH222169   1.189   5.642   1.862  0.3362 -0.8233  0.2893
 7402TIP3    H122170   1.158   5.711   1.803  0.4188  0.1270  1.3291
 7402TIP3    H222171   1.110   5.595   1.887  0.0969 -0.1983  0.7058
 7403TIP3   OH222172   1.844   5.879   3.013  0.0506  0.2973  0.0825
 7403TIP3    H122173   1.905   5.870   2.939 -0.4959 -1.1057 -0.2156
 7403TIP3    H222174   1.757   5.867   2.975 -0.2671 -0.0408  0.8929
 7404TIP3   OH222175   1.435   1.722   5.665  0.5622  0.3374 -0.2786
 7404TIP3    H122176   1.391   1.750   5.745  0.1704  0.3036 -0.4768
 7404TIP3    H222177   1.372   1.742   5.595  2.1025  3.2789 -0.9478
 7405TIP3   OH222178   3.764   0.670   4.627 -0.3266 -0.2098  0.1363
 7405TIP3    H122179   3.693   0.728   4.656 -1.8389 -1.5106 -0.8009
 7405TIP3    H222180   3.806   0.718   4.555  0.6629  1.1457  1.5539
 7406TIP3   OH222181   2.980   2.588   2.262 -0.2580  0.9794  0.3100
 7406TIP3    H122182   3.059   2.601   2.208  0.8774 -1.1484  1.3203
 7406TIP3    H222183   2.974   2.493   2.272 -3.6864  0.9434 -0.6940
 7407TIP3   OH222184   4.640   4.117   1.248  0.6976 -0.8094  0.4430
 7407TIP3    H122185   4.717   4.111   1.193 -0.1997  0.4130 -1.0413
 7407TIP3    H222186   4.673   4.150   1.332  1.8127 -0.5783 -0.0695
 7408TIP3   OH222187   1.420   0.845   0.977  0.3980 -0.0485  0.1519
 7408TIP3    H122188   1.507   0.867   1.011  0.5475  0.2641 -0.4231
 7408TIP3    H222189   1.421   0.749   0.970 -0.5127 -0.4226  3.3696
 7409TIP3   OH222190   3.847   1.931   3.880  0.6307 -0.2438 -0.0108
 7409TIP3    H122191   3.850   2.023   3.906 -1.3632 -0.2007  0.2015
 7409TIP3    H222192   3.851   1.883   3.963 -0.7099 -0.2515  0.0707
 7410TIP3   OH222193   0.301   2.305   0.263 -0.3599 -0.1137 -0.5370
 7410TIP3    H122194   0.380   2.316   0.316  0.8888  0.5575 -2.4314
 7410TIP3    H222195   0.268   2.218   0.287  2.5748 -1.6762 -1.6725
 7411TIP3   OH222196   2.752   5.742   0.331 -0.1556  0.2937  0.0407
 7411TIP3    H122197   2.828   5.723   0.386  0.6316  1.2730 -0.6729
 7411TIP3    H222198   2.695   5.796   0.386 -0.3285 -0.3982  0.5597
 7412TIP3   OH222199   5.930   6.426   4.559 -0.0327  0.3144  0.3373
 7412TIP3    H122200   5.950   6.368   4.632 -0.0091 -2.0772 -1.4499
 7412TIP3    H222201   5.858   6.481   4.590  1.8117  1.3985  3.0699
 7413TIP3   OH222202   1.257   2.741   3.791 -0.5101  0.4059  0.1334
 7413TIP3    H122203   1.221   2.730   3.879 -0.8545 -0.8689 -0.1467
 7413TIP3    H222204   1.242   2.657   3.748  0.3550  0.7547 -0.8992
 7414TIP3   OH222205   6.768   2.883  -0.018 -0.5365  0.1545  0.3371
 7414TIP3    H122206   6.763   2.975   0.004 -0.1337  0.0051  1.0510
 7414TIP3    H222207   6.821   2.843   0.051 -1.1874 -0.7097  0.3697
 7415TIP3   OH222208   5.791   5.516   2.471 -0.0899  0.0972 -0.2619
 7415TIP3    H122209   5.749   5.438   2.504 -2.2338  0.9187 -0.9099
 7415TIP3    H222210   5.789   5.507   2.376  1.9861 -0.1933 -0.3328
 7416TIP3   OH222211   4.943   5.617   4.811  0.1714  0.0650  0.1553
 7416TIP3    H122212   4.894   5.563   4.749 -1.2218  1.1570  0.2691
 7416TIP3    H222213   4.983   5.685   4.757 -1.4104  1.2820  0.4692
 7417TIP3   OH222214   2.827   6.364   4.228 -0.6012 -0.1887 -0.1618
 7417TIP3    H122215   2.903   6.422   4.221  0.1646 -1.2654 -1.0809
 7417TIP3    H222216   2.845   6.310   4.304 -0.4794 -0.3958 -0.3377
 7418TIP3   OH222217   6.952   0.895   2.480 -0.2032 -0.0016 -0.1269
 7418TIP3    H122218   6.987   0.820   2.529 -0.4142  0.5115  0.8171
 7418TIP3    H222219   6.899   0.855   2.411 -1.4977 -0.7339  1.2200
 7419TIP3   OH222220   1.741   4.567   4.574 -0.1607 -0.0787  0.1761
 7419TIP3    H122221   1.757   4.557   4.480  0.5222  0.5786  0.2182
 7419TIP3    H222222   1.793   4.497   4.614  2.7277  1.9539  0.3040
 7420TIP3   OH222223   1.468   3.618   4.934  0.1470  0.2080 -0.1246
 7420TIP3    H122224   1.512   3.667   5.004  1.1700  1.3995 -1.5445
 7420TIP3    H222225   1.515   3.535   4.930  0.2649  0.2435  0.3925
 7421TIP3   OH222226   0.192   4.044   4.030 -0.0084  0.0477  0.5331
 7421TIP3    H122227   0.185   3.959   3.985  0.5071 -0.2037  0.9186
 7421TIP3    H222228   0.229   4.022   4.116  1.8773  0.8668 -0.0318
 7422TIP3   OH222229   0.721   6.176   4.687  0.2286  0.4578  0.0612
 7422TIP3    H122230   0.689   6.182   4.777  0.8315 -0.6247  0.3629
 7422TIP3    H222231   0.744   6.083   4.676  0.7452  0.7009 -1.0066
 7423TIP3   OH222232   0.030   0.084   2.507 -0.2820  0.2253 -0.3779
 7423TIP3    H122233   0.005   0.176   2.519 -1.4990  0.0569 -1.3814
 7423TIP3    H222234   0.005   0.065   2.417  1.0355 -0.7755 -0.5481
 7424TIP3   OH222235   6.795   3.481   0.649  0.4688 -0.8872  0.0046
 7424TIP3    H122236   6.800   3.399   0.601  0.5789  0.5975 -2.7522
 7424TIP3    H222237   6.728   3.532   0.604  2.2085  1.5137 -0.0997
 7425TIP3   OH222238   6.841   2.899   2.273  0.7538  0.4296 -0.5851
 7425TIP3    H122239   6.848   2.940   2.187  0.0281  0.5161 -0.6101
 7425TIP3    H222240   6.779   2.827   2.260 -0.7158  1.5061  0.2412
 7426TIP3   OH222241   5.942   4.209   4.864 -0.6065  0.3459  0.0445
 7426TIP3    H122242   5.942   4.114   4.849 -0.5505  0.2911  0.3844
 7426TIP3    H222243   6.013   4.242   4.809 -0.3372  0.1368  0.2618
 7427TIP3   OH222244   2.686   1.400   2.885 -0.0489  0.1559  0.0059
 7427TIP3    H122245   2.738   1.474   2.913  0.0349  0.3465 -0.6307
 7427TIP3    H222246   2.747   1.346   2.834  0.0329 -0.6245  0.9099
 7428TIP3   OH222247   3.613   6.296   3.484 -0.0698  0.0750 -0.2080
 7428TIP3    H122248   3.596   6.202   3.476  0.6564 -0.0850  0.0735
 7428TIP3    H222249   3.536   6.337   3.446 -0.8917 -0.6244  0.6572
 7429TIP3   OH222250   5.806   6.491   2.577  0.0606 -0.2283 -0.3086
 7429TIP3    H122251   5.842   6.576   2.602 -0.3013 -0.3532  0.7113
 7429TIP3    H222252   5.880   6.444   2.539  0.7537 -0.1302  0.8659
 7430TIP3   OH222253   1.374   0.660   5.094 -0.5278 -0.1384  0.0542
 7430TIP3    H122254   1.413   0.718   5.029  0.4960 -1.9807 -1.0515
 7430TIP3    H222255   1.317   0.717   5.146 -0.2614  1.6575 -1.5298
 7431TIP3   OH222256   0.008   6.480   2.266  0.4820 -0.6930  0.0651
 7431TIP3    H122257   0.096   6.444   2.278  1.0620  0.5436 -0.2230
 7431TIP3    H222258  -0.011   6.524   2.349  0.4892 -0.2768 -0.1480
 7432TIP3   OH222259   2.174   0.312   3.514  0.3681  0.0967  0.3165
 7432TIP3    H122260   2.084   0.296   3.544  0.5726  0.3451  1.0918
 7432TIP3    H222261   2.212   0.366   3.583  0.9988  0.3155 -0.1959
 7433TIP3   OH222262   5.354   0.845   3.072  1.0759  0.4136 -0.0619
 7433TIP3    H122263   5.332   0.784   3.143 -0.2237 -0.3863 -1.0920
 7433TIP3    H222264   5.297   0.920   3.087  0.2376 -0.0808 -0.6457
 7434TIP3   OH222265   2.017   5.798   3.348  0.0218  0.2736 -0.1051
 7434TIP3    H122266   2.056   5.767   3.430 -1.8569  0.7457  1.0200
 7434TIP3    H222267   2.000   5.718   3.298  1.8243  0.0257 -0.3732
 7435TIP3   OH222268   6.098   0.045   1.324 -0.1560 -0.2602  0.2145
 7435TIP3    H122269   6.054   0.128   1.346  1.2922  0.7934 -0.6561
 7435TIP3    H222270   6.191   0.064   1.334  0.1737 -2.1628  1.1465
 7436TIP3   OH222271   0.799   6.170   0.527  0.0463 -0.4106 -0.3109
 7436TIP3    H122272   0.733   6.141   0.464 -1.2326  0.7088  0.4307
 7436TIP3    H222273   0.801   6.101   0.593 -0.4185 -0.4422 -0.3242
 7437TIP3   OH222274   3.956   1.373   2.166 -0.0043 -0.4254  0.7648
 7437TIP3    H122275   4.017   1.445   2.154 -0.9366  0.6055  1.9006
 7437TIP3    H222276   3.878   1.398   2.117 -0.7771 -0.0453  2.1130
 7438TIP3   OH222277   2.378   2.533   1.387 -0.3605 -0.3909 -0.2914
 7438TIP3    H122278   2.460   2.574   1.412 -1.5617  1.7792  0.3676
 7438TIP3    H222279   2.365   2.464   1.452  0.3519  0.0375  0.3220
 7439TIP3   OH222280   4.284   5.824   1.409 -0.4022 -0.3661 -0.1999
 7439TIP3    H122281   4.213   5.766   1.437 -1.5690  0.3563 -1.5576
 7439TIP3    H222282   4.346   5.766   1.365  0.2434 -1.1083  1.5528
 7440TIP3   OH222283   4.599   3.519   3.775  0.1237 -0.1209  0.2317
 7440TIP3    H122284   4.602   3.520   3.871 -0.0446 -2.5027  0.3183
 7440TIP3    H222285   4.519   3.567   3.753  0.8826  1.6886  1.1681
 7441TIP3   OH222286   6.706   4.029   4.384 -0.4110  0.3982  0.1105
 7441TIP3    H122287   6.770   4.042   4.454 -0.9985  0.4071  0.6507
 7441TIP3    H222288   6.759   4.008   4.307  0.1789 -2.8570  1.2204
 7442TIP3   OH222289   5.526   2.767   0.682 -0.1770 -0.2647  0.3292
 7442TIP3    H122290   5.552   2.824   0.754 -0.6887  0.4077 -0.0019
 7442TIP3    H222291   5.565   2.683   0.702  0.4617  0.1645  0.9143
 7443TIP3   OH222292   4.549   5.470   5.174  0.1234  0.1822 -0.0426
 7443TIP3    H122293   4.528   5.439   5.086  2.1459  0.0684 -0.5246
 7443TIP3    H222294   4.486   5.426   5.231  1.2714 -2.8839 -0.9734
 7444TIP3   OH222295   5.560   3.855   4.958 -0.6763  0.0091  0.1643
 7444TIP3    H122296   5.618   3.832   5.031 -1.0742 -1.1155  0.1416
 7444TIP3    H222297   5.614   3.842   4.880 -0.6062  0.0699  0.2024
 7445TIP3   OH222298   3.220   1.064   3.228  0.1295  0.1425 -0.0592
 7445TIP3    H122299   3.135   1.105   3.215 -0.8061 -1.8558 -0.5355
 7445TIP3    H222300   3.280   1.114   3.173 -0.4783  2.2437  1.0952
 7446TIP3   OH222301   4.366   4.548   0.612 -0.1489 -0.2172 -0.7458
 7446TIP3    H122302   4.281   4.546   0.569 -0.9515 -0.2139  0.7707
 7446TIP3    H222303   4.375   4.639   0.642  0.3529 -0.2405 -0.8205
 7447TIP3   OH222304   4.802   4.847   0.949  0.3975  0.2785  0.6670
 7447TIP3    H122305   4.786   4.822   0.858  2.8915  1.7398 -0.2716
 7447TIP3    H222306   4.861   4.779   0.982 -1.8581 -1.2232  1.8449
 7448TIP3   OH222307   4.528   5.381   5.708  0.0368 -0.1260  0.3148
 7448TIP3    H122308   4.499   5.409   5.795  0.9145  1.8938  0.0182
 7448TIP3    H222309   4.518   5.459   5.654  3.2887 -0.0734 -0.4354
 7449TIP3   OH222310   0.362   3.189   5.797 -0.2073 -0.1836  0.5286
 7449TIP3    H122311   0.347   3.142   5.879  0.2658 -1.1205  0.0902
 7449TIP3    H222312   0.336   3.126   5.729  0.8500  0.0270 -0.0816
 7450TIP3   OH222313   4.172   4.520   3.974 -0.0583 -0.6755 -0.3086
 7450TIP3    H122314   4.186   4.526   3.880  0.7223 -2.0000 -0.3075
 7450TIP3    H222315   4.091   4.569   3.990  1.7328  2.7943 -1.0819
 7451TIP3   OH222316   3.089   0.364   4.119  0.6583 -0.0340 -0.1801
 7451TIP3    H122317   3.071   0.271   4.104  0.7622 -0.0006 -0.5346
 7451TIP3    H222318   3.174   0.379   4.077  1.2907 -0.0808  1.0568
 7452TIP3   OH222319   3.595   0.458   4.412 -0.3089  0.2399 -0.0227
 7452TIP3    H122320   3.528   0.420   4.469  0.2026 -1.5879 -0.5737
 7452TIP3    H222321   3.662   0.492   4.472 -1.4546  1.6698  0.5158
 7453TIP3   OH222322   3.810   1.882   0.037  0.2478 -0.3203 -0.1416
 7453TIP3    H122323   3.748   1.953   0.056  0.8273 -0.2453  1.5972
 7453TIP3    H222324   3.890   1.926   0.011  0.0709 -0.3831 -0.7992
 7454TIP3   OH222325   4.623   0.311   1.402  0.0995 -0.0700  0.0238
 7454TIP3    H122326   4.611   0.265   1.319  0.3209  1.5719 -0.9646
 7454TIP3    H222327   4.621   0.404   1.378 -0.0197  0.4430  1.8903
 7455TIP3   OH222328   0.105   1.661   5.200  0.5089 -0.0854 -0.2074
 7455TIP3    H122329   0.085   1.585   5.145  0.6084  0.7665 -1.4607
 7455TIP3    H222330   0.098   1.628   5.289 -0.5430 -1.3015 -0.6979
 7456TIP3   OH222331   6.109   0.056   3.345 -0.1811  0.3817 -0.0691
 7456TIP3    H122332   6.169   0.033   3.273 -0.3648 -0.5245  0.0460
 7456TIP3    H222333   6.026   0.076   3.302 -0.5675 -1.1137 -0.0788
 7457TIP3   OH222334   4.813   3.060   4.186  0.6227  0.1214  0.0645
 7457TIP3    H122335   4.774   2.972   4.176 -0.7351  0.6305  0.5790
 7457TIP3    H222336   4.760   3.116   4.130  0.3101  0.9271  1.1458
 7458TIP3   OH222337   7.154   0.612   3.021 -0.2203  0.1992 -0.6242
 7458TIP3    H122338   7.158   0.548   2.950 -0.1783  0.2975 -0.7115
 7458TIP3    H222339   7.220   0.677   2.997  0.4936 -0.2804  0.0040
 7459TIP3   OH222340   4.359   0.291   3.252 -0.1713 -0.0405  0.8136
 7459TIP3    H122341   4.400   0.349   3.316  2.2555 -0.1426 -0.5251
 7459TIP3    H222342   4.432   0.261   3.197 -1.8099 -1.8542 -0.4955
 7460TIP3   OH222343   6.924   6.128   3.464 -0.3761 -0.0265 -0.1074
 7460TIP3    H122344   6.837   6.147   3.499 -0.7737 -0.9046 -0.5935
 7460TIP3    H222345   6.922   6.035   3.444 -0.1363  0.4014 -2.3899
 7461TIP3   OH222346   2.172   6.301   4.811  0.2745 -0.1924 -0.2977
 7461TIP3    H122347   2.223   6.225   4.784 -0.8329 -0.8101 -0.7139
 7461TIP3    H222348   2.154   6.349   4.730  1.2306  0.7065 -0.0032
 7462TIP3   OH222349   7.220   0.051   5.294  0.3037 -0.6631 -0.1748
 7462TIP3    H122350   7.165  -0.017   5.255 -0.4834 -0.3603  0.3801
 7462TIP3    H222351   7.230   0.025   5.386  1.4857 -0.9547 -0.3677
 7463TIP3   OH222352   6.499   1.167   0.600 -0.2902 -0.2555 -0.1477
 7463TIP3    H122353   6.473   1.237   0.659 -1.1487  0.8613 -1.7877
 7463TIP3    H222354   6.441   1.176   0.524  1.1385 -1.2567 -1.4247
 7464TIP3   OH222355   7.109   1.988   5.504  0.2953  0.5186 -0.6926
 7464TIP3    H122356   7.199   2.007   5.476  0.4390 -0.8517 -1.2552
 7464TIP3    H222357   7.119   1.937   5.585 -0.0136  1.2062 -0.2129
 7465TIP3   OH222358   5.749   0.760   2.429 -0.3288  0.2550 -0.4440
 7465TIP3    H122359   5.709   0.713   2.502  0.7303  0.3375  0.2126
 7465TIP3    H222360   5.701   0.732   2.352 -1.7275  0.4576  0.3341
 7466TIP3   OH222361   7.006   3.977   3.315  0.0695  0.1972 -0.0524
 7466TIP3    H122362   7.063   3.984   3.391 -0.9460 -2.9765  1.1733
 7466TIP3    H222363   6.983   3.884   3.311 -2.8740  0.8774 -2.0614
 7467TIP3   OH222364   6.587   1.837   0.808  0.2144 -0.2206  0.4811
 7467TIP3    H122365   6.671   1.791   0.797  0.0204 -0.6626  0.8333
 7467TIP3    H222366   6.599   1.920   0.762  0.3787 -0.8493 -0.6238
 7468TIP3   OH222367   2.107   2.596   3.907 -0.2349  0.1628  0.4335
 7468TIP3    H122368   2.038   2.533   3.929 -2.4407  2.1451 -0.3783
 7468TIP3    H222369   2.102   2.662   3.976  0.1103  0.8767 -0.2137
 7469TIP3   OH222370   4.410   3.752   1.066  0.3121 -0.2035  0.5370
 7469TIP3    H122371   4.344   3.776   1.001  0.5848 -2.4374 -0.6813
 7469TIP3    H222372   4.373   3.676   1.111  1.2359 -0.2758  1.2135
 7470TIP3   OH222373   0.095   5.323   0.065  0.2208 -0.5753  0.2941
 7470TIP3    H122374   0.097   5.407   0.111 -0.8502 -0.5600  0.3463
 7470TIP3    H222375   0.153   5.336  -0.010  1.8092 -0.5232  1.4698
 7471TIP3   OH222376   1.556   1.625   3.856  0.1439  0.0464 -0.3221
 7471TIP3    H122377   1.561   1.701   3.799  0.5855 -1.2606 -2.1358
 7471TIP3    H222378   1.565   1.550   3.797 -2.0905 -1.4992  1.1314
 7472TIP3   OH222379   0.503   4.172   4.327 -0.0363  0.4643  0.3427
 7472TIP3    H122380   0.533   4.246   4.380  1.1878 -0.2918  0.7363
 7472TIP3    H222381   0.568   4.104   4.342 -0.5023 -0.2919 -0.9564
 7473TIP3   OH222382   3.972   5.587   5.818 -0.0167 -0.4372 -0.4433
 7473TIP3    H122383   3.969   5.681   5.836  2.2820 -0.1087 -1.5097
 7473TIP3    H222384   4.003   5.548   5.900  0.4423 -0.0942 -0.4504
 7474TIP3   OH222385   5.822   6.359   5.130 -0.2772 -0.0704 -0.4425
 7474TIP3    H122386   5.821   6.417   5.053  1.1328  1.4736  0.6409
 7474TIP3    H222387   5.767   6.404   5.194  0.9907  0.2294  0.4762
 7475TIP3   OH222388   2.533   0.984   2.764 -0.2330  0.7092 -0.1744
 7475TIP3    H122389   2.597   0.985   2.835 -0.6344 -1.2991  0.2826
 7475TIP3    H222390   2.565   0.916   2.704 -1.3556  0.4072 -0.4630
 7476TIP3   OH222391   7.041   4.852   2.964 -0.5791  0.3420  0.0657
 7476TIP3    H122392   7.097   4.911   3.014 -1.9835  0.8354  1.1190
 7476TIP3    H222393   7.025   4.898   2.882  1.8357 -0.5238 -0.9943
 7477TIP3   OH222394   5.032   2.695   1.544  0.2547  0.2502  0.3187
 7477TIP3    H122395   5.127   2.702   1.540  0.2206  0.4356 -0.1749
 7477TIP3    H222396   5.006   2.668   1.456 -0.1202 -0.1854  0.5560
 7478TIP3   OH222397   0.334   1.753   5.028  0.3110  0.2372 -0.1060
 7478TIP3    H122398   0.376   1.716   5.105  0.3906 -1.4140 -0.8890
 7478TIP3    H222399   0.247   1.713   5.027  0.4314 -0.0410 -1.0348
 7479TIP3   OH222400   6.350   0.182   4.051  0.2817  0.1755  0.1908
 7479TIP3    H122401   6.294   0.105   4.037 -1.3118  1.5372 -1.4403
 7479TIP3    H222402   6.427   0.165   3.996 -0.5996  0.2378 -1.1024
 7480TIP3   OH222403   3.374   3.884   5.667 -0.1682 -0.2899  0.0544
 7480TIP3    H122404   3.309   3.905   5.734  0.7438 -0.0900  0.8999
 7480TIP3    H222405   3.330   3.821   5.609 -1.7637  1.2704 -0.5098
 7481TIP3   OH222406   2.217   1.740   2.125  0.0370  0.2511 -0.1217
 7481TIP3    H122407   2.297   1.736   2.072 -1.6491  0.2158 -2.8565
 7481TIP3    H222408   2.238   1.802   2.195  2.2303  0.7687 -1.1572
 7482TIP3   OH222409   4.004   0.764   5.751 -0.5460  0.5618 -0.1775
 7482TIP3    H122410   3.966   0.816   5.821  0.4312  0.8282  0.1717
 7482TIP3    H222411   3.964   0.799   5.671  0.0139  1.8070  0.0572
 7483TIP3   OH222412   3.387   2.566   2.125  0.3626  0.4204 -0.0843
 7483TIP3    H122413   3.339   2.646   2.101 -2.2256 -0.8561  0.4431
 7483TIP3    H222414   3.359   2.501   2.060  0.3485 -0.7308  1.0438
 7484TIP3   OH222415   1.196   6.720   5.116 -0.1832  0.4656 -0.0495
 7484TIP3    H122416   1.239   6.805   5.104  0.4955  0.1521  0.1429
 7484TIP3    H222417   1.266   6.660   5.140 -0.7471 -0.0324  0.3955
 7485TIP3   OH222418   3.494   3.172   1.932  0.2677 -0.2644 -0.2762
 7485TIP3    H122419   3.447   3.245   1.971 -1.0403 -1.5872  0.7348
 7485TIP3    H222420   3.570   3.158   1.989  0.0016 -0.2934  0.0707
 7486TIP3   OH222421   3.900   3.984   0.608 -0.0324  0.3701  0.0369
 7486TIP3    H122422   3.810   4.004   0.581  0.0263 -1.5364 -1.8509
 7486TIP3    H222423   3.905   3.888   0.606  1.7474  0.3816  1.2211
 7487TIP3   OH222424   4.570   6.107   1.818 -0.6094  0.1804  0.2626
 7487TIP3    H122425   4.528   6.146   1.741 -0.4798 -0.6749 -0.2597
 7487TIP3    H222426   4.637   6.170   1.844  0.5642 -0.3018 -1.4238
 7488TIP3   OH222427   0.547   2.195   4.380  0.4703  0.1695  0.0570
 7488TIP3    H122428   0.545   2.217   4.474  1.2688 -0.3417  0.2085
 7488TIP3    H222429   0.456   2.203   4.352  0.2293  0.4184  0.8568
 7489TIP3   OH222430   6.072   0.813   3.860  0.3886 -0.3772  0.0669
 7489TIP3    H122431   6.096   0.769   3.941 -0.0357  0.1938  0.5136
 7489TIP3    H222432   6.096   0.751   3.791  2.3645 -0.1674  0.5092
 7490TIP3   OH222433   1.772   5.458   4.321  0.2950  0.5567  0.3831
 7490TIP3    H122434   1.754   5.552   4.323 -0.7156  0.4074 -0.6112
 7490TIP3    H222435   1.745   5.430   4.233  0.7822 -0.6280  0.5839
 7491TIP3   OH222436   5.444   5.893   0.956  0.2789  1.0016  0.2657
 7491TIP3    H122437   5.488   5.809   0.942  0.0954  1.0036 -0.3286
 7491TIP3    H222438   5.483   5.927   1.037 -0.2426 -0.0445  0.9857
 7492TIP3   OH222439   2.400   4.511   2.207  0.1290  0.3120  0.2823
 7492TIP3    H122440   2.364   4.476   2.126  0.2868 -1.9333  1.1162
 7492TIP3    H222441   2.345   4.587   2.226 -1.4104 -0.4899 -0.7091
 7493TIP3   OH222442   5.880   4.912   1.075 -0.3300  0.0428  0.0914
 7493TIP3    H122443   5.874   4.984   1.014 -0.2479 -1.2474 -1.5040
 7493TIP3    H222444   5.834   4.942   1.154 -2.9366  0.7422 -1.5904
 7494TIP3   OH222445   4.846   2.061   2.867  0.0342  0.1120  0.3324
 7494TIP3    H122446   4.773   2.097   2.918 -1.1551 -0.5920 -0.8040
 7494TIP3    H222447   4.897   2.010   2.930 -0.3449  0.7769  1.1886
 7495TIP3   OH222448   4.439   4.204   4.897  0.6777  0.4361 -0.2879
 7495TIP3    H122449   4.450   4.294   4.927  1.3243 -0.1887  1.4365
 7495TIP3    H222450   4.469   4.150   4.969 -2.2749 -1.2527 -0.1399
 7496TIP3   OH222451   0.010   4.729   2.810 -0.3518 -0.1977  0.2737
 7496TIP3    H122452   0.087   4.751   2.863 -0.2035  0.9500 -0.3815
 7496TIP3    H222453  -0.064   4.759   2.863 -0.3084 -0.6854  0.6113
 7497TIP3   OH222454   2.262   0.112   3.299  0.1389 -0.3018  0.1910
 7497TIP3    H122455   2.258   0.055   3.376 -0.7424 -0.2759  0.1738
 7497TIP3    H222456   2.191   0.176   3.313  0.3790  0.0873 -0.3388
 7498TIP3   OH222457   4.675   0.258   3.882  0.2867  0.1484  0.1016
 7498TIP3    H122458   4.723   0.203   3.943 -2.0508 -1.6673  0.4927
 7498TIP3    H222459   4.596   0.283   3.930 -1.0158 -0.2951 -1.7024
 7499TIP3   OH222460   4.229   4.423   1.095 -0.2036  0.3129 -0.3145
 7499TIP3    H122461   4.199   4.513   1.082  2.6725  2.1754  3.8873
 7499TIP3    H222462   4.180   4.392   1.171  3.4797  1.1999  2.7628
 7500TIP3   OH222463   1.792   3.443   2.278  0.1363  0.2624 -0.1672
 7500TIP3    H122464   1.882   3.474   2.276  0.3622 -0.2959  0.7734
 7500TIP3    H222465   1.749   3.498   2.343 -0.4801  1.2123 -1.3458
 7501TIP3   OH222466   1.182   4.692   2.205  0.0881 -0.7048 -0.0543
 7501TIP3    H122467   1.256   4.744   2.237 -1.2497  1.1073  0.2824
 7501TIP3    H222468   1.209   4.663   2.118  0.9513  0.4739 -0.2062
 7502TIP3   OH222469   5.793   0.121   2.519  0.0854 -0.3422  0.7284
 7502TIP3    H122470   5.859   0.077   2.466 -0.0443 -0.7370  0.8932
 7502TIP3    H222471   5.709   0.089   2.485 -0.0257  0.1957  0.4869
 7503TIP3   OH222472   5.038   6.104   0.880  0.5314 -0.4658 -0.3118
 7503TIP3    H122473   5.128   6.109   0.847 -0.0160 -0.5053 -1.8703
 7503TIP3    H222474   5.007   6.017   0.852 -0.2114 -0.1877 -0.3745
 7504TIP3   OH222475   2.006   0.457   5.299 -0.1605  0.0935 -0.1108
 7504TIP3    H122476   1.985   0.543   5.336  0.9424  0.2877  0.0833
 7504TIP3    H222477   1.921   0.417   5.282 -0.6885  0.8060  0.7723
 7505TIP3   OH222478   4.591   3.849   4.498 -0.4792  0.1877 -0.4116
 7505TIP3    H122479   4.495   3.850   4.504 -0.5075  0.6420 -0.8731
 7505TIP3    H222480   4.611   3.763   4.462 -0.7953  0.5008 -1.3833
 7506TIP3   OH222481   5.978   1.051   3.934  0.0021 -0.0664 -0.5170
 7506TIP3    H122482   5.892   1.078   3.902 -0.3589 -0.4604  0.1069
 7506TIP3    H222483   5.989   0.961   3.903 -0.0217 -0.1822 -0.1987
 7507TIP3   OH222484   4.088   0.548   4.568  0.0991  0.5265 -0.0746
 7507TIP3    H122485   4.053   0.576   4.483  0.3114 -0.6623 -0.5728
 7507TIP3    H222486   4.037   0.598   4.632  0.0458  1.5592 -0.8949
 7508TIP3   OH222487   0.983   6.315   4.932  0.1326 -0.7125  0.1475
 7508TIP3    H122488   1.014   6.331   4.843 -2.3915  0.2813 -0.6439
 7508TIP3    H222489   0.899   6.270   4.921 -1.0490  0.8624  1.9282
 7509TIP3   OH222490   3.319   2.056   0.741  0.4486 -0.1992 -0.4747
 7509TIP3    H122491   3.401   2.074   0.786  1.0464 -0.7638 -1.3193
 7509TIP3    H222492   3.331   1.970   0.701 -1.3526 -1.3154  1.1842
 7510TIP3   OH222493   0.197   3.225   4.624  0.2995  0.2222 -0.5110
 7510TIP3    H122494   0.149   3.254   4.547  0.8317  0.2731 -0.8248
 7510TIP3    H222495   0.275   3.183   4.590 -0.0418 -0.8360 -0.0350
 7511TIP3   OH222496   5.114   6.689   5.449 -0.4983 -0.1953 -0.3983
 7511TIP3    H122497   5.207   6.679   5.469 -0.0558  0.1186 -2.1092
 7511TIP3    H222498   5.082   6.755   5.511  0.1319 -1.1525  0.9629
 7512TIP3   OH222499   6.219   6.310   4.337 -0.0541 -0.3883  0.0396
 7512TIP3    H122500   6.269   6.231   4.358  0.9465  0.2158  0.0013
 7512TIP3    H222501   6.230   6.321   4.243  0.6185  0.3042  0.1825
 7513TIP3   OH222502   1.382   5.735   5.345 -0.3388 -0.5325  0.3299
 7513TIP3    H122503   1.338   5.741   5.430 -0.2407 -4.2267  0.8077
 7513TIP3    H222504   1.327   5.787   5.286 -0.7071  1.7068  2.4592
 7514TIP3   OH222505   4.443   2.775   0.952 -0.1368  0.2643  0.3481
 7514TIP3    H122506   4.462   2.789   1.045 -0.3885 -0.6272  0.5398
 7514TIP3    H222507   4.357   2.817   0.939 -0.6671 -0.6525  0.8079
 7515TIP3   OH222508   1.460   3.935   3.861 -0.2062 -0.1447 -0.1477
 7515TIP3    H122509   1.544   3.953   3.819 -1.5473 -0.6212 -3.3050
 7515TIP3    H222510   1.403   4.005   3.831 -1.2577 -0.4464  1.0526
 7516TIP3   OH222511   5.844   2.098   2.990  0.0549 -0.5522  0.0115
 7516TIP3    H122512   5.865   2.058   3.074  2.5225 -2.3554 -1.3275
 7516TIP3    H222513   5.814   2.026   2.935 -0.5586  0.4015 -0.9531
 7517TIP3   OH222514   2.680   1.704   4.026 -0.2334  0.3886 -0.2217
 7517TIP3    H122515   2.594   1.702   4.069  0.0448  0.8053  0.3681
 7517TIP3    H222516   2.742   1.717   4.098  0.3780 -0.4908 -0.5750
 7518TIP3   OH222517   2.729   4.906   0.382  0.3961 -0.2707 -0.9589
 7518TIP3    H122518   2.816   4.890   0.346  0.0009 -1.4230 -1.4656
 7518TIP3    H222519   2.728   4.857   0.464  0.0057 -0.8344 -1.2924
 7519TIP3   OH222520   5.747   5.224   2.502  0.1150  0.4187  0.2660
 7519TIP3    H122521   5.754   5.140   2.547  1.5178  1.1765  1.5433
 7519TIP3    H222522   5.832   5.234   2.458 -0.5661  0.5364 -1.0838
 7520TIP3   OH222523   5.688   6.599   4.938 -0.1764 -0.0905  0.1018
 7520TIP3    H122524   5.717   6.512   4.911  1.1595  0.0704  0.9238
 7520TIP3    H222525   5.750   6.659   4.898 -1.7029  0.6091 -1.3344
 7521TIP3   OH222526   0.863   4.637   0.156  0.5799  0.0080  0.2090
 7521TIP3    H122527   0.877   4.582   0.233 -0.7253 -1.0924 -0.2986
 7521TIP3    H222528   0.920   4.601   0.089  1.6539  0.9145  0.6065
 7522TIP3   OH222529   3.607   3.570   4.825  0.2665  0.3654 -0.3173
 7522TIP3    H122530   3.584   3.584   4.917 -2.2198 -2.3096 -0.3906
 7522TIP3    H222531   3.688   3.620   4.813  0.4355  1.2034  3.1665
 7523TIP3   OH222532   1.833   2.845   5.356  0.0844 -0.5987  0.2291
 7523TIP3    H122533   1.846   2.764   5.406 -1.0252  0.4718  2.3761
 7523TIP3    H222534   1.821   2.913   5.423  0.5006  1.2755 -1.5098
 7524TIP3   OH222535   2.071   0.312   0.306 -0.1955  0.3632  0.2701
 7524TIP3    H122536   2.013   0.266   0.244 -0.2178  0.4570  0.2209
 7524TIP3    H222537   2.012   0.341   0.376 -0.0373 -0.4960  0.7753
 7525TIP3   OH222538   6.602   2.667   4.725 -0.1393  0.3607  0.1515
 7525TIP3    H122539   6.658   2.663   4.803 -1.9721 -0.6889  1.5006
 7525TIP3    H222540   6.577   2.576   4.709 -0.0898  0.5953 -1.4951
 7526TIP3   OH222541   4.497   1.618   2.603 -0.6414  0.1620 -0.0958
 7526TIP3    H122542   4.424   1.657   2.650 -0.9021  0.0303 -0.3849
 7526TIP3    H222543   4.456   1.573   2.529 -0.5027 -1.7664  0.9269
 7527TIP3   OH222544   3.903   4.254   0.425 -0.1724  0.2026 -0.3146
 7527TIP3    H122545   3.908   4.162   0.397 -0.3635  0.6767 -2.0285
 7527TIP3    H222546   3.864   4.251   0.512  0.6128 -1.3939  0.0219
 7528TIP3   OH222547   0.568   1.492   5.464 -0.4389 -0.1331  0.4509
 7528TIP3    H122548   0.599   1.410   5.428 -0.0946  0.7280 -1.3299
 7528TIP3    H222549   0.533   1.540   5.388  1.4627  2.2835  0.9983
 7529TIP3   OH222550   5.478   1.246   4.918 -0.4164 -0.2512  0.4130
 7529TIP3    H122551   5.394   1.292   4.927  0.6091  1.9569 -0.5635
 7529TIP3    H222552   5.502   1.259   4.826  1.5000  0.1086  0.9290
 7530TIP3   OH222553   2.043   2.395   1.703 -0.0456 -0.1748 -0.3893
 7530TIP3    H122554   2.081   2.309   1.721 -1.3679 -0.5141  0.9883
 7530TIP3    H222555   2.076   2.418   1.616  0.5264 -1.9565 -0.6887
 7531TIP3   OH222556   4.256   2.762   3.905  0.4949  0.3862  0.2736
 7531TIP3    H122557   4.184   2.704   3.931  0.1249  1.7247  2.5000
 7531TIP3    H222558   4.294   2.720   3.828 -0.6608 -2.0283  0.9130
 7532TIP3   OH222559   4.664   5.367   3.672  0.1741  0.6502 -0.4557
 7532TIP3    H122560   4.704   5.373   3.759 -1.0138  0.4313  0.1185
 7532TIP3    H222561   4.570   5.377   3.687 -0.4690 -2.8038 -1.2639
 7533TIP3   OH222562   5.973   5.658   4.033 -0.6330 -0.4638 -0.8174
 7533TIP3    H122563   5.919   5.597   3.983 -0.9176  1.0545 -2.4932
 7533TIP3    H222564   5.935   5.744   4.015  1.3559  0.4886 -0.7485
 7534TIP3   OH222565   5.617   2.975   4.576 -0.0679 -0.1448 -0.3780
 7534TIP3    H122566   5.642   2.968   4.668 -1.3278  0.8406  0.0641
 7534TIP3    H222567   5.694   3.010   4.533  0.2342  0.2561  0.4641
 7535TIP3   OH222568   1.901   4.636   2.593  0.3467 -0.2820  0.3798
 7535TIP3    H122569   1.878   4.727   2.577  0.8083 -0.0592  0.9497
 7535TIP3    H222570   1.986   4.624   2.550  1.6925  0.3761  2.6901
 7536TIP3   OH222571   3.406   5.431   4.741  0.0663 -0.0881  0.2864
 7536TIP3    H122572   3.462   5.403   4.669  1.2087 -0.3935  1.2603
 7536TIP3    H222573   3.465   5.439   4.816 -1.2376 -0.8432  1.4592
 7537TIP3   OH222574   5.788   1.474   4.040  0.2594  0.3136 -0.4433
 7537TIP3    H122575   5.839   1.549   4.068  0.9752 -0.7713  1.2901
 7537TIP3    H222576   5.831   1.444   3.960  1.8716 -0.0794  0.5363
 7538TIP3   OH222577   3.590   6.043   3.547 -0.1401  0.0246  0.5784
 7538TIP3    H122578   3.547   5.964   3.580  0.3798 -0.6410 -0.2914
 7538TIP3    H222579   3.683   6.031   3.569 -0.2530  1.1186  1.8050
 7539TIP3   OH222580   2.252   0.948   3.444 -0.2864 -0.1247  0.1615
 7539TIP3    H122581   2.292   0.927   3.528  1.3905 -0.5392 -0.7006
 7539TIP3    H222582   2.185   0.882   3.432  1.1255 -1.5957  0.0655
 7540TIP3   OH222583   2.734   2.338   3.733  0.3321 -0.3777  0.0888
 7540TIP3    H122584   2.725   2.433   3.729  0.5499 -0.2926  1.2964
 7540TIP3    H222585   2.798   2.323   3.803  1.5259 -1.3596 -1.1446
 7541TIP3   OH222586   2.321   4.894   3.454  0.1803 -0.1061 -0.0159
 7541TIP3    H122587   2.300   4.827   3.390  0.1598  0.3934 -0.5357
 7541TIP3    H222588   2.396   4.941   3.417  0.0110  0.3488  0.2034
 7542TIP3   OH222589   6.968   5.859   3.461 -0.2156  0.3760 -0.6212
 7542TIP3    H122590   6.921   5.792   3.411 -0.7871 -0.3420  0.8302
 7542TIP3    H222591   7.057   5.856   3.426 -0.5062 -0.3688 -1.3382
 7543TIP3   OH222592   0.225   1.603   0.543  0.2325  0.6251  0.4114
 7543TIP3    H122593   0.289   1.534   0.560 -0.4649 -0.3335 -0.7408
 7543TIP3    H222594   0.157   1.588   0.608  0.2262  0.4099  0.3567
 7544TIP3   OH222595   1.328   4.485   1.580 -0.4228 -0.8153  0.4007
 7544TIP3    H122596   1.421   4.476   1.559 -0.6772 -1.5825 -0.4553
 7544TIP3    H222597   1.287   4.511   1.498 -0.9875 -0.6192  0.7381
 7545TIP3   OH222598   3.894   2.466   0.955  0.1475 -0.1432  0.8334
 7545TIP3    H122599   3.805   2.500   0.955 -0.2068 -0.8966 -1.1620
 7545TIP3    H222600   3.886   2.375   0.982  0.1181 -0.5167 -0.3459
 7546TIP3   OH222601   4.144   4.130   0.664  0.2093 -0.0524  0.1932
 7546TIP3    H122602   4.061   4.081   0.669  0.1248  0.0195 -0.4799
 7546TIP3    H222603   4.201   4.076   0.610  0.8469 -0.4302  1.2130
 7547TIP3   OH222604   0.809   5.293   4.824 -0.4943 -0.2562 -0.1328
 7547TIP3    H122605   0.810   5.248   4.909 -0.7280 -1.9763 -1.0022
 7547TIP3    H222606   0.795   5.224   4.760  1.4452  0.7316 -1.7606
 7548TIP3   OH222607   3.894   4.958   1.180 -0.4120 -0.1792  0.2949
 7548TIP3    H122608   3.929   5.031   1.129  0.9954 -0.5330  0.7290
 7548TIP3    H222609   3.839   4.999   1.247 -1.8751  0.3203 -1.1359
 7549TIP3   OH222610   3.836   1.347   1.502  0.0168  0.0744 -0.2981
 7549TIP3    H122611   3.924   1.314   1.482  0.0720 -0.2273  0.4060
 7549TIP3    H222612   3.785   1.268   1.521  0.0579  0.3446  1.0526
 7550TIP3   OH222613   1.925   0.631   1.222  0.0149 -0.4763  0.0440
 7550TIP3    H122614   1.996   0.581   1.183  1.0432  2.3371 -1.9839
 7550TIP3    H222615   1.966   0.710   1.258 -1.8193  0.2343  0.7623
 7551TIP3   OH222616   6.926   3.896   0.355 -0.1905  0.0454 -0.7993
 7551TIP3    H122617   7.003   3.943   0.387 -0.5070 -0.4499  0.8001
 7551TIP3    H222618   6.913   3.928   0.266  0.6055  1.7111 -0.3550
 7552TIP3   OH222619   1.517   3.803   5.137 -0.0259 -0.2249  1.1327
 7552TIP3    H122620   1.536   3.896   5.126 -2.2371  0.0747 -1.3344
 7552TIP3    H222621   1.430   3.801   5.177 -2.3044 -0.8764 -3.1669
 7553TIP3   OH222622   3.509   0.989   0.060  0.4509 -0.0769 -0.4635
 7553TIP3    H122623   3.586   1.040   0.085 -0.8489  0.6926  2.5263
 7553TIP3    H222624   3.515   0.911   0.115 -1.2316  0.3924  0.4583
 7554TIP3   OH222625   5.384   0.353   1.320  0.2286  0.2329  0.1506
 7554TIP3    H122626   5.417   0.277   1.366  1.4330  0.6379 -0.0106
 7554TIP3    H222627   5.450   0.421   1.335 -0.3995  0.9890 -0.4126
 7555TIP3   OH222628   3.903   6.264   3.544  0.5724  1.0902  0.0646
 7555TIP3    H122629   3.808   6.271   3.550  0.5632  0.4657  0.8248
 7555TIP3    H222630   3.918   6.200   3.474  0.4468  1.3440 -0.1985
 7556TIP3   OH222631   4.150   6.223   5.125  1.1687  0.6795  0.0532
 7556TIP3    H122632   4.143   6.313   5.094  1.3557  0.2988 -1.1164
 7556TIP3    H222633   4.138   6.169   5.047 -0.5274 -0.3645  0.9799
 7557TIP3   OH222634   2.497   6.241   5.806  0.1165  0.3805  0.0397
 7557TIP3    H122635   2.457   6.317   5.848  0.3287  1.5191 -1.7330
 7557TIP3    H222636   2.422   6.189   5.775 -0.0314  1.0405 -0.7394
 7558TIP3   OH222637   0.542   4.915   5.620  0.7536 -0.4128  0.1359
 7558TIP3    H122638   0.530   4.850   5.689 -0.4255 -0.0114  0.3340
 7558TIP3    H222639   0.533   4.866   5.538 -1.4687 -0.3080  0.2785
 7559TIP3   OH222640   1.910   0.188   4.092 -0.4331 -0.4413 -0.2841
 7559TIP3    H122641   1.911   0.280   4.066 -0.5161 -0.3501  0.0320
 7559TIP3    H222642   1.855   0.146   4.025 -1.2273 -0.0870  0.1239
 7560TIP3   OH222643   4.748   5.668   0.019 -0.2912 -0.3201  1.1428
 7560TIP3    H122644   4.843   5.683   0.016 -0.1827 -0.8597 -1.5554
 7560TIP3    H222645   4.729   5.650   0.111  1.8651  1.7866  2.1035
 7561TIP3   OH222646   1.357   0.552   0.154  0.0969 -0.0036  0.1115
 7561TIP3    H122647   1.264   0.570   0.165 -0.8660 -1.6526 -3.6435
 7561TIP3    H222648   1.369   0.465   0.193  0.1729  0.4251  1.0395
 7562TIP3   OH222649   4.910   1.798   2.093  0.0632 -0.2473  0.3624
 7562TIP3    H122650   4.995   1.790   2.137  0.0454 -0.2767  0.3916
 7562TIP3    H222651   4.907   1.725   2.032  1.0303  1.0508 -1.3105
 7563TIP3   OH222652   4.486   0.655   0.154 -0.1203  0.0064 -0.3483
 7563TIP3    H122653   4.412   0.698   0.195 -1.2351 -1.4757 -0.7209
 7563TIP3    H222654   4.535   0.616   0.226 -0.3144  0.0920 -0.1713
 7564TIP3   OH222655   7.149   0.555   0.129 -0.5038  0.6217 -0.3309
 7564TIP3    H122656   7.199   0.556   0.047 -0.2465  0.3800 -0.1803
 7564TIP3    H222657   7.107   0.469   0.131 -0.5062  0.6254 -0.2086
 7565TIP3   OH222658   4.905   2.523   2.335 -0.4213 -0.0037  0.2383
 7565TIP3    H122659   4.927   2.565   2.252  2.0496 -2.2090 -0.3873
 7565TIP3    H222660   4.827   2.471   2.317 -0.1072 -0.1857 -0.6220
 7566TIP3   OH222661   5.741   1.957   1.875  0.2870 -0.6881 -0.3276
 7566TIP3    H122662   5.800   1.955   1.950 -0.5253 -1.5267  0.3186
 7566TIP3    H222663   5.672   1.895   1.898 -1.6917  1.3647 -0.3748
 7567TIP3   OH222664   7.139   4.877   5.294  0.1342  0.2419  0.0994
 7567TIP3    H122665   7.149   4.972   5.289  0.6749  0.1733 -0.1842
 7567TIP3    H222666   7.090   4.862   5.376 -1.1234  0.8393 -0.5194
 7568TIP3   OH222667   5.211   1.360   1.323  0.2197 -0.3205 -0.1239
 7568TIP3    H122668   5.212   1.451   1.293  0.8062  0.1640  1.2598
 7568TIP3    H222669   5.224   1.366   1.418 -1.5902 -1.7475  0.2702
 7569TIP3   OH222670   3.454   3.571   4.571 -0.7993  0.2375  0.4918
 7569TIP3    H122671   3.503   3.620   4.637 -0.7049  1.0575 -0.1671
 7569TIP3    H222672   3.522   3.528   4.518 -0.8549  0.0562  0.5666
 7570TIP3   OH222673   7.155   3.343   2.643  0.7132  1.2104  0.4017
 7570TIP3    H122674   7.118   3.284   2.709 -2.4752  3.7781  1.1540
 7570TIP3    H222675   7.213   3.287   2.591  0.0201 -1.9115  2.6795
 7571TIP3   OH222676   2.929   4.084   0.343 -0.1665 -0.0801 -0.4011
 7571TIP3    H122677   2.922   4.174   0.373 -2.0933 -0.0517 -0.8284
 7571TIP3    H222678   2.852   4.040   0.379  1.2728 -1.8501  0.6900
 7572TIP3   OH222679   6.764   5.384   4.562 -0.1751 -0.0041  0.4321
 7572TIP3    H122680   6.772   5.461   4.505  1.0073 -0.8041 -0.5462
 7572TIP3    H222681   6.677   5.350   4.545 -0.4171  0.6711  0.2864
 7573TIP3   OH222682   3.712   2.198   3.175 -0.3586  0.0096  0.3249
 7573TIP3    H122683   3.628   2.155   3.195  0.1720 -1.2133  0.0550
 7573TIP3    H222684   3.713   2.207   3.080 -0.2347  0.1014  0.3348
 7574TIP3   OH222685   2.032   1.380   4.506 -0.2047  0.4066 -0.1709
 7574TIP3    H122686   1.951   1.348   4.546 -0.2404  0.8328  0.1039
 7574TIP3    H222687   2.036   1.336   4.422  1.0452 -2.3208  1.1883
 7575TIP3   OH222688   4.327   6.734   1.136 -0.1827  0.1896 -0.0495
 7575TIP3    H122689   4.347   6.670   1.068 -0.9343 -0.5714  0.4281
 7575TIP3    H222690   4.354   6.818   1.098 -0.0181 -0.2902 -1.0369
 7576TIP3   OH222691   1.362   5.763   2.015  0.0378  0.0221 -0.3820
 7576TIP3    H122692   1.409   5.819   1.954 -0.0090 -0.2454 -0.6672
 7576TIP3    H222693   1.303   5.712   1.961 -0.3875  0.1615 -0.0518
 7577TIP3   OH222694   3.702   2.895   2.263  0.2087 -0.3903  0.1343
 7577TIP3    H122695   3.636   2.909   2.331 -1.1215 -0.7605 -1.0095
 7577TIP3    H222696   3.782   2.872   2.310 -1.2257 -2.8821  1.5408
 7578TIP3   OH222697   3.988   4.684   3.471 -0.5297  0.1772  0.1891
 7578TIP3    H122698   3.938   4.605   3.453  0.2732 -0.6960  1.5909
 7578TIP3    H222699   3.956   4.748   3.408 -1.8794 -0.9761 -0.3395
 7579TIP3   OH222700   4.341   1.797   1.596 -0.5876 -0.6842 -0.7752
 7579TIP3    H122701   4.308   1.886   1.607  0.1450 -0.0649 -2.9728
 7579TIP3    H222702   4.416   1.806   1.537  1.3522 -2.4416  1.2313
 7580TIP3   OH222703   6.449   2.840   1.858  0.0795 -0.0102  0.4152
 7580TIP3    H122704   6.500   2.814   1.935  1.1170 -0.8506 -0.5248
 7580TIP3    H222705   6.476   2.930   1.840  1.4967 -0.5449 -0.2501
 7581TIP3   OH222706   1.963   4.538   3.040  0.3591 -0.0211  0.3232
 7581TIP3    H122707   1.997   4.627   3.032  1.6253 -0.5001  0.1921
 7581TIP3    H222708   1.937   4.530   3.132  0.7342  0.3154  0.4597
 7582TIP3   OH222709   4.706   4.902   1.514  0.3292 -0.3611  0.4960
 7582TIP3    H122710   4.772   4.969   1.529  2.1990 -1.5576 -1.7108
 7582TIP3    H222711   4.683   4.912   1.421 -1.9957 -0.5620  0.9845
 7583TIP3   OH222712   2.808   2.352   4.559 -0.1443 -0.2554 -0.1235
 7583TIP3    H122713   2.849   2.396   4.634  1.5215 -0.5772 -0.8030
 7583TIP3    H222714   2.723   2.322   4.592 -0.2032  1.1464  1.1125
 7584TIP3   OH222715   5.204   2.830   5.304  0.0822 -0.1942 -0.1439
 7584TIP3    H122716   5.257   2.797   5.377 -0.6837 -0.7654  0.1638
 7584TIP3    H222717   5.136   2.882   5.346  0.9122  1.3085 -0.5892
 7585TIP3   OH222718   3.659   2.603   4.909 -0.4174 -0.6633  0.1036
 7585TIP3    H122719   3.707   2.576   4.831  0.2563  0.3711  0.1370
 7585TIP3    H222720   3.631   2.521   4.949 -0.0798 -1.2354 -0.7927
 7586TIP3   OH222721   6.689   3.825   4.868  0.1735 -0.0720  0.2830
 7586TIP3    H122722   6.687   3.917   4.841  0.0440 -0.2139 -0.2076
 7586TIP3    H222723   6.744   3.824   4.946  0.4884  0.3690  0.0747
 7587TIP3   OH222724   2.997   3.212   3.139  0.0904  0.0434  0.3336
 7587TIP3    H122725   2.996   3.240   3.047 -1.3560 -0.3510  0.2012
 7587TIP3    H222726   2.969   3.290   3.188  1.3961  0.4203  0.5167
 7588TIP3   OH222727   1.194   6.357   0.537  0.1384  0.4123 -0.0991
 7588TIP3    H122728   1.144   6.292   0.488 -0.5796  1.3907 -0.7104
 7588TIP3    H222729   1.214   6.314   0.620  0.7642 -1.0207 -0.9517
 7589TIP3   OH222730   2.333   1.995   0.530  0.4640 -0.5044  0.1117
 7589TIP3    H122731   2.406   1.941   0.500  0.8126 -0.2415  0.4754
 7589TIP3    H222732   2.374   2.059   0.589  0.1684  0.6091 -0.8754
 7590TIP3   OH222733   3.110   4.330   5.153 -0.3089 -0.4305  0.2318
 7590TIP3    H122734   3.161   4.409   5.138  0.1521 -0.9602 -1.2037
 7590TIP3    H222735   3.144   4.293   5.235 -0.3420  0.6844  0.7605
 7591TIP3   OH222736   4.923   0.885   1.892  0.2332  0.2405  0.1289
 7591TIP3    H122737   4.902   0.973   1.925  0.3629 -0.3904  2.0349
 7591TIP3    H222738   4.868   0.827   1.945 -0.0449 -0.8230 -1.2917
 7592TIP3   OH222739   0.922   6.808   3.183  0.5996 -0.0093 -0.0567
 7592TIP3    H122740   0.893   6.808   3.092  1.9823 -0.9032 -0.5338
 7592TIP3    H222741   0.848   6.772   3.232  0.7891 -2.1298 -1.2173
 7593TIP3   OH222742   0.900   4.340   3.778  0.1432 -0.3484 -0.2242
 7593TIP3    H122743   0.991   4.360   3.757  0.0868  1.8875  1.2859
 7593TIP3    H222744   0.858   4.324   3.693  1.3757  1.2766 -1.2003
 7594TIP3   OH222745   6.467   3.734   1.851 -0.2680  0.1579 -0.1164
 7594TIP3    H122746   6.509   3.765   1.931  1.3666  0.1859 -0.9459
 7594TIP3    H222747   6.374   3.752   1.864  0.0951  1.1505  1.3203
 7595TIP3   OH222748   2.236   4.751   2.160 -0.4893  0.4427 -0.4795
 7595TIP3    H122749   2.260   4.841   2.138  0.4630  0.0767 -0.9694
 7595TIP3    H222750   2.195   4.717   2.080  1.4140 -0.3387 -1.1706
 7596TIP3   OH222751   5.230   2.338   4.023 -0.2961  0.4081 -0.3200
 7596TIP3    H122752   5.168   2.362   4.092 -0.2057 -2.1755  0.7771
 7596TIP3    H222753   5.260   2.251   4.047  0.3105 -0.3084 -3.2673
 7597TIP3   OH222754   7.001   6.512   4.158 -0.3635 -0.0558  0.4983
 7597TIP3    H122755   6.988   6.599   4.120  0.4481 -1.1847 -2.7786
 7597TIP3    H222756   7.054   6.526   4.236  0.5691  2.3085 -0.4908
 7598TIP3   OH222757   0.469   1.040   1.727  0.2253  0.2308 -0.6404
 7598TIP3    H122758   0.464   0.959   1.676 -0.1549 -0.4932  0.5055
 7598TIP3    H222759   0.472   1.109   1.662  0.5567 -0.7074 -1.6499
 7599TIP3   OH222760   4.193   3.771   2.183  0.1649 -0.0986  0.1296
 7599TIP3    H122761   4.176   3.818   2.101 -0.8003 -0.4404  0.1145
 7599TIP3    H222762   4.288   3.763   2.187  0.2401  0.1986 -0.7993
 7600TIP3   OH222763   0.585   2.303   4.919  0.0404 -0.2140 -0.4595
 7600TIP3    H122764   0.675   2.271   4.920 -0.2775 -1.0920  0.4428
 7600TIP3    H222765   0.531   2.226   4.936 -0.8586  0.3990 -0.4626
 7601TIP3   OH222766   5.658   4.934   2.229 -0.4887 -0.0531  0.0191
 7601TIP3    H122767   5.635   4.915   2.138  3.0821  0.6707 -1.1783
 7601TIP3    H222768   5.601   5.007   2.254 -0.7724  0.4784 -2.0361
 7602TIP3   OH222769   3.507   1.288   3.106  0.3104 -0.4878  0.4072
 7602TIP3    H122770   3.447   1.358   3.135 -1.2832 -1.5275 -0.2473
 7602TIP3    H222771   3.533   1.245   3.187 -0.3774 -0.4389  0.6685
 7603TIP3   OH222772   0.330   2.081   2.803 -0.4243  0.1441 -0.3272
 7603TIP3    H122773   0.404   2.074   2.743  0.5029  0.3640  0.7418
 7603TIP3    H222774   0.303   2.172   2.797  0.1245  0.3406  0.0957
 7604TIP3   OH222775   5.580   1.697   5.754  0.3395 -0.0373 -0.2542
 7604TIP3    H122776   5.487   1.674   5.743 -0.0008  0.9731  0.2970
 7604TIP3    H222777   5.617   1.689   5.666 -0.7858  1.6056 -0.9461
 7605TIP3   OH222778   0.210   6.268   1.469  0.2622  0.5645  0.3011
 7605TIP3    H122779   0.155   6.267   1.390  0.3161 -0.2570  0.2660
 7605TIP3    H222780   0.227   6.176   1.487 -0.7550  0.6642  1.9786
 7606TIP3   OH222781   3.409   4.290   0.898 -0.0169 -0.5341 -0.0367
 7606TIP3    H122782   3.495   4.249   0.906  0.2556 -0.3862 -1.8269
 7606TIP3    H222783   3.425   4.383   0.915  0.2329 -0.4691 -0.6054
 7607TIP3   OH222784   2.141   5.005   3.640  0.1032 -0.1541  0.3888
 7607TIP3    H122785   2.192   4.958   3.574 -0.9156  0.6355 -1.0037
 7607TIP3    H222786   2.168   5.096   3.630 -0.2559  0.0108  0.8896
 7608TIP3   OH222787   4.997   0.928   5.771 -0.3403  0.4015  0.0432
 7608TIP3    H122788   4.983   0.881   5.854  0.9528  1.4564  0.9119
 7608TIP3    H222789   4.986   0.861   5.704 -1.7030 -0.4288  1.0394
 7609TIP3   OH222790   1.959   4.462   4.107 -0.0498 -0.0341  0.2802
 7609TIP3    H122791   2.048   4.454   4.142 -0.0174  0.4340  0.3146
 7609TIP3    H222792   1.949   4.556   4.089 -0.9631  0.1058  1.3984
 7610TIP3   OH222793   4.091   5.103   2.402  0.1484 -0.7549  0.0549
 7610TIP3    H122794   4.150   5.066   2.336 -1.3252 -1.3781 -0.9645
 7610TIP3    H222795   4.004   5.093   2.364 -0.4955  2.0733  0.5760
 7611TIP3   OH222796   2.062   4.513   4.625 -0.1445 -0.3380 -0.1516
 7611TIP3    H122797   2.034   4.422   4.612  1.2216 -0.6583 -1.0690
 7611TIP3    H222798   1.993   4.552   4.678 -0.6424 -1.9793  0.4679
 7612TIP3   OH222799   4.888   0.112   0.917 -1.0642 -0.2054 -0.2692
 7612TIP3    H122800   4.925   0.199   0.934 -0.4218 -0.2503 -1.3847
 7612TIP3    H222801   4.841   0.122   0.835  0.9108 -1.4361 -1.6395
 7613TIP3   OH222802   1.702   0.828   2.064  0.1566 -0.0197  0.0407
 7613TIP3    H122803   1.608   0.835   2.081  0.3304 -1.4435  1.9244
 7613TIP3    H222804   1.708   0.813   1.970 -1.4097  1.1990 -0.3062
 7614TIP3   OH222805   5.451   1.277   4.638  0.2169  0.0107  0.1445
 7614TIP3    H122806   5.531   1.324   4.661  0.7209 -0.6736 -0.1703
 7614TIP3    H222807   5.414   1.325   4.564  2.0690 -1.4617 -1.8494
 7615TIP3   OH222808   3.013   6.710   0.284 -0.5959  0.5946 -0.1324
 7615TIP3    H122809   3.024   6.753   0.369 -0.9372 -0.6868  0.5858
 7615TIP3    H222810   2.996   6.618   0.306  1.4537 -0.2237 -1.6208
 7616TIP3   OH222811   5.115   2.952   0.925  0.2388  0.7516 -0.3623
 7616TIP3    H122812   5.049   3.019   0.944  1.5615  2.4406 -1.3722
 7616TIP3    H222813   5.073   2.893   0.863 -0.8850  0.7875  0.3526
 7617TIP3   OH222814   2.137   3.280   3.924 -0.3419 -0.4615 -0.0855
 7617TIP3    H122815   2.131   3.185   3.928  0.5044 -0.4916  1.1658
 7617TIP3    H222816   2.148   3.300   3.831  0.0385 -1.6213 -0.3053
 7618TIP3   OH222817   6.101   0.763   0.409  0.1840  0.6894 -0.1919
 7618TIP3    H122818   6.077   0.783   0.499 -0.1331 -0.1396 -0.0853
 7618TIP3    H222819   6.107   0.848   0.366 -0.7223  1.0341  0.3458
 7619TIP3   OH222820   5.439   6.277   3.867 -0.2474  0.1027 -0.3685
 7619TIP3    H122821   5.508   6.235   3.919  0.8328  1.4807 -0.6253
 7619TIP3    H222822   5.425   6.217   3.794  1.9085  0.5346 -1.2251
 7620TIP3   OH222823   2.178   4.283   5.109 -0.5087 -0.6525  0.0919
 7620TIP3    H122824   2.242   4.292   5.180  0.6267 -3.0767 -0.5359
 7620TIP3    H222825   2.220   4.323   5.033 -0.7254 -0.1724  0.2237
 7621TIP3   OH222826   0.791   0.062   2.929 -0.4409  0.5997 -0.6498
 7621TIP3    H122827   0.843   0.001   2.980  0.0827  0.9407 -0.7649
 7621TIP3    H222828   0.708   0.068   2.976 -0.2071  0.4026 -0.2093
 7622TIP3   OH222829   4.418   2.830   2.062  0.1220 -0.5997 -0.4557
 7622TIP3    H122830   4.405   2.803   1.971 -0.8167 -0.6179 -0.3287
 7622TIP3    H222831   4.347   2.892   2.080  2.3555  2.2551 -0.8031
 7623TIP3   OH222832   5.303   1.972   5.479  0.3399 -0.0247 -0.3390
 7623TIP3    H122833   5.287   1.887   5.519 -2.5598  0.9766  0.8932
 7623TIP3    H222834   5.299   1.954   5.384 -0.1441 -1.2766 -0.1058
 7624TIP3   OH222835   1.468   2.629   0.106  0.0740  0.6861 -0.4907
 7624TIP3    H122836   1.431   2.636   0.018 -2.5559 -0.4155  0.4432
 7624TIP3    H222837   1.447   2.713   0.147  0.1965  0.7303 -0.5182
 7625TIP3   OH222838   2.775   6.686   1.159 -0.2750 -0.2735 -0.5514
 7625TIP3    H122839   2.736   6.761   1.206 -1.6705 -0.5521 -1.2178
 7625TIP3    H222840   2.843   6.725   1.105 -0.9919  0.5388 -0.8959
 7626TIP3   OH222841   6.591   6.560   1.415  0.1500  0.2921  0.0168
 7626TIP3    H122842   6.498   6.561   1.437  0.6014  1.2082  2.1644
 7626TIP3    H222843   6.598   6.498   1.343 -1.9527 -0.7212  0.6000
 7627TIP3   OH222844   0.690   5.027   0.411  0.0273  0.2706 -0.2179
 7627TIP3    H122845   0.683   5.121   0.393 -0.1536  0.1605 -0.7408
 7627TIP3    H222846   0.770   5.000   0.366 -0.4342 -0.0094 -0.8885
 7628TIP3   OH222847   6.790   6.767   5.360  0.2942 -0.1881 -0.4376
 7628TIP3    H122848   6.885   6.776   5.364  0.2194  1.6317 -1.6319
 7628TIP3    H222849   6.776   6.681   5.319  1.4319 -0.0721 -1.1142
 7629TIP3   OH222850   6.145   2.354   0.899 -0.6996  0.5180 -0.3084
 7629TIP3    H122851   6.223   2.374   0.950 -1.3631  1.0713  0.5214
 7629TIP3    H222852   6.140   2.258   0.900 -0.6988  0.5172  0.6770
 7630TIP3   OH222853   7.095   3.928   5.040 -0.0882 -0.2984 -0.3423
 7630TIP3    H122854   7.161   3.891   5.098 -1.6749  0.4687  2.0763
 7630TIP3    H222855   7.137   3.929   4.954  2.0195 -2.3578  0.5665
 7631TIP3   OH222856   1.213   1.481   1.691 -0.5254  0.6253 -0.4193
 7631TIP3    H122857   1.269   1.558   1.691 -1.4026  1.3648  2.3743
 7631TIP3    H222858   1.155   1.493   1.766 -1.2225 -2.4026 -0.3457
 7632TIP3   OH222859   4.379   3.258   4.969 -0.0167 -0.0313 -0.4353
 7632TIP3    H122860   4.347   3.261   4.879 -0.6251  2.3784 -0.2305
 7632TIP3    H222861   4.307   3.296   5.021  1.1110  0.5877  0.7520
 7633TIP3   OH222862   6.425   6.119   3.353  0.1907 -0.7384 -0.1198
 7633TIP3    H122863   6.406   6.026   3.365 -0.4755 -0.7141 -0.9446
 7633TIP3    H222864   6.499   6.121   3.292 -1.3798 -0.7023 -2.1159
 7634TIP3   OH222865   1.346   3.320   0.065 -0.1953  0.1673 -0.4692
 7634TIP3    H122866   1.342   3.370   0.147 -0.3027  0.5313 -0.6971
 7634TIP3    H222867   1.383   3.381   0.001 -2.5905  0.7929 -1.3624
 7635TIP3   OH222868   5.194   3.804   1.965  0.1424 -0.4402  0.0875
 7635TIP3    H122869   5.266   3.788   2.027 -0.5812 -0.3270  0.9891
 7635TIP3    H222870   5.229   3.868   1.903  0.1178  1.3666  1.8316
 7636TIP3   OH222871   5.796   0.346   5.113 -0.0865 -0.0173  0.1468
 7636TIP3    H122872   5.869   0.362   5.052 -1.5264  0.1453 -1.6004
 7636TIP3    H222873   5.812   0.257   5.144  2.5854  1.0703  2.3448
 7637TIP3   OH222874   6.202   4.477   3.911 -0.1122  0.2683 -0.9997
 7637TIP3    H122875   6.181   4.564   3.878  2.8135  0.9959 -1.2269
 7637TIP3    H222876   6.285   4.454   3.867  0.6104 -1.4476  1.0820
 7638TIP3   OH222877   7.196   0.412   2.823 -0.2282  0.1704 -0.7208
 7638TIP3    H122878   7.265   0.395   2.759 -1.2062 -2.0420 -1.3072
 7638TIP3    H222879   7.140   0.334   2.819 -1.7926  1.1162  0.9700
 7639TIP3   OH222880   0.632   0.329   4.374 -0.5500 -0.0705  0.2731
 7639TIP3    H122881   0.561   0.337   4.437 -1.3965 -1.0592 -0.5317
 7639TIP3    H222882   0.694   0.269   4.416  0.3267  1.5487  1.3957
 7640TIP3   OH222883   6.185   0.456   0.891  0.3504 -0.1174 -0.6351
 7640TIP3    H122884   6.147   0.485   0.807  0.9115  2.0346 -0.1991
 7640TIP3    H222885   6.279   0.462   0.878  0.4418  0.2604  0.1426
 7641TIP3   OH222886   5.442   5.629   3.021  0.3245  0.1670 -0.8795
 7641TIP3    H122887   5.517   5.570   3.013  0.3820 -0.0869  0.9684
 7641TIP3    H222888   5.480   5.717   3.015  0.9317  0.0575  0.7636
 7642TIP3   OH222889   0.462   4.119   0.236 -0.2045  0.3189  0.5100
 7642TIP3    H122890   0.479   4.103   0.329  2.0133 -1.9544 -0.1652
 7642TIP3    H222891   0.482   4.212   0.224  0.7173  0.3664  2.0936
 7643TIP3   OH222892   6.149   5.970   1.441 -0.3184 -0.0047  0.3010
 7643TIP3    H122893   6.238   5.972   1.476  0.1683  1.9255 -0.8918
 7643TIP3    H222894   6.153   5.910   1.367 -0.1167 -0.2762  0.5326
 7644TIP3   OH222895   3.969   0.214   3.886 -0.4114  0.0128 -0.1404
 7644TIP3    H122896   4.040   0.176   3.937 -1.8920 -0.8031  1.4195
 7644TIP3    H222897   3.974   0.169   3.801 -0.0332 -1.1887  0.4944
 7645TIP3   OH222898   0.440   6.377   4.554 -0.4259 -0.0732 -0.5457
 7645TIP3    H122899   0.472   6.466   4.568 -1.3595  0.1376  0.3588
 7645TIP3    H222900   0.365   6.387   4.495 -0.2074 -0.3234 -0.8687
 7646TIP3   OH222901   4.606   6.029   0.395  0.6037 -0.1880  0.0229
 7646TIP3    H122902   4.534   5.974   0.363  0.1364  0.4752 -0.0772
 7646TIP3    H222903   4.597   6.028   0.490  0.8409 -0.6049  0.0447
 7647TIP3   OH222904   3.714   0.717   3.632 -0.0239 -0.4822  0.0197
 7647TIP3    H122905   3.717   0.638   3.578  0.7812 -1.0258  0.8257
 7647TIP3    H222906   3.799   0.720   3.676 -0.3437  0.3968  0.6201
 7648TIP3   OH222907   4.110   1.667   1.499 -0.3277 -0.2378 -0.1839
 7648TIP3    H122908   4.164   1.596   1.536 -1.5453 -0.3959  1.4193
 7648TIP3    H222909   4.155   1.747   1.526 -1.2811 -0.3446  1.9349
 7649TIP3   OH222910   0.303   4.061   5.730 -0.2448 -0.1512 -0.2564
 7649TIP3    H122911   0.330   4.150   5.751  0.4421 -0.2960 -0.4826
 7649TIP3    H222912   0.329   4.009   5.806 -1.3712 -0.0404  0.2230
 7650TIP3   OH222913   6.274   2.008   2.799 -0.4371  0.2407  0.1340
 7650TIP3    H122914   6.183   2.039   2.803 -0.6334 -0.4309  1.7812
 7650TIP3    H222915   6.326   2.088   2.807 -0.8747  0.6467 -0.9470
 7651TIP3   OH222916   5.224   2.186   4.669  0.2443 -0.5782  0.2914
 7651TIP3    H122917   5.146   2.163   4.720  0.2976 -0.3195  0.4932
 7651TIP3    H222918   5.230   2.282   4.677  0.9996 -0.6632  0.8891
 7652TIP3   OH222919   5.737   0.733   1.442  0.0421  0.0447 -0.3887
 7652TIP3    H122920   5.761   0.787   1.517  1.3187  0.2429 -0.9176
 7652TIP3    H222921   5.767   0.645   1.465 -0.7219 -0.1640 -0.1453
 7653TIP3   OH222922   0.483   3.977   2.548  0.0155  0.0554  0.3130
 7653TIP3    H122923   0.506   3.998   2.458 -0.6645 -2.5727 -0.5556
 7653TIP3    H222924   0.415   3.910   2.541 -1.6569  1.3044  2.7958
 7654TIP3   OH222925   3.198   5.152   5.670 -0.3573 -0.6071  0.1499
 7654TIP3    H122926   3.212   5.090   5.742  2.4041  0.5015  0.6918
 7654TIP3    H222927   3.141   5.219   5.707  1.1287  0.0175  1.4569
 7655TIP3   OH222928   6.694   5.844   0.893  0.2556 -0.2375  0.3563
 7655TIP3    H122929   6.715   5.771   0.952  0.6276 -1.4840 -1.2677
 7655TIP3    H222930   6.767   5.847   0.831 -1.0360 -0.2301 -1.2331
 7656TIP3   OH222931   6.390   2.950   1.491  0.0604  0.0363 -0.3007
 7656TIP3    H122932   6.414   2.871   1.540  2.5441  0.0619 -1.3512
 7656TIP3    H222933   6.340   2.917   1.416  1.1694 -0.5949 -0.7939
 7657TIP3   OH222934   2.866   4.804   2.592  0.0686 -0.1351 -0.1462
 7657TIP3    H122935   2.924   4.781   2.665  0.2497 -1.9016 -0.8075
 7657TIP3    H222936   2.818   4.880   2.624  1.4749  0.2970  1.0942
 7658TIP3   OH222937   0.178   0.217   4.731 -0.3857 -0.0837  0.1003
 7658TIP3    H122938   0.179   0.311   4.709 -1.8162 -0.4681 -1.9014
 7658TIP3    H222939   0.179   0.215   4.827 -0.8856  2.0127  0.2028
 7659TIP3   OH222940   2.190   6.123   1.675 -0.8889  0.4923 -0.1957
 7659TIP3    H122941   2.280   6.115   1.707 -0.0889  1.8415 -1.9195
 7659TIP3    H222942   2.140   6.061   1.728  1.3147 -1.4538 -0.2260
 7660TIP3   OH222943   5.953   0.520   1.675  0.5966  0.4677 -0.0071
 7660TIP3    H122944   5.906   0.544   1.755  0.3062  1.3059 -0.4230
 7660TIP3    H222945   6.038   0.563   1.684  1.2565 -0.9214  0.6722
 7661TIP3   OH222946   6.588   0.748   2.055 -0.0461  0.1171  0.5281
 7661TIP3    H122947   6.604   0.675   1.996  0.9339 -0.5408  1.5568
 7661TIP3    H222948   6.515   0.720   2.110 -0.6752  0.5540 -0.0668
 7662TIP3   OH222949   1.429   3.546   4.573 -0.7610  0.2270 -0.0183
 7662TIP3    H122950   1.426   3.496   4.491  0.0234  1.5109 -0.8615
 7662TIP3    H222951   1.420   3.480   4.641 -1.8117 -0.8434 -1.1323
 7663TIP3   OH222952   2.901   4.938   4.906 -0.2897  0.1933 -0.3089
 7663TIP3    H122953   2.948   4.914   4.986 -1.4126  0.7874  0.5726
 7663TIP3    H222954   2.808   4.928   4.930 -0.6675  1.3272 -1.2193
 7664TIP3   OH222955   3.132   5.498   2.614 -0.3856  0.1574  0.5111
 7664TIP3    H122956   3.135   5.406   2.641  1.8439  0.2919  0.9128
 7664TIP3    H222957   3.090   5.543   2.687 -0.1367 -0.3524  0.9774
 7665TIP3   OH222958   3.797   0.323   0.063 -0.2484 -0.6217  0.6587
 7665TIP3    H122959   3.831   0.237   0.085  1.8553 -0.5686 -1.9356
 7665TIP3    H222960   3.874   0.380   0.059 -1.0434  0.4105 -1.6956
 7666TIP3   OH222961   6.520   0.850   1.757 -0.6306  0.0323 -0.4033
 7666TIP3    H122962   6.541   0.761   1.787 -0.8733  0.2579  0.4652
 7666TIP3    H222963   6.452   0.880   1.817  0.2411  1.2196  0.0230
 7667TIP3   OH222964   5.495   2.717   0.395  0.1355 -0.3129  0.1377
 7667TIP3    H122965   5.441   2.638   0.391  0.1767 -0.2906 -0.9650
 7667TIP3    H222966   5.480   2.751   0.484 -0.8321 -0.8851  0.2057
 7668TIP3   OH222967   3.985   2.782   2.068 -0.1772 -0.7404  0.2528
 7668TIP3    H122968   3.899   2.779   2.027  0.5014 -0.6444 -1.2471
 7668TIP3    H222969   3.977   2.728   2.146 -2.0032  0.4760  0.9643
 7669TIP3   OH222970   0.584   3.206   4.767  0.7047 -0.2181  0.2806
 7669TIP3    H122971   0.512   3.212   4.830  0.4962 -0.4005  0.0623
 7669TIP3    H222972   0.569   3.279   4.706 -0.6713 -1.6227 -1.1720
 7670TIP3   OH222973   2.579   6.573   5.145  0.5380 -0.1295  0.0829
 7670TIP3    H122974   2.577   6.596   5.052  1.0511 -1.5435 -0.3077
 7670TIP3    H222975   2.547   6.652   5.190  0.8626  0.7950 -1.2376
 7671TIP3   OH222976   5.490   0.954   2.380  0.0796  0.1627 -0.2457
 7671TIP3    H122977   5.551   1.026   2.363 -2.1202  2.3082  0.3793
 7671TIP3    H222978   5.486   0.948   2.476 -1.9387  1.2893 -0.2081
 7672TIP3   OH222979   0.047   1.581   0.766  0.1434  0.3314 -0.6838
 7672TIP3    H122980  -0.010   1.657   0.778 -1.5840 -0.8215 -1.1809
 7672TIP3    H222981   0.041   1.533   0.848  0.2973  0.1268 -0.7911
 7673TIP3   OH222982   6.105   1.513   4.854 -0.5050 -0.2465 -0.1200
 7673TIP3    H122983   6.157   1.564   4.915  0.9159 -1.3413 -0.3693
 7673TIP3    H222984   6.116   1.556   4.769 -1.2394  0.3877  0.0989
 7674TIP3   OH222985   2.907   2.292   3.950  0.1482 -0.3868  0.0227
 7674TIP3    H122986   2.991   2.336   3.935  0.8154 -1.4898  0.4007
 7674TIP3    H222987   2.916   2.206   3.908 -1.3252 -0.0128 -1.1680
 7675TIP3   OH222988   0.558   3.910   1.398 -0.2596  0.1185 -0.5094
 7675TIP3    H122989   0.516   3.862   1.469  0.5269 -3.7471 -2.3634
 7675TIP3    H222990   0.646   3.927   1.430 -0.3679 -0.2501  0.0027
 7676TIP3   OH222991   0.120   6.376   1.729 -0.0448  0.3799  0.5401
 7676TIP3    H122992   0.142   6.469   1.729 -0.9775  0.6317 -0.7867
 7676TIP3    H222993   0.150   6.345   1.644 -1.5065 -0.0644  0.1519
 7677TIP3   OH222994   1.438   1.424   5.894 -0.4412  0.1783 -0.2003
 7677TIP3    H122995   1.384   1.492   5.856  0.9077  0.7446 -1.1573
 7677TIP3    H222996   1.476   1.378   5.819 -0.3118 -0.7962  0.4403
 7678TIP3   OH222997   1.593   4.204   1.528  0.0749  0.0893  0.2771
 7678TIP3    H122998   1.610   4.298   1.522 -2.2923  0.7545  2.0649
 7678TIP3    H222999   1.576   4.177   1.438  0.9900  1.3306 -0.2921
 7679TIP3   OH223000   1.991   0.811   1.582  0.8259  0.1063 -0.5977
 7679TIP3    H123001   2.017   0.895   1.618  1.6498  0.1299 -1.2308
 7679TIP3    H223002   2.008   0.818   1.489  1.1146 -0.8375 -0.6285
 7680TIP3   OH223003   2.488   5.739   3.203  0.3688 -0.7307  0.5044
 7680TIP3    H123004   2.477   5.644   3.204 -1.5334 -0.5621 -0.4808
 7680TIP3    H223005   2.418   5.771   3.261 -1.6187  0.2056 -2.2157
 7681TIP3   OH223006   6.986   4.832   3.404  0.2490  0.2123  0.1278
 7681TIP3    H123007   7.005   4.876   3.321  0.8628 -0.3415 -0.0291
 7681TIP3    H223008   7.004   4.740   3.387  1.5753  0.2340  1.2243
 7682TIP3   OH223009   6.686   3.704   5.596 -0.2499  0.3492  0.4198
 7682TIP3    H123010   6.636   3.628   5.567  0.6599 -0.2512  0.3852
 7682TIP3    H223011   6.766   3.703   5.543  1.1541 -0.4126  2.3883
 7683TIP3   OH223012   0.827   4.392   5.718 -0.7772 -0.2566  0.0022
 7683TIP3    H123013   0.864   4.480   5.717 -0.5942 -0.2834  1.5106
 7683TIP3    H223014   0.890   4.340   5.767 -0.7929 -1.2926 -1.0405
 7684TIP3   OH223015   2.806   4.878   0.850  0.3377 -0.3142 -0.3211
 7684TIP3    H123016   2.779   4.963   0.885  0.5335 -0.4886  0.2760
 7684TIP3    H223017   2.829   4.827   0.928 -3.0720 -2.1278 -0.3404
 7685TIP3   OH223018   3.121   2.176   3.209  0.2169 -0.5573  0.9448
 7685TIP3    H123019   3.043   2.132   3.175  0.3888 -1.0729  1.2062
 7685TIP3    H223020   3.151   2.230   3.136  0.5681 -1.6249  0.2754
 7686TIP3   OH223021   2.204   3.350   4.771  0.6269  0.4317  0.7609
 7686TIP3    H123022   2.226   3.264   4.736  1.0598  0.8512 -0.0100
 7686TIP3    H223023   2.244   3.412   4.710 -2.1883  1.2539 -0.4015
 7687TIP3   OH223024   1.574   5.129   0.560  0.2477  0.4015 -0.2246
 7687TIP3    H123025   1.509   5.189   0.524 -0.6456 -0.2597  0.2507
 7687TIP3    H223026   1.649   5.185   0.581 -0.1508  1.1713 -0.7995
 7688TIP3   OH223027   2.068   5.561   4.829 -0.1622  0.3515  0.1630
 7688TIP3    H123028   2.137   5.625   4.811  0.6934  0.1301  2.3865
 7688TIP3    H223029   1.987   5.607   4.808  0.5599  1.0695 -1.2138
 7689TIP3   OH223030   7.124   0.690   5.672 -0.5570 -0.0283 -0.1771
 7689TIP3    H123031   7.053   0.753   5.657 -1.3218 -0.3447  1.7981
 7689TIP3    H223032   7.135   0.690   5.767  1.6622 -0.4923 -0.3970
 7690TIP3   OH223033   0.889   5.593   4.655 -0.5164 -0.2165 -0.5460
 7690TIP3    H123034   0.813   5.641   4.689 -0.5990 -1.3817  1.0047
 7690TIP3    H223035   0.853   5.512   4.621 -0.0110 -0.6557 -0.0544
 7691TIP3   OH223036   5.218   2.142   0.477  0.3314 -0.5133  0.8461
 7691TIP3    H123037   5.174   2.195   0.543 -0.4974  0.2796 -0.2953
 7691TIP3    H223038   5.231   2.202   0.403  1.7357 -1.2206  0.4808
 7692TIP3   OH223039   1.387   6.492   3.773  0.1453  0.2174 -0.0910
 7692TIP3    H123040   1.441   6.423   3.734  0.0141  0.5943 -0.9651
 7692TIP3    H223041   1.450   6.557   3.803  0.2596 -0.1849  0.5546
 7693TIP3   OH223042   0.740   3.353   1.703  0.3410  0.1926 -0.3599
 7693TIP3    H123043   0.805   3.403   1.753  1.2032  0.4012 -1.6435
 7693TIP3    H223044   0.787   3.325   1.624 -1.3869  1.1915 -1.8131
 7694TIP3   OH223045   3.443   1.024   5.411  0.2863 -0.2848 -0.1535
 7694TIP3    H123046   3.434   0.943   5.360  0.6344  0.4021 -1.3326
 7694TIP3    H223047   3.470   1.090   5.347 -3.1901  1.5729  0.0526
 7695TIP3   OH223048   3.810   5.422   4.733  0.3278  0.4268 -0.4421
 7695TIP3    H123049   3.884   5.422   4.793  0.1261 -0.3200 -0.1797
 7695TIP3    H223050   3.822   5.342   4.680 -0.9688 -0.4195  0.4815
 7696TIP3   OH223051   4.799   2.530   5.741 -0.6550 -0.0641 -0.1999
 7696TIP3    H123052   4.710   2.553   5.717  0.6525  2.5832 -3.1722
 7696TIP3    H223053   4.828   2.600   5.799  0.0397  0.0776 -0.7060
 7697TIP3   OH223054   0.764   0.332   2.205  0.3720  0.0111  0.5520
 7697TIP3    H123055   0.780   0.347   2.112 -1.1045 -0.0714  0.2754
 7697TIP3    H223056   0.848   0.299   2.238  0.0625 -3.0858 -1.4219
 7698TIP3   OH223057   0.477   3.863   5.544 -0.4424  0.3791  0.1690
 7698TIP3    H123058   0.573   3.856   5.548 -0.5140 -0.9243  0.1160
 7698TIP3    H223059   0.456   3.936   5.601  0.7415  2.1603 -1.5383
 7699TIP3   OH223060   3.595   0.358   1.814  0.4498  0.4676  0.5501
 7699TIP3    H123061   3.598   0.359   1.718  0.4485  0.9854  0.5522
 7699TIP3    H223062   3.507   0.387   1.835 -0.0560 -1.1080  0.6922
 7700TIP3   OH223063   0.956   0.687   4.388  0.1060 -0.2829 -0.4879
 7700TIP3    H123064   0.883   0.638   4.352  0.0557 -0.6264  0.0901
 7700TIP3    H223065   0.928   0.779   4.384 -1.6004 -0.5671  2.4770
 7701TIP3   OH223066   3.954   0.463   2.280 -0.1961  0.9181  0.0170
 7701TIP3    H123067   3.996   0.461   2.367  0.1794 -1.0812 -0.1660
 7701TIP3    H223068   4.024   0.492   2.221  0.1865  0.1886  0.0962
 7702TIP3   OH223069   0.405   5.110   5.760 -0.4029 -0.3978 -0.8446
 7702TIP3    H123070   0.461   5.044   5.717  0.5304  0.2319 -0.6336
 7702TIP3    H223071   0.377   5.068   5.841 -1.0051 -1.0679 -1.3858
 7703TIP3   OH223072   2.734   3.301   4.488  0.1017 -0.2986 -0.4626
 7703TIP3    H123073   2.761   3.390   4.467  0.5952  0.1605  1.8891
 7703TIP3    H223074   2.813   3.258   4.520 -1.0241 -0.0177  3.1120
 7704TIP3   OH223075   5.885   2.763   3.372 -0.3703 -0.6468  0.1002
 7704TIP3    H123076   5.899   2.689   3.431  2.4088  0.6395  1.2752
 7704TIP3    H223077   5.833   2.825   3.424 -0.6183 -0.8063  0.0383
 7705TIP3   OH223078   3.596   3.001   2.829  0.2775  0.1821  0.2480
 7705TIP3    H123079   3.661   2.931   2.820  0.1278 -0.0194  0.6629
 7705TIP3    H223080   3.641   3.068   2.880  0.4976  0.4927 -0.3481
 7706TIP3   OH223081   7.069   1.866   5.736 -0.5865  0.7218  0.2593
 7706TIP3    H123082   7.124   1.883   5.813  0.6296 -0.6666 -0.2627
 7706TIP3    H223083   7.104   1.786   5.699 -0.3563  2.0001 -2.4824
 7707TIP3   OH223084   0.454   6.095   4.507 -0.1544  0.3018 -0.3913
 7707TIP3    H123085   0.364   6.099   4.476  1.3565  0.6355 -5.8388
 7707TIP3    H223086   0.479   6.186   4.521  0.1095  0.5465 -2.1515
 7708TIP3   OH223087   4.387   0.039   4.223 -0.0410 -0.2719  0.0254
 7708TIP3    H123088   4.466   0.078   4.260 -1.4986  4.1167 -0.9010
 7708TIP3    H223089   4.322   0.044   4.293  0.2096 -3.3862  0.6191
 7709TIP3   OH223090   6.191   2.051   5.703  0.1808 -0.8856  0.1694
 7709TIP3    H123091   6.240   2.076   5.782 -0.1351  2.0471 -0.4339
 7709TIP3    H223092   6.105   2.026   5.736  0.7022 -1.8055  0.8911
 7710TIP3   OH223093   1.392   1.228   2.700 -0.7889 -0.3652 -0.1408
 7710TIP3    H123094   1.385   1.237   2.605 -0.9526  0.2882 -0.0719
 7710TIP3    H223095   1.398   1.318   2.732  0.6754 -0.6124  0.3624
 7711TIP3   OH223096   5.833   5.048   5.849  0.3171  0.2468  0.3696
 7711TIP3    H123097   5.810   5.107   5.921 -1.3968  0.1375 -0.0330
 7711TIP3    H223098   5.756   4.991   5.839  0.6427  0.0357 -1.3073
 7712TIP3   OH223099   0.745   5.193   1.241  0.0934  0.6461  0.3314
 7712TIP3    H123100   0.791   5.220   1.161 -0.3503  0.9330  0.1686
 7712TIP3    H223101   0.810   5.141   1.289  0.6163  1.1118  0.1456
 7713TIP3   OH223102   0.612   0.858   4.463  0.1667 -0.3180  0.2414
 7713TIP3    H123103   0.573   0.918   4.400  0.8575  2.1127  1.9885
 7713TIP3    H223104   0.685   0.818   4.416 -1.0858 -0.8453 -1.3586
 7714TIP3   OH223105   2.934   2.650   0.707 -0.0216  0.2256 -0.2679
 7714TIP3    H123106   2.913   2.584   0.773  1.7533  0.1294  0.2680
 7714TIP3    H223107   2.989   2.713   0.754  0.9070  0.3918 -1.5425
 7715TIP3   OH223108   4.540   2.179   3.695  0.1197 -0.5445 -0.4940
 7715TIP3    H123109   4.556   2.195   3.788 -0.4406 -0.9999 -0.3186
 7715TIP3    H223110   4.611   2.120   3.668 -0.6621 -1.7944  0.0635
 7716TIP3   OH223111   5.493   0.317   0.823 -0.0467 -0.5882  0.1645
 7716TIP3    H123112   5.509   0.351   0.911 -0.5933 -1.1879  0.5012
 7716TIP3    H223113   5.560   0.360   0.769 -0.7961  1.1446  0.5378
 7717TIP3   OH223114   0.660   2.018   3.326  0.0379  0.0469  0.0691
 7717TIP3    H123115   0.709   2.038   3.246  0.3293 -2.2424 -0.3816
 7717TIP3    H223116   0.714   2.055   3.396  1.8147 -1.2926 -0.5212
 7718TIP3   OH223117   2.956   6.463   0.783  0.2684 -0.9876 -0.3147
 7718TIP3    H123118   3.010   6.504   0.850  1.0506 -2.6095  0.1182
 7718TIP3    H223119   2.904   6.398   0.830  2.0032 -3.3216 -1.3594
 7719TIP3   OH223120   1.559   3.174   4.266  0.4048 -0.3130 -0.6913
 7719TIP3    H123121   1.620   3.245   4.249  1.0941 -0.7213 -0.0190
 7719TIP3    H223122   1.607   3.095   4.243 -0.1354 -0.6013 -0.8576
 7720TIP3   OH223123   0.398   1.417   0.685 -0.2279  0.1396 -0.2205
 7720TIP3    H123124   0.396   1.391   0.777  1.7073  1.0191  0.1329
 7720TIP3    H223125   0.356   1.345   0.638 -0.7455 -0.5838  1.2830
 7721TIP3   OH223126   6.993   1.238   5.115  0.3364  0.0099 -0.4962
 7721TIP3    H123127   6.938   1.272   5.186  0.3997 -0.3444 -0.2715
 7721TIP3    H223128   6.950   1.157   5.089  1.4155 -0.9239  0.5341
 7722TIP3   OH223129   1.392   6.192   1.044  0.1123  0.3568  0.7549
 7722TIP3    H123130   1.392   6.152   1.131  1.2522 -1.4155  0.0104
 7722TIP3    H223131   1.423   6.123   0.986 -0.5037  1.5259 -1.0664
 7723TIP3   OH223132   5.350   3.204   1.135 -0.0095  0.6620  0.5965
 7723TIP3    H123133   5.328   3.267   1.067 -1.0835 -0.4849 -0.1478
 7723TIP3    H223134   5.390   3.257   1.204  0.2824  1.9720 -0.5299
 7724TIP3   OH223135   0.680   1.731   5.100  0.3101  0.7897  0.2935
 7724TIP3    H123136   0.608   1.718   5.038 -1.2457  1.1402  1.9359
 7724TIP3    H223137   0.686   1.648   5.148 -0.7857  1.5694  1.8855
 7725TIP3   OH223138   3.345   6.273   0.003  0.2970 -0.3311  0.3293
 7725TIP3    H123139   3.315   6.219   0.076  0.5814  0.2553  0.8946
 7725TIP3    H223140   3.291   6.352   0.009 -0.3115 -0.6548 -0.6556
 7726TIP3   OH223141   3.110   2.369   5.835  0.5772  0.6255 -0.4883
 7726TIP3    H123142   3.083   2.279   5.814  1.1067  0.2929  0.2356
 7726TIP3    H223143   3.191   2.382   5.786  0.3409  0.8177 -0.8314
 7727TIP3   OH223144   3.797   3.853   3.836  0.0733  0.5682 -0.4240
 7727TIP3    H123145   3.727   3.918   3.839  2.0869  2.8229  1.6084
 7727TIP3    H223146   3.768   3.785   3.898 -1.3200  0.2441 -1.3691
 7728TIP3   OH223147   0.025   1.709   3.972 -0.5582 -0.1051  0.0603
 7728TIP3    H123148  -0.007   1.645   3.908  2.3441  0.5061 -2.2138
 7728TIP3    H223149   0.005   1.794   3.932  1.6190  0.2817 -0.2968
 7729TIP3   OH223150   4.999   4.668   1.050  0.1616 -0.0515 -0.0007
 7729TIP3    H123151   5.006   4.613   0.971  2.1514 -0.3339  0.2998
 7729TIP3    H223152   5.057   4.626   1.113 -1.6775 -0.0406  1.7986
 7730TIP3   OH223153   2.131   5.583   5.104 -0.4154  0.5575  0.4114
 7730TIP3    H123154   2.204   5.543   5.057 -0.8033  1.8135 -1.3652
 7730TIP3    H223155   2.055   5.566   5.048 -1.1963  0.7150  1.4000
 7731TIP3   OH223156   1.008   3.335   5.024  0.0473  0.3635  0.2662
 7731TIP3    H123157   0.999   3.289   4.940  1.8433  1.7387 -0.7429
 7731TIP3    H223158   0.919   3.339   5.058 -0.7204 -0.3557 -1.5039
 7732TIP3   OH223159   6.547   4.799   0.089 -0.0946 -0.0610 -0.8289
 7732TIP3    H123160   6.471   4.743   0.100 -0.3103  0.3422 -0.1915
 7732TIP3    H223161   6.620   4.748   0.124 -0.5911  0.7565  1.5978
 7733TIP3   OH223162   6.208   2.266   1.240  0.0060 -0.0953 -0.5553
 7733TIP3    H123163   6.257   2.279   1.159 -0.6007  0.2112 -0.8826
 7733TIP3    H223164   6.138   2.206   1.216  0.4241 -0.8081 -0.0074
 7734TIP3   OH223165   0.005   3.853   2.255 -0.1314 -0.2258 -0.1874
 7734TIP3    H123166  -0.036   3.766   2.249 -1.3763  0.4059 -1.2474
 7734TIP3    H223167   0.090   3.842   2.213 -0.6051 -0.7462 -1.0333
 7735TIP3   OH223168   0.358   2.653   0.908 -0.2634 -0.0761  0.0819
 7735TIP3    H123169   0.346   2.592   0.981  1.8248  0.8036  1.2432
 7735TIP3    H223170   0.291   2.720   0.920  0.0182  0.0237  1.1835
 7736TIP3   OH223171   3.631   6.507   4.834 -0.0347  0.2402 -0.0559
 7736TIP3    H123172   3.680   6.589   4.836 -1.5338  1.1814 -0.4543
 7736TIP3    H223173   3.645   6.469   4.921  0.3057  1.1385  0.2935
 7737TIP3   OH223174   4.344   0.908   2.234  0.1595  0.3493  0.2165
 7737TIP3    H123175   4.396   0.836   2.198  0.2327 -0.5672  2.0112
 7737TIP3    H223176   4.348   0.977   2.167  0.6435 -1.0545 -1.2549
 7738TIP3   OH223177   3.827   1.923   1.560  0.4634 -0.1303  0.2111
 7738TIP3    H123178   3.845   1.918   1.466 -0.1100  0.2729  0.0750
 7738TIP3    H223179   3.806   2.015   1.576  1.4539 -0.0088  0.9099
 7739TIP3   OH223180   3.708   3.128   2.110  0.0287 -0.4511  0.1098
 7739TIP3    H123181   3.672   3.179   2.183  1.4491 -0.2227  0.6786
 7739TIP3    H223182   3.713   3.039   2.144 -1.1023 -0.7302 -0.3946
 7740TIP3   OH223183   2.788   0.786   3.945  0.1334  0.7143  0.4399
 7740TIP3    H123184   2.835   0.804   3.863  0.4523  0.8749  0.6514
 7740TIP3    H223185   2.803   0.693   3.962 -0.3597  0.5629  0.0550
 7741TIP3   OH223186   1.125   5.428  -0.011  0.2756 -0.1257 -0.3994
 7741TIP3    H123187   1.058   5.368   0.022  0.2427 -1.1318 -2.1758
 7741TIP3    H223188   1.164   5.466   0.068 -1.1501 -0.8787  0.7147
 7742TIP3   OH223189   2.362   0.660   0.058  0.8426  0.5796  0.1606
 7742TIP3    H123190   2.383   0.728   0.122 -0.1239  1.6562 -0.6321
 7742TIP3    H223191   2.372   0.703  -0.027  0.7799 -0.4425 -0.3776
 7743TIP3   OH223192   2.205   0.240   4.157  0.1242  0.8093  0.6970
 7743TIP3    H123193   2.113   0.216   4.169 -0.1994  0.9285 -1.3017
 7743TIP3    H223194   2.247   0.161   4.125  0.7961  0.7057  1.7593
 7744TIP3   OH223195   1.276   3.987   1.817 -0.7888 -0.5707 -0.0755
 7744TIP3    H123196   1.205   3.941   1.862 -0.6401 -1.9822 -1.2169
 7744TIP3    H223197   1.337   3.918   1.791  0.5336  0.5209  0.0412
 7745TIP3   OH223198   1.131   5.179   2.064 -0.4307 -0.2484  0.0513
 7745TIP3    H123199   1.186   5.112   2.022 -0.6130 -0.4854  0.1903
 7745TIP3    H223200   1.050   5.134   2.085 -1.2228  0.4263 -1.3705
 7746TIP3   OH223201   2.032   1.850   4.334 -0.2020  0.3937  0.0047
 7746TIP3    H123202   2.053   1.877   4.423 -0.2593 -0.7599  0.3867
 7746TIP3    H223203   1.997   1.929   4.292 -0.2517  0.9234  1.0264
 7747TIP3   OH223204   5.267   4.095   4.222  0.1717 -0.5983 -0.5741
 7747TIP3    H123205   5.209   4.042   4.167 -0.0672 -2.0323  0.9587
 7747TIP3    H223206   5.208   4.143   4.280  0.4538 -1.0852  0.1383
 7748TIP3   OH223207   2.322   0.040   4.032 -0.1643 -0.0221  0.1208
 7748TIP3    H123208   2.238   0.010   4.066  0.2842 -2.0294 -0.3777
 7748TIP3    H223209   2.383   0.030   4.105 -0.4453  2.0272  0.6701
 7749TIP3   OH223210   7.040   5.715   5.690 -0.6832 -0.1420  0.4610
 7749TIP3    H123211   7.063   5.714   5.597 -2.8421  1.0167 -0.1611
 7749TIP3    H223212   7.094   5.647   5.729  2.5006  1.2796 -1.0598
 7750TIP3   OH223213   6.190   6.008   4.108  0.4824  0.1073 -0.0310
 7750TIP3    H123214   6.240   5.927   4.100 -0.1149 -0.4836  1.6246
 7750TIP3    H223215   6.181   6.021   4.203 -3.0801 -0.2209 -0.1985
 7751TIP3   OH223216   0.137   4.548   3.939 -0.2661 -0.5085 -0.1351
 7751TIP3    H123217   0.133   4.516   3.849  0.8189 -0.1482 -0.3305
 7751TIP3    H223218   0.153   4.469   3.992 -1.8979 -0.8666 -0.1218
 7752TIP3   OH223219   2.461   2.286   1.839  0.0189  0.0188 -0.2932
 7752TIP3    H123220   2.425   2.369   1.870 -1.3830 -0.1396 -1.4142
 7752TIP3    H223221   2.421   2.220   1.896  0.7152  0.0569  0.2498
 7753TIP3   OH223222   1.428   5.967   2.589 -0.4127 -0.4164 -0.2371
 7753TIP3    H123223   1.473   5.893   2.629 -0.8619  0.4826  2.1214
 7753TIP3    H223224   1.490   6.040   2.596 -1.2923  0.2751  0.9388
 7754TIP3   OH223225   2.327   4.683   3.271 -0.1118  0.1021 -0.4607
 7754TIP3    H123226   2.394   4.635   3.223  1.5026  1.8848 -0.1202
 7754TIP3    H223227   2.251   4.625   3.272  1.6765 -2.3342 -0.1373
 7755TIP3   OH223228   4.411   0.196   3.734  0.1575 -0.1871 -0.2232
 7755TIP3    H123229   4.433   0.286   3.759  1.8779 -0.4552 -0.6419
 7755TIP3    H223230   4.485   0.167   3.681 -0.3283 -1.8806 -0.0377
 7756TIP3   OH223231   3.773   4.860   0.917  0.8698 -0.4167  0.2931
 7756TIP3    H123232   3.820   4.881   0.998 -0.0527  1.4365  0.3779
 7756TIP3    H223233   3.699   4.920   0.915  1.5264  0.4590 -2.5177
 7757TIP3   OH223234   4.630   3.296   0.681 -0.1761 -0.0016 -0.1031
 7757TIP3    H123235   4.690   3.350   0.732 -0.1623 -1.9064  2.0903
 7757TIP3    H223236   4.543   3.328   0.704 -0.2462 -1.6445  2.3195
 7758TIP3   OH223237   4.531   4.134   4.618 -0.1915 -0.3483 -0.8303
 7758TIP3    H123238   4.479   4.146   4.698 -2.1060 -1.0253 -1.9172
 7758TIP3    H223239   4.574   4.049   4.631  0.3394  0.0190 -0.1005
 7759TIP3   OH223240   3.650   5.644   2.825 -0.4873  0.2075 -0.2643
 7759TIP3    H123241   3.677   5.725   2.868 -1.0411  0.5566 -0.5659
 7759TIP3    H223242   3.667   5.659   2.732  0.5541 -0.4849 -0.2062
 7760TIP3   OH223243   0.705   1.494   0.707 -0.4965  0.3063 -0.1194
 7760TIP3    H123244   0.699   1.406   0.669  0.5884  0.4552 -0.6863
 7760TIP3    H223245   0.791   1.526   0.679 -1.5602  2.2298 -1.4279
 7761TIP3   OH223246   5.281   5.676   1.335 -0.2761 -0.0156  0.2474
 7761TIP3    H123247   5.237   5.620   1.399  0.9465  0.9561  2.0145
 7761TIP3    H223248   5.345   5.618   1.293 -0.4903 -0.4563  0.5218
 7762TIP3   OH223249   5.246   6.121   5.462  0.3120  0.0192 -0.2962
 7762TIP3    H123250   5.191   6.196   5.485 -1.1059 -1.1140  0.1573
 7762TIP3    H223251   5.268   6.081   5.546  2.2152  0.6425 -0.4270
 7763TIP3   OH223252   6.516   0.961   5.079 -0.0546 -0.2624  0.3092
 7763TIP3    H123253   6.503   0.869   5.102 -0.2364 -0.1284  0.7609
 7763TIP3    H223254   6.492   0.966   4.987 -0.9312 -0.4979  0.5137
 7764TIP3   OH223255   4.375   4.871   2.509 -0.1752 -0.1413  0.6053
 7764TIP3    H123256   4.425   4.790   2.496  1.3427  0.8196  0.2318
 7764TIP3    H223257   4.284   4.845   2.494  0.4237 -1.4272 -1.2981
 7765TIP3   OH223258   0.242   3.171   1.457 -0.7327 -0.3178 -0.3159
 7765TIP3    H123259   0.206   3.183   1.370 -2.6188 -1.1357  0.3096
 7765TIP3    H223260   0.286   3.254   1.476 -1.2094  0.2506 -1.6155
 7766TIP3   OH223261   1.622   2.929   5.601  0.4074 -0.0473 -0.0782
 7766TIP3    H123262   1.585   2.997   5.545  0.3464 -0.0379 -0.0266
 7766TIP3    H223263   1.705   2.966   5.632 -0.4511  0.7393  1.3836
 7767TIP3   OH223264   2.768   6.234   0.339 -0.1128 -0.2258  0.2534
 7767TIP3    H123265   2.729   6.215   0.254  1.1637 -2.4384  0.0867
 7767TIP3    H223266   2.693   6.244   0.398 -0.9802 -0.6591 -0.7364
 7768TIP3   OH223267   1.443   0.842   2.163  0.1076  0.3179  0.5220
 7768TIP3    H123268   1.471   0.834   2.255  0.5184 -2.0535  0.2619
 7768TIP3    H223269   1.401   0.758   2.144  0.6729  0.4697 -1.6730
 7769TIP3   OH223270   3.153   4.212   3.625  0.5630  0.2928 -0.6715
 7769TIP3    H123271   3.124   4.147   3.690 -0.5668  1.0508 -0.3998
 7769TIP3    H223272   3.145   4.167   3.541 -0.7175  0.2229 -0.5361
 7770TIP3   OH223273   6.621   2.361   2.225  0.0874  0.2722 -0.6397
 7770TIP3    H123274   6.699   2.417   2.231  2.1673 -2.3076 -1.7880
 7770TIP3    H223275   6.599   2.361   2.132  0.1235 -0.8003 -0.6578
 7771TIP3   OH223276   4.400   3.149   0.204  0.9817  0.3503  0.1874
 7771TIP3    H123277   4.475   3.197   0.239 -0.3833  2.3226  0.5795
 7771TIP3    H223278   4.343   3.217   0.167 -1.3900 -0.8739  1.3870
 7772TIP3   OH223279   5.226   4.980   4.341  0.5025  0.0930  0.7490
 7772TIP3    H123280   5.239   4.898   4.292  0.0942 -0.3854  1.4133
 7772TIP3    H223281   5.208   4.951   4.430  2.5178  0.9948  1.4944
 7773TIP3   OH223282   5.920   5.546   0.923 -0.1306  0.0965 -0.5969
 7773TIP3    H123283   5.906   5.639   0.905  0.1890  0.0708 -0.9910
 7773TIP3    H223284   5.865   5.528   0.999 -0.6618  0.4701 -0.8829
 7774TIP3   OH223285   4.993   3.861   4.871 -0.0375  0.2311  0.1804
 7774TIP3    H123286   4.971   3.886   4.960  0.4995  0.2887  0.2972
 7774TIP3    H223287   5.089   3.863   4.868  0.0267 -1.5371  0.1122
 7775TIP3   OH223288   6.510   4.662   1.505 -0.0879  0.5020 -0.4134
 7775TIP3    H123289   6.557   4.623   1.432  1.1459 -0.8235  1.0169
 7775TIP3    H223290   6.530   4.755   1.500  1.8447  0.1099 -0.4855
 7776TIP3   OH223291   1.834   2.579   0.395 -0.2722  0.3234  0.2153
 7776TIP3    H123292   1.787   2.580   0.311 -1.4481  1.0025  0.8532
 7776TIP3    H223293   1.925   2.597   0.371 -0.3055 -1.0420 -1.0535
 7777TIP3   OH223294   2.283   4.325   3.694  0.3496  0.9729  0.0491
 7777TIP3    H123295   2.288   4.406   3.642  1.2908  0.7992 -0.1417
 7777TIP3    H223296   2.290   4.255   3.629  1.8832  0.7510  0.4125
 7778TIP3   OH223297   2.167   3.173   3.645  0.0300  0.0890  0.0413
 7778TIP3    H123298   2.082   3.162   3.688  0.1614 -0.0637  0.2661
 7778TIP3    H223299   2.226   3.115   3.693  0.0446 -0.5586 -0.7434
 7779TIP3   OH223300   5.010   6.462   1.386  0.1527 -0.0555 -0.4300
 7779TIP3    H123301   5.018   6.427   1.297 -0.7397 -0.1405 -0.4796
 7779TIP3    H223302   5.070   6.408   1.438  0.5895 -0.0820 -0.9500
 7780TIP3   OH223303   7.014   1.441   1.722  0.0625  0.2888 -0.2270
 7780TIP3    H123304   7.083   1.483   1.671  1.2634 -1.3647 -0.0091
 7780TIP3    H223305   7.058   1.373   1.773 -1.6659 -0.5900  0.1869
 7781TIP3   OH223306   4.935   0.732   1.241 -0.8247  0.1320  0.0597
 7781TIP3    H123307   4.955   0.826   1.239 -0.4935  0.2653  3.3946
 7781TIP3    H223308   4.864   0.722   1.177 -0.8690  2.6527 -0.4088
 7782TIP3   OH223309   5.992   2.786   3.982  0.3569 -0.0783 -0.4857
 7782TIP3    H123310   5.927   2.755   3.919 -1.2070 -0.4108  1.1904
 7782TIP3    H223311   5.995   2.880   3.970 -2.0522  0.2367  0.7467
 7783TIP3   OH223312   1.663   0.082   1.078  0.3431 -0.0524  0.6049
 7783TIP3    H123313   1.661   0.034   1.160  0.7861  0.0037  0.6509
 7783TIP3    H223314   1.637   0.171   1.102 -1.7340 -0.5376  0.3140
 7784TIP3   OH223315   3.168   4.116   3.944 -0.4463 -0.1811  0.5952
 7784TIP3    H123316   3.258   4.134   3.973 -1.3586  0.8593  2.9791
 7784TIP3    H223317   3.127   4.202   3.937 -1.3463 -0.6609 -0.3009
 7785TIP3   OH223318   5.561   5.354   0.735 -0.6850  0.0582  0.3775
 7785TIP3    H123319   5.651   5.385   0.743 -1.1311  1.8819 -0.8738
 7785TIP3    H223320   5.569   5.259   0.720  1.0017  0.1753  0.3849
 7786TIP3   OH223321   2.964   3.341   3.795 -0.3121  0.1845 -0.2726
 7786TIP3    H123322   2.908   3.378   3.864 -0.3776 -0.8211  0.2382
 7786TIP3    H223323   3.048   3.385   3.806 -0.4701  0.3869  0.1465
 7787TIP3   OH223324   5.489   6.633   1.276  0.2327 -0.0145 -0.7290
 7787TIP3    H123325   5.440   6.714   1.267 -1.5113 -0.9284  0.1286
 7787TIP3    H223326   5.545   6.647   1.352  0.3545  0.5733 -0.9251
 7788TIP3   OH223327   5.169   6.701   0.335 -0.0887  0.3121 -0.3099
 7788TIP3    H123328   5.165   6.742   0.248  0.6390 -0.8723 -0.9198
 7788TIP3    H223329   5.078   6.696   0.363 -0.2408  1.8591 -0.4388
 7789TIP3   OH223330   3.841   6.316   0.905  0.1552  0.1044 -0.3963
 7789TIP3    H123331   3.925   6.362   0.898  0.1429  0.2500  0.3201
 7789TIP3    H223332   3.803   6.348   0.988 -0.7074  0.2089 -0.8211
 7790TIP3   OH223333   2.153   1.054   4.994  0.0122 -0.4010  0.2314
 7790TIP3    H123334   2.246   1.078   4.993 -0.1866  0.6526  2.0621
 7790TIP3    H223335   2.150   0.970   4.948  1.5669  0.4163 -1.5490
 7791TIP3   OH223336   0.615   5.321   3.797  0.3110  0.5768  0.3368
 7791TIP3    H123337   0.609   5.277   3.881 -0.2746  0.9545  0.4939
 7791TIP3    H223338   0.694   5.284   3.757 -0.0786 -0.5131  0.5244
 7792TIP3   OH223339   6.748   0.889   5.832 -0.5609 -0.6955  0.2977
 7792TIP3    H123340   6.666   0.938   5.841  0.6894  1.3412  1.2722
 7792TIP3    H223341   6.791   0.898   5.916  0.9847 -1.1075 -0.4129
 7793TIP3   OH223342   4.334   3.774   2.992 -0.0647  0.1039  0.3051
 7793TIP3    H123343   4.332   3.821   2.909 -1.2299 -0.0769  0.2059
 7793TIP3    H223344   4.309   3.839   3.058  1.3041  0.3607  0.5917
 7794TIP3   OH223345   0.696   0.509   2.422 -1.0885 -0.0403 -0.0527
 7794TIP3    H123346   0.696   0.450   2.347 -0.7668  0.1893 -0.2391
 7794TIP3    H223347   0.678   0.595   2.384  1.5660  0.5202 -0.2543
 7795TIP3   OH223348   5.234   2.716   0.738  0.3616  0.3472  0.0390
 7795TIP3    H123349   5.312   2.764   0.711  0.7354 -1.3875 -2.2410
 7795TIP3    H223350   5.193   2.689   0.656 -2.1326  0.3662  1.1981
 7796TIP3   OH223351   6.069   4.673   2.760 -0.2273  0.0144 -0.0263
 7796TIP3    H123352   6.053   4.620   2.838 -0.8072  0.6736  0.3055
 7796TIP3    H223353   6.145   4.631   2.718  1.0876  0.5550  1.7061
 7797TIP3   OH223354   6.783   5.983   2.563 -0.3175 -0.6554 -0.2788
 7797TIP3    H123355   6.872   5.998   2.594  0.0366 -0.1980 -1.4519
 7797TIP3    H223356   6.757   6.067   2.524 -2.1436 -0.0229  2.0964
 7798TIP3   OH223357   0.563   2.415   0.917 -0.9726 -0.2684 -0.8124
 7798TIP3    H123358   0.612   2.334   0.905  1.3915  1.2192 -1.9368
 7798TIP3    H223359   0.594   2.473   0.848 -2.2615  1.7569  0.1895
 7799TIP3   OH223360   6.932   2.712   0.114 -0.4613  0.3317  0.3931
 7799TIP3    H123361   6.974   2.703   0.200  0.5740 -0.1169 -0.1537
 7799TIP3    H223362   6.872   2.637   0.109 -1.4391  1.0161  1.2023
 7800TIP3   OH223363   6.245   5.753   4.013  0.3052 -0.1429  0.4019
 7800TIP3    H123364   6.292   5.671   4.027  1.1445  0.4028  0.8621
 7800TIP3    H223365   6.153   5.729   4.020  0.5609 -0.8549  1.6802
 7801TIP3   OH223366   6.461   4.040   0.288  0.1377  0.0311  0.1212
 7801TIP3    H123367   6.489   4.122   0.248  2.1524  0.3479  1.9815
 7801TIP3    H223368   6.469   3.975   0.219  1.8038  0.8386 -0.4871
 7802TIP3   OH223369   4.575   1.467   1.075 -0.1388  0.5953  0.7439
 7802TIP3    H123370   4.567   1.562   1.068  0.2762  0.6076  0.3860
 7802TIP3    H223371   4.647   1.454   1.137 -1.2244  0.4999  2.0214
 7803TIP3   OH223372   6.282   5.463   1.442 -0.2139  0.2241 -0.3061
 7803TIP3    H123373   6.213   5.487   1.380 -1.8394  1.8171  1.9476
 7803TIP3    H223374   6.354   5.522   1.423 -0.0447 -0.3649 -1.6314
 7804TIP3   OH223375   2.388   0.539   1.604 -0.1518 -0.4654  0.7878
 7804TIP3    H123376   2.313   0.583   1.644 -0.9508 -0.0803 -0.9977
 7804TIP3    H223377   2.352   0.457   1.570  0.1863 -0.2379 -0.1616
 7805TIP3   OH223378   2.804   3.675   3.302 -0.7741 -0.0098  0.0001
 7805TIP3    H123379   2.778   3.696   3.212 -0.8038  0.0379  0.0194
 7805TIP3    H223380   2.753   3.736   3.356 -0.5704  0.1303  0.0338
 7806TIP3   OH223381   2.260   3.709   5.334  0.3476 -0.0924 -0.5740
 7806TIP3    H123382   2.224   3.637   5.283 -0.1655  0.3920 -0.9120
 7806TIP3    H223383   2.202   3.716   5.410 -0.0635  0.4405 -0.9251
 7807TIP3   OH223384   6.893   1.648   1.858 -0.2067  0.1935  0.6116
 7807TIP3    H123385   6.910   1.570   1.804  1.9312  0.2771  1.0791
 7807TIP3    H223386   6.937   1.719   1.812  1.1694  0.3721  2.0926
 7808TIP3   OH223387   3.590   2.776   5.840  0.4095  0.5894  0.0956
 7808TIP3    H123388   3.565   2.809   5.753  0.5242 -0.7225 -0.4628
 7808TIP3    H223389   3.634   2.850   5.882 -0.6694  1.6149 -0.5075
 7809TIP3   OH223390   1.224   1.575   3.253 -0.3050 -0.3757  0.4213
 7809TIP3    H123391   1.306   1.558   3.206 -1.5806  0.9000 -2.4614
 7809TIP3    H223392   1.243   1.652   3.307  0.6561 -0.7037  0.5809
 7810TIP3   OH223393   4.161   2.341   3.801  0.5014  0.6078  0.2932
 7810TIP3    H123394   4.218   2.281   3.848 -1.2228 -0.9729  0.4934
 7810TIP3    H223395   4.200   2.347   3.713  0.3488 -1.4418  0.0297
 7811TIP3   OH223396   4.764   2.246   5.784  0.1557 -0.1455  0.3271
 7811TIP3    H123397   4.788   2.338   5.778 -2.0730  0.3852 -2.2505
 7811TIP3    H223398   4.672   2.246   5.812 -0.2387 -1.4907 -0.8335
 7812TIP3   OH223399   5.213   6.382   5.334 -0.0926  0.2435  0.5053
 7812TIP3    H123400   5.137   6.413   5.285 -0.2050  0.4638  0.8135
 7812TIP3    H223401   5.275   6.354   5.267 -0.2592  0.5039  0.2377
 7813TIP3   OH223402   7.179   6.289   1.319 -0.7149  0.0174 -0.2654
 7813TIP3    H123403   7.098   6.292   1.369 -0.3891 -0.4984  0.2982
 7813TIP3    H223404   7.183   6.374   1.274 -1.3806  0.1857 -0.0106
 7814TIP3   OH223405   0.331   0.628   0.786 -0.0596  0.5599 -0.1607
 7814TIP3    H123406   0.276   0.605   0.860 -0.4175  2.1269  0.1049
 7814TIP3    H223407   0.416   0.650   0.825  0.3642 -0.5235 -0.4348
 7815TIP3   OH223408   1.913   3.189   4.211 -0.2752  0.2615 -0.1535
 7815TIP3    H123409   1.848   3.257   4.193  0.6544  0.6614 -2.3685
 7815TIP3    H223410   1.951   3.213   4.295 -1.7891  0.9768  0.3643
 7816TIP3   OH223411   6.503   5.333   3.022  0.1487 -0.2062  0.7932
 7816TIP3    H123412   6.435   5.270   3.047 -1.4511  0.6775 -1.0503
 7816TIP3    H223413   6.483   5.412   3.073  0.3070 -0.2258  0.8853
 7817TIP3   OH223414   0.909   0.763   1.034  0.1997  0.7982  0.4369
 7817TIP3    H123415   0.887   0.856   1.034 -0.9671  0.5463  0.3956
 7817TIP3    H223416   0.953   0.749   0.950 -0.7529  1.0854 -0.1325
 7818TIP3   OH223417   5.234  -0.027   1.955 -1.0036 -0.3615  0.5961
 7818TIP3    H123418   5.324  -0.001   1.976 -1.4355 -0.8537  3.4325
 7818TIP3    H223419   5.193   0.054   1.923  0.2737 -0.0253 -0.2974
 7819TIP3   OH223420   2.967   4.727   2.893  0.9159 -0.7780  0.2108
 7819TIP3    H123421   3.007   4.766   2.971  0.1889  0.3285  0.0579
 7819TIP3    H223422   3.041   4.693   2.842  1.6777  1.0059  0.0428
 7820TIP3   OH223423   5.793   4.069   4.636 -0.2878  0.9638 -0.2264
 7820TIP3    H123424   5.747   4.111   4.563 -0.3708  2.5699  0.7027
 7820TIP3    H223425   5.782   4.130   4.709  1.9362  0.6237  0.4585
 7821TIP3   OH223426   6.943   2.782   5.835 -0.4864  0.0618  0.3138
 7821TIP3    H123427   6.867   2.780   5.893 -0.3388 -2.8928  0.6028
 7821TIP3    H223428   6.952   2.873   5.808 -3.5357  0.6709  1.0301
 7822TIP3   OH223429   0.291   5.085   4.532 -0.6212  0.1305 -0.4255
 7822TIP3    H123430   0.253   5.173   4.522 -0.5082  0.2573  0.2449
 7822TIP3    H223431   0.297   5.072   4.626  1.2692  0.2308 -0.5004
 7823TIP3   OH223432   2.870   1.534   3.048  0.6014 -0.3803 -0.0886
 7823TIP3    H123433   2.890   1.517   3.140  2.3544 -0.5661 -0.4714
 7823TIP3    H223434   2.941   1.591   3.019 -1.0078  1.3467 -0.8314
 7824TIP3   OH223435   0.267   4.819   1.727  0.0276 -0.5110  0.2142
 7824TIP3    H123436   0.351   4.792   1.764  0.5038 -0.8639 -1.0760
 7824TIP3    H223437   0.227   4.873   1.795  2.1722  1.3105  0.1304
 7825TIP3   OH223438   5.426   1.677   4.369  0.2240 -0.3448 -0.5928
 7825TIP3    H123439   5.511   1.640   4.392  0.6639  1.0407  0.0896
 7825TIP3    H223440   5.366   1.602   4.371  0.7767 -0.8142  2.2948
 7826TIP3   OH223441   0.687   3.502   3.119 -0.2489 -0.0123  0.2756
 7826TIP3    H123442   0.713   3.496   3.210 -0.1774  1.1625  0.3560
 7826TIP3    H223443   0.689   3.596   3.100  0.4815 -0.2760 -1.1449
 7827TIP3   OH223444   2.978   4.768   2.045  0.0425  0.0356  0.2426
 7827TIP3    H123445   3.073   4.764   2.060  0.0725  1.2560  0.4387
 7827TIP3    H223446   2.953   4.677   2.027  1.0151 -0.5387  1.6402
 7828TIP3   OH223447   0.927   3.533   3.749 -0.1837  0.3218 -0.3776
 7828TIP3    H123448   0.911   3.609   3.694 -1.7858 -0.8996 -1.7269
 7828TIP3    H223449   0.845   3.483   3.745  0.7893 -1.4546  0.4828
 7829TIP3   OH223450   6.075   5.068   3.280 -0.4651 -0.8242  0.1397
 7829TIP3    H123451   6.052   4.977   3.261 -0.7079 -0.7202 -0.0557
 7829TIP3    H223452   5.992   5.115   3.277 -0.2956 -0.5376 -0.0955
 7830TIP3   OH223453   2.734   0.207   0.141 -0.5909 -0.0065 -0.0240
 7830TIP3    H123454   2.759   0.298   0.158  2.6189 -0.7482 -0.1065
 7830TIP3    H223455   2.725   0.168   0.228 -1.8809  0.3304  0.0103
 7831TIP3   OH223456   5.430   3.361   4.985  0.2896 -0.1585 -0.4487
 7831TIP3    H123457   5.393   3.419   4.918  0.4602  0.5318  0.0511
 7831TIP3    H223458   5.428   3.413   5.065  0.7560 -0.7301 -0.0647
 7832TIP3   OH223459   6.562   4.715   1.775 -0.0907  0.2920 -0.3950
 7832TIP3    H123460   6.560   4.676   1.687 -1.0152  0.9011 -0.6535
 7832TIP3    H223461   6.472   4.709   1.806  0.2272  0.1066  0.5106
 7833TIP3   OH223462   6.327   0.926   2.467 -0.4309 -0.5078 -0.1546
 7833TIP3    H123463   6.234   0.946   2.453 -0.0630  1.3469 -0.2120
 7833TIP3    H223464   6.331   0.830   2.464 -2.0556 -0.5968 -2.0416
 7834TIP3   OH223465   6.545   1.519   1.478 -0.1532  0.3158 -0.4300
 7834TIP3    H123466   6.493   1.503   1.399 -0.7613 -1.1491  0.2264
 7834TIP3    H223467   6.483   1.508   1.550  0.6442  0.4975  0.2964
 7835TIP3   OH223468   5.612   1.288   0.478  0.2257 -0.0893  0.1153
 7835TIP3    H123469   5.675   1.356   0.501 -0.7676  0.8891  0.0374
 7835TIP3    H223470   5.587   1.249   0.562  0.4020  0.0133  0.2155
 7836TIP3   OH223471   3.782   4.588   2.678  0.0052  0.1297  0.3856
 7836TIP3    H123472   3.804   4.494   2.681  0.0378  0.1380  0.4005
 7836TIP3    H223473   3.706   4.596   2.736  0.6105  0.2801  1.1802
 7837TIP3   OH223474   6.792   3.831   0.575  0.6652  0.2182  0.4194
 7837TIP3    H123475   6.700   3.831   0.549  0.8609  0.5227 -0.3068
 7837TIP3    H223476   6.840   3.845   0.493  1.2493  2.7350  1.0839
 7838TIP3   OH223477   6.367   2.300   0.570 -0.1372  0.6038  0.1636
 7838TIP3    H123478   6.319   2.382   0.582 -2.8368 -0.6588 -1.1458
 7838TIP3    H223479   6.385   2.270   0.659 -2.6593  0.7185  0.8007
 7839TIP3   OH223480   3.925   4.537   2.942  0.2451  0.4591  0.5515
 7839TIP3    H123481   3.943   4.596   2.869  0.4442  0.5926  0.7087
 7839TIP3    H223482   3.830   4.528   2.943  0.3171 -0.8853 -0.7898
 7840TIP3   OH223483   3.075   6.641   3.444 -0.0665  0.2251  0.4452
 7840TIP3    H123484   3.019   6.615   3.517  0.4494  0.9741  1.1199
 7840TIP3    H223485   3.064   6.571   3.379 -2.3650  0.7033  0.2189
 7841TIP3   OH223486   3.134   0.734   3.388 -0.1843 -0.0373  0.0220
 7841TIP3    H123487   3.075   0.805   3.411 -0.0394  0.4320 -1.0159
 7841TIP3    H223488   3.199   0.734   3.459  0.2882  1.4133 -0.3689
 7842TIP3   OH223489   4.770   2.061   2.180 -0.0790  0.0486 -0.1258
 7842TIP3    H123490   4.829   1.994   2.146 -0.3542 -0.1706 -0.1774
 7842TIP3    H223491   4.811   2.144   2.157  0.4101 -0.1050  0.1969
 7843TIP3   OH223492   6.811   3.179   0.110 -0.6816 -0.2171 -0.2182
 7843TIP3    H123493   6.899   3.194   0.076 -0.4299  1.6872  1.1270
 7843TIP3    H223494   6.753   3.219   0.044 -0.5304 -0.9643 -0.8194
 7844TIP3   OH223495   0.239   5.583   5.280  0.0882  0.4026  0.0051
 7844TIP3    H123496   0.284   5.657   5.320 -1.4161  0.7762  1.1077
 7844TIP3    H223497   0.235   5.604   5.187  1.5620  0.6595 -0.0130
 7845TIP3   OH223498   1.883   0.241   0.088  0.4371  0.0398 -0.4447
 7845TIP3    H123499   1.810   0.181   0.081  1.2836 -1.0168 -0.5404
 7845TIP3    H223500   1.845   0.322   0.121 -0.1831 -1.7524  3.9193
 7846TIP3   OH223501   2.826   2.301   1.485 -0.2319  0.3805 -0.1480
 7846TIP3    H123502   2.810   2.242   1.559 -2.4128  1.9638  0.7461
 7846TIP3    H223503   2.873   2.247   1.421 -3.0608 -2.6954  0.1372
 7847TIP3   OH223504   6.207   6.407   3.820  0.1294  0.0126  0.1101
 7847TIP3    H123505   6.170   6.353   3.750 -1.2282  1.7116 -0.5472
 7847TIP3    H223506   6.204   6.496   3.786 -0.1817  0.8467  2.1747
 7848TIP3   OH223507   1.912   3.058   1.999  0.3298  0.4994  0.1019
 7848TIP3    H123508   1.925   2.968   1.969  0.6069 -0.6971  3.3995
 7848TIP3    H223509   1.818   3.073   1.994 -0.3316 -1.6529  3.4319
 7849TIP3   OH223510   4.098   4.177   0.932  0.3316 -0.3769  0.3221
 7849TIP3    H123511   4.053   4.261   0.941  2.1097  0.5822  0.5141
 7849TIP3    H223512   4.153   4.186   0.854  0.4417 -1.4267  0.2553
 7850TIP3   OH223513   5.010   1.416   2.394  0.5686 -0.0123 -0.2144
 7850TIP3    H123514   4.919   1.416   2.425  0.3761 -0.8545 -0.7546
 7850TIP3    H223515   5.035   1.324   2.396  1.3749  0.2039 -0.1925
 7851TIP3   OH223516   6.101   1.951   1.391 -0.4074 -0.1342  0.3105
 7851TIP3    H123517   6.068   2.041   1.394 -0.7454 -0.2692  0.7999
 7851TIP3    H223518   6.048   1.908   1.325  0.0491  0.1356 -0.2424
 7852TIP3   OH223519   1.613   4.475   1.538 -0.0768  0.4375  0.4187
 7852TIP3    H123520   1.658   4.524   1.607 -0.2932  0.1815  0.7487
 7852TIP3    H223521   1.623   4.528   1.459  0.8473  0.3537  0.4749
 7853TIP3   OH223522   0.991   0.292   4.022 -0.2518  0.5771 -0.0229
 7853TIP3    H123523   0.966   0.298   3.930 -2.5081  1.0793  0.5588
 7853TIP3    H223524   1.020   0.381   4.045 -2.1544  1.1315  0.3590
 7854TIP3   OH223525   5.035   5.694   1.990 -0.5327 -0.7898  0.1676
 7854TIP3    H123526   5.020   5.779   1.948 -2.8009  0.0219  2.3376
 7854TIP3    H223527   5.130   5.687   1.995 -0.2565  0.8457 -1.5369
 7855TIP3   OH223528   3.651   5.660   5.423  0.1989  0.1999 -0.7913
 7855TIP3    H123529   3.577   5.650   5.363 -1.4572  1.3192  0.9294
 7855TIP3    H223530   3.616   5.713   5.495  2.6949  0.7313  0.1267
 7856TIP3   OH223531   7.010   3.278   3.433  0.3930 -0.3835 -0.3744
 7856TIP3    H123532   7.000   3.189   3.468 -0.7478 -0.0841  0.1085
 7856TIP3    H223533   6.992   3.335   3.508 -0.7370  0.2543 -1.1026
 7857TIP3   OH223534   0.669   4.366   1.173 -0.2826 -0.0243  0.3936
 7857TIP3    H123535   0.667   4.406   1.260  1.2665  1.6434 -0.2661
 7857TIP3    H223536   0.762   4.346   1.158 -0.6029 -0.7980 -0.6553
 7858TIP3   OH223537   3.668   3.620   3.890  0.1260  0.4571  0.0637
 7858TIP3    H123538   3.588   3.606   3.840 -0.4575  1.3242  0.7113
 7858TIP3    H223539   3.638   3.633   3.980  0.7289  3.2027 -0.0364
 7859TIP3   OH223540   2.806   5.913   0.940 -0.2993 -0.0231 -0.0362
 7859TIP3    H123541   2.758   5.919   1.022 -0.3338 -0.7077  0.0033
 7859TIP3    H223542   2.757   5.967   0.879  0.3408  1.3994  0.6668
 7860TIP3   OH223543   2.538   6.619   0.335  0.0462  0.6307 -0.5789
 7860TIP3    H123544   2.630   6.594   0.345 -0.3718 -0.7121  0.2486
 7860TIP3    H223545   2.498   6.544   0.291 -1.0763  0.1592  1.1263
 7861TIP3   OH223546   2.928   0.917   2.056  0.2134 -0.1679 -0.0304
 7861TIP3    H123547   2.835   0.933   2.072  0.2716 -0.7669  1.0187
 7861TIP3    H223548   2.971   0.997   2.084  0.0218  0.0789 -0.4358
 7862TIP3   OH223549   2.719   5.599   2.970 -0.0261  0.6435  0.3026
 7862TIP3    H123550   2.626   5.577   2.981 -1.0719  3.0401 -2.3907
 7862TIP3    H223551   2.726   5.689   3.003  0.4972  1.6698 -2.3230
 7863TIP3   OH223552   5.047   4.164   0.468  0.1921  0.6894 -0.1635
 7863TIP3    H123553   5.120   4.139   0.524 -1.4288 -1.7646  1.0592
 7863TIP3    H223554   4.985   4.091   0.476 -3.5240  3.6308  0.9084
 7864TIP3   OH223555   6.506   0.970   4.362 -0.4687  0.0024  0.0745
 7864TIP3    H123556   6.546   1.044   4.318 -1.1409  0.8864  0.9155
 7864TIP3    H223557   6.478   0.912   4.291 -1.0269  1.1314 -0.6410
 7865TIP3   OH223558   2.133   6.599   0.805  1.0022  0.2414  0.1038
 7865TIP3    H123559   2.052   6.624   0.849  0.9167  1.8376 -0.8656
 7865TIP3    H223560   2.172   6.683   0.778  3.3147 -0.4383  1.0963
 7866TIP3   OH223561   6.812   4.519   0.981 -0.0342  0.7241 -0.2157
 7866TIP3    H123562   6.772   4.599   1.014 -0.3615  1.3933 -2.0788
 7866TIP3    H223563   6.903   4.523   1.011 -0.1532  1.5853  0.0408
 7867TIP3   OH223564   6.845   3.547   4.390 -0.2986 -0.0853  0.3808
 7867TIP3    H123565   6.767   3.582   4.434  0.5287  0.6156  1.3395
 7867TIP3    H223566   6.824   3.455   4.372 -1.4425  0.1625  0.3575
 7868TIP3   OH223567   6.602   0.838   0.856 -0.4998  0.6498 -0.0742
 7868TIP3    H123568   6.617   0.931   0.838  2.0354 -0.1789 -3.2265
 7868TIP3    H223569   6.507   0.828   0.852 -0.7136  2.6657 -2.8187
 7869TIP3   OH223570   5.854   6.742   0.137  0.5736 -0.1113 -0.1843
 7869TIP3    H123571   5.850   6.710   0.227 -1.9760  0.5713  0.0240
 7869TIP3    H223572   5.853   6.662   0.084  0.8925 -0.5041  0.3838
 7870TIP3   OH223573   4.389   6.333   0.174 -0.4487  0.1761  0.4652
 7870TIP3    H123574   4.319   6.372   0.226  2.1189  2.6036  2.4771
 7870TIP3    H223575   4.448   6.294   0.239  2.6943  2.9593 -0.4012
 7871TIP3   OH223576   4.187   2.821   2.827  0.3309 -0.2624 -0.1757
 7871TIP3    H123577   4.228   2.760   2.765 -0.4699  0.6416 -1.6458
 7871TIP3    H223578   4.210   2.908   2.793  1.9610  0.3450  2.2104
 7872TIP3   OH223579   6.820   2.175   0.919 -0.4982  0.3034  0.9284
 7872TIP3    H123580   6.785   2.250   0.967 -1.6800  0.3637  0.0246
 7872TIP3    H223581   6.906   2.204   0.888 -0.9866  1.3363  0.4938
 7873TIP3   OH223582   5.725   1.626   2.635  0.8016  0.7811 -0.2257
 7873TIP3    H123583   5.722   1.594   2.725  2.0189  0.1393 -0.3965
 7873TIP3    H223584   5.690   1.715   2.640  2.4511  1.4119  1.1986
 7874TIP3   OH223585   3.206   1.491   3.989  0.1419 -0.0400 -0.2437
 7874TIP3    H123586   3.155   1.419   3.952  0.8799 -0.4221 -0.5482
 7874TIP3    H223587   3.143   1.541   4.041 -0.2177 -1.3979  0.6997
 7875TIP3   OH223588   2.422   6.098   4.015  0.2460  0.7125  0.3285
 7875TIP3    H123589   2.406   6.141   4.099 -0.4873  0.8703  0.1205
 7875TIP3    H223590   2.516   6.081   4.013  0.4912  1.9712  0.5731
 7876TIP3   OH223591   7.047   0.301   0.803  0.5563  0.4767 -0.4857
 7876TIP3    H123592   6.962   0.286   0.846 -0.2785  1.4086 -1.7564
 7876TIP3    H223593   7.071   0.390   0.829  1.5474 -0.0411  0.4740
 7877TIP3   OH223594   0.440   5.276   0.615 -0.0368  0.0408 -0.0260
 7877TIP3    H123595   0.360   5.313   0.654 -1.2236 -1.7857 -0.6022
 7877TIP3    H223596   0.409   5.231   0.536  1.8049  0.5382 -1.0928
 7878TIP3   OH223597   0.545   2.444   5.350 -0.2375 -0.6521  0.3850
 7878TIP3    H123598   0.630   2.449   5.307  0.1909 -1.7781  1.0585
 7878TIP3    H223599   0.485   2.415   5.282  0.2744 -1.6144  0.3311
 7879TIP3   OH223600   4.547   3.405   4.708  0.2003 -0.2229 -0.1787
 7879TIP3    H123601   4.465   3.449   4.687  0.1036 -0.4640 -0.3143
 7879TIP3    H223602   4.528   3.312   4.697  0.2733 -0.3261  0.5495
 7880TIP3   OH223603   4.091   5.769   3.690 -0.2239 -0.1695  0.0981
 7880TIP3    H123604   4.176   5.786   3.731 -0.1463  1.2882 -0.5754
 7880TIP3    H223605   4.033   5.746   3.762  0.7768 -1.3934  0.5469
 7881TIP3   OH223606   5.838   3.343   0.869  0.2618 -1.1160  0.3554
 7881TIP3    H123607   5.744   3.359   0.861  0.2644 -0.9693  0.5879
 7881TIP3    H223608   5.849   3.250   0.851  0.4221 -0.6374 -2.4751
 7882TIP3   OH223609   4.510   6.324   1.366  0.2327 -0.0943 -0.2838
 7882TIP3    H123610   4.555   6.255   1.317  0.7005 -0.3511  0.5012
 7882TIP3    H223611   4.550   6.323   1.453 -0.6218  0.3297  0.1276
 7883TIP3   OH223612   0.668   5.426   3.051  0.1680  0.1093 -0.3877
 7883TIP3    H123613   0.714   5.504   3.022  1.3652 -0.4399 -0.0426
 7883TIP3    H223614   0.606   5.458   3.117  0.2387  0.8316 -0.6636
 7884TIP3   OH223615   3.703   4.045   5.621  0.1086  0.2646 -0.4006
 7884TIP3    H123616   3.627   4.041   5.679  0.0611 -1.1765 -0.5317
 7884TIP3    H223617   3.692   3.971   5.561  1.5200  0.1344 -0.5416
 7885TIP3   OH223618   2.136   0.769   0.973  0.2483 -0.0490  0.0665
 7885TIP3    H123619   2.166   0.845   0.922 -0.9588  0.7680  0.5125
 7885TIP3    H223620   2.211   0.746   1.028  0.3107  1.5237  0.6991
 7886TIP3   OH223621   3.820   2.635   4.669  0.4914 -0.0322  0.2229
 7886TIP3    H123622   3.895   2.577   4.659 -0.8641 -1.8486  0.0552
 7886TIP3    H223623   3.851   2.721   4.639  2.1649 -0.9610 -0.8339
 7887TIP3   OH223624   5.527   3.251   1.790 -0.0800 -0.7013  0.1904
 7887TIP3    H123625   5.511   3.345   1.793 -0.3431 -0.5743 -2.6547
 7887TIP3    H223626   5.622   3.243   1.790 -0.0088 -0.2552 -1.5764
 7888TIP3   OH223627   5.939   2.391   0.078  0.1449  0.5671  0.5210
 7888TIP3    H123628   5.919   2.338   0.000 -1.3916 -0.4020  1.5256
 7888TIP3    H223629   5.977   2.328   0.139  0.4725  1.1290  0.8920
 7889TIP3   OH223630   6.438   4.965   5.838 -0.1166 -0.2253  0.2886
 7889TIP3    H123631   6.531   4.955   5.819 -0.4586 -1.3126 -0.9580
 7889TIP3    H223632   6.405   5.021   5.767 -0.7821 -1.5630 -0.4921
 7890TIP3   OH223633   3.716   4.132   5.151 -0.7268  0.3245 -0.0864
 7890TIP3    H123634   3.690   4.085   5.072 -1.0882 -1.5658  1.1055
 7890TIP3    H223635   3.808   4.154   5.137 -0.4392 -1.1114 -0.5112
 7891TIP3   OH223636   5.555   5.971   2.532  0.5613 -0.2925  0.0103
 7891TIP3    H123637   5.610   5.904   2.491  0.0168 -2.1046  2.0580
 7891TIP3    H223638   5.472   5.926   2.549 -0.0885  1.1399  0.7860
 7892TIP3   OH223639   3.766   5.729   1.769 -0.1521  0.3281  0.3186
 7892TIP3    H123640   3.725   5.682   1.696 -1.0657 -0.8133  1.5147
 7892TIP3    H223641   3.723   5.814   1.770 -1.6372 -0.3914  0.7529
 7893TIP3   OH223642   2.292   1.104   1.774  0.1841  0.0760  0.3861
 7893TIP3    H123643   2.217   1.063   1.731  1.0164  0.0916 -1.1209
 7893TIP3    H223644   2.253   1.154   1.846 -1.0795 -1.3271  0.7376
 7894TIP3   OH223645   4.868   4.564   2.763 -0.4497  0.8000  0.6231
 7894TIP3    H123646   4.786   4.580   2.808 -0.9722  1.0652 -0.3845
 7894TIP3    H223647   4.936   4.594   2.824 -1.1311  1.2771  1.1574
 7895TIP3   OH223648   2.265   2.995   3.848  0.1129  0.3229 -0.4593
 7895TIP3    H123649   2.184   2.987   3.898  1.7821  1.3691  2.6801
 7895TIP3    H223650   2.310   2.911   3.861 -0.3392 -0.1893 -2.0372
 7896TIP3   OH223651   6.477   3.879   5.655 -0.4169 -0.4137  0.0153
 7896TIP3    H123652   6.562   3.835   5.660 -0.2386 -0.1146 -0.3304
 7896TIP3    H223653   6.498   3.967   5.625 -0.9356 -0.6120 -0.9773
 7897TIP3   OH223654   2.795   2.174   2.965  0.2716  0.2672 -0.5745
 7897TIP3    H123655   2.720   2.115   2.974  1.2079 -0.9405 -0.4657
 7897TIP3    H223656   2.785   2.237   3.036 -0.3836 -0.1670 -0.2768
 7898TIP3   OH223657   1.677   2.897   0.770 -0.1204  0.0304  0.3192
 7898TIP3    H123658   1.755   2.844   0.786 -1.0670 -1.0873  1.4455
 7898TIP3    H223659   1.621   2.882   0.847 -1.6036  0.4897 -0.6225
 7899TIP3   OH223660   2.586   6.254   2.557  1.0391 -0.0109 -0.2673
 7899TIP3    H123661   2.657   6.191   2.569 -0.4597 -1.8564 -0.6725
 7899TIP3    H223662   2.524   6.234   2.627  0.2578  0.6405 -0.7539
 7900TIP3   OH223663   1.882   5.559   3.284 -0.2291  0.2416  0.0698
 7900TIP3    H123664   1.826   5.605   3.347 -1.9492  1.0666 -1.9455
 7900TIP3    H223665   1.824   5.538   3.211  1.6881 -0.6384 -1.2812
 7901TIP3   OH223666   5.665   1.475   4.414  0.0832  0.9383 -0.2294
 7901TIP3    H123667   5.636   1.435   4.332  3.8723 -0.7638 -0.9862
 7901TIP3    H223668   5.693   1.563   4.390 -3.1695  2.2523  0.3361
 7902TIP3   OH223669   3.584   3.764   4.327  0.0991  0.4031  0.4936
 7902TIP3    H123670   3.604   3.848   4.286  0.0629  0.4670  0.6069
 7902TIP3    H223671   3.670   3.726   4.347  0.1440  1.7047  3.1026
 7903TIP3   OH223672   0.210   0.053   3.894 -0.1592  0.5013  0.4842
 7903TIP3    H123673   0.263   0.119   3.939 -0.0450  1.8046 -1.4562
 7903TIP3    H223674   0.222   0.071   3.801 -0.3102 -2.1444 -0.1458
 7904TIP3   OH223675   3.655   4.835   0.226 -0.4837 -0.1395 -0.1926
 7904TIP3    H123676   3.713   4.827   0.150 -1.5328 -0.0099 -1.0383
 7904TIP3    H223677   3.697   4.783   0.294 -0.3529 -1.6729 -1.3879
 7905TIP3   OH223678   3.517   4.909   0.506  0.8688  0.1625  0.1167
 7905TIP3    H123679   3.582   4.923   0.438  0.4338  0.6291 -0.2068
 7905TIP3    H223680   3.500   4.815   0.504  0.3635  0.2562 -0.8910
 7906TIP3   OH223681   1.954   3.845   2.689 -0.1224 -0.4535 -0.3786
 7906TIP3    H123682   1.865   3.875   2.706  0.3554  0.1915  1.1787
 7906TIP3    H223683   2.003   3.924   2.668  0.3472 -0.6359  0.0070
 7907TIP3   OH223684   4.777   6.473   4.102  0.6238 -0.3725  0.3591
 7907TIP3    H123685   4.771   6.546   4.041  0.7592 -0.3421  0.3837
 7907TIP3    H223686   4.691   6.471   4.145  0.7328 -0.0237  0.5923
 7908TIP3   OH223687   5.684   0.409   0.625 -0.7482  0.2644 -0.7040
 7908TIP3    H123688   5.756   0.469   0.605 -0.1240 -0.0458  0.4770
 7908TIP3    H223689   5.605   0.456   0.599 -0.1864  1.0590 -1.0145
 7909TIP3   OH223690   0.997   2.778   1.766 -0.2119 -0.4898  0.8719
 7909TIP3    H123691   0.912   2.792   1.807  0.4498  0.6225  1.9212
 7909TIP3    H223692   1.060   2.819   1.825  1.1566 -1.9253  0.5011
 7910TIP3   OH223693   5.504   3.478   1.545 -0.4248 -0.1615  0.2472
 7910TIP3    H123694   5.410   3.474   1.528 -0.4412  3.6456 -1.4898
 7910TIP3    H223695   5.510   3.490   1.640 -1.5938 -1.2696  0.4884
 7911TIP3   OH223696   3.511   4.744   2.557 -0.1858  0.3927 -0.1603
 7911TIP3    H123697   3.549   4.830   2.543 -1.5478  0.6914 -2.6781
 7911TIP3    H223698   3.424   4.761   2.594 -0.5399  0.1244 -0.8538
 7912TIP3   OH223699   1.733   1.083   2.673 -0.6854  0.2523 -0.1788
 7912TIP3    H123700   1.822   1.092   2.640  0.4117  0.3480  2.5381
 7912TIP3    H223701   1.736   1.008   2.732 -1.2796  2.5403  3.0478
 7913TIP3   OH223702   3.379   0.800   5.262  0.0249  0.0083 -0.2066
 7913TIP3    H123703   3.414   0.782   5.175  0.8075 -1.3916  0.3614
 7913TIP3    H223704   3.291   0.763   5.261  0.7379 -1.8205  0.1720
 7914TIP3   OH223705   5.727   3.177   4.336  0.2718 -0.3671 -0.6442
 7914TIP3    H123706   5.801   3.118   4.347  1.0843  0.2181 -2.5240
 7914TIP3    H223707   5.712   3.179   4.241 -1.2587  0.6131 -0.4207
 7915TIP3   OH223708   0.760   2.813   1.888 -0.4142 -0.6287  0.6855
 7915TIP3    H123709   0.762   2.907   1.869 -1.6222 -0.5780  0.7101
 7915TIP3    H223710   0.672   2.798   1.923  0.1108 -1.5915  1.6344
 7916TIP3   OH223711   6.509   0.176   0.890  0.0955  0.3338 -0.1951
 7916TIP3    H123712   6.435   0.115   0.888 -0.3325  0.7673  1.1659
 7916TIP3    H223713   6.570   0.142   0.824 -1.0172 -0.4000 -0.8895
 7917TIP3   OH223714   4.228   3.532   0.928 -0.2331  0.1632  0.6065
 7917TIP3    H123715   4.150   3.588   0.929 -0.5400 -0.2468  0.1123
 7917TIP3    H223716   4.258   3.532   1.019 -0.0662  1.3422  0.5647
 7918TIP3   OH223717   3.692   3.055   4.668 -0.0005 -0.2068 -0.0930
 7918TIP3    H123718   3.647   3.136   4.695 -2.1656 -0.8801 -1.5144
 7918TIP3    H223719   3.768   3.086   4.619 -0.2657  0.9590  0.1886
 7919TIP3   OH223720   0.411   2.530   3.527  0.0226  0.0018 -0.0202
 7919TIP3    H123721   0.326   2.529   3.483  0.3160 -2.1665 -0.6718
 7919TIP3    H223722   0.391   2.547   3.619 -1.0333  0.3084 -0.2959
 7920TIP3   OH223723   5.721   4.254   1.060 -0.4357 -0.0478  0.0055
 7920TIP3    H123724   5.689   4.168   1.032 -1.6816  0.1535  0.7330
 7920TIP3    H223725   5.757   4.239   1.148 -0.2852  0.0969 -0.0303
 7921TIP3   OH223726   1.697   1.974   2.158  0.1360 -0.8010 -0.1449
 7921TIP3    H123727   1.789   1.967   2.180  0.0151  0.4298  0.9003
 7921TIP3    H223728   1.667   2.052   2.204 -1.7441 -1.9109  0.6706
 7922TIP3   OH223729   5.324   6.537   2.252 -0.3899 -0.1047 -0.1740
 7922TIP3    H123730   5.403   6.495   2.284  0.0590  0.3233 -0.7143
 7922TIP3    H223731   5.354   6.603   2.190 -0.9345  2.3236  1.9910
 7923TIP3   OH223732   6.049   3.187   0.152  0.3146  0.3933  0.0075
 7923TIP3    H123733   6.142   3.184   0.177  0.6175 -1.6755 -1.1419
 7923TIP3    H223734   6.004   3.135   0.219  0.3368 -0.4819 -0.6373
 7924TIP3   OH223735   0.574   6.355   2.892 -0.2634  0.5579 -0.2676
 7924TIP3    H123736   0.552   6.351   2.799 -0.3281  3.0923 -0.4200
 7924TIP3    H223737   0.642   6.423   2.898  0.7673 -0.5498  1.3842
 7925TIP3   OH223738   5.063   1.020   2.788  0.5639 -0.2052 -0.8499
 7925TIP3    H123739   5.062   0.932   2.827  1.4146 -0.7677 -2.0390
 7925TIP3    H223740   4.971   1.045   2.783  0.3882 -0.2825  1.0863
 7926TIP3   OH223741   0.209   3.035   1.027  0.1918  0.0352 -0.0323
 7926TIP3    H123742   0.135   2.982   0.995 -0.2139  0.1510  0.6857
 7926TIP3    H223743   0.271   2.972   1.062  0.0814 -0.0160  0.0707
 7927TIP3   OH223744   1.939   3.941   1.268 -0.1350 -0.0626  0.0447
 7927TIP3    H123745   1.895   3.946   1.353 -1.0747  0.2986 -0.4437
 7927TIP3    H223746   1.981   4.027   1.258 -0.6686  0.1796 -0.1799
 7928TIP3   OH223747   1.680   4.916   4.403  0.2285  0.1566 -0.0891
 7928TIP3    H123748   1.662   4.894   4.495 -0.5476  2.1553  0.2841
 7928TIP3    H223749   1.684   4.831   4.359  0.0875 -0.8327  1.6868
 7929TIP3   OH223750   5.338   4.942   2.791 -0.3373 -0.1356  0.2800
 7929TIP3    H123751   5.376   4.879   2.852  1.0059 -0.3711 -0.7662
 7929TIP3    H223752   5.244   4.938   2.809 -0.2352 -2.0426  0.6107
 7930TIP3   OH223753   4.483   5.048   2.962  0.0975  0.1566  0.4541
 7930TIP3    H123754   4.447   5.135   2.981  0.8029  0.3766  0.8611
 7930TIP3    H223755   4.468   5.036   2.868  1.5283  1.4913  0.0040
 7931TIP3   OH223756   0.403   0.928   5.727 -0.0063  0.0267  0.0991
 7931TIP3    H123757   0.320   0.917   5.775 -0.3319 -2.1352 -0.8701
 7931TIP3    H223758   0.465   0.870   5.772  0.9812  1.4745  0.6861
 7932TIP3   OH223759   6.170   4.146   3.095  0.0535  0.5705 -0.4312
 7932TIP3    H123760   6.163   4.118   3.004 -1.4807 -1.9742  0.3807
 7932TIP3    H223761   6.195   4.068   3.143  0.8502  1.8624  1.3639
 7933TIP3   OH223762   2.952   3.523   1.651  0.1675 -0.6213  0.0198
 7933TIP3    H123763   2.982   3.612   1.673 -1.4188 -0.0580  0.0397
 7933TIP3    H223764   2.972   3.514   1.558  0.1613 -0.1668 -0.0287
 7934TIP3   OH223765   4.830   5.789   3.580 -0.6167 -0.2034  0.1933
 7934TIP3    H123766   4.908   5.739   3.556 -1.5510 -1.3071 -0.6728
 7934TIP3    H223767   4.838   5.871   3.531  0.9486  0.5992  1.6541
 7935TIP3   OH223768   3.648   2.138   2.002 -0.5694  0.4224  0.6698
 7935TIP3    H123769   3.639   2.057   2.052  1.2454 -0.0361  0.3274
 7935TIP3    H223770   3.722   2.184   2.042 -0.9188  1.4308  0.2130
 7936TIP3   OH223771   4.068   0.938   4.659 -0.0527 -0.2838 -0.0923
 7936TIP3    H123772   4.011   0.917   4.585 -1.9619 -1.9643  1.7381
 7936TIP3    H223773   4.010   0.974   4.726  1.3098 -0.4469  1.2406
 7937TIP3   OH223774   0.726   1.054   4.025 -0.2544  1.0582  0.2813
 7937TIP3    H123775   0.634   1.060   3.997 -0.5035 -1.0903  0.4797
 7937TIP3    H223776   0.767   1.132   3.989 -1.6712  0.9250 -1.7766
 7938TIP3   OH223777   0.526   0.058   2.212  0.0844  0.0010 -0.1239
 7938TIP3    H123778   0.621   0.065   2.205  0.1106 -1.2422 -1.6737
 7938TIP3    H223779   0.507   0.073   2.304  1.8841 -0.7589  0.4156
 7939TIP3   OH223780   4.357   3.785   5.005 -0.1021 -0.7339 -0.1249
 7939TIP3    H123781   4.406   3.737   4.939  0.0802 -0.6138 -0.0772
 7939TIP3    H223782   4.421   3.806   5.073  0.7208  2.6316 -1.7112
 7940TIP3   OH223783   6.844   6.574   1.176 -0.4157  0.5583  0.7260
 7940TIP3    H123784   6.749   6.583   1.179 -0.6459 -1.2728  0.0254
 7940TIP3    H223785   6.873   6.638   1.111 -1.5108 -0.9430 -1.3114
 7941TIP3   OH223786   0.218   3.972   0.374 -0.0183 -0.2903  0.2313
 7941TIP3    H123787   0.259   4.014   0.449 -0.9347 -1.5610  1.4821
 7941TIP3    H223788   0.205   4.043   0.311 -0.2623  1.0212  1.7036
 7942TIP3   OH223789   4.111   0.925   1.626  0.1082 -0.2325  0.1067
 7942TIP3    H123790   4.205   0.907   1.616  0.1535 -1.3928  2.1583
 7942TIP3    H223791   4.101   0.948   1.718 -1.7578 -0.9783  0.1293
 7943TIP3   OH223792   0.471   1.856   1.307 -0.3340  0.2506 -0.0802
 7943TIP3    H123793   0.513   1.828   1.226 -0.6230 -0.4599  0.0118
 7943TIP3    H223794   0.385   1.814   1.306 -0.8844  1.3343 -0.0550
 7944TIP3   OH223795   3.932   3.440   2.237 -0.1606 -0.4753  0.0502
 7944TIP3    H123796   3.923   3.391   2.318 -0.2819 -1.1392 -0.3559
 7944TIP3    H223797   3.877   3.393   2.174  0.7234 -0.5665 -0.6787
 7945TIP3   OH223798   4.295   5.693   5.320  0.1517  0.3619  0.1999
 7945TIP3    H123799   4.365   5.755   5.303 -0.0315  0.1941 -1.3415
 7945TIP3    H223800   4.278   5.700   5.414  1.3158  1.3570  0.3559
 7946TIP3   OH223801   0.510   2.123   1.999  0.0698  0.2154  0.2424
 7946TIP3    H123802   0.432   2.089   2.043 -1.3047  1.1627 -1.3488
 7946TIP3    H223803   0.530   2.205   2.044  1.9952 -1.3761  2.5582
 7947TIP3   OH223804   0.917   0.139   5.062  0.3319  0.0970 -0.0990
 7947TIP3    H123805   0.836   0.181   5.090  0.1104 -0.7824  0.5991
 7947TIP3    H223806   0.982   0.209   5.067 -0.1334  0.4926  0.5545
 7948TIP3   OH223807   4.490   0.251   2.565  0.1240 -0.1215 -0.4368
 7948TIP3    H123808   4.508   0.336   2.606 -0.4112 -0.1383 -0.1493
 7948TIP3    H223809   4.529   0.187   2.624 -1.3690 -0.1956  0.5145
 7949TIP3   OH223810   6.055   5.480   5.626 -0.8066  0.0758 -0.2518
 7949TIP3    H123811   6.065   5.389   5.653 -0.4285 -0.0065 -0.6680
 7949TIP3    H223812   6.137   5.522   5.651 -0.2850 -0.0879 -1.5969
 7950TIP3   OH223813   1.457   1.453   3.449 -0.2532 -0.0033  0.1007
 7950TIP3    H123814   1.527   1.427   3.388  1.0341  0.8353  1.1712
 7950TIP3    H223815   1.503   1.489   3.524 -1.8686  0.8949  0.7023
 7951TIP3   OH223816   2.861   1.143   5.110 -0.1967  0.5938 -0.0125
 7951TIP3    H123817   2.881   1.079   5.178 -1.1008 -0.2698 -0.5394
 7951TIP3    H223818   2.777   1.181   5.136  0.2117  1.4013  0.1654
 7952TIP3   OH223819   7.035   2.517   0.910 -0.0075  0.4758 -0.0983
 7952TIP3    H123820   7.118   2.565   0.913  0.1492  0.1442  1.3203
 7952TIP3    H223821   6.989   2.544   0.989 -0.3196 -1.0013  0.2547
 7953TIP3   OH223822   5.343   1.273   3.851 -0.6382 -0.2338  0.2006
 7953TIP3    H123823   5.404   1.344   3.869 -0.2591 -0.3482 -0.5880
 7953TIP3    H223824   5.386   1.220   3.784 -1.1648 -0.8854  0.3565
 7954TIP3   OH223825   4.945   5.337   0.916 -0.2867 -0.1252  0.1033
 7954TIP3    H123826   4.948   5.244   0.936  0.3224  0.0364  0.8192
 7954TIP3    H223827   4.855   5.363   0.934 -0.2483 -0.4092  0.7094
 7955TIP3   OH223828   6.268   5.658   2.955 -0.7438  0.8611 -0.2725
 7955TIP3    H123829   6.299   5.678   2.867 -1.9105  2.0813 -0.4498
 7955TIP3    H223830   6.226   5.573   2.948  1.9383 -0.5663 -0.1459
 7956TIP3   OH223831   5.967   1.178   3.550  0.2543  0.0745 -0.2192
 7956TIP3    H123832   6.027   1.194   3.623  0.3486  0.9031 -0.4757
 7956TIP3    H223833   5.968   1.082   3.540  2.0790  0.0914 -0.6733
 7957TIP3   OH223834   3.238   3.820   0.611  0.0183 -0.0185 -0.3682
 7957TIP3    H123835   3.239   3.753   0.543  1.1087  0.3202 -0.7177
 7957TIP3    H223836   3.297   3.787   0.678 -1.0291 -0.3331  0.4178
 7958TIP3   OH223837   4.618   3.940   5.453  0.4948  0.0453 -0.0425
 7958TIP3    H123838   4.567   3.967   5.376  1.1902 -1.9012 -1.2405
 7958TIP3    H223839   4.553   3.936   5.524 -0.8292 -1.1742 -1.2496
 7959TIP3   OH223840   5.217   0.710   1.932 -0.2699  0.5798  0.6251
 7959TIP3    H123841   5.130   0.670   1.924 -0.6828  1.6409 -0.6267
 7959TIP3    H223842   5.226   0.729   2.025 -0.6228 -1.1420  1.0420
 7960TIP3   OH223843   0.874  -0.011   3.876  0.4514  0.4996  0.7885
 7960TIP3    H123844   0.844   0.080   3.875  2.4374  1.2753 -2.4970
 7960TIP3    H223845   0.970  -0.005   3.879  0.6599 -1.4140 -0.3198
 7961TIP3   OH223846   7.143   6.552   4.397 -0.1040  0.3366 -0.1381
 7961TIP3    H123847   7.221   6.497   4.401 -0.5796 -0.3583 -0.1904
 7961TIP3    H223848   7.093   6.528   4.476 -1.1522 -0.6159 -1.0496
 7962TIP3   OH223849   1.475   6.009   5.382  0.2106  0.7305  0.2859
 7962TIP3    H123850   1.464   5.950   5.307  1.5269 -0.8151  1.2323
 7962TIP3    H223851   1.510   5.953   5.451  0.9270  2.5216  1.4440
 7963TIP3   OH223852   2.309   1.092   1.213  0.1272  0.1165 -0.5430
 7963TIP3    H123853   2.279   1.168   1.262 -1.5965 -0.7983 -0.1142
 7963TIP3    H223854   2.269   1.102   1.127 -0.8211 -0.7135 -0.2165
 7964TIP3   OH223855   5.709   4.237   3.207 -0.4964 -0.3767  0.3312
 7964TIP3    H123856   5.735   4.222   3.116  0.8083 -1.4418  0.8444
 7964TIP3    H223857   5.614   4.230   3.206 -0.4017 -2.8845 -0.5826
 7965TIP3   OH223858   6.242   4.327   0.024 -0.4101 -0.3714  0.0448
 7965TIP3    H123859   6.190   4.261   0.067 -0.7066  0.2654  0.6749
 7965TIP3    H223860   6.184   4.365  -0.042 -0.0157 -1.2142 -0.8291
 7966TIP3   OH223861   1.269   0.108   3.218 -0.5527 -0.1606  0.1507
 7966TIP3    H123862   1.358   0.095   3.187 -0.9416 -0.4938 -0.8850
 7966TIP3    H223863   1.219   0.036   3.178 -1.3277  0.1619  0.5061
 7967TIP3   OH223864   1.778   3.773   2.954 -0.6089  0.0663 -0.0517
 7967TIP3    H123865   1.865   3.805   2.977 -0.8616  0.2916  0.6149
 7967TIP3    H223866   1.724   3.794   3.030 -1.1795 -0.3400 -0.3385
 7968TIP3   OH223867   0.250   2.312   5.744  0.0432  0.5071 -0.2693
 7968TIP3    H123868   0.321   2.255   5.715  0.1220 -0.1826  1.2061
 7968TIP3    H223869   0.265   2.395   5.698  2.2510  0.6303  0.5772
 7969TIP3   OH223870   6.410   1.410   0.694  0.4553  0.5728  0.5773
 7969TIP3    H123871   6.331   1.360   0.713  1.7542 -1.8775 -0.0632
 7969TIP3    H223872   6.378   1.487   0.645 -1.5272 -0.2465  0.4772
 7970TIP3   OH223873   2.890   0.119   1.234 -0.0769 -0.5361 -0.5192
 7970TIP3    H123874   2.932   0.203   1.217 -0.8603 -0.3167 -1.4536
 7970TIP3    H223875   2.949   0.075   1.295  0.6498  0.4402 -0.4922
 7971TIP3   OH223876   0.124   1.162   4.888 -0.2100 -0.3350  1.0362
 7971TIP3    H123877   0.066   1.238   4.899  0.5721  0.1164  2.3142
 7971TIP3    H223878   0.105   1.130   4.801  0.6171  2.3516 -0.2492
 7972TIP3   OH223879   3.429   1.687   5.485  0.2686  0.4498  0.3605
 7972TIP3    H123880   3.461   1.718   5.400  1.5082  1.9638  1.3373
 7972TIP3    H223881   3.419   1.766   5.538  0.3439 -0.5325  1.8991
 7973TIP3   OH223882   4.481   1.865   0.235 -0.2133 -0.3175 -0.2518
 7973TIP3    H123883   4.402   1.817   0.212  0.7180 -2.1786  0.2131
 7973TIP3    H223884   4.513   1.901   0.152 -0.3176 -1.5415 -0.8514
 7974TIP3   OH223885   0.995   3.799   5.645 -0.2533 -0.3339 -0.3240
 7974TIP3    H123886   0.985   3.803   5.740  0.9594  1.3499 -0.2106
 7974TIP3    H223887   1.074   3.747   5.632 -0.0511 -0.0218 -0.3620
 7975TIP3   OH223888   3.401   4.513   3.837 -0.2643  0.3583  0.1009
 7975TIP3    H123889   3.406   4.543   3.747  0.8975 -0.1147 -0.0174
 7975TIP3    H223890   3.340   4.573   3.880 -0.4457  0.8836 -0.8746
 7976TIP3   OH223891   5.733   2.943   3.549  0.6242  0.0893  0.0588
 7976TIP3    H123892   5.653   2.924   3.499 -0.2096 -0.4896  1.5592
 7976TIP3    H223893   5.717   3.029   3.587  1.5148  0.8045 -1.1107
 7977TIP3   OH223894   4.824   2.919   2.518  0.4129  0.4065 -0.3312
 7977TIP3    H123895   4.733   2.895   2.500  0.5427 -1.6965  1.4020
 7977TIP3    H223896   4.825   2.938   2.612  1.6809  0.8624 -0.4197
 7978TIP3   OH223897   0.584   2.792   0.447 -0.4213 -0.6312 -0.3130
 7978TIP3    H123898   0.547   2.864   0.396 -0.8106 -2.0503 -2.0958
 7978TIP3    H223899   0.601   2.831   0.533 -2.4490  1.0694 -0.6056
 7979TIP3   OH223900   3.488   1.529   5.710  0.5709 -0.7537 -0.2349
 7979TIP3    H123901   3.581   1.507   5.707  0.6485 -0.3987 -0.5950
 7979TIP3    H223902   3.471   1.574   5.627  0.1470 -0.5484 -0.0432
 7980TIP3   OH223903   5.945   2.752   5.486  0.1279 -0.2669 -0.5682
 7980TIP3    H123904   5.882   2.724   5.420 -0.2819 -0.8960  0.0758
 7980TIP3    H223905   5.974   2.839   5.457 -1.6016  0.3669 -0.4828
 7981TIP3   OH223906   1.775   0.148   5.373 -0.1041 -0.1698 -0.1661
 7981TIP3    H123907   1.787   0.187   5.287  1.3087 -0.4893 -0.1495
 7981TIP3    H223908   1.851   0.089   5.383  0.6706  1.0683  1.9296
 7982TIP3   OH223909   6.400   5.730   1.671 -0.4011  0.4227  0.1400
 7982TIP3    H123910   6.410   5.782   1.750  0.4382  0.2841  0.1360
 7982TIP3    H223911   6.469   5.664   1.676 -0.6290  0.1244 -0.4812
 7983TIP3   OH223912   2.980   5.247   0.274 -0.2615  0.4871 -0.3970
 7983TIP3    H123913   3.019   5.306   0.338 -1.8729  0.3270  0.8079
 7983TIP3    H223914   2.989   5.292   0.190  2.3936  0.4552 -0.2182
 7984TIP3   OH223915   0.029   5.810   3.421 -0.0051  0.3059  0.4348
 7984TIP3    H123916   0.025   5.717   3.444 -1.4425 -0.3867 -2.2192
 7984TIP3    H223917   0.122   5.826   3.404  0.0245 -1.3552 -1.3743
 7985TIP3   OH223918   5.060   0.634   0.905 -0.2078  0.1070  0.2159
 7985TIP3    H123919   5.106   0.714   0.930 -0.1024 -0.4566  1.9226
 7985TIP3    H223920   5.127   0.566   0.904 -0.6161 -0.3144  0.6360
 7986TIP3   OH223921   5.676   1.402   2.508 -0.5193 -0.1330 -0.2733
 7986TIP3    H123922   5.711   1.489   2.528 -0.4580  0.1779 -1.6790
 7986TIP3    H223923   5.648   1.368   2.593  0.4562  0.8116  0.4538
 7987TIP3   OH223924   2.083   3.623   5.553  0.2708 -0.1352  0.2343
 7987TIP3    H123925   2.075   3.714   5.584 -0.4959 -0.4120  0.8808
 7987TIP3    H223926   1.998   3.605   5.511 -0.0297 -0.9266  1.1494
 7988TIP3   OH223927   5.192   2.467   4.699  0.1060 -0.2382 -0.2119
 7988TIP3    H123928   5.195   2.451   4.793  1.4335 -0.2136 -0.2339
 7988TIP3    H223929   5.121   2.531   4.688  1.0366  1.0636  0.9916
 7989TIP3   OH223930   0.584   0.457   0.354 -0.0740 -0.8351  0.3863
 7989TIP3    H123931   0.510   0.513   0.375 -1.1807 -1.8196 -0.7340
 7989TIP3    H223932   0.554   0.405   0.279  2.1510 -0.4684 -0.8378
 7990TIP3   OH223933   4.892   0.738   3.651 -0.0106 -0.1937 -0.0220
 7990TIP3    H123934   4.920   0.776   3.568  0.3072 -2.6008 -1.1227
 7990TIP3    H223935   4.850   0.656   3.626 -0.7587 -0.5264  2.1587
 7991TIP3   OH223936   4.137   4.781   4.747  0.1755 -0.5076  0.6548
 7991TIP3    H123937   4.138   4.848   4.678 -0.5635 -0.2724  0.8602
 7991TIP3    H223938   4.213   4.727   4.729 -0.4608 -0.9614 -0.8491
 7992TIP3   OH223939   1.526   1.100   3.292 -0.0885  0.1725  0.2834
 7992TIP3    H123940   1.558   1.107   3.382  1.2986  1.4827 -0.2739
 7992TIP3    H223941   1.541   1.008   3.269  2.4417  0.4620  0.4162
 7993TIP3   OH223942   4.857   4.606   4.140 -0.7952 -0.4231  0.3712
 7993TIP3    H123943   4.900   4.641   4.062 -1.6661 -0.4060 -0.1148
 7993TIP3    H223944   4.920   4.544   4.176 -0.8679 -1.3871 -1.0677
 7994TIP3   OH223945   2.081   2.550   4.756 -0.1909 -0.0982  0.4576
 7994TIP3    H123946   2.117   2.564   4.844  0.4593 -1.3209  0.4075
 7994TIP3    H223947   2.133   2.606   4.699 -1.1671  1.3631  0.9286
 7995TIP3   OH223948   1.702   4.894   1.160 -0.4280  0.6464  0.0239
 7995TIP3    H123949   1.674   4.869   1.072 -0.5946  0.0636  0.2389
 7995TIP3    H223950   1.796   4.881   1.160 -0.3422  1.2303 -0.2531
 7996TIP3   OH223951   6.020   5.220   0.306 -0.8389  0.0945 -0.4159
 7996TIP3    H123952   6.021   5.313   0.324 -1.1742 -0.4298  2.9492
 7996TIP3    H223953   6.088   5.183   0.364  0.6721 -1.6044 -3.0515
 7997TIP3   OH223954   4.872   3.953   0.577 -0.3134 -0.1091 -0.0529
 7997TIP3    H123955   4.840   3.931   0.490 -1.1454  0.3983  0.1112
 7997TIP3    H223956   4.929   3.880   0.601 -0.7705 -0.6773 -0.6695
 7998TIP3   OH223957   0.225   2.029   3.355  0.2281  0.2220  0.0640
 7998TIP3    H123958   0.248   2.016   3.447  0.1272  0.3570  0.1104
 7998TIP3    H223959   0.195   2.120   3.352 -1.3765 -0.2669  0.2466
 7999TIP3   OH223960   1.059   5.584   5.296 -0.2856  1.1135  0.4554
 7999TIP3    H123961   0.965   5.594   5.310 -0.2657  1.4718  0.3540
 7999TIP3    H223962   1.075   5.627   5.212 -0.4217 -1.0430 -0.7423
 8000TIP3   OH223963   1.023   4.387   4.921  0.1822 -0.0680 -0.3822
 8000TIP3    H123964   1.055   4.373   4.832 -1.8727 -1.0360 -1.0213
 8000TIP3    H223965   1.076   4.329   4.976 -1.0971 -2.4380 -1.5406
 8001TIP3   OH223966   0.852   6.753   4.962 -0.2225  0.3231 -0.3745
 8001TIP3    H123967   0.931   6.799   4.935  0.8654 -0.6617  1.0246
 8001TIP3    H223968   0.883   6.675   5.007 -2.0080 -0.4994 -0.4911
 8002TIP3   OH223969   0.300   0.698   5.521  0.0190 -0.0958  0.9343
 8002TIP3    H123970   0.293   0.787   5.488  0.3129 -0.2163  0.5432
 8002TIP3    H223971   0.212   0.662   5.513  0.6595 -1.2634 -2.9939
 8003TIP3   OH223972   1.814   5.419   5.134  0.3222  0.4029 -0.2855
 8003TIP3    H123973   1.741   5.370   5.095  1.2244 -0.4578 -0.9507
 8003TIP3    H223974   1.806   5.402   5.228 -0.1686  0.0879 -0.3774
 8004TIP3   OH223975   0.743   1.983   5.680  0.2337 -0.5971 -0.1845
 8004TIP3    H123976   0.782   2.016   5.599  2.5711 -1.1735  0.6090
 8004TIP3    H223977   0.733   1.889   5.665 -1.3560 -0.4006 -0.5274
 8005TIP3   OH223978   2.656   1.861   3.365  0.1170  0.2573 -0.1586
 8005TIP3    H123979   2.578   1.916   3.353 -1.1671 -1.1757  1.1594
 8005TIP3    H223980   2.632   1.778   3.323  0.1553 -0.8279  1.8734
 8006TIP3   OH223981   6.484   5.999   1.136  0.2451 -0.6015 -0.8147
 8006TIP3    H123982   6.518   6.055   1.205 -0.2871 -2.1223  0.7661
 8006TIP3    H223983   6.560   5.979   1.081  0.8408  0.0587 -0.2513
 8007TIP3   OH223984   4.566   3.710   5.200  0.1090 -0.0240  0.1232
 8007TIP3    H123985   4.597   3.682   5.286 -1.4079 -2.6567 -0.0831
 8007TIP3    H223986   4.607   3.650   5.139 -1.6179 -0.5404 -0.5889
 8008TIP3   OH223987   6.962   0.564   2.073 -0.3946 -0.4574  0.2199
 8008TIP3    H123988   6.939   0.653   2.045  0.2065  0.1247  1.5097
 8008TIP3    H223989   6.955   0.566   2.169  0.8096 -1.4541  0.3559
 8009TIP3   OH223990   4.652   5.534   2.225 -0.0474  0.1784  0.0613
 8009TIP3    H123991   4.681   5.445   2.243  0.8585  0.4208 -0.1673
 8009TIP3    H223992   4.585   5.552   2.291  2.8842  0.9381  3.0905
 8010TIP3   OH223993   6.245   0.440   3.771 -0.1412  0.3358  0.2228
 8010TIP3    H123994   6.291   0.456   3.854  0.7045 -1.2302  0.1047
 8010TIP3    H223995   6.309   0.465   3.704 -1.0718  2.2582 -0.0006
 8011TIP3   OH223996   5.795   0.773   3.951 -0.7476 -0.9308 -0.2596
 8011TIP3    H123997   5.749   0.806   3.873  0.2705 -0.7018 -0.7850
 8011TIP3    H223998   5.809   0.680   3.932 -1.0183 -1.0098 -0.0806
 8012TIP3   OH223999   4.301   0.664   0.703 -0.1863  0.8394  0.1382
 8012TIP3    H124000   4.339   0.581   0.731 -0.6899  0.6047  0.1328
 8012TIP3    H224001   4.226   0.677   0.761 -0.0837  1.3154  0.1707
 8013TIP3   OH224002   6.250   3.170   4.073  0.1273 -0.3486 -0.1364
 8013TIP3    H124003   6.337   3.187   4.110 -0.1952  1.2656 -0.0377
 8013TIP3    H224004   6.192   3.167   4.149  0.1416 -2.0063 -0.1514
 8014TIP3   OH224005   5.278   1.051   1.318 -0.0667 -0.4071 -0.2258
 8014TIP3    H124006   5.336   1.016   1.385 -1.1155 -1.0502  0.3801
 8014TIP3    H224007   5.235   1.126   1.360 -0.5274 -0.6489 -0.2504
 8015TIP3   OH224008   6.509   1.642   5.721 -0.5750 -0.6817  0.3483
 8015TIP3    H124009   6.534   1.625   5.812  0.0438  3.4075  1.1141
 8015TIP3    H224010   6.419   1.674   5.726  0.1201  1.4922 -0.1472
 8016TIP3   OH224011   1.823   5.885   0.056  0.3936  0.3748 -0.0134
 8016TIP3    H124012   1.816   5.853   0.146  1.9950  1.2776  0.4714
 8016TIP3    H224013   1.904   5.847   0.023 -0.6252 -0.6874 -1.4434
 8017TIP3   OH224014   6.577   5.896   2.728  0.4113  0.0712  0.1502
 8017TIP3    H124015   6.619   5.921   2.645 -2.4014  0.0303 -1.4039
 8017TIP3    H224016   6.601   5.966   2.789  3.6943 -0.5992 -0.1999
 8018TIP3   OH224017   2.963   6.380   1.317 -0.3707 -0.0841 -1.1138
 8018TIP3    H124018   2.980   6.349   1.406  0.5456 -1.3618 -1.7040
 8018TIP3    H224019   3.003   6.467   1.315  0.1783 -0.3052 -0.4643
 8019TIP3   OH224020   5.150   5.777   2.374  0.2051 -0.9781 -0.1422
 8019TIP3    H124021   5.078   5.731   2.331  0.9371 -1.4212 -0.9247
 8019TIP3    H224022   5.189   5.831   2.305  0.3602 -0.4088  0.3803
 8020TIP3   OH224023   6.090   2.122   0.039  0.4741 -0.4563 -0.6603
 8020TIP3    H124024   6.087   2.026   0.038  0.6998 -0.4950 -3.1790
 8020TIP3    H224025   6.074   2.148  -0.051  0.8540  1.8869 -0.1216
 8021TIP3   OH224026   0.473   3.624   5.158  0.2669  0.1117 -0.2091
 8021TIP3    H124027   0.509   3.694   5.104  2.1107  0.0151  0.7883
 8021TIP3    H224028   0.425   3.568   5.097 -0.4351  1.6987 -1.1744
 8022TIP3   OH224029   5.043   0.610   2.631  0.1350  0.2534 -0.4191
 8022TIP3    H124030   5.124   0.658   2.649 -0.5069  2.4120 -2.7058
 8022TIP3    H224031   4.994   0.614   2.713  1.0253  1.6387  0.0760
 8023TIP3   OH224032   1.118   5.522   3.514 -0.2194 -0.8293 -0.3060
 8023TIP3    H124033   1.149   5.450   3.570 -0.6036  0.5663  1.8506
 8023TIP3    H224034   1.029   5.497   3.490 -0.9602 -0.4515  1.7730
 8024TIP3   OH224035   5.437   2.221   4.958  0.3378  0.4983  0.6031
 8024TIP3    H124036   5.406   2.181   5.038 -0.9785 -0.0454 -0.1524
 8024TIP3    H224037   5.374   2.290   4.939  0.1214  0.0398 -0.4268
 8025TIP3   OH224038   5.984   3.643   5.574  0.0540  0.2207  0.0274
 8025TIP3    H124039   6.008   3.573   5.514 -0.0963  1.0470 -1.0442
 8025TIP3    H224040   6.045   3.714   5.553 -1.7560  1.5268 -1.1358
 8026TIP3   OH224041   5.092   4.224   4.403 -0.1583 -0.0987 -0.2080
 8026TIP3    H124042   4.999   4.241   4.387 -0.4103 -3.1169 -2.9797
 8026TIP3    H224043   5.095   4.190   4.492 -1.4194  1.4513  0.4717
 8027TIP3   OH224044   6.848   1.301   3.060  0.1458  0.4956 -0.1202
 8027TIP3    H124045   6.818   1.286   2.970 -3.0477  0.3373  0.8327
 8027TIP3    H224046   6.835   1.395   3.074 -1.9820  0.1198  0.8971
 8028TIP3   OH224047   0.047   5.917   2.747 -0.0179 -0.0464 -0.0993
 8028TIP3    H124048   0.102   5.853   2.794 -1.1644  0.4214  2.0048
 8028TIP3    H224049  -0.008   5.863   2.690 -0.5120 -0.9112  1.1540
 8029TIP3   OH224050   5.978   2.824   0.749 -0.0325 -0.0532 -0.2687
 8029TIP3    H124051   5.934   2.752   0.703  0.3685 -1.2398  1.1119
 8029TIP3    H224052   5.913   2.855   0.812 -0.4787  1.3582 -1.4011
 8030TIP3   OH224053   6.364   0.590   3.125 -0.2807  0.0577 -0.0033
 8030TIP3    H124054   6.388   0.501   3.151 -0.1113  0.5322  1.5853
 8030TIP3    H224055   6.304   0.579   3.052 -0.5173 -1.3736  0.3830
 8031TIP3   OH224056   0.548   1.372   2.671  0.4199  0.1088  0.1976
 8031TIP3    H124057   0.489   1.382   2.596  0.9137  1.0164 -0.0860
 8031TIP3    H224058   0.507   1.421   2.742  0.6642  0.4702  0.0932
 8032TIP3   OH224059   1.740   5.135   0.912  0.8116 -0.1192  0.0628
 8032TIP3    H124060   1.660   5.133   0.965  1.8253 -0.9332  1.6705
 8032TIP3    H224061   1.730   5.211   0.855 -1.5521 -0.7988 -0.5548
 8033TIP3   OH224062   0.800   3.821   2.369  0.0376  0.0078  0.4533
 8033TIP3    H124063   0.858   3.893   2.345  0.7663 -0.3868  0.9729
 8033TIP3    H224064   0.714   3.847   2.337  0.7561 -0.0420 -1.6207
 8034TIP3   OH224065   0.162   5.598   1.290 -0.5432 -0.1692 -0.5785
 8034TIP3    H124066   0.153   5.569   1.381  0.5016 -0.3085 -0.5109
 8034TIP3    H224067   0.173   5.516   1.241 -2.3129 -0.1898 -1.0067
 8035TIP3   OH224068   0.914   1.500   1.550 -1.0913  0.0540  0.7347
 8035TIP3    H124069   0.998   1.476   1.589 -0.3135  2.6678  0.8567
 8035TIP3    H224070   0.913   1.455   1.465  0.9284  0.7153  0.2981
 8036TIP3   OH224071   2.178   1.623   1.852 -0.0365  0.2829 -0.5360
 8036TIP3    H124072   2.124   1.669   1.915  0.4325  0.5034 -0.2894
 8036TIP3    H224073   2.261   1.609   1.897  0.3802  0.6388 -1.1806
 8037TIP3   OH224074   5.738   0.454   1.519  0.1211  0.2548 -0.5645
 8037TIP3    H124075   5.809   0.466   1.582 -0.2439  0.4121 -0.1856
 8037TIP3    H224076   5.665   0.420   1.571 -0.0787  0.0728 -0.9580
 8038TIP3   OH224077   5.797   4.431   0.833 -0.1738 -0.5202  0.4968
 8038TIP3    H124078   5.791   4.388   0.919 -3.5956 -0.8580  0.2441
 8038TIP3    H224079   5.710   4.471   0.821  1.3230  2.4936 -1.3589
 8039TIP3   OH224080   3.595   5.060   1.339 -0.3632  0.6267 -0.2132
 8039TIP3    H124081   3.537   4.987   1.360  0.0580  0.4028  0.2041
 8039TIP3    H224082   3.634   5.084   1.423 -0.0811  0.9697 -0.4389
 8040TIP3   OH224083   2.497   0.053   5.305  0.0736 -0.6743 -0.0962
 8040TIP3    H124084   2.546   0.134   5.291  0.5964 -1.0356 -0.4178
 8040TIP3    H224085   2.557  -0.003   5.354  0.2934 -1.3981 -1.1412
 8041TIP3   OH224086   0.610   6.322   5.750  0.1209  0.5837  0.0045
 8041TIP3    H124087   0.515   6.311   5.759  0.1130  0.3003 -0.3801
 8041TIP3    H224088   0.634   6.385   5.818  0.2972 -2.3276  2.8608
 8042TIP3   OH224089   3.888   5.120   2.211 -0.4569  0.1149  0.2312
 8042TIP3    H124090   3.806   5.113   2.163 -1.2183  1.9444  1.1811
 8042TIP3    H224091   3.916   5.211   2.199  0.3889  0.0588  1.5410
 8043TIP3   OH224092   2.080   5.754   5.566  0.1187  0.1650  0.4231
 8043TIP3    H124093   2.060   5.800   5.484 -0.3760 -0.5269  0.1557
 8043TIP3    H224094   2.121   5.672   5.538  0.2610  0.0800  0.8780
 8044TIP3   OH224095   2.319   2.780   3.493 -0.0150  0.3253  0.1494
 8044TIP3    H124096   2.377   2.856   3.498  0.1377  0.1483  1.4511
 8044TIP3    H224097   2.334   2.733   3.575 -1.2878 -0.2462  0.0776
 8045TIP3   OH224098   5.940   5.956   4.078  0.3094 -0.2149 -0.6640
 8045TIP3    H124099   6.031   5.959   4.108  0.2405 -2.8286  0.0591
 8045TIP3    H224100   5.944   5.974   3.985  1.4445  0.6638 -0.4592
 8046TIP3   OH224101   0.624   0.782   5.869  0.2658 -0.2099  0.6766
 8046TIP3    H124102   0.675   0.784   5.950  0.7220 -0.6846  0.4054
 8046TIP3    H224103   0.656   0.705   5.822  2.2842  1.7310 -1.3980
 8047TIP3   OH224104   1.186   0.942   4.856  0.1464 -0.4193  0.0167
 8047TIP3    H124105   1.245   1.005   4.897 -1.4980  0.8012  0.6580
 8047TIP3    H224106   1.241   0.868   4.833  1.5861 -0.1767  2.3694
 8048TIP3   OH224107   4.436   3.190   3.152 -0.1196 -0.2784 -0.1470
 8048TIP3    H124108   4.414   3.109   3.106 -0.6466 -0.3155  0.1591
 8048TIP3    H224109   4.523   3.175   3.188 -0.5104 -0.9981  0.5372
 8049TIP3   OH224110   6.130   4.101   1.315 -0.3380  0.0547 -0.2514
 8049TIP3    H124111   6.185   4.172   1.349 -1.2271  0.1832  1.0039
 8049TIP3    H224112   6.125   4.118   1.221  0.1918  1.1466 -0.1021
 8050TIP3   OH224113   2.164   2.990   5.609 -0.5605 -0.2007 -0.1504
 8050TIP3    H124114   2.178   3.084   5.621  1.0073 -0.5774  1.4336
 8050TIP3    H224115   2.167   2.954   5.698 -0.9455 -1.7844 -0.7467
 8051TIP3   OH224116   5.160   5.433   1.067 -0.4162  0.3228  0.2703
 8051TIP3    H124117   5.114   5.396   0.991  1.2524 -0.5962 -0.3394
 8051TIP3    H224118   5.090   5.454   1.128 -1.7562  0.3120 -1.1806
 8052TIP3   OH224119   1.325   2.342   0.842  0.3533 -0.2257 -0.2040
 8052TIP3    H124120   1.394   2.406   0.823  2.1660 -1.2391  2.3695
 8052TIP3    H224121   1.251   2.396   0.872  1.5365  0.7882  1.0800
 8053TIP3   OH224122   5.570   4.552   2.185  0.0650 -0.5477  0.2065
 8053TIP3    H124123   5.502   4.618   2.168  0.2283 -0.7901 -1.4732
 8053TIP3    H224124   5.637   4.600   2.234  0.1054  0.4997 -0.8440
 8054TIP3   OH224125   6.053   6.108   1.215 -0.7825 -0.5022  0.2125
 8054TIP3    H124126   6.125   6.103   1.152 -0.4915 -1.0905  0.5783
 8054TIP3    H224127   6.091   6.078   1.298 -1.4801 -0.9463  0.3813
 8055TIP3   OH224128   4.227   0.027   5.023 -0.3851  0.3890 -0.3162
 8055TIP3    H124129   4.226  -0.025   5.104 -2.0750 -0.1402 -0.6534
 8055TIP3    H224130   4.318   0.022   4.993 -0.0014 -0.4281  0.8959
 8056TIP3   OH224131   0.834   1.864   4.670  0.0466  0.1097 -0.1415
 8056TIP3    H124132   0.765   1.814   4.626 -0.5290  1.2198 -0.5490
 8056TIP3    H224133   0.906   1.802   4.681 -0.9670 -1.0426  0.1919
 8057TIP3   OH224134   6.135   2.462   0.647  0.1704  0.1761  0.0741
 8057TIP3    H124135   6.216   2.512   0.653 -0.3539  1.0395  0.0389
 8057TIP3    H224136   6.129   2.417   0.731  0.5802  0.2641  0.1541
 8058TIP3   OH224137   1.947   0.958   1.064  0.1039  0.5340  0.5900
 8058TIP3    H124138   1.992   0.883   1.026 -1.1012  0.5722 -1.0377
 8058TIP3    H224139   1.965   0.952   1.158  0.5259 -1.4458  0.4336
 8059TIP3   OH224140   4.703   6.361   1.554 -0.4956 -0.6509 -0.7237
 8059TIP3    H124141   4.791   6.397   1.547 -0.6857  0.2505  0.9613
 8059TIP3    H224142   4.699   6.324   1.643 -0.8316 -3.4988 -1.8027
 8060TIP3   OH224143   0.470   0.994   5.254  0.2319  0.5512 -0.2415
 8060TIP3    H124144   0.395   0.982   5.312 -0.7683  0.3721 -1.5070
 8060TIP3    H224145   0.431   1.016   5.169  1.6697  1.9713 -0.5879
 8061TIP3   OH224146   0.741   2.223   2.597 -0.0597  0.2431  0.9885
 8061TIP3    H124147   0.768   2.174   2.520  1.8792  2.4058  0.1918
 8061TIP3    H224148   0.652   2.252   2.577  0.5876  1.1801 -0.6973
 8062TIP3   OH224149   3.454   2.667   1.481 -0.2442 -0.1017  0.3075
 8062TIP3    H124150   3.509   2.635   1.410  0.3206  2.4927 -0.5203
 8062TIP3    H224151   3.415   2.748   1.448 -0.0036  1.1867  2.9029
 8063TIP3   OH224152   4.124   5.036   2.770  0.2118  0.0492  0.1104
 8063TIP3    H124153   4.075   5.037   2.852  0.2862  0.2679  0.1537
 8063TIP3    H224154   4.183   4.961   2.778 -0.4626 -0.5146 -0.1496
 8064TIP3   OH224155   5.635   2.091   0.140 -0.1217  0.2500 -0.5917
 8064TIP3    H124156   5.570   2.063   0.205  0.8158 -0.0560  0.2347
 8064TIP3    H224157   5.590   2.081   0.056 -0.9432 -0.5354 -0.0803
 8065TIP3   OH224158   6.053   4.970   4.389  0.6440 -0.5478 -0.1389
 8065TIP3    H124159   6.107   5.020   4.450  0.4254 -0.5115  0.0294
 8065TIP3    H224160   5.992   5.035   4.353 -0.3144 -0.8604  0.8351
 8066TIP3   OH224161   5.785   2.852   2.497 -0.1507  0.1488 -0.4135
 8066TIP3    H124162   5.750   2.915   2.434  0.4787  0.2254 -0.6992
 8066TIP3    H224163   5.712   2.834   2.556 -0.9591 -0.4488 -1.5688
 8067TIP3   OH224164   6.491   4.267   0.130 -0.2316 -0.0593  0.3967
 8067TIP3    H124165   6.406   4.310   0.123  0.2361  0.6446 -1.6472
 8067TIP3    H224166   6.547   4.331   0.172 -0.4209 -0.0748  0.6761
 8068TIP3   OH224167   1.691   4.411   5.117  0.0205 -0.0446  0.6227
 8068TIP3    H124168   1.724   4.477   5.178 -1.2339  0.2943  0.9449
 8068TIP3    H224169   1.601   4.437   5.099 -0.2709 -1.2791  0.2040
 8069TIP3   OH224170   1.354   5.390   0.261 -0.9769  0.1158 -0.2045
 8069TIP3    H124171   1.423   5.404   0.197 -1.8142 -0.5155 -1.2639
 8069TIP3    H224172   1.341   5.476   0.300 -0.9044  0.6570 -1.3347
 8070TIP3   OH224173   0.063   2.869   0.846  0.0858 -0.1551 -0.3040
 8070TIP3    H124174   0.078   2.866   0.751 -0.0274 -0.2487 -0.3194
 8070TIP3    H224175  -0.031   2.876   0.855  0.0256 -0.9681 -0.1889
 8071TIP3   OH224176   4.884   3.604   4.784  0.0507  0.2952 -0.5777
 8071TIP3    H124177   4.919   3.691   4.802 -1.4852  1.2616 -1.9772
 8071TIP3    H224178   4.916   3.582   4.697 -1.3523  0.4538 -1.1622
 8072TIP3   OH224179   5.378   4.422   1.441  0.2608  0.3890  0.2057
 8072TIP3    H124180   5.284   4.430   1.453  0.1028 -2.8048  2.1861
 8072TIP3    H224181   5.416   4.485   1.503 -0.4759  1.8793 -0.7867
 8073TIP3   OH224182   1.334   3.891   2.224 -0.3755 -0.4477  0.1968
 8073TIP3    H124183   1.404   3.876   2.287  0.7220  0.0534 -0.8744
 8073TIP3    H224184   1.374   3.872   2.139 -1.8499 -1.2090 -0.3580
 8074TIP3   OH224185   0.739   2.032   4.296 -0.6371  0.4122 -0.0965
 8074TIP3    H124186   0.735   1.940   4.323 -0.5525  0.2093 -0.7629
 8074TIP3    H224187   0.675   2.076   4.352 -0.9142 -0.1107  0.0075
 8075TIP3   OH224188   3.900   5.355   3.187  0.1082 -0.0957 -0.0375
 8075TIP3    H124189   3.889   5.279   3.244  0.8480 -0.0102  0.2333
 8075TIP3    H224190   3.982   5.395   3.215 -0.1637  0.6928 -0.3088
 8076TIP3   OH224191   2.288   5.793   4.494 -0.1520  0.6045  0.7739
 8076TIP3    H124192   2.310   5.757   4.580 -3.1071  0.3684  1.5513
 8076TIP3    H224193   2.193   5.780   4.486 -0.0616  0.9993 -2.3740
 8077TIP3   OH224194   0.606   4.620   2.171 -0.6543 -0.1088 -0.7173
 8077TIP3    H124195   0.557   4.544   2.141  0.9685 -1.5294  0.0234
 8077TIP3    H224196   0.647   4.655   2.093 -1.0539 -0.2624 -0.9986
 8078TIP3   OH224197   3.576   6.827   3.643  0.1953  0.2137 -0.3618
 8078TIP3    H124198   3.480   6.829   3.637  0.1257  0.1391  0.6719
 8078TIP3    H224199   3.600   6.743   3.602 -0.0249  1.0380 -2.3117
 8079TIP3   OH224200   3.017   2.250   0.461 -0.1115  0.6402  0.0327
 8079TIP3    H124201   2.929   2.219   0.439  1.3594 -1.9848 -2.9560
 8079TIP3    H224202   3.019   2.340   0.429 -1.1699  0.1147 -1.6217
 8080TIP3   OH224203   2.008   4.099   1.690  0.2021  0.3734 -0.0507
 8080TIP3    H124204   2.009   4.167   1.623 -0.2501 -0.4540 -0.9089
 8080TIP3    H224205   2.101   4.086   1.711  0.2644  1.8074  0.7232
 8081TIP3   OH224206   2.646   5.068   1.378  0.0135 -0.0084  0.2547
 8081TIP3    H124207   2.661   5.039   1.469  0.0149 -1.4249 -0.1660
 8081TIP3    H224208   2.731   5.099   1.349 -0.2124  1.4226  1.0483
 8082TIP3   OH224209   4.290   6.273   3.382  0.1612 -0.0282  0.1565
 8082TIP3    H124210   4.361   6.216   3.411  2.2797  3.0867  1.6792
 8082TIP3    H224211   4.259   6.315   3.463 -1.8418  0.4268 -0.7833
 8083TIP3   OH224212   6.422   2.963   3.033 -0.0242  0.2298  0.4791
 8083TIP3    H124213   6.364   2.893   3.005  2.9573 -2.5651  0.7225
 8083TIP3    H224214   6.477   2.981   2.957 -0.2797  1.8833  0.6497
 8084TIP3   OH224215   5.060   1.907   1.805  0.2773 -0.0752 -0.2505
 8084TIP3    H124216   5.112   1.839   1.848  0.5418  1.0608  1.3139
 8084TIP3    H224217   5.085   1.901   1.713  2.5951 -0.1154  0.3225
 8085TIP3   OH224218   2.014   4.551   5.816 -0.5887  0.2724  0.1924
 8085TIP3    H124219   1.937   4.495   5.809 -0.3218 -0.0650 -0.0424
 8085TIP3    H224220   2.053   4.549   5.728  0.2217 -0.3199  0.5563
 8086TIP3   OH224221   6.611   5.989   4.849  0.3158 -0.2436 -0.5718
 8086TIP3    H124222   6.574   5.921   4.907  0.4431  0.0484 -0.1420
 8086TIP3    H224223   6.706   5.981   4.861  0.3005  1.3055  1.0203
 8087TIP3   OH224224   0.308   1.381   1.957 -1.0236 -0.5136  0.2935
 8087TIP3    H124225   0.380   1.437   1.926 -1.2013  0.3645  1.4088
 8087TIP3    H224226   0.230   1.435   1.947 -1.6889 -1.7334 -1.6359
 8088TIP3   OH224227   0.716   1.382   3.102  0.2080  0.4197  0.3019
 8088TIP3    H124228   0.654   1.310   3.090  0.7434  0.0606 -0.3789
 8088TIP3    H224229   0.675   1.439   3.167 -1.2525  0.6546 -0.7872
 8089TIP3   OH224230   2.698   6.078   0.741 -0.5112  0.1112 -0.0827
 8089TIP3    H124231   2.775   6.121   0.703 -0.6685 -1.1048 -1.8994
 8089TIP3    H224232   2.634   6.078   0.670 -0.5727 -2.9214 -0.1315
 8090TIP3   OH224233   0.011   0.778   3.675 -0.6029 -0.0135 -0.2168
 8090TIP3    H124234   0.056   0.773   3.590  0.7841 -1.3894  0.5601
 8090TIP3    H224235  -0.067   0.725   3.663  0.1692 -1.1691 -0.3305
 8091TIP3   OH224236   2.846   0.282   3.347 -0.2283  0.5809 -0.0147
 8091TIP3    H124237   2.890   0.276   3.431  0.2979 -0.0064 -0.3274
 8091TIP3    H224238   2.755   0.303   3.369 -0.2864 -0.4277  0.7381
 8092TIP3   OH224239   1.941   2.115   1.972  0.0867  0.4932 -0.1517
 8092TIP3    H124240   1.949   2.201   2.013  0.5984  1.0418 -1.3529
 8092TIP3    H224241   1.854   2.116   1.932  0.2917  0.6690 -0.6062
 8093TIP3   OH224242   2.027   1.350   2.453  0.2028 -0.2280 -0.1520
 8093TIP3    H124243   2.005   1.257   2.451  0.3074 -0.2667 -2.8905
 8093TIP3    H224244   1.943   1.395   2.449  0.2257 -0.2439 -0.8795
 8094TIP3   OH224245   1.565   4.389   3.836  0.0212 -0.7634  0.4336
 8094TIP3    H124246   1.511   4.468   3.833  0.2622 -0.5966  0.4533
 8094TIP3    H224247   1.531   4.340   3.911  0.3744 -0.3088  0.9042
 8095TIP3   OH224248   3.628   1.225   4.203 -0.0312 -0.5269  0.2353
 8095TIP3    H124249   3.534   1.242   4.213 -0.1014 -0.4970 -0.4354
 8095TIP3    H224250   3.633   1.134   4.173  0.1824 -0.6948  0.7797
 8096TIP3   OH224251   2.973   6.086   0.617  0.0307 -0.0366 -0.0848
 8096TIP3    H124252   3.017   6.171   0.619  3.3721 -1.5317 -2.2161
 8096TIP3    H224253   2.955   6.070   0.524 -1.9062 -1.0982  0.4068
 8097TIP3   OH224254   7.024   2.946   3.775  0.3633  0.0554 -0.0597
 8097TIP3    H124255   7.088   2.989   3.831  0.5331  0.7781 -0.7831
 8097TIP3    H224256   6.940   2.981   3.804  0.4431  0.3673 -0.2014
 8098TIP3   OH224257   2.925   6.003   4.692 -0.2397 -0.3166  0.1799
 8098TIP3    H124258   2.939   5.910   4.707 -1.1678 -0.5943 -0.5545
 8098TIP3    H224259   2.852   6.007   4.631 -0.1622  0.8964  0.1295
 8099TIP3   OH224260   3.793   4.910   4.737 -0.2950  0.1101  0.8314
 8099TIP3    H124261   3.743   4.854   4.796  1.6825 -1.0476  1.4714
 8099TIP3    H224262   3.861   4.854   4.702  2.7546  2.3738  2.6544
 8100TIP3   OH224263   2.207   3.313   2.262  0.0245 -0.0369 -0.4781
 8100TIP3    H124264   2.134   3.293   2.204  0.6097  0.8099 -1.5483
 8100TIP3    H224265   2.252   3.387   2.220  1.2197 -0.2343  0.3891
 8101TIP3   OH224266   3.838   5.803   5.643  0.0057  0.0564 -0.0860
 8101TIP3    H124267   3.863   5.894   5.625 -0.3967 -0.0189 -1.0729
 8101TIP3    H224268   3.867   5.754   5.566 -0.7158 -0.4839 -0.0201
 8102TIP3   OH224269   2.037   3.144   0.735  0.2266  0.6392 -0.2944
 8102TIP3    H124270   2.131   3.134   0.749 -0.0111 -3.0191 -0.4329
 8102TIP3    H224271   2.003   3.170   0.821  1.0457 -1.7081  0.8379
 8103TIP3   OH224272   0.088   3.268   3.435  0.1902  0.4133 -0.4138
 8103TIP3    H124273   0.096   3.342   3.495 -0.4078 -0.9597  1.4453
 8103TIP3    H224274   0.020   3.294   3.373  0.1912  1.5064  0.0224
 8104TIP3   OH224275   0.424   0.922   2.387 -0.0126  0.0682 -0.4653
 8104TIP3    H124276   0.394   0.832   2.401 -1.2013  0.5961  0.5810
 8104TIP3    H224277   0.400   0.943   2.297  1.4426 -1.0662 -1.1630
 8105TIP3   OH224278   2.547   1.691   4.284  0.3238  0.0176 -0.0751
 8105TIP3    H124279   2.627   1.741   4.270  0.9202 -0.3413  1.7600
 8105TIP3    H224280   2.573   1.600   4.273  0.5057 -0.1821  1.7815
 8106TIP3   OH224281   6.479   3.132   0.498 -0.5279  0.0296  0.3596
 8106TIP3    H124282   6.421   3.198   0.460 -0.0657 -0.6567 -1.6855
 8106TIP3    H224283   6.432   3.049   0.487 -0.1984 -0.2405  0.9418
 8107TIP3   OH224284   1.576   2.157   2.963 -0.3195  0.1931  0.6418
 8107TIP3    H124285   1.498   2.116   3.001  1.0190 -1.8276  1.3591
 8107TIP3    H224286   1.584   2.116   2.876  1.3330 -1.6394  1.5736
 8108TIP3   OH224287   0.906   3.946   3.896  0.1110  0.2245 -0.2956
 8108TIP3    H124288   0.924   4.005   3.823 -0.1046 -1.4324 -1.7653
 8108TIP3    H224289   0.847   3.879   3.859  2.2907 -2.3254  0.5097
 8109TIP3   OH224290   2.805   2.431   3.095  0.1650 -0.0071  0.5423
 8109TIP3    H124291   2.799   2.525   3.075 -1.2419 -0.2933 -0.5138
 8109TIP3    H224292   2.875   2.425   3.160  0.6723  1.7065  0.2014
 8110TIP3   OH224293   1.830   5.228   1.381  0.1158 -0.5362  0.8381
 8110TIP3    H124294   1.890   5.285   1.428  1.2144 -2.3018  1.6504
 8110TIP3    H224295   1.856   5.238   1.289  0.6017 -0.0772  1.0178
 8111TIP3   OH224296   2.249   6.407   3.787 -0.1493  0.1514 -0.0626
 8111TIP3    H124297   2.285   6.465   3.720 -0.4800  1.2468  0.6885
 8111TIP3    H224298   2.237   6.323   3.742 -0.0459  0.7663 -1.2745
 8112TIP3   OH224299   1.625   2.589   5.168  0.3619 -0.1958  0.1502
 8112TIP3    H124300   1.624   2.542   5.252  1.5975  0.2930  0.4620
 8112TIP3    H224301   1.596   2.523   5.104  1.3541 -1.1864  0.6803
 8113TIP3   OH224302   6.304   3.626   4.523  0.0433  0.4406 -0.3453
 8113TIP3    H124303   6.304   3.713   4.563  0.0176  0.6605 -0.8185
 8113TIP3    H224304   6.380   3.626   4.464  1.3346 -0.5964  1.2310
 8114TIP3   OH224305   4.103   1.682   5.503  0.0250  0.0326 -0.2137
 8114TIP3    H124306   4.102   1.621   5.577 -0.1265  0.5802  0.2376
 8114TIP3    H224307   4.010   1.697   5.484  0.0305 -1.5396 -1.7172
 8115TIP3   OH224308   7.132   1.432   4.971 -0.0775  0.2374  0.1931
 8115TIP3    H124309   7.078   1.509   4.987 -0.2665 -0.1543  1.5910
 8115TIP3    H224310   7.079   1.358   5.001  1.2586 -0.1350  1.8353
 8116TIP3   OH224311   6.737   1.123   0.461 -0.1854  0.1345  0.2973
 8116TIP3    H124312   6.803   1.109   0.529 -1.3830  0.1171  1.5208
 8116TIP3    H224313   6.654   1.120   0.509 -1.0839 -0.0715 -1.2177
 8117TIP3   OH224314   4.311   4.293   2.515  0.1792 -0.2730  0.5715
 8117TIP3    H124315   4.298   4.198   2.526  0.1583 -0.4040 -0.4450
 8117TIP3    H224316   4.223   4.330   2.526 -0.1730 -0.5896 -0.8699
 8118TIP3   OH224317   4.685   3.670   2.051 -0.2045  0.4489 -0.1480
 8118TIP3    H124318   4.629   3.685   1.975 -0.6975 -0.9406 -0.0914
 8118TIP3    H224319   4.768   3.712   2.028 -0.3655  0.1029 -1.4311
 8119TIP3   OH224320   0.187   3.421   2.862  0.1706 -0.6069  0.0617
 8119TIP3    H124321   0.216   3.346   2.810 -1.4956 -1.5510  0.4304
 8119TIP3    H224322   0.225   3.406   2.949 -0.6139 -1.3295  0.2874
 8120TIP3   OH224323   7.172   3.113   5.484  0.6046 -0.1494 -0.0593
 8120TIP3    H124324   7.257   3.072   5.503  0.2002 -0.3333  1.4733
 8120TIP3    H224325   7.169   3.189   5.542  0.3348  0.7134 -1.1798
 8121TIP3   OH224326   6.028   3.075   3.103 -0.3681 -0.0655  0.2947
 8121TIP3    H124327   6.036   3.116   3.017  0.8373  1.2969  1.0151
 8121TIP3    H224328   6.004   3.147   3.161  1.3786 -0.4301  1.5371
 8122TIP3   OH224329   3.061   3.646   2.363 -0.5130  0.6731  0.3175
 8122TIP3    H124330   2.997   3.717   2.371  0.2287  1.3461  0.4907
 8122TIP3    H224331   3.013   3.575   2.321 -0.7518  2.0167 -1.9008
 8123TIP3   OH224332   3.687   1.972   5.250  0.1362 -0.1259  0.3732
 8123TIP3    H124333   3.769   1.926   5.231  0.6587  0.6957  0.6108
 8123TIP3    H224334   3.714   2.052   5.295 -0.7980  0.1671  0.4324
 8124TIP3   OH224335   0.760   2.406   1.146 -0.1775  0.1742 -0.8908
 8124TIP3    H124336   0.713   2.326   1.169  1.0806 -0.3383  0.0519
 8124TIP3    H224337   0.692   2.468   1.121 -1.1113 -1.6546 -3.2151
 8125TIP3   OH224338   0.428   0.578   5.739  0.2402  0.1911  0.1560
 8125TIP3    H124339   0.393   0.650   5.687 -1.6615 -0.1910  0.8121
 8125TIP3    H224340   0.407   0.499   5.689  2.1425  0.0319 -0.4683
 8126TIP3   OH224341   4.278   5.219   2.604  0.0606 -0.1458 -0.1782
 8126TIP3    H124342   4.259   5.278   2.531 -0.9254  0.3085  0.4230
 8126TIP3    H224343   4.209   5.153   2.600  2.1931 -2.4642 -1.9952
 8127TIP3   OH224344   2.840   3.612   1.891 -0.1624 -0.1377  0.1589
 8127TIP3    H124345   2.882   3.695   1.868  1.9464 -0.9364  0.8945
 8127TIP3    H224346   2.863   3.553   1.820  1.6068 -1.0744  1.4230
 8128TIP3   OH224347   5.928   5.383   3.506  0.2973  0.4377 -0.4168
 8128TIP3    H124348   5.845   5.338   3.520  0.1159  1.1138  0.8141
 8128TIP3    H224349   5.963   5.345   3.425 -0.0019 -1.6648  0.3729
 8129TIP3   OH224350   0.123   4.364   5.316  0.0419 -0.0471 -0.1284
 8129TIP3    H124351   0.153   4.327   5.399 -0.8960 -1.7124 -0.4834
 8129TIP3    H224352   0.103   4.455   5.336  1.2436 -0.0252  1.1025
 8130TIP3   OH224353   7.173   0.923   0.278  0.3087 -0.5087 -0.1430
 8130TIP3    H124354   7.169   0.979   0.355  1.3176 -1.9579  1.0075
 8130TIP3    H224355   7.119   0.968   0.213  1.5401  2.0787  0.5199
 8131TIP3   OH224356   6.701   0.389   4.185  0.0865  0.4002  0.2565
 8131TIP3    H124357   6.662   0.301   4.195 -1.0005  0.8452  0.0978
 8131TIP3    H224358   6.674   0.417   4.097  2.9108 -0.2695 -0.9374
 8132TIP3   OH224359   3.901   3.172   4.528 -0.2848  0.1369 -0.0065
 8132TIP3    H124360   3.871   3.251   4.484  1.4874 -0.1530 -1.8915
 8132TIP3    H224361   3.972   3.201   4.586 -0.9128  0.1628  0.7677
 8133TIP3   OH224362   0.540   2.130   0.389  0.0480  0.5022  0.2150
 8133TIP3    H124363   0.474   2.135   0.458  0.1397  2.6458  0.2134
 8133TIP3    H224364   0.623   2.127   0.436  0.0230 -1.4387  0.2039
 8134TIP3   OH224365   3.045   4.753   4.449  0.1527 -0.4125  0.0011
 8134TIP3    H124366   3.037   4.782   4.358 -0.9971 -1.4987 -0.2639
 8134TIP3    H224367   3.047   4.658   4.444  2.3407 -0.4932  0.9722
 8135TIP3   OH224368   3.639   3.202   0.241  1.0337 -0.1183 -0.0234
 8135TIP3    H124369   3.635   3.295   0.265 -1.4652  0.1437 -1.1922
 8135TIP3    H224370   3.674   3.202   0.152 -0.1861 -0.1712 -0.5117
 8136TIP3   OH224371   3.605   5.294   2.828 -0.1962  0.3088 -0.5952
 8136TIP3    H124372   3.639   5.368   2.776  1.5140 -0.8668 -1.2210
 8136TIP3    H224373   3.682   5.258   2.872 -0.7433 -1.9178 -1.3468
 8137TIP3   OH224374   5.936   4.309   4.509 -0.5593 -0.1414 -0.0451
 8137TIP3    H124375   5.946   4.355   4.425 -2.8823  1.8588  0.6607
 8137TIP3    H224376   5.855   4.260   4.499  0.1684 -1.4683  0.3980
 8138TIP3   OH224377   3.121   5.289   1.078  0.3178  0.1499 -0.4717
 8138TIP3    H124378   3.189   5.272   1.143 -0.3165  1.6901  0.6303
 8138TIP3    H224379   3.151   5.368   1.033 -0.4692  0.5192 -0.3534
 8139TIP3   OH224380   5.836   1.392   3.770 -0.3478  0.1865 -0.2311
 8139TIP3    H124381   5.925   1.379   3.738 -0.8909 -1.9705 -1.0078
 8139TIP3    H224382   5.797   1.305   3.769 -2.3511  1.0210  0.4874
 8140TIP3   OH224383   0.382   5.840   5.384  0.8466  0.6397  0.0311
 8140TIP3    H124384   0.432   5.918   5.359  1.5407  0.5813  1.1587
 8140TIP3    H224385   0.449   5.772   5.397  0.8730  1.2329  4.1456
 8141TIP3   OH224386   0.150   5.327   4.491 -0.4854  0.0234 -0.2408
 8141TIP3    H124387   0.128   5.404   4.544 -1.1830 -0.1344 -0.2843
 8141TIP3    H224388   0.070   5.274   4.492 -0.1196 -0.5387 -0.4879
 8142TIP3   OH224389   4.923   2.867   1.202 -0.1543  0.1892 -0.1575
 8142TIP3    H124390   4.937   2.951   1.246  0.7150  0.1865 -0.4117
 8142TIP3    H224391   4.881   2.889   1.119  1.3460  0.5286 -0.8640
 8143TIP3   OH224392   1.769   4.218   4.075 -0.0127 -0.6858 -0.2403
 8143TIP3    H124393   1.806   4.305   4.089 -0.7028 -0.4755  0.3131
 8143TIP3    H224394   1.675   4.228   4.090 -0.4394 -1.0474 -2.4035
 8144TIP3   OH224395   4.864   6.281   2.302  0.1790  0.1006 -0.5523
 8144TIP3    H124396   4.952   6.316   2.291  0.2396 -0.1612 -0.9273
 8144TIP3    H224397   4.868   6.192   2.267 -0.4080  0.3369 -1.2642
 8145TIP3   OH224398   6.374   0.057   1.543 -0.4031 -0.3527 -0.1454
 8145TIP3    H124399   6.437   0.007   1.491  0.5748 -0.0389  0.7183
 8145TIP3    H224400   6.378   0.146   1.508 -0.2951 -0.3082 -0.0182
 8146TIP3   OH224401   4.593   3.282   0.402 -0.3072 -0.3917 -0.5494
 8146TIP3    H124402   4.672   3.335   0.387 -0.1879  0.2378  1.9010
 8146TIP3    H224403   4.606   3.244   0.489 -2.5670 -0.5310 -0.2264
 8147TIP3   OH224404   0.418   3.386   1.437  0.4031  0.0722  0.4264
 8147TIP3    H124405   0.336   3.436   1.432  0.7658  0.5519 -1.4435
 8147TIP3    H224406   0.452   3.405   1.524 -1.1974  0.2898  1.0428
 8148TIP3   OH224407   5.407   2.715   5.467  0.5220  0.3372 -0.0462
 8148TIP3    H124408   5.412   2.757   5.553  1.0529  0.4857 -0.1455
 8148TIP3    H224409   5.402   2.622   5.486 -1.2964  0.4488  0.1979
 8149TIP3   OH224410   5.158   0.874   4.529  0.6229 -0.4083  0.2585
 8149TIP3    H124411   5.107   0.940   4.577 -2.4771 -1.1692 -1.6785
 8149TIP3    H224412   5.245   0.912   4.520 -0.4909  2.5564  0.8640
 8150TIP3   OH224413   5.078   0.621   5.256 -0.5872 -0.3656 -0.1142
 8150TIP3    H124414   5.118   0.707   5.244  0.3048 -0.7430  0.0640
 8150TIP3    H224415   5.151   0.560   5.249 -0.3172 -0.8863  4.2575
 8151TIP3   OH224416   2.378   2.797   4.786 -0.1030 -0.1595 -0.1962
 8151TIP3    H124417   2.350   2.775   4.697  1.4052 -1.0416 -0.4707
 8151TIP3    H224418   2.402   2.714   4.826  1.7922  0.4883  0.1251
 8152TIP3   OH224419   6.132   1.369   3.089  0.1604 -0.2352 -0.5827
 8152TIP3    H124420   6.081   1.418   3.153 -0.8449 -1.4749 -0.3891
 8152TIP3    H224421   6.194   1.317   3.142 -0.2745 -0.8166 -0.6293
 8153TIP3   OH224422   2.732   0.421   5.786 -0.0558  0.4543  0.0389
 8153TIP3    H124423   2.804   0.357   5.789 -1.5295 -1.2607  1.3823
 8153TIP3    H224424   2.772   0.504   5.813  1.3656 -0.5416  1.1376
 8154TIP3   OH224425   3.769   5.629   3.652  0.0948  0.7193  0.1631
 8154TIP3    H124426   3.837   5.660   3.712 -1.2782  1.2500  1.5037
 8154TIP3    H224427   3.752   5.703   3.595 -0.2837  1.0514  0.6972
 8155TIP3   OH224428   5.664   1.615   4.873  0.2645 -0.2196 -0.5181
 8155TIP3    H124429   5.577   1.599   4.838 -0.1327  1.5794 -0.4433
 8155TIP3    H224430   5.654   1.613   4.968  0.0138  1.2352 -0.4921
 8156TIP3   OH224431   6.980   0.582   5.054  0.1054  0.0778 -0.5145
 8156TIP3    H124432   6.921   0.549   4.987 -0.5776  1.0525 -0.4149
 8156TIP3    H224433   7.030   0.505   5.082 -0.8540 -0.6907 -0.8523
 8157TIP3   OH224434   1.394   5.966   2.302 -0.0091  0.3482  0.1953
 8157TIP3    H124435   1.381   5.956   2.396 -2.8926 -0.2042 -0.1844
 8157TIP3    H224436   1.402   6.061   2.289  0.7491  0.4035  0.9961
 8158TIP3   OH224437   3.596   4.497   2.896 -0.2096  0.1780  0.2586
 8158TIP3    H124438   3.591   4.405   2.923 -0.5942  0.0194 -0.3281
 8158TIP3    H224439   3.523   4.508   2.834 -0.6572  1.0854  0.9277
 8159TIP3   OH224440   0.574   3.811   0.642 -0.0036 -0.3022 -0.8729
 8159TIP3    H124441   0.582   3.896   0.686 -0.7588  0.4042 -2.0368
 8159TIP3    H224442   0.573   3.747   0.713 -1.0764  0.7913  0.1444
 8160TIP3   OH224443   4.595   4.623   0.935 -0.3652  0.3072  0.0465
 8160TIP3    H124444   4.674   4.596   0.983 -0.7352  0.2275  0.6183
 8160TIP3    H224445   4.615   4.602   0.844  0.8726  1.6927 -0.0335
 8161TIP3   OH224446   1.271   4.542   4.590  0.6973 -0.3577 -0.2691
 8161TIP3    H124447   1.348   4.524   4.644 -1.2309  0.2174  2.9455
 8161TIP3    H224448   1.254   4.635   4.603 -1.6066 -0.8438  0.7829
 8162TIP3   OH224449   5.200   1.321   5.583 -0.4884  0.4970  0.2153
 8162TIP3    H124450   5.192   1.235   5.543 -0.7324 -0.6193  2.4954
 8162TIP3    H224451   5.110   1.351   5.593 -0.6804 -0.6388  2.6259
 8163TIP3   OH224452   0.268   6.458   2.866 -0.0948 -0.1176 -0.0437
 8163TIP3    H124453   0.194   6.442   2.924 -0.4181 -1.2889 -0.7555
 8163TIP3    H224454   0.309   6.372   2.855  0.3361  0.1972 -1.0311
 8164TIP3   OH224455   0.085   3.226   1.235 -0.3029 -0.2761  0.3902
 8164TIP3    H124456   0.106   3.160   1.168 -0.0690 -0.0098  0.2026
 8164TIP3    H224457   0.065   3.305   1.186  1.6944  0.4525  0.6823
 8165TIP3   OH224458   1.579   0.208   0.366  0.4831 -0.4583 -0.2142
 8165TIP3    H124459   1.563   0.198   0.272 -0.7764  1.4484 -0.2565
 8165TIP3    H224460   1.535   0.290   0.389  0.8890 -0.8115  2.0218
 8166TIP3   OH224461   0.500   1.520   5.169  0.6294  0.2120  0.0803
 8166TIP3    H124462   0.445   1.443   5.183  0.6984  0.0949 -0.2671
 8166TIP3    H224463   0.517   1.519   5.074 -0.6985  1.5571 -0.2008
 8167TIP3   OH224464   4.694   0.357   0.587  0.2001 -0.7537 -0.5541
 8167TIP3    H124465   4.703   0.427   0.651  0.9645 -0.2105 -1.2412
 8167TIP3    H224466   4.772   0.363   0.532  0.9862 -2.9843  0.1880
 8168TIP3   OH224467   1.247   6.258   1.417 -0.1269 -0.4584  0.2465
 8168TIP3    H124468   1.291   6.272   1.500 -2.2144 -2.4102  1.8111
 8168TIP3    H224469   1.300   6.193   1.372  0.7795  0.2896  0.2101
 8169TIP3   OH224470   3.575   0.492   5.154  0.0821 -0.4514 -0.1421
 8169TIP3    H124471   3.560   0.457   5.067 -2.0183 -2.1620  0.8143
 8169TIP3    H224472   3.487   0.509   5.189  0.7497 -1.3860  2.2139
 8170TIP3   OH224473   3.611   6.730   1.088  0.0565 -0.0507 -0.2768
 8170TIP3    H124474   3.636   6.787   1.015  1.2544 -0.3404 -0.1039
 8170TIP3    H224475   3.641   6.775   1.166 -0.8920  0.0790  0.0287
 8171TIP3   OH224476   3.904   6.262   1.860 -0.2607  0.2629 -0.7399
 8171TIP3    H124477   3.901   6.229   1.950 -1.2765  0.4882 -0.6799
 8171TIP3    H224478   3.997   6.282   1.845 -0.3180  2.0248  0.9146
 8172TIP3   OH224479   4.146   6.669   4.348  0.1419  0.2160  0.4989
 8172TIP3    H124480   4.165   6.577   4.327  1.8508  0.8007 -0.7145
 8172TIP3    H224481   4.226   6.716   4.327 -0.7612  2.0437  0.9134
 8173TIP3   OH224482   1.451   2.590   5.671  0.2013 -0.1703 -0.1135
 8173TIP3    H124483   1.494   2.648   5.733  2.7066 -0.8365 -1.1212
 8173TIP3    H224484   1.406   2.649   5.611  2.4332  0.8085 -0.9318
 8174TIP3   OH224485   2.778   1.458   0.199  0.3148 -0.1545 -0.5607
 8174TIP3    H124486   2.731   1.472   0.281  1.2301  0.2213 -0.0930
 8174TIP3    H224487   2.754   1.532   0.144 -2.0885 -1.5081 -1.5296
 8175TIP3   OH224488   2.775   4.837   3.620 -0.2815  0.1973  0.0524
 8175TIP3    H124489   2.795   4.749   3.650  1.0418  0.2436 -0.5816
 8175TIP3    H224490   2.791   4.893   3.696 -0.9336 -0.0867  0.3994
 8176TIP3   OH224491   2.069   5.264   0.262  0.4404 -0.1863 -0.1053
 8176TIP3    H124492   2.127   5.323   0.311 -1.1496  1.6840 -0.3953
 8176TIP3    H224493   2.054   5.309   0.179  1.9506 -2.6557 -1.8662
 8177TIP3   OH224494   0.277   5.991   1.528 -0.0256 -0.2606  0.2455
 8177TIP3    H124495   0.272   5.921   1.463 -1.7819 -0.3159  0.4003
 8177TIP3    H224496   0.234   5.956   1.606  1.0239  0.2302  1.0756
 8178TIP3   OH224497   4.274   4.635   5.740  0.5372 -0.0938 -0.2715
 8178TIP3    H124498   4.252   4.595   5.656  2.9565 -0.4913 -0.8134
 8178TIP3    H224499   4.286   4.560   5.799 -0.8838  0.1727  0.3814
 8179TIP3   OH224500   5.305   3.191   4.150  0.0182 -0.3576 -0.2340
 8179TIP3    H124501   5.364   3.120   4.176 -0.3259 -0.1872  1.1150
 8179TIP3    H224502   5.218   3.157   4.169 -0.1731  0.2632  0.0155
 8180TIP3   OH224503   5.541   0.550   3.082  0.0221 -0.1215  0.0261
 8180TIP3    H124504   5.479   0.477   3.077 -1.2017  0.9264 -0.7749
 8180TIP3    H224505   5.539   0.578   3.173 -0.2941 -0.4264  0.1133
 8181TIP3   OH224506   6.295   4.766   3.891  0.5068 -0.2031 -0.8241
 8181TIP3    H124507   6.359   4.837   3.902  0.4103  0.1853 -2.4707
 8181TIP3    H224508   6.344   4.697   3.846  0.5483 -1.1477  0.6075
 8182TIP3   OH224509   0.447   0.259   4.182  0.1367 -0.0156  0.2546
 8182TIP3    H124510   0.428   0.166   4.191 -1.8470  0.5015  2.4162
 8182TIP3    H224511   0.516   0.275   4.247  1.1204 -0.0835 -0.7339
 8183TIP3   OH224512   2.126   2.780   1.112 -0.0262 -0.3703 -0.3707
 8183TIP3    H124513   2.189   2.710   1.129  0.1718 -0.2198 -0.4908
 8183TIP3    H224514   2.057   2.766   1.177 -1.7212 -2.7686 -2.4689
 8184TIP3   OH224515   5.958   2.349   3.398 -0.2384  0.1005 -0.0324
 8184TIP3    H124516   6.034   2.366   3.341  0.1824 -0.8055  0.2329
 8184TIP3    H224517   5.995   2.346   3.487 -0.4354 -1.0956  0.0344
 8185TIP3   OH224518   0.344   1.051   0.792 -0.0342  1.1751  0.5735
 8185TIP3    H124519   0.389   1.112   0.850  0.0760  0.5467  1.1535
 8185TIP3    H224520   0.415   0.999   0.754 -0.2885 -0.3667  2.1076
 8186TIP3   OH224521   0.614   6.097   3.312  0.2582 -0.6148 -0.0265
 8186TIP3    H124522   0.563   6.145   3.378  1.4980  0.0044  0.4998
 8186TIP3    H224523   0.587   6.135   3.229  1.6707  1.4892  0.4118
 8187TIP3   OH224524   0.779   3.742   0.840 -0.1972  0.2364 -0.2440
 8187TIP3    H124525   0.823   3.823   0.813 -0.5087  0.8668  1.0904
 8187TIP3    H224526   0.801   3.732   0.932 -1.6520 -0.2367  0.0701
 8188TIP3   OH224527   0.807   4.410   0.707 -1.0583  0.2269  0.1856
 8188TIP3    H124528   0.714   4.403   0.690 -0.7209 -2.6599 -1.0812
 8188TIP3    H224529   0.841   4.322   0.691  1.8426  1.0952  0.9394
 8189TIP3   OH224530   1.691   6.745   4.143  0.4332 -0.5687  0.7357
 8189TIP3    H124531   1.686   6.653   4.116  0.2139  0.0935 -1.7228
 8189TIP3    H224532   1.771   6.777   4.104  0.5062  0.3152  1.5782
 8190TIP3   OH224533   0.898   4.906   0.237  0.3068 -0.3274 -0.1322
 8190TIP3    H124534   0.942   4.934   0.157  1.8924 -0.3702  0.7005
 8190TIP3    H224535   0.860   4.821   0.215  1.3371 -0.6730 -0.6284
 8191TIP3   OH224536   4.608   3.010   1.904 -0.4153  0.0255 -0.2421
 8191TIP3    H124537   4.554   2.931   1.910 -0.7112  0.2148 -0.3768
 8191TIP3    H224538   4.545   3.082   1.895 -0.1404  0.2471 -0.4372
 8192TIP3   OH224539   2.063   1.111   3.553  0.5538 -0.2302  0.0708
 8192TIP3    H124540   2.073   1.200   3.520  1.0179  0.1591  1.2194
 8192TIP3    H224541   2.141   1.064   3.522  0.8750  0.0688  0.4261
 8193TIP3   OH224542   0.578   6.654   0.388 -0.4235 -0.1526  0.1743
 8193TIP3    H124543   0.628   6.577   0.413  0.5744  0.3259 -0.3129
 8193TIP3    H224544   0.578   6.710   0.466 -2.2772 -1.1784  0.9821
 8194TIP3   OH224545   6.355   0.632   0.409  0.0557  0.0240 -0.2009
 8194TIP3    H124546   6.264   0.660   0.424 -0.0789 -1.2121  1.5224
 8194TIP3    H224547   6.396   0.637   0.495  1.4841  0.0165 -0.8582
 8195TIP3   OH224548   3.512   5.076   5.138 -0.2828  0.2926  0.6958
 8195TIP3    H124549   3.477   5.157   5.102  0.8261  0.6469  0.3993
 8195TIP3    H224550   3.517   5.016   5.064 -1.0311 -0.0462  0.9002
 8196TIP3   OH224551   3.137   3.654   2.629  0.4462 -0.3293  0.7644
 8196TIP3    H124552   3.139   3.651   2.533  1.3746  0.3720  0.7529
 8196TIP3    H224553   3.199   3.586   2.656  0.9383  0.1547  0.8542
 8197TIP3   OH224554   0.451   2.974   5.354  0.2537  0.2367  0.1611
 8197TIP3    H124555   0.468   2.895   5.303  0.7207  1.3525 -1.4793
 8197TIP3    H224556   0.414   3.036   5.291 -0.5101  1.1949  1.5069
 8198TIP3   OH224557   4.228   1.398   1.580  0.8742  0.3857  0.2937
 8198TIP3    H124558   4.174   1.351   1.517  1.3871  0.6643 -0.3799
 8198TIP3    H224559   4.240   1.337   1.653  0.8969 -0.2326 -0.2173
 8199TIP3   OH224560   5.098   1.934   1.537 -0.4686  0.1323 -0.0776
 8199TIP3    H124561   5.192   1.950   1.539 -0.5229  0.4760  2.3344
 8199TIP3    H224562   5.060   2.020   1.517 -0.2909 -0.0039 -1.0410
 8200TIP3   OH224563   4.193   3.515   2.310  0.2661 -0.3355 -0.1032
 8200TIP3    H124564   4.104   3.480   2.301 -0.8280  1.8086  1.4558
 8200TIP3    H224565   4.193   3.595   2.258  0.9285  0.2538  0.7754
 8201TIP3   OH224566   0.415   1.248   1.367 -0.0738  0.5316 -0.2510
 8201TIP3    H124567   0.451   1.314   1.308  1.4116 -0.3450 -0.3900
 8201TIP3    H224568   0.487   1.228   1.427 -0.7480 -0.3796  0.2903
 8202TIP3   OH224569   1.084   3.575   1.534 -0.0149 -0.1716  0.1769
 8202TIP3    H124570   0.998   3.565   1.575  0.1718 -0.9517  0.4013
 8202TIP3    H224571   1.141   3.606   1.604 -0.0557  0.0969  0.0922
 8203TIP3   OH224572   5.661   0.119   3.091  0.0262  0.3661 -0.0743
 8203TIP3    H124573   5.696   0.192   3.039  1.1105 -0.8688 -1.1680
 8203TIP3    H224574   5.617   0.064   3.027  1.5629 -1.2983  0.2186
 8204TIP3   OH224575   1.668   2.036   2.583 -0.3476 -0.9463  0.2028
 8204TIP3    H124576   1.591   2.005   2.535  1.7065 -1.7650 -2.9091
 8204TIP3    H224577   1.703   1.957   2.625 -1.2398 -0.5268  1.8384
 8205TIP3   OH224578   7.160   0.038   4.244  0.0960  0.1157  0.4210
 8205TIP3    H124579   7.234  -0.023   4.257  0.6747  0.5009 -0.9409
 8205TIP3    H224580   7.184   0.115   4.296  0.1161 -0.1911  0.8752
 8206TIP3   OH224581   6.388   1.988   1.488 -0.3064 -0.5631 -0.1187
 8206TIP3    H124582   6.309   2.040   1.470 -0.8331 -1.0792  0.6685
 8206TIP3    H224583   6.356   1.898   1.497  0.1619 -0.5927  1.5544
 8207TIP3   OH224584   7.161   0.447   0.514  0.2052 -0.1099  0.0127
 8207TIP3    H124585   7.228   0.490   0.461  3.0337 -1.9018  1.8573
 8207TIP3    H224586   7.170   0.488   0.601  0.0317 -1.4707  0.6899
 8208TIP3   OH224587   6.964   3.380   3.012 -0.2535 -0.0461  0.2251
 8208TIP3    H124588   6.928   3.327   3.083  0.2135  0.5869  0.9550
 8208TIP3    H224589   6.983   3.317   2.942  0.2475 -0.8373  1.0536
 8209TIP3   OH224590   1.619   5.779   2.661 -0.1748  0.0457 -0.9005
 8209TIP3    H124591   1.567   5.709   2.620 -0.4975  0.5587 -1.3911
 8209TIP3    H224592   1.704   5.740   2.677  0.1421 -0.0191 -2.5958
 8210TIP3   OH224593   2.886   5.877   3.448 -0.1073  0.0422 -0.1431
 8210TIP3    H124594   2.814   5.866   3.385 -1.5020  1.3250  1.1279
 8210TIP3    H224595   2.843   5.872   3.534  1.4376  0.2206  0.6800
 8211TIP3   OH224596   1.078   1.558   4.331 -0.0122  0.1905 -0.5021
 8211TIP3    H124597   0.994   1.583   4.369 -0.5030 -1.9152 -0.0814
 8211TIP3    H224598   1.068   1.573   4.237 -1.8665 -2.4336 -0.8324
 8212TIP3   OH224599   4.274   3.545   4.590 -0.2318  0.2385  0.1625
 8212TIP3    H124600   4.195   3.546   4.535 -0.0596 -0.2718 -0.1047
 8212TIP3    H224601   4.241   3.540   4.680 -0.5025 -0.1344  0.0446
 8213TIP3   OH224602   5.023   5.412   4.239  0.0841 -0.4420  0.2438
 8213TIP3    H124603   4.983   5.499   4.246  0.5097 -0.2349  0.1936
 8213TIP3    H224604   5.072   5.403   4.321 -0.6452 -0.9917  0.6211
 8214TIP3   OH224605   0.835   2.468   2.179  0.2227  0.2284  0.1429
 8214TIP3    H124606   0.861   2.393   2.232  1.5747  0.5310 -0.0648
 8214TIP3    H224607   0.828   2.541   2.242 -1.2580 -0.0824  0.3723
 8215TIP3   OH224608   6.195   3.159   1.958  0.3201 -0.2600 -0.4159
 8215TIP3    H124609   6.231   3.137   1.872  1.8768 -0.0372  0.1297
 8215TIP3    H224610   6.272   3.183   2.010 -0.5587 -0.6403  1.1209
 8216TIP3   OH224611   0.676   2.361   4.190 -0.5776  0.0464  0.0713
 8216TIP3    H124612   0.616   2.428   4.224  0.2897  0.2859  1.1858
 8216TIP3    H224613   0.672   2.290   4.253 -0.3717 -0.3258 -0.3284
 8217TIP3   OH224614   6.356   3.424   1.653  0.6568  0.4863 -0.2243
 8217TIP3    H124615   6.400   3.482   1.591  0.0784  0.3464 -0.7872
 8217TIP3    H224616   6.418   3.353   1.667  0.9643  0.7312 -0.3157
 8218TIP3   OH224617   1.809   2.930   3.958 -0.1791 -0.4319  0.3844
 8218TIP3    H124618   1.728   2.979   3.946  0.1652  0.0373 -0.0703
 8218TIP3    H224619   1.810   2.867   3.886  0.1182 -0.0706  0.0666
 8219TIP3   OH224620   0.243   1.230   0.551  0.1346 -0.0627 -0.1091
 8219TIP3    H124621   0.193   1.248   0.472  0.6629 -0.7709 -0.6166
 8219TIP3    H224622   0.231   1.136   0.566  1.8507 -0.3844 -0.6308
 8220TIP3   OH224623   0.565   5.917   2.142 -0.1400 -0.4637  0.2862
 8220TIP3    H124624   0.644   5.868   2.164 -0.3161 -1.5971 -1.3602
 8220TIP3    H224625   0.548   5.894   2.050 -0.6365  2.2057 -0.3581
 8221TIP3   OH224626   5.197   2.854   5.634  0.7087 -0.0637 -0.2438
 8221TIP3    H124627   5.255   2.928   5.649  0.9205  0.2099 -2.1129
 8221TIP3    H224628   5.152   2.876   5.552 -0.5095 -1.2152  0.0829
 8222TIP3   OH224629   7.195   0.251   4.406 -0.3632  0.0884  0.3128
 8222TIP3    H124630   7.250   0.278   4.479  0.4932  1.4740 -0.7807
 8222TIP3    H224631   7.159   0.333   4.371  0.6858 -0.2899 -1.8826
 8223TIP3   OH224632   6.527   0.234   3.544  0.4335 -0.4099  0.3470
 8223TIP3    H124633   6.588   0.224   3.617 -0.6035 -0.7412  1.1809
 8223TIP3    H224634   6.485   0.149   3.536 -0.4589  0.0248  0.2671
 8224TIP3   OH224635   3.284   6.563   0.610 -0.0263  0.2401 -0.2347
 8224TIP3    H124636   3.275   6.470   0.593 -0.6800  0.5939 -2.0222
 8224TIP3    H224637   3.203   6.588   0.654  1.4353 -0.5666  3.2708
 8225TIP3   OH224638   2.484   2.088   2.498 -0.1527 -0.1344 -0.2557
 8225TIP3    H124639   2.520   2.125   2.578  0.0350 -0.7260 -0.0650
 8225TIP3    H224640   2.554   2.097   2.433 -0.3770  0.5328 -0.4192
 8226TIP3   OH224641   0.097   4.502   3.666  0.1491 -0.6115  0.7342
 8226TIP3    H124642   0.061   4.574   3.614  1.9567 -0.1833  0.0244
 8226TIP3    H224643   0.039   4.428   3.646 -1.2472  0.4086  0.8456
 8227TIP3   OH224644   3.065   5.020   2.741  0.5586  0.5258 -0.1900
 8227TIP3    H124645   2.983   4.987   2.778  0.3154 -0.8529 -1.8468
 8227TIP3    H224646   3.107   5.067   2.813 -1.0693  0.1376  1.0609
 8228TIP3   OH224647   1.699   3.189   4.534  0.3937  0.1411  0.8593
 8228TIP3    H124648   1.651   3.248   4.475 -0.4586 -0.6225  0.7617
 8228TIP3    H224649   1.718   3.242   4.611  0.1401  0.7091  0.5346
 8229TIP3   OH224650   2.963   6.462   3.920  0.3907 -0.0255 -0.1082
 8229TIP3    H124651   3.042   6.502   3.883  1.4511 -0.9259  1.1026
 8229TIP3    H224652   2.971   6.475   4.014 -1.9209  1.6062 -0.0632
 8230TIP3   OH224653   2.557   4.796   2.310  0.1390  0.0549  0.7719
 8230TIP3    H124654   2.640   4.776   2.353 -0.5612 -0.9048  1.7441
 8230TIP3    H224655   2.491   4.753   2.364 -1.0187  0.9357  0.1224
 8231TIP3   OH224656   5.619   5.949   3.122 -0.2402 -0.6320 -0.0005
 8231TIP3    H124657   5.531   5.987   3.116  0.4522  1.3194  1.3191
 8231TIP3    H224658   5.614   5.890   3.197 -0.5401 -0.8940 -0.2243
 8232TIP3   OH224659   6.984   1.040   0.951 -0.0634 -0.6006 -0.1067
 8232TIP3    H124660   6.931   1.104   0.999 -0.4257 -1.4565  0.6679
 8232TIP3    H224661   7.067   1.037   0.998 -0.5945 -1.8070  0.8300
 8233TIP3   OH224662   1.788   2.237   4.404  0.1489 -0.2566 -0.0907
 8233TIP3    H124663   1.805   2.173   4.474  1.3215 -0.1860 -0.2956
 8233TIP3    H224664   1.693   2.250   4.407  0.3089  0.8817  2.4838
 8234TIP3   OH224665   6.231   5.653   0.962 -0.4312 -0.3711  0.0602
 8234TIP3    H124666   6.194   5.682   0.879 -0.6659 -0.5767  0.0926
 8234TIP3    H224667   6.201   5.719   1.025  0.2034  0.0889 -0.1109
 8235TIP3   OH224668   0.480   4.303   4.805 -0.3903 -0.0412 -0.1540
 8235TIP3    H124669   0.412   4.365   4.780 -1.4242 -1.0549  0.0804
 8235TIP3    H224670   0.468   4.291   4.899  0.3184 -0.0051 -0.0507
 8236TIP3   OH224671   2.813   6.515   3.276 -0.2752 -0.5248 -0.0874
 8236TIP3    H124672   2.809   6.423   3.252 -0.2029 -0.4057 -0.5606
 8236TIP3    H224673   2.899   6.544   3.245  0.1242 -0.5496  0.9576
 8237TIP3   OH224674   1.864   2.259   2.549  0.1633  0.2036 -0.6163
 8237TIP3    H124675   1.834   2.349   2.564 -0.3371 -0.2243  1.1818
 8237TIP3    H224676   1.786   2.212   2.522  0.4055  0.2590 -1.4554
 8238TIP3   OH224677   4.266   4.590   1.480  0.4392 -0.4706 -0.0258
 8238TIP3    H124678   4.192   4.608   1.421  0.5787  0.1822 -0.0056
 8238TIP3    H224679   4.324   4.665   1.470 -0.5066  0.7189  2.4565
 8239TIP3   OH224680   1.134   1.266   2.489  0.0811 -0.6203 -0.5017
 8239TIP3    H124681   1.088   1.306   2.563  1.2767 -0.4274  0.1635
 8239TIP3    H224682   1.086   1.296   2.411 -0.2847  0.4008  0.1064
 8240TIP3   OH224683   0.676   1.020   2.420  0.2184  0.1687 -0.2205
 8240TIP3    H124684   0.584   0.994   2.414  0.6666 -1.5589 -0.1929
 8240TIP3    H224685   0.683   1.064   2.505 -0.3973 -0.5649  0.2243
 8241TIP3   OH224686   1.166   4.061   2.578  0.2416  0.2646 -0.3565
 8241TIP3    H124687   1.164   4.099   2.666 -1.0010 -0.1526 -0.1796
 8241TIP3    H224688   1.176   4.136   2.519 -0.4774  0.7087  0.0711
 8242TIP3   OH224689   1.123   5.402   1.506 -0.3854 -0.3046 -0.0267
 8242TIP3    H124690   1.193   5.456   1.541  1.0523 -1.0228 -1.6370
 8242TIP3    H224691   1.050   5.414   1.567  0.3370  2.2716  0.4423
 8243TIP3   OH224692   0.259   0.700   2.372 -0.1885 -0.0035 -0.3295
 8243TIP3    H124693   0.253   0.611   2.406 -0.0391  0.0075 -0.2740
 8243TIP3    H224694   0.314   0.692   2.295  1.1268  0.2866  0.5567
 8244TIP3   OH224695   0.533   0.434   2.693 -0.1298 -1.0244 -0.0502
 8244TIP3    H124696   0.577   0.451   2.610 -1.1806  1.8858 -0.1131
 8244TIP3    H224697   0.448   0.476   2.684 -0.3394 -0.7564  2.4412
 8245TIP3   OH224698   7.062   0.944   2.895 -0.2210  0.8322 -0.3929
 8245TIP3    H124699   7.082   0.921   2.986  0.0051 -1.6125 -1.0080
 8245TIP3    H224700   6.970   0.971   2.897  0.2339  2.5162  0.7962
 8246TIP3   OH224701   1.619   4.092   3.044 -0.3028  0.3206 -0.1308
 8246TIP3    H124702   1.604   3.999   3.056 -1.3030  0.7176  2.0303
 8246TIP3    H224703   1.554   4.118   2.978 -0.2514 -0.4334 -0.4895
 8247TIP3   OH224704   4.061   4.581   3.698 -0.1834 -0.7989  0.0969
 8247TIP3    H124705   3.981   4.529   3.698 -1.1236  0.5287  2.1172
 8247TIP3    H224706   4.046   4.649   3.632  0.0059 -1.5270 -0.7176
 8248TIP3   OH224707   0.943   4.421   2.641  0.1994 -0.0797  0.5323
 8248TIP3    H124708   1.003   4.427   2.567  0.0617  2.2172  0.5143
 8248TIP3    H224709   0.924   4.328   2.650  0.3205 -0.4514 -2.2496
 8249TIP3   OH224710   0.888   3.260   1.480  0.7130  0.3618  0.2930
 8249TIP3    H124711   0.843   3.186   1.439  0.7219  0.7145 -0.3588
 8249TIP3    H224712   0.972   3.223   1.508  0.5865  0.0450  0.2675
 8250TIP3   OH224713   5.615   1.942   1.633 -0.1946 -0.5564 -0.3418
 8250TIP3    H124714   5.673   1.941   1.709  0.1215 -0.4799 -0.5815
 8250TIP3    H224715   5.531   1.973   1.667 -0.4442 -1.7930  0.2480
 8251TIP3   OH224716   6.230   2.004   5.441 -0.6681  0.0176  0.5062
 8251TIP3    H124717   6.214   2.023   5.534  0.8644 -2.3159  1.3201
 8251TIP3    H224718   6.309   2.053   5.420 -0.2396 -0.5273  0.8324
 8252TIP3   OH224719   6.367   0.581   4.250  0.0035  0.2701 -0.0495
 8252TIP3    H124720   6.323   0.544   4.174  0.3031  1.7512 -0.9869
 8252TIP3    H224721   6.381   0.673   4.228  3.8132 -0.1122  0.0591
 8253TIP3   OH224722   3.159   3.108   5.700 -0.3915 -0.3658 -0.3349
 8253TIP3    H124723   3.162   3.199   5.730  0.9407 -0.3406 -0.4526
 8253TIP3    H224724   3.118   3.060   5.773  0.4390  0.0863  0.4617
 8254TIP3   OH224725   5.099   3.083   4.463  0.9105  0.1398  0.6755
 8254TIP3    H124726   5.149   3.013   4.507 -0.2169  0.1449  2.0335
 8254TIP3    H224727   5.017   3.087   4.511  0.1744  1.1085 -0.6197
 8255TIP3   OH224728   4.104   4.856   2.480  0.0005  0.2336 -0.4907
 8255TIP3    H124729   4.100   4.942   2.440  1.8829  0.6783  0.1875
 8255TIP3    H224730   4.017   4.818   2.464 -0.7195  2.0584 -1.1709
 8256TIP3   OH224731   0.233   6.682   0.628 -0.0972 -0.1479 -0.1902
 8256TIP3    H124732   0.256   6.693   0.720 -0.5056 -0.2968 -0.0702
 8256TIP3    H224733   0.306   6.722   0.580  0.6301 -0.9943  0.1801
 8257TIP3   OH224734   6.842   3.303   5.516 -0.0729 -0.9358 -0.1254
 8257TIP3    H124735   6.797   3.262   5.442  1.8503 -1.4993 -1.0593
 8257TIP3    H224736   6.846   3.396   5.493 -0.7899 -0.8652  0.0076
 8258TIP3   OH224737   0.370   1.803   2.613 -0.1608  0.3833  0.3144
 8258TIP3    H124738   0.433   1.873   2.594 -0.7524  0.7346 -0.3656
 8258TIP3    H224739   0.341   1.822   2.703  0.1159  0.6720  0.3474
 8259TIP3   OH224740   2.358   4.149   5.326  0.3283  0.0373  0.2910
 8259TIP3    H124741   2.348   4.114   5.414  0.4472  0.1071  0.3315
 8259TIP3    H224742   2.329   4.078   5.268 -0.7643  0.3522  0.4186
 8260TIP3   OH224743   2.585   4.888   5.076  0.2955 -0.3486  0.5510
 8260TIP3    H124744   2.545   4.951   5.016  0.9622  0.4710  0.9471
 8260TIP3    H224745   2.628   4.942   5.143  0.7995 -1.2218  0.9513
 8261TIP3   OH224746   2.981   5.451   2.390  0.2099  0.3514  0.0339
 8261TIP3    H124747   2.909   5.393   2.415 -1.1079  1.7491 -0.3458
 8261TIP3    H224748   3.023   5.475   2.472  0.7978 -1.1399  0.1882
 8262TIP3   OH224749   5.396   4.696   0.373  0.3357  0.9596 -0.0326
 8262TIP3    H124750   5.415   4.782   0.410  1.2501  0.2269  1.3204
 8262TIP3    H224751   5.344   4.652   0.441  0.6746  0.1426 -0.2804
 8263TIP3   OH224752   7.114   5.974   2.158 -0.2502 -0.6225 -0.2102
 8263TIP3    H124753   7.089   5.882   2.148 -0.1435 -0.7418  0.5705
 8263TIP3    H224754   7.191   5.972   2.214 -0.4519 -0.0340  0.0979
 8264TIP3   OH224755   2.423   2.523   0.195  0.0835 -0.2762  0.1364
 8264TIP3    H124756   2.501   2.528   0.138  0.6758 -1.3710  0.8126
 8264TIP3    H224757   2.390   2.435   0.182 -1.0450  0.1637 -0.0980
 8265TIP3   OH224758   6.805   6.625   4.378  0.4356  0.2466  0.6708
 8265TIP3    H124759   6.789   6.675   4.458 -1.9689 -1.0092  1.0661
 8265TIP3    H224760   6.854   6.548   4.407  0.0302  0.0580  0.8628
 8266TIP3   OH224761   3.260   2.115   4.786 -0.0520  0.1053  0.6969
 8266TIP3    H124762   3.255   2.041   4.726  1.8646 -0.3338  1.0220
 8266TIP3    H224763   3.312   2.181   4.739 -0.5969  0.7247  0.9415
 8267TIP3   OH224764   4.419   0.867   1.541 -0.3815 -0.0820  0.6699
 8267TIP3    H124765   4.498   0.903   1.580  0.0748 -1.2464  0.8511
 8267TIP3    H224766   4.405   0.783   1.586 -2.4277  0.6562  1.5203
 8268TIP3   OH224767   6.337   4.743   1.913  0.5367 -0.3306 -0.3813
 8268TIP3    H124768   6.263   4.797   1.883 -1.1416 -0.6895  2.7165
 8268TIP3    H224769   6.344   4.762   2.007  4.5667 -0.2178 -0.5118
 8269TIP3   OH224770   3.154   2.554   5.037  0.3662  0.3142  0.0825
 8269TIP3    H124771   3.124   2.553   5.128  0.0174 -0.0075 -0.0370
 8269TIP3    H224772   3.240   2.596   5.042  0.4636  0.0682  0.5981
 8270TIP3   OH224773   3.837   1.994   4.401  0.5763  0.1119 -0.5854
 8270TIP3    H124774   3.883   1.914   4.427 -0.1822 -0.6009 -1.3724
 8270TIP3    H224775   3.757   1.994   4.453 -0.0323 -0.3232 -1.5020
 8271TIP3   OH224776   3.104   5.655   2.832  0.2246 -0.0737  0.1913
 8271TIP3    H124777   3.182   5.689   2.787  0.1515  0.5080  0.5047
 8271TIP3    H224778   3.123   5.665   2.925  1.1965 -3.0480  0.4278
 8272TIP3   OH224779   1.884   2.739   0.759  0.0486 -0.9005 -0.1248
 8272TIP3    H124780   1.966   2.762   0.715 -0.6996 -0.5204 -1.3586
 8272TIP3    H224781   1.911   2.706   0.845  1.3818  1.4875  0.4575
 8273TIP3   OH224782   4.189   5.631   2.040  0.0139  0.2713 -0.0739
 8273TIP3    H124783   4.169   5.622   1.947  0.3365  0.6963 -0.1899
 8273TIP3    H224784   4.284   5.645   2.043 -0.0875  0.9505  0.2617
 8274TIP3   OH224785   6.217   5.642   5.053 -0.1302  0.3678 -0.3104
 8274TIP3    H124786   6.312   5.625   5.053  0.4308  3.0171  0.1371
 8274TIP3    H224787   6.188   5.612   5.139  0.4002  0.0365 -0.2374
 8275TIP3   OH224788   5.196   5.634   2.886  0.1777  0.1776  0.4416
 8275TIP3    H124789   5.279   5.597   2.917  0.7956  0.4874 -0.7740
 8275TIP3    H224790   5.137   5.626   2.960  1.2978 -0.0523  1.3363
 8276TIP3   OH224791   3.060   5.912   0.812  0.4908  0.6165 -0.6627
 8276TIP3    H124792   3.028   5.941   0.726  1.7782  0.7310 -1.1347
 8276TIP3    H224793   2.997   5.948   0.874  0.1210  1.4653 -1.4926
 8277TIP3   OH224794   1.827   3.449   1.536 -0.2112  0.2558  0.4099
 8277TIP3    H124795   1.910   3.434   1.581  1.4018  2.6399 -1.5354
 8277TIP3    H224796   1.809   3.367   1.491  0.4644 -0.6797  1.7770
 8278TIP3   OH224797   5.663   3.945   2.302 -0.5487 -0.2541  0.8040
 8278TIP3    H124798   5.746   3.988   2.323 -1.1707  1.1189  0.5298
 8278TIP3    H224799   5.675   3.912   2.213 -0.6586  0.8827  0.3583
 8279TIP3   OH224800   0.159   1.502   1.316  0.1910 -0.0920  0.2652
 8279TIP3    H124801   0.199   1.497   1.403  1.1523 -1.4685 -0.2175
 8279TIP3    H224802   0.122   1.415   1.301  0.4119 -0.0061 -0.8585
 8280TIP3   OH224803   5.836   1.712   5.886 -0.9032  0.7206 -0.2317
 8280TIP3    H124804   5.743   1.701   5.868 -0.5253 -0.0552 -1.8795
 8280TIP3    H224805   5.880   1.680   5.807  0.7464  1.6135  0.2802
 8281TIP3   OH224806   5.261   1.604   2.994  0.1664 -0.4532  0.6233
 8281TIP3    H124807   5.305   1.639   3.072  2.9498 -0.6728 -0.7041
 8281TIP3    H224808   5.266   1.675   2.930  0.7169 -1.2863 -0.2899
 8282TIP3   OH224809   6.717   1.526   0.388  0.2547 -0.1294 -0.0821
 8282TIP3    H124810   6.736   1.432   0.380 -0.4561 -0.3089  0.2881
 8282TIP3    H224811   6.781   1.568   0.331  2.0353 -0.7001  1.3831
 8283TIP3   OH224812   7.039   3.974   3.789 -0.9401 -0.2689  0.3354
 8283TIP3    H124813   6.957   4.013   3.818 -0.8581  0.2653 -0.1323
 8283TIP3    H224814   7.105   4.007   3.850 -0.9872 -0.2757  0.3903
 8284TIP3   OH224815   5.293   2.219   1.207 -0.0352 -0.0211  0.0964
 8284TIP3    H124816   5.301   2.314   1.212  0.9020 -0.1338  1.0996
 8284TIP3    H224817   5.362   2.193   1.145  0.0393 -0.0869  0.2068
 8285TIP3   OH224818   2.550   3.078   1.829 -0.2406  0.2697  0.5165
 8285TIP3    H124819   2.464   3.055   1.864  0.3885 -1.1480  1.2085
 8285TIP3    H224820   2.531   3.129   1.750 -1.7197 -0.5304  0.3262
 8286TIP3   OH224821   2.967   0.664   0.625  0.0424  0.2722 -0.1204
 8286TIP3    H124822   2.986   0.596   0.690 -0.6966  1.3319  1.2532
 8286TIP3    H224823   2.937   0.615   0.548 -0.3402 -0.9684  0.7834
 8287TIP3   OH224824   6.602   3.837   3.801 -0.3908  0.2709 -0.0476
 8287TIP3    H124825   6.603   3.933   3.800 -0.5743  0.2751  0.1186
 8287TIP3    H224826   6.673   3.812   3.742 -1.5858  0.5060 -1.6543
 8288TIP3   OH224827   0.606   3.257  -0.009  0.1897 -0.1930  0.2520
 8288TIP3    H124828   0.679   3.314   0.015 -0.2689 -0.1196  1.5593
 8288TIP3    H224829   0.532   3.291   0.041 -1.0495  0.4509 -1.9095
 8289TIP3   OH224830   0.385   5.329   5.605 -0.0417 -0.0005  0.3418
 8289TIP3    H124831   0.454   5.312   5.541 -1.0749 -2.3923 -0.2413
 8289TIP3    H224832   0.400   5.265   5.675 -1.1521  0.0198  0.6199
 8290TIP3   OH224833   0.061   4.368   4.299 -0.1807 -0.4702 -0.1223
 8290TIP3    H124834   0.037   4.460   4.312  1.5999 -0.1033  0.9026
 8290TIP3    H224835  -0.021   4.325   4.276 -1.7297  0.8031  2.5152
 8291TIP3   OH224836   2.111   5.762   0.954  0.1789  1.0344  0.1039
 8291TIP3    H124837   2.118   5.697   1.024 -0.8114  2.1145  1.2453
 8291TIP3    H224838   2.128   5.846   0.997 -2.3492  1.9307 -0.4927
 8292TIP3   OH224839   6.291   5.873   2.230 -0.1611 -0.5702 -0.3240
 8292TIP3    H124840   6.352   5.877   2.303 -2.5219  0.3236  1.7227
 8292TIP3    H224841   6.229   5.805   2.255 -0.6471 -0.7179 -1.8421
 8293TIP3   OH224842   2.172   4.702   5.153  0.3869 -0.6814 -0.4202
 8293TIP3    H124843   2.151   4.789   5.187  1.2715 -0.3258 -0.7377
 8293TIP3    H224844   2.106   4.645   5.190 -0.9841  0.3210 -1.2079
 8294TIP3   OH224845   6.699   4.024   1.424  0.3521 -0.4248  0.3277
 8294TIP3    H124846   6.636   3.999   1.491  1.6670  0.5984  2.0024
 8294TIP3    H224847   6.781   3.983   1.450  1.5259  2.0452  0.8397
 8295TIP3   OH224848   4.305   3.411   0.105 -0.2807 -0.4454 -0.1715
 8295TIP3    H124849   4.222   3.421   0.058 -0.7060  1.6868  0.9075
 8295TIP3    H224850   4.315   3.492   0.154  1.7439 -1.2552  0.8916
 8296TIP3   OH224851   1.869   6.256   2.007 -0.4997  0.3509  0.1175
 8296TIP3    H124852   1.865   6.171   1.964 -1.4837  0.7700 -0.6882
 8296TIP3    H224853   1.953   6.293   1.980 -0.2509 -0.1981  0.1425
 8297TIP3   OH224854   3.121   3.715   0.009  0.1741 -0.4105  0.3013
 8297TIP3    H124855   3.115   3.791   0.068 -1.7337 -1.0076  0.9762
 8297TIP3    H224856   3.207   3.678   0.027 -0.2621 -0.4682  2.6520
 8298TIP3   OH224857   5.724   4.122   0.758 -0.3800 -0.0650 -0.2862
 8298TIP3    H124858   5.669   4.119   0.836 -0.9808  1.9829 -0.5893
 8298TIP3    H224859   5.810   4.091   0.788  0.0986  2.9579  1.8619
 8299TIP3   OH224860   2.087   1.234   1.303  0.1108 -0.1296 -0.3656
 8299TIP3    H124861   2.047   1.270   1.381  0.2936  1.2816 -0.8981
 8299TIP3    H224862   2.014   1.208   1.247 -0.0344  0.1777 -0.3174
 8300TIP3   OH224863   1.387   0.003   0.095 -0.9268  0.6501  0.0966
 8300TIP3    H124864   1.294   0.028   0.089 -1.0946 -0.2365 -1.4726
 8300TIP3    H224865   1.406   0.004   0.189 -3.2829 -1.8407  0.7191
 8301TIP3   OH224866   2.134   4.113   3.143  0.3940 -0.0732 -0.0815
 8301TIP3    H124867   2.152   4.190   3.089 -0.4905 -0.1326 -0.4712
 8301TIP3    H224868   2.074   4.144   3.210 -0.5308 -0.5630 -0.6569
 8302TIP3   OH224869   6.249   3.596   2.470  0.1377 -0.4552 -0.5855
 8302TIP3    H124870   6.275   3.681   2.437 -0.1234 -0.0804  0.1450
 8302TIP3    H224871   6.324   3.566   2.521 -0.1602 -0.1690  0.0450
 8303TIP3   OH224872   3.978   4.848   5.052  0.4399 -0.2924  0.1142
 8303TIP3    H124873   3.927   4.913   5.101  0.3188 -0.4287  0.1689
 8303TIP3    H224874   3.912   4.792   5.011  0.5438 -0.4228  0.1235
 8304TIP3   OH224875   6.188   0.172   2.860  0.3066  0.0571  0.1470
 8304TIP3    H124876   6.231   0.173   2.945 -2.0375 -1.0762  1.4250
 8304TIP3    H224877   6.097   0.150   2.878 -0.0316 -1.5207 -2.7636
 8305TIP3   OH224878   5.552   2.052   4.051 -0.1758 -0.0510  0.2753
 8305TIP3    H124879   5.467   2.095   4.065  1.2656  2.8790  0.9538
 8305TIP3    H224880   5.572   2.070   3.959 -0.3013 -0.7927  0.0996
 8306TIP3   OH224881   4.799   2.928   0.943  0.6754  0.0326 -0.0017
 8306TIP3    H124882   4.730   2.928   0.877  3.6600 -1.8238 -3.5498
 8306TIP3    H224883   4.820   3.020   0.957 -0.5891  0.5047 -1.0238
 8307TIP3   OH224884   0.777   3.142   0.938  0.6873  0.3823 -0.3455
 8307TIP3    H124885   0.685   3.167   0.946 -0.0817 -1.9601 -1.0898
 8307TIP3    H224886   0.813   3.153   1.027 -0.7259 -0.1436  0.3178
 8308TIP3   OH224887   2.662   3.441   5.304 -0.2718  0.3807  0.0846
 8308TIP3    H124888   2.653   3.490   5.386  0.1061  2.0052 -0.8004
 8308TIP3    H224889   2.756   3.426   5.295 -0.4401 -1.2401  0.7245
 8309TIP3   OH224890   2.316   0.265   3.812 -0.1057  0.2089  0.6558
 8309TIP3    H124891   2.300   0.184   3.861 -0.8371 -0.8374 -1.2086
 8309TIP3    H224892   2.255   0.328   3.850 -2.4673 -1.2620 -0.4552
 8310TIP3   OH224893   3.260   1.772   5.069 -0.3111  0.0482  0.5939
 8310TIP3    H124894   3.329   1.838   5.068  0.1071 -0.3784  0.4854
 8310TIP3    H224895   3.241   1.756   4.976 -0.4541  0.0618  0.6204
 8311TIP3   OH224896   2.637   0.163   2.784 -0.5270  0.1985  0.1329
 8311TIP3    H124897   2.615   0.134   2.873  0.3503  0.2159  0.3688
 8311TIP3    H224898   2.554   0.187   2.745 -1.1244 -1.3007  0.4153
 8312TIP3   OH224899   3.335   4.998   5.318  0.4518  0.4131 -0.0082
 8312TIP3    H124900   3.342   4.907   5.345  1.1676  0.0807 -1.2583
 8312TIP3    H224901   3.411   5.013   5.261  1.3760  2.3118  1.5963
 8313TIP3   OH224902   3.566   0.880   0.444  0.1738 -0.2410  0.4704
 8313TIP3    H124903   3.590   0.788   0.461 -1.8148 -0.8316  0.3098
 8313TIP3    H224904   3.636   0.930   0.486  0.5944 -1.8056  1.7793
 8314TIP3   OH224905   0.754   3.846   5.508 -0.4288  0.1379  0.6126
 8314TIP3    H124906   0.731   3.764   5.464  0.1983  1.2524 -1.9516
 8314TIP3    H224907   0.841   3.830   5.545  0.5677  0.1755 -1.5674
 8315TIP3   OH224908   4.545   2.287   0.395 -0.5611 -0.1973  0.5795
 8315TIP3    H124909   4.556   2.367   0.447 -1.4033 -0.5392  1.3114
 8315TIP3    H224910   4.557   2.315   0.305 -1.1696  0.8280  0.7959
 8316TIP3   OH224911   0.316   5.395   2.227 -0.3808  0.4715 -0.2754
 8316TIP3    H124912   0.294   5.396   2.320  0.2861  0.7084 -0.1116
 8316TIP3    H224913   0.260   5.327   2.190 -0.7075  0.4254  0.2852
 8317TIP3   OH224914   4.887   5.503   2.937 -0.7525 -0.0322  0.5804
 8317TIP3    H124915   4.884   5.423   2.885  2.0743  0.2560 -0.1856
 8317TIP3    H224916   4.929   5.477   3.019  3.2401  1.0543 -0.8815
 8318TIP3   OH224917   5.468   3.825   1.882  0.0944  0.0263 -0.2949
 8318TIP3    H124918   5.496   3.758   1.944  0.0053  0.0776 -0.1967
 8318TIP3    H224919   5.492   3.908   1.924  3.1116  0.0423 -1.8046
 8319TIP3   OH224920   1.419   2.873   0.233  0.0920 -0.0186 -0.3350
 8319TIP3    H124921   1.361   2.888   0.308 -0.1451 -1.3202 -0.2381
 8319TIP3    H224922   1.399   2.945   0.173 -0.3345  0.5574  0.4703
 8320TIP3   OH224923   6.365   0.822   0.675 -0.3331  0.0862  0.0641
 8320TIP3    H124924   6.324   0.822   0.762  1.5631  0.7583  1.0171
 8320TIP3    H224925   6.340   0.906   0.636 -1.2056 -0.2259 -0.0754
 8321TIP3   OH224926   5.002   3.442   2.655  0.3012  0.2229  0.3080
 8321TIP3    H124927   5.025   3.349   2.655 -0.2140  0.0915 -0.0514
 8321TIP3    H224928   4.919   3.447   2.702  0.2493  0.4774  0.1913
 8322TIP3   OH224929   1.547   5.385   4.971 -0.5275 -0.0334 -0.2370
 8322TIP3    H124930   1.546   5.469   5.018 -1.0564  0.0167 -0.3280
 8322TIP3    H224931   1.473   5.391   4.911 -1.7966 -1.3339  1.1051
 8323TIP3   OH224932   0.356   5.425   3.437 -0.4505 -0.8522 -0.3061
 8323TIP3    H124933   0.305   5.465   3.508 -0.0777  0.1587 -0.5862
 8323TIP3    H224934   0.313   5.341   3.421 -0.7589 -0.9446  0.8707
 8324TIP3   OH224935   3.523   4.172   5.817  0.5905  0.0423 -0.1099
 8324TIP3    H124936   3.484   4.135   5.896  0.2820  0.0825 -0.2428
 8324TIP3    H224937   3.454   4.227   5.780  1.1494  1.0429  0.2799
 8325TIP3   OH224938   1.486   5.586   2.489 -0.1378 -0.2467 -0.6500
 8325TIP3    H124939   1.481   5.501   2.445  0.8508 -0.1885 -0.8916
 8325TIP3    H224940   1.395   5.617   2.491 -0.4708 -1.1724 -0.8134
 8326TIP3   OH224941   4.688   5.539   3.471 -0.0562 -0.3309  0.0515
 8326TIP3    H124942   4.739   5.598   3.525 -0.0824 -0.9075  0.7229
 8326TIP3    H224943   4.654   5.473   3.532  0.1537 -1.1632 -0.6996
 8327TIP3   OH224944  -0.001   2.619   3.168 -0.6219 -0.7232  0.2566
 8327TIP3    H124945  -0.022   2.575   3.086 -2.3290 -1.2247  0.9145
 8327TIP3    H224946   0.091   2.598   3.184  0.3362  0.8945 -2.3973
 8328TIP3   OH224947   3.346   1.034   0.776  0.0870 -0.1088  0.5517
 8328TIP3    H124948   3.318   0.956   0.728  1.0311 -0.5271  0.6553
 8328TIP3    H224949   3.439   1.020   0.792 -0.0128  0.4537  1.6997
 8329TIP3   OH224950   3.231   0.977   2.634  0.6230 -0.5555  0.1028
 8329TIP3    H124951   3.189   0.898   2.668  1.9783 -0.8982  1.0369
 8329TIP3    H224952   3.163   1.018   2.580 -0.0299 -2.4698 -0.6355
 8330TIP3   OH224953   6.728   3.928   3.370 -0.2627  0.1887  0.3934
 8330TIP3    H124954   6.764   3.855   3.321 -2.0592 -0.8767  0.5889
 8330TIP3    H224955   6.788   3.938   3.445  0.8115 -0.1011 -0.3951
 8331TIP3   OH224956   5.096   0.925   1.665 -0.5114 -0.1883  0.1992
 8331TIP3    H124957   5.048   0.893   1.589 -1.9539  2.2957 -0.0500
 8331TIP3    H224958   5.045   0.895   1.740  0.2114 -1.5458  0.1833
 8332TIP3   OH224959   6.366   2.810   4.798 -0.1612 -0.7878  0.1808
 8332TIP3    H124960   6.445   2.773   4.759 -0.6163 -2.1385  0.5042
 8332TIP3    H224961   6.327   2.862   4.727  0.9643 -0.1434  0.0030
 8333TIP3   OH224962   4.695   2.065   1.392 -0.0103  0.0052 -0.2924
 8333TIP3    H124963   4.672   2.155   1.370 -0.7223  0.5596  2.3391
 8333TIP3    H224964   4.785   2.071   1.425 -0.1110 -0.2195  0.0251
 8334TIP3   OH224965   2.573   5.592   4.738 -0.1999  0.3357 -0.3535
 8334TIP3    H124966   2.616   5.506   4.735 -1.5671 -0.3884  0.1854
 8334TIP3    H224967   2.642   5.651   4.770  0.2369 -0.9099  1.1464
 8335TIP3   OH224968   2.580   0.178   0.765 -0.5004 -0.8675 -0.6709
 8335TIP3    H124969   2.645   0.226   0.817 -0.7242 -2.2253  0.9381
 8335TIP3    H224970   2.506   0.239   0.758  0.1587 -0.0557 -0.8173
 8336TIP3   OH224971   2.884   1.606   2.643  0.1749 -0.5488  0.6239
 8336TIP3    H124972   2.789   1.607   2.631  0.1637  0.6546  0.7756
 8336TIP3    H224973   2.912   1.696   2.626  1.4336 -1.1083 -0.4969
 8337TIP3   OH224974   0.161   1.074   1.909 -0.1461 -0.8238 -0.4178
 8337TIP3    H124975   0.156   1.151   1.852 -0.8885 -0.5180  0.0389
 8337TIP3    H224976   0.227   1.018   1.868 -0.2047 -0.3256 -1.2253
 8338TIP3   OH224977   0.432   3.466   0.439  0.2023  0.1041  0.2353
 8338TIP3    H124978   0.368   3.421   0.495  0.1438 -0.3966 -0.2285
 8338TIP3    H224979   0.399   3.556   0.435 -0.0496  0.0372  0.6229
 8339TIP3   OH224980   2.355   0.027   4.321  0.0477 -0.0457 -0.3694
 8339TIP3    H124981   2.358  -0.068   4.322 -0.9032 -0.1667 -2.8291
 8339TIP3    H224982   2.277   0.049   4.372 -0.3992 -0.6588 -0.7723
 8340TIP3   OH224983   2.343   1.308   1.592 -0.6454  0.3197 -0.0987
 8340TIP3    H124984   2.384   1.241   1.537 -0.2743 -0.6340  1.2766
 8340TIP3    H224985   2.309   1.260   1.667  0.5705  1.7557  1.4755
 8341TIP3   OH224986   0.722   5.985   2.796  0.0403  0.5814  0.8825
 8341TIP3    H124987   0.805   5.939   2.814  0.7328  1.1404 -0.6464
 8341TIP3    H224988   0.749   6.062   2.746 -1.5505 -0.3818 -1.6396
 8342TIP3   OH224989   2.122   2.481   0.476  0.4687  0.4039  0.2868
 8342TIP3    H124990   2.097   2.490   0.384  0.8967 -1.1916 -0.0181
 8342TIP3    H224991   2.057   2.422   0.513  0.1736  1.2121  1.0747
 8343TIP3   OH224992   4.205   3.138   2.777  0.7647  0.3082  0.0511
 8343TIP3    H124993   4.113   3.128   2.804  0.8813  0.5857  0.5686
 8343TIP3    H224994   4.199   3.176   2.689  0.3781  0.4139  0.1160
 8344TIP3   OH224995   4.638   4.499   4.233  0.0402  0.4614  0.0962
 8344TIP3    H124996   4.693   4.560   4.183  2.2795 -0.0051  1.8322
 8344TIP3    H224997   4.691   4.419   4.240 -1.1605 -0.2700  1.2787
 8345TIP3   OH224998   5.716   5.786   2.421  0.2737  0.1912 -0.1878
 8345TIP3    H124999   5.722   5.696   2.455  0.0344  0.6200  1.0648
 8345TIP3    H225000   5.801   5.803   2.382  1.2944  0.3242  1.9739
 8346TIP3   OH225001   6.269   5.573   1.917 -0.1918 -0.0232 -0.5851
 8346TIP3    H125002   6.267   5.577   1.822 -2.5669 -1.2106 -0.6642
 8346TIP3    H225003   6.258   5.663   1.946 -0.6161  0.2080 -1.4508
 8347TIP3   OH225004   0.721   3.482   2.470  0.1128 -0.4460 -0.1707
 8347TIP3    H125005   0.680   3.551   2.522 -0.5314 -0.7179 -0.3071
 8347TIP3    H225006   0.800   3.460   2.518 -0.2602 -0.3978  0.4766
 8348TIP3   OH225007   3.128   4.722   1.672  0.1520  0.7157 -0.2780
 8348TIP3    H125008   3.180   4.676   1.739  1.0502 -0.3790 -1.6678
 8348TIP3    H225009   3.135   4.814   1.696  0.5508  0.3639  1.0623
 8349TIP3   OH225010   4.112   3.845   5.411  0.0959 -0.1582 -0.3743
 8349TIP3    H125011   4.139   3.936   5.394  1.7578 -0.6183 -0.4274
 8349TIP3    H225012   4.020   3.842   5.385  0.2693  1.2724 -1.3019
 8350TIP3   OH225013   1.863   2.775   3.405 -0.2806 -0.3190 -0.1619
 8350TIP3    H125014   1.948   2.731   3.397  0.6358  1.2936  0.2466
 8350TIP3    H225015   1.851   2.818   3.320 -1.1343 -1.2339 -0.5309
 8351TIP3   OH225016   4.160   4.960   1.724 -0.2283  0.6085  0.1730
 8351TIP3    H125017   4.168   4.958   1.629 -0.9435 -1.6112  0.0927
 8351TIP3    H225018   4.246   4.932   1.756  0.6422  3.1638  0.3230
 8352TIP3   OH225019   4.656   0.470   2.226  0.3532  0.6113  0.1105
 8352TIP3    H125020   4.702   0.499   2.304 -0.0377 -0.2631  0.6838
 8352TIP3    H225021   4.595   0.403   2.257 -1.6305  2.0107 -0.5446
 8353TIP3   OH225022   6.303   6.081   5.650  0.1794  0.4897  0.0277
 8353TIP3    H125023   6.212   6.062   5.626  0.6266  0.5816 -1.8876
 8353TIP3    H225024   6.316   6.033   5.732 -0.2121 -3.6305 -2.0456
 8354TIP3   OH225025   1.421   0.335   3.914  0.0822 -0.2280  0.0975
 8354TIP3    H125026   1.378   0.250   3.920 -0.7684  0.2477  1.0635
 8354TIP3    H225027   1.354   0.393   3.877 -0.3950  0.6723  2.2434
 8355TIP3   OH225028   0.933   3.216   4.437 -0.3997 -0.0682  0.1896
 8355TIP3    H125029   0.886   3.289   4.477  0.2426 -0.2078  1.2337
 8355TIP3    H225030   1.023   3.224   4.470  0.1533 -0.2297 -1.1885
 8356TIP3   OH225031   4.756   4.611   1.183 -0.0102 -0.0526 -0.0704
 8356TIP3    H125032   4.736   4.692   1.231  0.6414 -0.2982  0.6307
 8356TIP3    H225033   4.836   4.632   1.135 -0.3081 -0.0167 -0.5615
 8357TIP3   OH225034   0.437   4.240   5.521 -0.1782  0.4907 -0.5806
 8357TIP3    H125035   0.471   4.312   5.466  1.5076  0.0599 -0.1660
 8357TIP3    H225036   0.515   4.199   5.557 -1.1709 -0.7812  0.2024
 8358TIP3   OH225037   6.044   4.782   4.007 -0.2121  0.3701  0.1475
 8358TIP3    H125038   6.132   4.792   3.971  0.0569  0.9132  0.9217
 8358TIP3    H225039   6.056   4.785   4.102 -1.1501  1.4199  0.2628
 8359TIP3   OH225040   2.226   3.496   1.125 -0.0856  0.0519 -0.1466
 8359TIP3    H125041   2.159   3.439   1.161  1.7492 -1.5076  1.0009
 8359TIP3    H225042   2.258   3.449   1.048 -0.2535  0.7679 -0.6679
 8360TIP3   OH225043   6.940   6.765   1.746 -0.1140 -0.3588  0.0860
 8360TIP3    H125044   7.030   6.780   1.716  0.1820 -0.5275  0.8630
 8360TIP3    H225045   6.909   6.692   1.693  0.8540 -1.5190  1.0335
 8361TIP3   OH225046   3.828   0.902   3.150 -0.7214 -0.4027 -0.2396
 8361TIP3    H125047   3.879   0.982   3.154 -0.6004 -0.5099  0.6011
 8361TIP3    H225048   3.743   0.925   3.188 -0.6211 -0.7186  0.1793
 8362TIP3   OH225049   5.196   0.386   3.441 -0.2987  0.0607 -0.0473
 8362TIP3    H125050   5.262   0.428   3.495  1.5873  0.9474 -2.8220
 8362TIP3    H225051   5.217   0.292   3.447 -1.1018 -0.0491  1.8542
 8363TIP3   OH225052   5.417   1.371   2.946  0.4167  0.2223 -0.0003
 8363TIP3    H125053   5.387   1.282   2.928 -1.1118  0.8616 -0.7670
 8363TIP3    H225054   5.338   1.420   2.968  1.1535  1.5094 -0.0870
 8364TIP3   OH225055   2.696   2.788   5.848 -0.1308 -0.4044 -0.6034
 8364TIP3    H125056   2.761   2.742   5.796  0.8460  0.2663  0.0012
 8364TIP3    H225057   2.723   2.880   5.845 -0.4441 -0.2571  0.5017
 8365TIP3   OH225058   0.767   2.461   5.178  0.3220  0.5754  0.5360
 8365TIP3    H125059   0.809   2.501   5.102  0.5471 -0.3125  0.1761
 8365TIP3    H225060   0.793   2.517   5.252  2.8584 -0.3640  0.4573
 8366TIP3   OH225061   2.667   4.335   3.127  0.2409  0.2710 -0.1491
 8366TIP3    H125062   2.574   4.359   3.133  0.0513 -0.8656  2.5776
 8366TIP3    H225063   2.708   4.411   3.086 -1.8067  0.9735 -1.0526
 8367TIP3   OH225064   5.772   2.879   1.095 -0.1170 -0.0618 -0.1019
 8367TIP3    H125065   5.830   2.949   1.125 -0.5644  0.3270 -0.1302
 8367TIP3    H225066   5.743   2.907   1.008  0.9908 -1.0776 -0.8278
 8368TIP3   OH225067   1.438   6.258   2.358  0.1570  0.0184 -0.2850
 8368TIP3    H125068   1.412   6.303   2.278  0.7194  0.9648  0.0439
 8368TIP3    H225069   1.374   6.286   2.424  0.6287  0.5319 -0.0295
 8369TIP3   OH225070   1.840   6.104   0.475 -0.4506  0.1098  0.5282
 8369TIP3    H125071   1.781   6.040   0.435 -0.0184 -0.3559  0.6150
 8369TIP3    H225072   1.785   6.181   0.492 -0.6814  0.2559 -0.7873
 8370TIP3   OH225073   4.146   3.840   0.257 -0.0390 -0.1881 -0.3490
 8370TIP3    H125074   4.210   3.895   0.212 -1.3353  1.0364 -0.8110
 8370TIP3    H225075   4.129   3.768   0.196 -0.6017  0.6014 -1.1545
 8371TIP3   OH225076   7.033   1.783   1.444 -0.1499  0.5869  0.0810
 8371TIP3    H125077   6.979   1.750   1.372 -0.9741 -1.1458  1.4335
 8371TIP3    H225078   7.098   1.838   1.401 -0.5857 -0.4186 -1.9953
 8372TIP3   OH225079   2.163   0.474   0.020 -0.3700  0.4189  0.3082
 8372TIP3    H125080   2.217   0.553   0.021  0.4992 -0.1643  0.4519
 8372TIP3    H225081   2.147   0.454   0.112 -0.6077  0.4368  0.2718
 8373TIP3   OH225082   2.319   5.715   2.123  0.1592  0.6050 -0.3405
 8373TIP3    H125083   2.322   5.691   2.031 -0.0155  1.1386 -0.4891
 8373TIP3    H225084   2.229   5.745   2.137 -0.3431 -1.1622  0.4405
 8374TIP3   OH225085   3.800   1.375   3.815  0.0812  0.1233  0.1512
 8374TIP3    H125086   3.759   1.434   3.753  0.9429  1.2455  0.6204
 8374TIP3    H225087   3.741   1.373   3.890  0.2255  0.6761  0.2803
 8375TIP3   OH225088   4.107   6.297   3.988 -0.1906  0.0580 -0.3581
 8375TIP3    H125089   4.137   6.364   3.927 -0.8974  1.2779  0.5953
 8375TIP3    H225090   4.012   6.298   3.980 -0.1776 -1.8074 -1.3070
 8376TIP3   OH225091   2.371   6.511   2.991  0.0626 -0.1416  0.1347
 8376TIP3    H125092   2.432   6.449   3.030 -0.4525 -0.2361  0.8064
 8376TIP3    H225093   2.324   6.459   2.925 -0.2050 -0.4068  0.5314
 8377TIP3   OH225094   3.264   0.671   1.261  0.4155 -0.1752  0.0653
 8377TIP3    H125095   3.184   0.665   1.314 -0.4041  0.1404 -1.0748
 8377TIP3    H225096   3.327   0.615   1.305 -0.0769  0.4323  1.6211
 8378TIP3   OH225097   4.317   0.762   1.139  0.1080  0.7118  0.0448
 8378TIP3    H125098   4.318   0.810   1.056  0.3495 -0.5300 -0.6985
 8378TIP3    H225099   4.409   0.747   1.160  0.0412  0.7867  0.4037
 8379TIP3   OH225100   3.096   6.339   0.587 -0.2946 -0.2314 -0.2124
 8379TIP3    H125101   3.069   6.384   0.507 -1.3305 -0.2549  0.1034
 8379TIP3    H225102   3.045   6.381   0.656  0.2053 -0.5574  0.3555
 8380TIP3   OH225103   3.419   0.732   5.000  0.2023  0.0026 -0.5536
 8380TIP3    H125104   3.425   0.805   4.939 -0.6249  0.6591  0.1149
 8380TIP3    H225105   3.393   0.657   4.946  2.5215 -0.1921 -1.4889
 8381TIP3   OH225106   3.087   2.131   5.121 -0.1814  0.6892  0.2312
 8381TIP3    H125107   3.066   2.222   5.145  0.0362  0.7545  0.1726
 8381TIP3    H225108   3.058   2.079   5.195 -0.9180  0.7401 -0.0112
 8382TIP3   OH225109   5.574   2.166   4.707 -0.6574  0.4190 -0.1136
 8382TIP3    H125110   5.568   2.202   4.796 -1.8340  1.4023 -0.5742
 8382TIP3    H225111   5.532   2.080   4.713 -0.9162  0.5692  0.2308
 8383TIP3   OH225112   6.202   0.184   5.547  0.0792  0.3462 -0.1063
 8383TIP3    H125113   6.166   0.270   5.567 -1.5072  0.0082 -1.2889
 8383TIP3    H225114   6.261   0.198   5.473  1.6895  0.7420  1.1926
 8384TIP3   OH225115   5.458   2.748   4.020 -0.6724  0.0678  0.2572
 8384TIP3    H125116   5.498   2.791   3.944 -0.2313 -1.7648 -0.6182
 8384TIP3    H225117   5.417   2.669   3.984 -0.7768 -0.6567  1.8778
 8385TIP3   OH225118   3.822   5.563   0.380 -0.2757 -0.0212  0.1548
 8385TIP3    H125119   3.914   5.579   0.400  0.2289 -1.6309 -0.7586
 8385TIP3    H225120   3.799   5.631   0.315  0.3874  0.1066  0.0514
 8386TIP3   OH225121   1.833   3.931   0.208 -0.3563  0.0410 -0.2246
 8386TIP3    H125122   1.856   3.870   0.278  1.5326  0.7811 -0.1416
 8386TIP3    H225123   1.838   3.878   0.128  3.2436  0.4009 -0.3800
 8387TIP3   OH225124   5.320   3.748   4.587 -0.0651  0.5805 -0.6335
 8387TIP3    H125125   5.313   3.659   4.621  1.6921 -1.0273 -4.0300
 8387TIP3    H225126   5.237   3.762   4.540 -0.9167  1.3566  1.0155
 8388TIP3   OH225127   2.518   5.351   1.430 -0.0339 -0.5978  0.2362
 8388TIP3    H125128   2.598   5.403   1.419  0.1092 -0.7636  0.4725
 8388TIP3    H225129   2.549   5.268   1.468 -0.2111 -1.0067 -0.4927
 8389TIP3   OH225130   7.185   1.528   3.759 -0.1096 -0.5003  0.3550
 8389TIP3    H125131   7.256   1.468   3.736  0.1381 -0.2380  0.4218
 8389TIP3    H225132   7.105   1.484   3.730  0.0495 -0.9532  0.5893
 8390TIP3   OH225133   5.110   6.111   3.237  0.2569 -0.2795 -0.8346
 8390TIP3    H125134   5.118   6.085   3.145  0.5373  4.1836 -2.2889
 8390TIP3    H225135   5.193   6.154   3.258 -0.4179  0.2280  1.0222
 8391TIP3   OH225136   5.736   0.600   5.184  0.3918 -0.4200  0.2786
 8391TIP3    H125137   5.823   0.638   5.172  0.8187 -0.6852  2.2165
 8391TIP3    H225138   5.749   0.506   5.174  0.2129 -0.4141 -0.0138
 8392TIP3   OH225139   1.439   5.167   0.988  0.6408 -0.1947  0.2567
 8392TIP3    H125140   1.418   5.165   1.082  2.0936  3.2376  0.8106
 8392TIP3    H225141   1.370   5.222   0.950 -0.3792 -2.1799 -0.9287
 8393TIP3   OH225142   0.967   4.013   4.306 -0.4013 -0.3644  0.0259
 8393TIP3    H125143   0.981   4.099   4.266 -1.2313  0.3334  1.1698
 8393TIP3    H225144   0.922   3.962   4.239 -0.0926  0.1564 -0.5931
 8394TIP3   OH225145   6.344   3.291   5.386  0.3491  0.0024  0.8654
 8394TIP3    H125146   6.378   3.319   5.301  1.7213 -0.6992  1.1548
 8394TIP3    H225147   6.407   3.226   5.417 -1.8827 -2.2870  0.8972
 8395TIP3   OH225148   6.355   5.582   3.209 -0.5783  0.1482 -0.3596
 8395TIP3    H125149   6.320   5.631   3.135 -1.7291  1.7680  1.1763
 8395TIP3    H225150   6.449   5.601   3.209 -0.8219  1.4153 -0.4921
 8396TIP3   OH225151   6.852   2.158   2.226  0.5451  0.4073  0.4147
 8396TIP3    H125152   6.864   2.171   2.132  2.3957  2.1067  0.8307
 8396TIP3    H225153   6.761   2.182   2.241  0.5026  1.0979 -0.7862
 8397TIP3   OH225154   1.968   6.095   1.504 -0.2099 -0.0212 -0.5966
 8397TIP3    H125155   2.050   6.098   1.553 -0.5410  1.0987 -0.1045
 8397TIP3    H225156   1.930   6.182   1.513 -1.7574 -0.6886 -0.3091
 8398TIP3   OH225157   6.520   3.281   5.774 -0.7239 -0.4921  0.1312
 8398TIP3    H125158   6.612   3.304   5.790 -0.0427 -2.2706 -0.9400
 8398TIP3    H225159   6.471   3.358   5.803  0.9550 -0.1320  2.3342
 8399TIP3   OH225160   2.526   3.918   5.158  0.5837 -0.1667 -0.2155
 8399TIP3    H125161   2.443   3.896   5.115  0.8845 -1.3054 -0.2424
 8399TIP3    H225162   2.591   3.863   5.115  1.6425  1.7534 -1.2045
 8400TIP3   OH225163   7.062   5.900   1.597 -0.4384  0.2008 -0.1002
 8400TIP3    H125164   7.144   5.905   1.646  0.3163  0.0248 -1.2780
 8400TIP3    H225165   7.006   5.966   1.635  0.2987  0.4015  0.6602
 8401TIP3   OH225166   1.009   3.203   3.872  0.3997 -0.4322  0.6528
 8401TIP3    H125167   1.034   3.176   3.783  0.3064  1.3021  0.0568
 8401TIP3    H225168   0.992   3.121   3.918 -2.3064 -1.3806 -1.7463
 8402TIP3   OH225169   1.757   5.838   1.947 -0.8211  0.2255  0.1801
 8402TIP3    H125170   1.747   5.843   2.042 -0.7938  1.5761  0.1357
 8402TIP3    H225171   1.668   5.848   1.913 -0.6774  1.1090  0.0425
 8403TIP3   OH225172   5.705   3.122   0.280 -0.3580 -0.3778  0.0624
 8403TIP3    H125173   5.707   3.036   0.240  1.1218 -0.5846  0.5111
 8403TIP3    H225174   5.789   3.129   0.326 -0.3788  1.3551 -0.0961
 8404TIP3   OH225175   6.837   4.929   5.117 -0.3622 -0.3548  0.2329
 8404TIP3    H125176   6.923   4.957   5.149 -0.0601 -0.8916 -0.1091
 8404TIP3    H225177   6.787   5.011   5.111  0.1342 -0.0305  0.3922
 8405TIP3   OH225178   0.170   2.345   3.806  0.3238 -0.0680 -0.0699
 8405TIP3    H125179   0.141   2.336   3.896 -4.0522 -0.8708 -1.3412
 8405TIP3    H225180   0.196   2.437   3.798 -0.6852  0.3969  1.6171
 8406TIP3   OH225181   5.464   1.417   1.157 -0.2351 -0.7698  0.0385
 8406TIP3    H125182   5.378   1.376   1.160 -0.1336 -0.9562  0.4930
 8406TIP3    H225183   5.473   1.460   1.242  1.0125 -2.5917  0.8927
 8407TIP3   OH225184   0.391   3.308   4.260  0.9911 -0.3763  0.0833
 8407TIP3    H125185   0.465   3.341   4.311  1.7976 -0.6873 -0.8557
 8407TIP3    H225186   0.318   3.306   4.322  1.4770  0.9971  0.7486
 8408TIP3   OH225187   4.205   4.066   1.360  0.5619  0.3373 -0.0310
 8408TIP3    H125188   4.235   4.144   1.407 -0.2643  0.4049  0.3951
 8408TIP3    H225189   4.284   4.011   1.353  0.5711 -0.0472  2.1689
 8409TIP3   OH225190   6.617   1.502   3.667 -0.0183 -0.5702 -0.2280
 8409TIP3    H125191   6.563   1.578   3.690  0.5655 -0.3298  0.3592
 8409TIP3    H225192   6.662   1.527   3.587 -0.2963 -0.5370 -0.3758
 8410TIP3   OH225193   4.417   2.129   0.578 -0.0005 -0.0789 -0.0143
 8410TIP3    H125194   4.476   2.156   0.508 -0.6250 -2.0230 -1.3722
 8410TIP3    H225195   4.336   2.103   0.534 -1.0246  0.2122  1.5915
 8411TIP3   OH225196   5.144   1.267   5.237  0.4039  0.0812  0.0969
 8411TIP3    H125197   5.173   1.350   5.275  0.1219 -0.2553  1.0905
 8411TIP3    H225198   5.055   1.257   5.269  0.5926 -0.8172  0.3573
 8412TIP3   OH225199   3.622   3.629   5.114  0.0985 -0.2759 -0.4167
 8412TIP3    H125200   3.607   3.535   5.122  0.6358 -0.2867  0.6679
 8412TIP3    H225201   3.718   3.637   5.108  0.0015  0.0339 -3.4011
 8413TIP3   OH225202   5.194   1.927   4.267 -0.1539 -0.1607 -0.1100
 8413TIP3    H125203   5.194   1.833   4.248 -1.5068 -0.0681 -0.6355
 8413TIP3    H225204   5.220   1.932   4.359 -1.1661 -1.1314  0.2517
 8414TIP3   OH225205   3.765   2.465   2.832 -0.1482 -0.3202 -0.1918
 8414TIP3    H125206   3.714   2.528   2.885  2.9060  2.2985 -0.0596
 8414TIP3    H225207   3.777   2.509   2.748  2.8423 -0.2136  0.1979
 8415TIP3   OH225208   5.951   4.803   0.194  0.2608 -0.1205 -0.1115
 8415TIP3    H125209   5.988   4.857   0.124  1.9277 -0.8783  0.1396
 8415TIP3    H225210   5.994   4.834   0.274 -0.4472 -0.3192  0.3605
 8416TIP3   OH225211   6.563   5.324   5.887  0.4876 -0.5548  0.4908
 8416TIP3    H125212   6.607   5.255   5.836 -0.1465 -1.3580  0.9973
 8416TIP3    H225213   6.586   5.405   5.842  0.7778 -1.1480 -0.4709
 8417TIP3   OH225214   2.467   1.267   0.709  0.3609 -0.0533 -0.1459
 8417TIP3    H125215   2.471   1.362   0.702  1.1165 -0.1782 -2.0155
 8417TIP3    H225216   2.388   1.243   0.660 -0.1054 -0.3908  0.7365
 8418TIP3   OH225217   5.158   4.342   3.971 -0.6238  0.3474  0.9862
 8418TIP3    H125218   5.162   4.404   3.898 -2.2236 -1.4670 -0.7454
 8418TIP3    H225219   5.239   4.293   3.967 -1.4133 -0.8998 -0.7270
 8419TIP3   OH225220   5.618   6.101   4.000 -0.2669 -0.5021 -0.5088
 8419TIP3    H125221   5.696   6.157   3.998 -2.2578  2.5233  0.2445
 8419TIP3    H225222   5.629   6.046   4.078  0.9456  0.1154 -0.2294
 8420TIP3   OH225223   1.936   4.782   4.596 -0.2276  0.6629  0.0401
 8420TIP3    H125224   1.956   4.778   4.503 -1.4510  0.1097 -0.2118
 8420TIP3    H225225   1.873   4.712   4.611  1.4245 -0.5621  1.6903
 8421TIP3   OH225226   2.053  -0.018   1.010  0.0368  0.2505  0.2266
 8421TIP3    H125227   2.034   0.074   1.028 -0.5990  0.0302  0.7496
 8421TIP3    H225228   2.134  -0.017   0.960 -0.0896  1.1071  0.0214
 8422TIP3   OH225229   1.846   0.495   2.036  0.8754 -0.4298 -0.4936
 8422TIP3    H125230   1.769   0.538   1.999 -0.0938 -0.3633  1.4852
 8422TIP3    H225231   1.833   0.402   2.017 -0.7787 -0.6855  1.5372
 8423TIP3   OH225232   3.943   6.711   3.219  0.1892 -0.4597 -0.0351
 8423TIP3    H125233   4.032   6.679   3.207  0.4074  0.7950 -2.5606
 8423TIP3    H225234   3.890   6.632   3.228  1.2159 -1.3719 -1.5248
 8424TIP3   OH225235   3.028   0.535   5.642 -0.1537  0.2525 -0.3591
 8424TIP3    H125236   2.959   0.601   5.653  0.3269  0.6692  0.1890
 8424TIP3    H225237   3.019   0.506   5.551 -1.5161 -0.2240 -0.1030
 8425TIP3   OH225238   0.752   4.214   4.912  0.2828 -0.3581  0.2428
 8425TIP3    H125239   0.813   4.199   4.839  1.5213  1.4080  0.8367
 8425TIP3    H225240   0.665   4.208   4.872  0.8436 -1.7585 -0.8737
 8426TIP3   OH225241   5.590   0.903   2.030 -0.3995  0.3737 -0.0150
 8426TIP3    H125242   5.534   0.976   2.055  0.9278  0.7595  2.1491
 8426TIP3    H225243   5.606   0.915   1.937 -1.8056  1.6830 -0.1234
 8427TIP3   OH225244   1.137   2.624   0.389 -0.2048  0.2587  0.7023
 8427TIP3    H125245   1.171   2.536   0.370  0.2638  0.6826 -0.4745
 8427TIP3    H225246   1.042   2.613   0.389 -0.1716 -0.0703 -0.3512
 8428TIP3   OH225247   1.771   2.345   0.716  0.7823 -0.7247 -0.3103
 8428TIP3    H125248   1.772   2.340   0.811  1.7454 -0.8460 -0.3239
 8428TIP3    H225249   1.726   2.428   0.697 -0.6325 -1.3385  0.2040
 8429TIP3   OH225250   3.602   0.543   1.095  0.1989 -0.0637  0.0153
 8429TIP3    H125251   3.641   0.464   1.133  0.2058 -0.2585 -0.3915
 8429TIP3    H225252   3.670   0.610   1.103  0.3373 -0.2026  0.0018
 8430TIP3   OH225253   4.171   1.489   4.835  0.0447  0.7598 -0.0226
 8430TIP3    H125254   4.195   1.408   4.791 -5.3366 -1.0645 -0.3934
 8430TIP3    H225255   4.199   1.475   4.926  1.4502 -0.3478 -0.5762
 8431TIP3   OH225256   0.934   2.169   2.911 -0.4239 -0.0779  0.6524
 8431TIP3    H125257   0.886   2.219   2.845  0.4646  0.0560  0.0966
 8431TIP3    H225258   0.910   2.210   2.994 -0.8523  0.3236  0.3344
 8432TIP3   OH225259   5.071   1.233   3.916  0.1532  0.2709  0.0163
 8432TIP3    H125260   5.160   1.247   3.883  0.0470 -0.0925 -0.4311
 8432TIP3    H225261   5.016   1.232   3.837 -0.7265  3.7343  0.3931
 8433TIP3   OH225262   5.229   5.321   2.736 -0.2550 -0.2749 -0.4835
 8433TIP3    H125263   5.208   5.400   2.787 -1.1861 -0.8649  0.0872
 8433TIP3    H225264   5.223   5.250   2.800  0.2670 -0.8425 -1.0595
 8434TIP3   OH225265   4.685   6.633   5.142 -0.0604  0.3793  0.1860
 8434TIP3    H125266   4.724   6.584   5.070  1.5249  0.1328  1.1503
 8434TIP3    H225267   4.633   6.568   5.190  0.8109 -0.0520  0.5893
 8435TIP3   OH225268   1.427   1.905   4.316 -0.0987 -0.0446 -0.0740
 8435TIP3    H125269   1.364   1.837   4.340  0.4042 -0.8929 -1.1030
 8435TIP3    H225270   1.462   1.877   4.232 -0.3510  1.8353 -0.8418
 8436TIP3   OH225271   6.836   5.531   2.822  0.4363 -0.1313  0.2237
 8436TIP3    H125272   6.853   5.437   2.832 -0.1826 -0.1834  0.8550
 8436TIP3    H225273   6.902   5.573   2.877 -0.4468 -0.2750  1.4194
 8437TIP3   OH225274   3.286   6.663   2.803  0.3391 -0.6225  0.2547
 8437TIP3    H125275   3.278   6.641   2.710  1.2101  1.8171 -0.4683
 8437TIP3    H225276   3.379   6.650   2.822  0.4184  0.1093  0.4067
 8438TIP3   OH225277   6.635   0.833   4.800 -0.6140 -0.0344  0.4735
 8438TIP3    H125278   6.627   0.803   4.710 -0.6551 -0.9353  0.7687
 8438TIP3    H225279   6.686   0.765   4.844 -2.1669 -0.5408  1.5730
 8439TIP3   OH225280   0.949   0.645   5.157  0.8575  0.4644 -0.1320
 8439TIP3    H125281   0.953   0.593   5.077 -0.5860 -0.1392  0.1572
 8439TIP3    H225282   0.925   0.733   5.126 -1.7398 -0.2054 -0.2752
 8440TIP3   OH225283   6.601   3.662   5.206  0.0748 -0.0244  0.1973
 8440TIP3    H125284   6.627   3.754   5.212  2.2576 -0.6337  1.2556
 8440TIP3    H225285   6.621   3.637   5.116 -0.4680  0.4972 -0.0787
 8441TIP3   OH225286   1.912   1.321   1.067  0.3797  0.1161  0.7654
 8441TIP3    H125287   1.861   1.401   1.061  1.6761  0.8873 -0.8328
 8441TIP3    H225288   1.855   1.259   1.113 -0.2918  2.1990  2.9312
 8442TIP3   OH225289   5.347   5.450   2.219 -0.3317 -0.1763 -0.0369
 8442TIP3    H125290   5.349   5.417   2.308 -0.6804 -3.0487 -0.9730
 8442TIP3    H225291   5.270   5.408   2.180  0.3559  0.2238 -1.9326
 8443TIP3   OH225292   1.765   0.688   3.065 -0.2484 -0.0723 -0.0734
 8443TIP3    H125293   1.721   0.613   3.025  1.5657 -0.0710 -2.2841
 8443TIP3    H225294   1.859   0.666   3.060  0.2252  1.5527  0.9334
 8444TIP3   OH225295   0.584   3.315   5.038 -0.1029  0.0563 -0.4560
 8444TIP3    H125296   0.505   3.359   5.005 -0.4654 -0.7004 -0.6257
 8444TIP3    H225297   0.654   3.380   5.028 -0.6585  0.6548 -0.5212
 8445TIP3   OH225298   0.596   4.887   4.674  0.2254  0.2730  0.5089
 8445TIP3    H125299   0.683   4.855   4.699  0.8025  0.0481 -1.5699
 8445TIP3    H225300   0.556   4.814   4.627 -0.7872  0.6527  0.7477
 8446TIP3   OH225301   6.906   3.048   5.351 -0.1195 -0.1762  0.5776
 8446TIP3    H125302   6.856   3.032   5.431 -0.1523  1.7035  0.9857
 8446TIP3    H225303   6.995   3.067   5.382 -0.0195  0.0747  0.1464
 8447TIP3   OH225304   1.462   4.866   3.251  0.4943  0.1833  0.1464
 8447TIP3    H125305   1.385   4.824   3.213 -0.5630  0.4165  1.9127
 8447TIP3    H225306   1.491   4.805   3.320 -0.0554  1.4989  1.6094
 8448TIP3   OH225307   4.730   4.689   5.602  0.0171 -0.0221 -0.1434
 8448TIP3    H125308   4.804   4.677   5.662 -0.1377  0.5248  0.1611
 8448TIP3    H225309   4.674   4.612   5.619  0.6612 -0.6040 -0.6086
 8449TIP3   OH225310   1.779   0.462   4.764  0.1461 -0.5624 -0.2807
 8449TIP3    H125311   1.712   0.459   4.833  0.3834  1.0923  0.0615
 8449TIP3    H225312   1.752   0.534   4.708  2.4990  1.2933  0.8194
 8450TIP3   OH225313   0.121   6.315   3.927 -0.3719  0.1209 -0.2490
 8450TIP3    H125314   0.106   6.372   3.852 -1.7208 -0.0755 -0.1412
 8450TIP3    H225315   0.198   6.263   3.902  0.8655  1.9037 -0.3639
 8451TIP3   OH225316   4.891   0.377   0.409 -0.4884  0.3632 -0.2664
 8451TIP3    H125317   4.957   0.446   0.420 -0.5486  1.0040 -3.0678
 8451TIP3    H225318   4.941   0.296   0.405  0.0021  0.6896 -0.9128
 8452TIP3   OH225319   4.974   5.418   1.322  0.1800  0.0318  0.1560
 8452TIP3    H125320   4.912   5.411   1.394 -1.3248  0.7577 -1.0248
 8452TIP3    H225321   4.959   5.505   1.285  0.1889 -0.7019 -1.6734
 8453TIP3   OH225322   6.245   4.142   2.113  0.0979  0.5447 -0.0973
 8453TIP3    H125323   6.339   4.131   2.103 -0.0513 -0.2827 -0.6743
 8453TIP3    H225324   6.209   4.053   2.104 -0.7733  0.9097 -0.3570
 8454TIP3   OH225325   5.981   2.597   2.901 -0.0479  0.2875  0.0452
 8454TIP3    H125326   5.903   2.650   2.918 -1.2479 -0.2384 -3.1278
 8454TIP3    H225327   5.960   2.512   2.941  0.0448  0.8670  1.3992
 8455TIP3   OH225328   1.667   2.981   2.503 -0.0315  0.1002  0.1911
 8455TIP3    H125329   1.621   2.985   2.587 -0.1435  0.3766  0.1183
 8455TIP3    H225330   1.748   3.030   2.518  0.4265 -0.7256  0.4350
 8456TIP3   OH225331   6.382   6.680   0.779  0.4765  0.2266  0.4657
 8456TIP3    H125332   6.361   6.757   0.727 -0.1585 -0.0840  0.2602
 8456TIP3    H225333   6.470   6.655   0.750 -0.5384 -1.0064 -1.7677
 8457TIP3   OH225334   5.917   6.695   4.235 -0.6151 -0.0652 -0.6920
 8457TIP3    H125335   5.857   6.723   4.166 -2.0902  0.8737  0.8991
 8457TIP3    H225336   5.895   6.603   4.248 -0.1623 -0.3181 -1.5986
 8458TIP3   OH225337   6.825   2.946   0.292 -0.9253 -0.2050  0.0115
 8458TIP3    H125338   6.812   3.035   0.258 -0.5909 -0.0727  0.2257
 8458TIP3    H225339   6.737   2.908   0.293 -0.9790 -0.1201 -0.7438
 8459TIP3   OH225340   6.947   1.436   0.997 -0.0659 -0.4392 -0.1559
 8459TIP3    H125341   6.951   1.489   0.917  1.8174 -0.9606 -0.4578
 8459TIP3    H225342   7.035   1.441   1.034 -0.8893 -0.2066  1.9203
 8460TIP3   OH225343   1.468   3.427   0.828 -0.1008  0.0130 -0.0909
 8460TIP3    H125344   1.546   3.374   0.811 -0.9575 -0.8529 -1.5382
 8460TIP3    H225345   1.404   3.365   0.864  0.1054  0.8833  1.9104
 8461TIP3   OH225346   3.829   5.146   3.377  0.0890 -0.8126  0.5920
 8461TIP3    H125347   3.804   5.097   3.455  1.8363 -2.7617  0.0351
 8461TIP3    H225348   3.907   5.195   3.404 -1.2083  1.1618  0.9284
 8462TIP3   OH225349   6.525   0.249   4.789 -0.1860 -0.2154 -0.0326
 8462TIP3    H125350   6.576   0.170   4.806 -0.8443 -0.5622  0.3926
 8462TIP3    H225351   6.554   0.280   4.703 -0.0132 -0.9959 -0.2580
 8463TIP3   OH225352   3.984   6.554   1.295 -0.2528  0.2962 -0.5148
 8463TIP3    H125353   4.064   6.607   1.288 -0.8833  1.1653 -1.4092
 8463TIP3    H225354   3.971   6.543   1.389 -0.0817  1.7324 -0.2969
 8464TIP3   OH225355   3.544   6.746   1.638  0.1365  0.5784 -0.0097
 8464TIP3    H125356   3.511   6.737   1.728  1.8686  2.6044  0.9237
 8464TIP3    H225357   3.635   6.717   1.642 -0.4871 -1.9722 -1.8305
 8465TIP3   OH225358   6.111   4.944   3.622  0.3595 -0.1255 -0.5906
 8465TIP3    H125359   6.178   4.884   3.588  1.0336  0.6934 -0.7223
 8465TIP3    H225360   6.158   5.024   3.643 -0.7368  0.8912 -1.7912
 8466TIP3   OH225361   7.046   1.573   3.352  0.5595  0.3508  0.4315
 8466TIP3    H125362   6.971   1.566   3.294 -0.0851  0.3597  1.2467
 8466TIP3    H225363   7.056   1.486   3.390  0.4581  0.5472  0.9244
 8467TIP3   OH225364   7.094   4.523   0.980 -0.6469  0.9099  0.5433
 8467TIP3    H125365   7.159   4.586   1.010  1.2191 -0.3155 -0.7156
 8467TIP3    H225366   7.136   4.437   0.989 -1.9532  0.0879 -0.5890
 8468TIP3   OH225367   5.350   5.656   0.468 -0.1054  0.4195 -0.1279
 8468TIP3    H125368   5.374   5.600   0.395 -0.7510 -0.7094  0.5086
 8468TIP3    H225369   5.258   5.636   0.486  0.2752  0.0151  1.5526
 8469TIP3   OH225370   4.959   5.421   4.601  0.2192  0.0515 -0.3600
 8469TIP3    H125371   4.927   5.339   4.640 -1.1474  0.2191 -1.0626
 8469TIP3    H225372   5.047   5.400   4.571  0.1026 -1.0041 -0.0197
 8470TIP3   OH225373   6.206   3.540   3.761  0.4732 -0.5234  0.3062
 8470TIP3    H125374   6.250   3.618   3.793 -1.8071  1.4260 -0.9973
 8470TIP3    H225375   6.270   3.496   3.705  1.6683  0.5563  0.7852
 8471TIP3   OH225376   2.994   6.690   4.632 -0.0234 -0.2521  0.0518
 8471TIP3    H125377   3.033   6.602   4.636  0.5708  0.0072 -0.0172
 8471TIP3    H225378   2.956   6.703   4.719  1.7350  0.2643  0.7794
 8472TIP3   OH225379   1.801   3.858   3.485 -0.5998 -0.1872 -0.0928
 8472TIP3    H125380   1.745   3.781   3.477 -2.8149  1.3117 -0.0882
 8472TIP3    H225381   1.742   3.932   3.467  1.8491  1.4365 -2.0821
 8473TIP3   OH225382   3.853   5.206   2.944 -0.4904 -0.6352 -0.4799
 8473TIP3    H125383   3.886   5.266   3.012 -0.9546  1.8029 -2.2573
 8473TIP3    H225384   3.885   5.120   2.971 -1.4055  0.0026  3.2960
 8474TIP3   OH225385   3.874   5.133   0.276 -0.1058 -0.0553  0.0378
 8474TIP3    H125386   3.935   5.059   0.274  0.6815  0.5902 -0.7650
 8474TIP3    H225387   3.802   5.104   0.332 -0.6356 -2.0574 -1.5939
 8475TIP3   OH225388   6.053   6.362   2.467  0.2227 -0.4949 -0.2148
 8475TIP3    H125389   6.118   6.343   2.400 -0.3761  0.3789 -1.0746
 8475TIP3    H225390   6.082   6.313   2.544  2.0103  0.0571 -0.5026
 8476TIP3   OH225391   2.975   4.303   3.215  0.3824 -0.4155  0.2873
 8476TIP3    H125392   2.952   4.334   3.302  2.8852  0.5994  0.6820
 8476TIP3    H225393   2.903   4.332   3.159  0.3430  2.0266  1.4815
 8477TIP3   OH225394   4.324   3.475   5.699  0.1485 -0.3311  0.6708
 8477TIP3    H125395   4.364   3.518   5.623 -0.6328  1.8456  1.4246
 8477TIP3    H225396   4.342   3.534   5.772 -0.8180 -1.4128  1.8235
 8478TIP3   OH225397   6.664   2.397   5.408 -0.0942 -0.5776 -0.5647
 8478TIP3    H125398   6.649   2.445   5.490  0.2502  0.5512 -1.1398
 8478TIP3    H225399   6.739   2.341   5.426  0.8131  0.6243 -0.4724
 8479TIP3   OH225400   1.532   1.544   1.595 -0.1685  0.2701  0.2779
 8479TIP3    H125401   1.522   1.477   1.663  2.1851  0.1256  0.5873
 8479TIP3    H225402   1.515   1.627   1.640 -2.9142 -0.0177 -0.0646
 8480TIP3   OH225403   0.368   5.184   1.396 -0.4346  0.6685 -0.5271
 8480TIP3    H125404   0.387   5.117   1.330 -1.4487  0.1594 -0.3336
 8480TIP3    H225405   0.403   5.148   1.477 -2.5164 -0.5023 -0.0710
 8481TIP3   OH225406   2.670   5.914   3.039 -0.1551  0.8392  0.2344
 8481TIP3    H125407   2.618   5.875   3.109 -0.3802  1.7190  0.5757
 8481TIP3    H225408   2.637   6.004   3.032 -0.4062  0.6639 -1.2691
 8482TIP3   OH225409   6.183   6.634   0.308  0.3013 -0.1459  0.2840
 8482TIP3    H125410   6.254   6.581   0.272  0.1265 -0.1550 -0.0505
 8482TIP3    H225411   6.113   6.571   0.326  0.7559 -0.3003  1.6271
 8483TIP3   OH225412   2.450   1.525   0.794  0.0197  0.1985 -0.2316
 8483TIP3    H125413   2.457   1.526   0.889  1.5377 -0.7313 -0.2969
 8483TIP3    H225414   2.387   1.594   0.773 -0.3929  0.3592  1.4413
 8484TIP3   OH225415   2.846   1.126   0.807  0.1209 -0.1242 -0.2830
 8484TIP3    H125416   2.796   1.077   0.872  1.5980 -0.9863  0.2470
 8484TIP3    H225417   2.914   1.171   0.857 -0.7658  1.9966 -0.8322
 8485TIP3   OH225418   5.815   3.642   5.825  0.2270  0.1801  0.4873
 8485TIP3    H125419   5.791   3.733   5.807  1.2560  0.5245  0.8094
 8485TIP3    H225420   5.893   3.627   5.771  0.7429 -0.1464  1.3050
 8486TIP3   OH225421   6.521   1.888   1.925 -0.0142  0.4280 -0.0371
 8486TIP3    H125422   6.438   1.861   1.886  0.1926  0.2310 -0.3413
 8486TIP3    H225423   6.563   1.807   1.952  0.2223  0.5036 -0.1732
 8487TIP3   OH225424   3.822   2.669   1.196  0.8759 -0.0837 -0.1121
 8487TIP3    H125425   3.836   2.584   1.237 -1.3530 -0.2657  0.4047
 8487TIP3    H225426   3.737   2.661   1.152  2.0871  0.8515 -2.8819
 8488TIP3   OH225427   4.585   6.093   1.271 -0.2765 -0.3976 -0.3365
 8488TIP3    H125428   4.558   6.030   1.204 -0.6983 -0.4438 -0.1194
 8488TIP3    H225429   4.681   6.090   1.268 -0.2856 -1.1970 -0.1915
 8489TIP3   OH225430   1.656   4.986   2.259 -0.6699 -0.0853 -0.4358
 8489TIP3    H125431   1.696   4.904   2.287 -0.8604 -0.2247 -0.5630
 8489TIP3    H225432   1.730   5.043   2.238 -0.5247  0.0262  0.3420
 8490TIP3   OH225433   2.400   4.084   5.592  0.2128  0.5478  1.1169
 8490TIP3    H125434   2.466   4.023   5.625 -0.2445  0.0810  1.1902
 8490TIP3    H225435   2.323   4.067   5.647  0.0079  1.0277  0.9784
 8491TIP3   OH225436   5.294   4.609   4.515 -0.2833  0.0059 -0.2721
 8491TIP3    H125437   5.285   4.534   4.574 -0.4786  0.3943  0.2027
 8491TIP3    H225438   5.208   4.617   4.474 -0.1564 -0.2458 -0.5913
 8492TIP3   OH225439   2.349   6.367   3.308 -0.9969 -0.0101  0.5977
 8492TIP3    H125440   2.297   6.429   3.359  0.3385 -0.4016  2.5240
 8492TIP3    H225441   2.401   6.422   3.249  0.1235  0.7546  2.2284
 8493TIP3   OH225442   2.819   2.816   5.116 -0.3121 -0.1501 -0.2594
 8493TIP3    H125443   2.752   2.882   5.098 -1.7999 -1.6272 -0.3117
 8493TIP3    H225444   2.804   2.790   5.206  0.2098 -0.5038 -0.2709
 8494TIP3   OH225445   1.608   5.166   5.137 -0.0472  0.0465 -0.1927
 8494TIP3    H125446   1.532   5.172   5.195  0.2442  1.3788  0.0853
 8494TIP3    H225447   1.585   5.220   5.061  0.5010  0.2209 -0.2391
 8495TIP3   OH225448   2.573   5.555   2.170  0.3145  0.1285 -0.1342
 8495TIP3    H125449   2.499   5.605   2.134  1.1372  0.2480 -1.7274
 8495TIP3    H225450   2.556   5.553   2.264 -0.2521  2.5984 -0.1058
 8496TIP3   OH225451   2.133   3.644   2.756  0.2315 -0.1713 -0.1418
 8496TIP3    H125452   2.074   3.713   2.727  1.4199  1.6749  1.5924
 8496TIP3    H225453   2.197   3.635   2.686  0.0969  0.5089 -0.3548
 8497TIP3   OH225454   2.239   4.774   5.618  0.3854  0.4125  0.0935
 8497TIP3    H125455   2.207   4.689   5.587  0.1808  0.1065  1.1140
 8497TIP3    H225456   2.173   4.836   5.587  1.0178  0.3576 -1.4892
 8498TIP3   OH225457   3.237   1.297   4.878 -0.5033  0.2178  0.2449
 8498TIP3    H125458   3.189   1.215   4.883  0.4416 -0.3409  0.3632
 8498TIP3    H225459   3.172   1.361   4.849 -1.5290 -0.3353  1.2458
 8499TIP3   OH225460   0.224   1.835   3.145 -0.2916  0.4627 -0.1012
 8499TIP3    H125461   0.131   1.843   3.169 -0.6958  0.9250 -1.7101
 8499TIP3    H225462   0.271   1.875   3.218 -1.3920  0.6924  0.5055
 8500TIP3   OH225463   5.202   0.085   0.140 -0.1645  0.6591  0.2613
 8500TIP3    H125464   5.208   0.088   0.236 -0.3208  0.2146  0.2892
 8500TIP3    H225465   5.247   0.004   0.116 -0.3127  0.6598 -0.0256
 8501TIP3   OH225466   5.135   5.145   2.947 -0.4198 -0.6405 -0.0831
 8501TIP3    H125467   5.203   5.161   3.012  0.9657 -0.7103 -1.4542
 8501TIP3    H225468   5.147   5.054   2.922 -0.5298 -0.4403 -0.8858
 8502TIP3   OH225469   3.420   3.842   3.857 -0.4079 -0.0021 -0.2484
 8502TIP3    H125470   3.361   3.839   3.932 -0.6959  0.6289 -0.4462
 8502TIP3    H225471   3.416   3.754   3.819 -1.1290  0.0060 -0.1885
 8503TIP3   OH225472   5.499   0.502   4.591 -0.0151 -0.1209  0.7611
 8503TIP3    H125473   5.526   0.410   4.603  1.3433  0.0364 -0.6401
 8503TIP3    H225474   5.404   0.498   4.584  0.0197 -1.4679  0.5959
 8504TIP3   OH225475   2.614   0.664   1.505 -0.5296  0.2957  0.0058
 8504TIP3    H125476   2.612   0.627   1.417  2.1387 -1.8399  0.7251
 8504TIP3    H225477   2.558   0.606   1.556 -1.0432  0.7741 -0.0051
 8505TIP3   OH225478   6.498   4.839   2.207 -0.2088  0.0419  0.6336
 8505TIP3    H125479   6.531   4.916   2.162 -1.7959  0.2514 -0.2656
 8505TIP3    H225480   6.548   4.766   2.171 -1.5344  0.1867 -1.6636
 8506TIP3   OH225481   2.939   5.676   0.494 -0.3781 -0.3347 -0.2569
 8506TIP3    H125482   2.974   5.617   0.561 -1.9404 -1.0301 -0.0108
 8506TIP3    H225483   3.014   5.695   0.438  0.9735  0.2657  1.6506
 8507TIP3   OH225484   5.060   0.230   4.016 -0.1582 -0.3993 -0.0632
 8507TIP3    H125485   5.023   0.275   3.940  1.3703  0.9159 -0.0675
 8507TIP3    H225486   5.077   0.300   4.079 -0.4310 -1.3458  1.1070
 8508TIP3   OH225487   0.057   2.030   2.603 -0.1431  0.5052 -0.3525
 8508TIP3    H125488   0.045   1.957   2.663  1.0898  0.2484 -0.3952
 8508TIP3    H225489  -0.023   2.082   2.611  0.1968  0.7727  1.9113
 8509TIP3   OH225490   3.132   0.656   5.184 -0.4040 -0.0340  0.3513
 8509TIP3    H125491   3.053   0.703   5.210  0.8636  2.7928 -0.4240
 8509TIP3    H225492   3.121   0.641   5.090 -1.0840 -2.0376  0.7039
 8510TIP3   OH225493   0.973   5.296   0.540 -0.3707 -0.2386  0.2269
 8510TIP3    H125494   0.993   5.313   0.632  0.0564  1.6676 -0.1712
 8510TIP3    H225495   0.900   5.234   0.543 -0.5367 -0.0232  1.8436
 8511TIP3   OH225496   0.735   0.574   1.441 -0.2182  0.6728  0.0391
 8511TIP3    H125497   0.759   0.653   1.489 -0.1872  0.6614  0.0425
 8511TIP3    H225498   0.799   0.568   1.370  0.6467 -0.1021  0.8533
 8512TIP3   OH225499   4.592   0.859   3.307  0.2334 -0.4294  0.1497
 8512TIP3    H125500   4.524   0.827   3.248 -0.8722 -1.2113  1.7563
 8512TIP3    H225501   4.638   0.780   3.336  0.8050 -0.0576  0.2743
 8513TIP3   OH225502   6.473   2.278   3.697 -0.1222  0.5279 -0.1373
 8513TIP3    H125503   6.519   2.270   3.781 -1.5772  0.3829  0.6790
 8513TIP3    H225504   6.481   2.371   3.676 -1.2399  0.9306  1.0781
 8514TIP3   OH225505   4.992   3.821   2.486 -0.0692  0.2877  0.8971
 8514TIP3    H125506   4.924   3.825   2.419  1.0160  1.6821 -0.1920
 8514TIP3    H225507   4.949   3.851   2.567 -0.5448  2.1582  0.0052
 8515TIP3   OH225508   1.818   3.647   1.358  0.0315  0.4098 -0.5778
 8515TIP3    H125509   1.909   3.630   1.334  0.1733  0.7579 -0.3001
 8515TIP3    H225510   1.792   3.571   1.410 -0.5443 -0.7558 -2.4946
 8516TIP3   OH225511   0.128   5.328   1.458 -0.2378  0.3235  0.2705
 8516TIP3    H125512   0.210   5.282   1.438 -0.3371 -0.0595  0.7158
 8516TIP3    H225513   0.149   5.381   1.536 -1.1720 -2.0546  2.2862
 8517TIP3   OH225514   1.118   1.613   5.614 -1.0226  0.3773 -0.3397
 8517TIP3    H125515   1.098   1.621   5.708 -0.8463  1.5561 -0.3830
 8517TIP3    H225516   1.139   1.521   5.602  1.6675  0.6442  1.3422
 8518TIP3   OH225517   0.237   3.398   0.660 -0.2783  0.1926  0.0476
 8518TIP3    H125518   0.259   3.323   0.714 -0.7460  1.0047  1.4186
 8518TIP3    H225519   0.145   3.384   0.635 -0.9240  1.0585  1.7115
 8519TIP3   OH225520   0.260   5.662   2.154  0.6349 -0.2310  0.1475
 8519TIP3    H125521   0.189   5.599   2.144  0.6636 -0.1165 -0.7933
 8519TIP3    H225522   0.335   5.608   2.180  0.3939 -0.4393  0.4256
 8520TIP3   OH225523   3.705   4.890   3.943 -0.1479  0.1575  0.0869
 8520TIP3    H125524   3.762   4.956   3.902  0.7041 -0.8888 -0.4567
 8520TIP3    H225525   3.645   4.864   3.873 -1.8644  1.8005  0.8571
 8521TIP3   OH225526   7.094   0.347   5.175 -0.0107  0.1047 -0.1050
 8521TIP3    H125527   7.167   0.333   5.235  1.4446  0.6716 -1.6922
 8521TIP3    H225528   7.089   0.266   5.124 -1.9674 -0.8367  1.4214
 8522TIP3   OH225529   1.454   1.060   0.756  0.0511  0.0048  0.2015
 8522TIP3    H125530   1.481   1.046   0.846  0.1985  0.8031  0.2945
 8522TIP3    H225531   1.476   0.979   0.711  1.1433  0.0569  0.6206
 8523TIP3   OH225532   2.270   5.695   3.814  0.3087 -0.3647  0.0495
 8523TIP3    H125533   2.229   5.651   3.889 -0.2114 -2.2127 -1.2513
 8523TIP3    H225534   2.279   5.786   3.842 -0.3056 -0.8886  2.1687
 8524TIP3   OH225535   4.281   4.263   3.630 -0.3392 -0.5446  0.7846
 8524TIP3    H125536   4.311   4.341   3.677 -0.7212 -0.0580  0.2342
 8524TIP3    H225537   4.222   4.219   3.691 -1.5245  0.5467  0.4561
 8525TIP3   OH225538   3.305   6.733   3.549  0.3608 -0.5748  0.4066
 8525TIP3    H125539   3.287   6.827   3.560  1.1722 -0.4127  0.3529
 8525TIP3    H225540   3.229   6.701   3.500  0.5002  0.2308 -0.3636
 8526TIP3   OH225541   5.798   6.188   0.390 -0.1864 -0.6912  0.0631
 8526TIP3    H125542   5.840   6.150   0.466  0.5304 -2.5113 -1.1741
 8526TIP3    H225543   5.704   6.174   0.404 -0.0952 -0.5716  0.8049
 8527TIP3   OH225544   6.384   4.783   1.196 -0.4162  0.4227 -0.0524
 8527TIP3    H125545   6.400   4.802   1.103  0.0472  0.9894  0.1311
 8527TIP3    H225546   6.294   4.753   1.199  0.2216 -1.7825 -0.9966
 8528TIP3   OH225547   3.323   3.649   3.449 -0.2254 -0.0245 -0.0567
 8528TIP3    H125548   3.401   3.704   3.448 -1.1580  1.3195 -0.3770
 8528TIP3    H225549   3.299   3.639   3.357 -0.5157 -0.3366  0.0476
 8529TIP3   OH225550   2.247   5.156   5.836 -0.1585  0.6957 -0.0920
 8529TIP3    H125551   2.158   5.172   5.806  0.1484  2.3032 -0.2091
 8529TIP3    H225552   2.303   5.198   5.771  0.6096  1.4251  1.0071
 8530TIP3   OH225553   2.951   1.753   4.726 -0.5349 -0.4111  0.1801
 8530TIP3    H125554   3.045   1.736   4.735 -0.4863  0.1377  0.7736
 8530TIP3    H225555   2.930   1.809   4.801 -0.8531  1.4997 -1.2797
 8531TIP3   OH225556   2.146   0.135   4.489  0.0604  0.7916  0.6384
 8531TIP3    H125557   2.136   0.128   4.584 -0.1710  2.7519  0.7959
 8531TIP3    H225558   2.057   0.145   4.456  0.1417  0.1468  0.1927
 8532TIP3   OH225559   2.836   4.209   0.981 -0.1984 -0.1441  0.5075
 8532TIP3    H125560   2.882   4.290   0.963 -0.8897  0.5272  1.6327
 8532TIP3    H225561   2.869   4.147   0.916 -0.8030  1.4362 -1.4059
 8533TIP3   OH225562   3.331   0.889   0.314  0.3280  0.1069 -0.0462
 8533TIP3    H125563   3.413   0.904   0.361  0.6040  1.8246 -1.0045
 8533TIP3    H225564   3.345   0.808   0.265  1.2772  0.1555  0.1370
 8534TIP3   OH225565   0.302   6.102   1.988 -0.0609 -0.1941 -0.6101
 8534TIP3    H125566   0.207   6.097   2.002 -0.0233 -0.7473 -0.5641
 8534TIP3    H225567   0.330   6.011   1.978  0.2519  0.0300 -2.0791
 8535TIP3   OH225568   1.147   5.860   2.166  0.0094  0.3267  0.8265
 8535TIP3    H125569   1.236   5.826   2.168 -0.5691 -1.2930  0.4597
 8535TIP3    H225570   1.142   5.911   2.085  0.8162  1.1280  1.2583
 8536TIP3   OH225571   5.709   5.614   3.290  0.3270  0.2525  0.1918
 8536TIP3    H125572   5.761   5.633   3.212  0.8528 -0.0349  0.4746
 8536TIP3    H225573   5.740   5.675   3.356 -2.4658  2.9789 -0.7563
 8537TIP3   OH225574   3.620   3.870   5.428 -0.2555 -0.1401 -0.2838
 8537TIP3    H125575   3.668   3.859   5.346 -0.7393  1.8862 -0.8691
 8537TIP3    H225576   3.540   3.916   5.404 -1.1474 -0.8809  1.1180
 8538TIP3   OH225577   3.643   5.332   5.379  0.6963  0.1258  0.2128
 8538TIP3    H125578   3.555   5.298   5.395  1.4887 -1.3514  1.6987
 8538TIP3    H225579   3.678   5.275   5.310  1.1856 -0.6250  1.0570
 8539TIP3   OH225580   6.726   1.497   1.202  0.1564  0.4408 -0.3160
 8539TIP3    H125581   6.800   1.491   1.142 -0.1069  1.8436 -0.8222
 8539TIP3    H225582   6.759   1.462   1.284 -0.3842 -4.5328 -1.9263
 8540TIP3   OH225583   3.557   3.871   4.580 -0.0725 -0.1470  0.2352
 8540TIP3    H125584   3.470   3.911   4.583  0.2286  0.4817  0.7209
 8540TIP3    H225585   3.558   3.823   4.497 -0.4140  0.9079 -0.3957
 8541TIP3   OH225586   3.076   5.322   4.694  0.8346  0.1459 -0.1656
 8541TIP3    H125587   3.171   5.310   4.695  0.9082  0.7099  0.3733
 8541TIP3    H225588   3.044   5.255   4.634  1.4070 -1.1703  0.9653
 8542TIP3   OH225589   6.655   1.926   0.379  0.2481 -0.0764 -0.5253
 8542TIP3    H125590   6.702   1.936   0.297 -0.1911  0.6891 -0.6970
 8542TIP3    H225591   6.615   2.012   0.395  1.5269  0.2440  1.2392
 8543TIP3   OH225592   0.544   3.782   4.642 -0.3353 -0.8503 -0.2744
 8543TIP3    H125593   0.577   3.730   4.569  0.6142 -1.6445  0.6832
 8543TIP3    H225594   0.605   3.854   4.651  0.1685 -1.3474  0.3931
 8544TIP3   OH225595   1.783   0.398   0.871  0.2471  0.2529  0.0442
 8544TIP3    H125596   1.764   0.375   0.962  1.5579  0.3498  0.3606
 8544TIP3    H225597   1.869   0.439   0.874 -0.1958  1.3287 -1.0899
 8545TIP3   OH225598   2.550   2.984   0.828  0.2640  0.0906 -0.5595
 8545TIP3    H125599   2.593   2.942   0.753  0.9210  1.2840 -0.8769
 8545TIP3    H225600   2.457   2.978   0.809  0.2640 -2.0006 -0.1559
 8546TIP3   OH225601   4.411   2.748   1.791  0.5101 -0.4645 -0.4446
 8546TIP3    H125602   4.454   2.675   1.747 -2.3224 -1.0184 -2.5802
 8546TIP3    H225603   4.409   2.818   1.725 -0.6382 -0.0004  0.0518
 8547TIP3   OH225604   0.245   5.410   1.879 -0.1792 -0.0078  0.3355
 8547TIP3    H125605   0.329   5.442   1.847 -0.3480  0.5531  0.4309
 8547TIP3    H225606   0.244   5.317   1.859  0.7587 -0.1632  0.9486
 8548TIP3   OH225607   6.053   1.519   4.290  0.4054  1.0217 -0.0650
 8548TIP3    H125608   6.122   1.513   4.356  0.9270  0.2366 -0.6732
 8548TIP3    H225609   6.029   1.428   4.272 -0.7498  1.2721  0.0895
 8549TIP3   OH225610   1.098   3.908   5.066  0.4910  0.0470 -0.0444
 8549TIP3    H125611   1.118   3.851   4.993 -0.0658 -2.6568  1.7816
 8549TIP3    H225612   1.020   3.871   5.106 -0.3547  2.5619  0.8343
 8550TIP3   OH225613   1.507   0.989   5.678 -0.6414 -0.0502  0.6336
 8550TIP3    H125614   1.506   0.947   5.592 -0.1946  2.1790 -0.5353
 8550TIP3    H225615   1.575   0.942   5.726 -1.7125 -2.1261  0.2581
 8551TIP3   OH225616   0.464   5.477   1.414  0.2980  0.2531  0.2292
 8551TIP3    H125617   0.423   5.394   1.387 -0.1217  0.6113 -0.2415
 8551TIP3    H225618   0.536   5.488   1.353 -0.7234  1.1232 -0.8508
 8552TIP3   OH225619   5.060   0.539   2.096  0.1494 -0.7403 -0.7526
 8552TIP3    H125620   5.020   0.452   2.098 -2.7077  0.4811  0.0747
 8552TIP3    H225621   4.986   0.600   2.094  1.9891  1.7471  0.6058
 8553TIP3   OH225622   4.628   4.642   1.855  0.0262 -0.7928  0.0906
 8553TIP3    H125623   4.544   4.610   1.887  0.2165 -1.3423  0.0618
 8553TIP3    H225624   4.632   4.733   1.883 -0.9255 -0.5321 -0.6058
 8554TIP3   OH225625   1.567   0.212   1.612  0.1512  0.0590  0.1456
 8554TIP3    H125626   1.501   0.245   1.673 -0.4230  1.2236 -1.0395
 8554TIP3    H225627   1.609   0.140   1.658 -2.4521 -1.2355  0.7004
 8555TIP3   OH225628   4.023   2.217   4.773 -0.0056 -0.0426 -0.8108
 8555TIP3    H125629   4.058   2.142   4.725  0.2087  0.8557 -2.1061
 8555TIP3    H225630   4.100   2.268   4.799 -0.1793  0.0260 -0.4093
 8556TIP3   OH225631   3.017   0.367   1.276  0.0362  0.2438  0.0727
 8556TIP3    H125632   3.049   0.452   1.304 -0.1954  0.3546  0.0028
 8556TIP3    H225633   2.978   0.328   1.354  2.4013 -0.8860  0.7840
 8557TIP3   OH225634   3.306   4.473   4.633  0.4562 -0.1393  0.0714
 8557TIP3    H125635   3.373   4.464   4.701 -1.1802 -1.6994  1.5510
 8557TIP3    H225636   3.290   4.383   4.603 -0.6895  0.2612 -0.5656
 8558TIP3   OH225637   3.204   4.207   0.741  0.7589 -0.0419  0.0479
 8558TIP3    H125638   3.147   4.284   0.739  0.4485 -0.2524  0.6045
 8558TIP3    H225639   3.269   4.227   0.809  0.6943 -0.2606  0.1740
 8559TIP3   OH225640   1.060   1.850   3.259 -0.2358  0.5291 -0.4394
 8559TIP3    H125641   0.970   1.848   3.226 -1.0893  0.0805  1.7411
 8559TIP3    H225642   1.072   1.939   3.290 -0.0125  0.5195 -0.4996
 8560TIP3   OH225643   5.009   1.140   2.451  0.6893  0.1141 -0.3099
 8560TIP3    H125644   5.000   1.106   2.540  0.1047  1.7172  0.2700
 8560TIP3    H225645   5.019   1.061   2.397  0.3953 -0.9242  1.0739
 8561TIP3   OH225646   1.245   4.954   1.944  0.0681  0.3452  0.1176
 8561TIP3    H125647   1.263   4.892   1.874 -1.0335  0.2185 -0.0775
 8561TIP3    H225648   1.319   4.945   2.004  0.9998  0.4234 -0.9868
 8562TIP3   OH225649   2.199   1.838   4.565 -0.2161 -0.2169 -0.0364
 8562TIP3    H125650   2.178   1.744   4.566 -0.1445 -0.2303  0.8629
 8562TIP3    H225651   2.292   1.841   4.541 -0.3257 -0.3494 -0.4860
 8563TIP3   OH225652   6.086   5.480   0.401 -0.1944  0.1238 -0.5167
 8563TIP3    H125653   6.174   5.477   0.364 -1.1197  0.4843 -2.9503
 8563TIP3    H225654   6.098   5.518   0.489  2.2042 -1.3384 -0.1366
 8564TIP3   OH225655   5.087   2.325   0.634  0.1935 -0.1683 -0.5609
 8564TIP3    H125656   5.043   2.288   0.711  0.0604  1.4778  0.1977
 8564TIP3    H225657   5.021   2.381   0.594  1.0428  0.9760 -0.4047
 8565TIP3   OH225658   5.921   1.743   1.615 -0.2446 -0.0114 -0.1238
 8565TIP3    H125659   5.890   1.829   1.643 -0.4328 -0.1151 -0.0151
 8565TIP3    H225660   6.016   1.747   1.626 -0.1763  0.4317 -0.7968
 8566TIP3   OH225661   7.005   0.841   3.952  0.5444  0.0835 -0.0083
 8566TIP3    H125662   6.941   0.861   3.884  1.0352 -0.5040 -0.6493
 8566TIP3    H225663   7.077   0.903   3.937  0.5428  0.1186  0.1289
 8567TIP3   OH225664   6.489   1.127   0.035 -0.2625  0.2037 -0.7073
 8567TIP3    H125665   6.403   1.091   0.059 -0.4027  1.3361  0.6390
 8567TIP3    H225666   6.512   1.183   0.109  1.0175  0.9882 -1.6752
 8568TIP3   OH225667   0.196   1.447   5.024  0.0552  0.2038  0.0195
 8568TIP3    H125668   0.253   1.435   4.947  0.1925 -1.3925  0.3440
 8568TIP3    H225669   0.108   1.447   4.988  0.0452 -1.7128 -0.0757
 8569TIP3   OH225670   6.454   5.323   2.512  0.7878 -0.0155  0.0677
 8569TIP3    H125671   6.362   5.302   2.503  0.5382  1.4113 -1.1494
 8569TIP3    H225672   6.464   5.349   2.604 -0.2531  0.7504 -0.0124
 8570TIP3   OH225673   5.259   0.072   2.227  0.3241  0.1271  0.0502
 8570TIP3    H125674   5.179   0.022   2.214  0.5344 -0.4470  0.8603
 8570TIP3    H225675   5.242   0.157   2.187 -0.5797 -0.0886 -0.0343
 8571TIP3   OH225676   2.841   6.458   5.288 -0.3828  0.1446 -0.1095
 8571TIP3    H125677   2.763   6.490   5.242  0.4038  0.7737 -1.0278
 8571TIP3    H225678   2.864   6.529   5.349 -1.2507 -0.5657  1.1037
 8572TIP3   OH225679   0.618   6.375   3.428  0.8085  0.4255 -0.2494
 8572TIP3    H125680   0.570   6.376   3.345  1.6170  0.9827 -0.7218
 8572TIP3    H225681   0.706   6.348   3.404  0.7403 -0.5822  0.6123
 8573TIP3   OH225682   5.506   4.202   0.326 -0.1053 -0.1224  0.5583
 8573TIP3    H125683   5.488   4.285   0.281  0.3692  0.8650  2.1239
 8573TIP3    H225684   5.425   4.151   0.315 -0.7513  0.9167  0.3603
 8574TIP3   OH225685   6.399   4.120   3.725  0.7253  0.4467  0.6383
 8574TIP3    H125686   6.351   4.082   3.650  2.2727 -0.2301 -0.0503
 8574TIP3    H225687   6.481   4.151   3.687 -0.1891  4.1391  1.2455
 8575TIP3   OH225688   1.169   1.918   5.638  0.5889 -0.0743 -0.0782
 8575TIP3    H125689   1.124   1.956   5.713 -0.0227 -1.5216  0.3296
 8575TIP3    H225690   1.099   1.887   5.580  1.0518  0.8212 -1.1756
 8576TIP3   OH225691   0.233   4.943   3.177 -0.0651 -0.3019 -0.5486
 8576TIP3    H125692   0.142   4.963   3.199  0.0746 -1.8711  1.8324
 8576TIP3    H225693   0.279   5.027   3.184 -1.1852  0.3793 -1.1266
 8577TIP3   OH225694   4.844   6.068   1.109 -0.3262 -0.1829 -0.0567
 8577TIP3    H125695   4.896   6.075   1.189  2.3300 -1.6960 -1.4983
 8577TIP3    H225696   4.882   6.132   1.050 -0.5615 -0.8150 -0.9194
 8578TIP3   OH225697   2.017   3.354   1.244  0.1667  0.2365  0.7476
 8578TIP3    H125698   2.053   3.398   1.321  1.2958 -0.1378  0.4465
 8578TIP3    H225699   1.935   3.316   1.274 -0.1398  1.3496  1.3773
 8579TIP3   OH225700   2.812   0.852   1.528  0.6627 -0.1169  0.1379
 8579TIP3    H125701   2.736   0.799   1.506 -1.5791  2.5521  0.8238
 8579TIP3    H225702   2.811   0.923   1.464  2.9853 -0.3113 -0.2074
 8580TIP3   OH225703   5.839   4.244   1.574  0.0601  0.4244 -0.2086
 8580TIP3    H125704   5.836   4.232   1.669  1.9394 -0.1923 -0.1933
 8580TIP3    H225705   5.909   4.308   1.560  0.4467 -0.1986 -1.2207
 8581TIP3   OH225706   1.707   3.564   0.463 -0.0812 -0.3928 -0.4244
 8581TIP3    H125707   1.636   3.625   0.481  2.2174  1.9541  1.3598
 8581TIP3    H225708   1.674   3.479   0.493 -2.5322  0.3283 -0.8466
 8582TIP3   OH225709   7.111   5.138   5.255  0.1866 -0.1217  0.4146
 8582TIP3    H125710   7.167   5.204   5.295 -0.7243  0.7462  0.2637
 8582TIP3    H225711   7.104   5.165   5.163  0.7692 -1.0930  0.0638
 8583TIP3   OH225712   4.833   3.408   0.371  0.4427 -0.7632  0.4262
 8583TIP3    H125713   4.882   3.456   0.438  0.9127 -0.7754  0.0999
 8583TIP3    H225714   4.901   3.362   0.321 -0.0693 -3.0616  1.7107
 8584TIP3   OH225715   1.332   1.202   3.566  0.7263  0.1586 -0.4595
 8584TIP3    H125716   1.377   1.286   3.555  0.5063  0.3972  0.3660
 8584TIP3    H225717   1.322   1.193   3.661 -2.1257  0.7435 -0.6268
 8585TIP3   OH225718   3.465   5.310   0.115 -0.0067  0.5498  0.4094
 8585TIP3    H125719   3.418   5.368   0.174 -1.2726  1.4427 -1.3660
 8585TIP3    H225720   3.425   5.224   0.129 -1.6288  1.1274 -0.4397
 8586TIP3   OH225721   2.432   6.085   3.078  0.0303 -0.3118  0.0033
 8586TIP3    H125722   2.354   6.047   3.037 -0.3602 -0.2302  0.6468
 8586TIP3    H225723   2.429   6.052   3.168  2.0609 -2.3279 -0.5565
 8587TIP3   OH225724   6.670   2.357   3.209 -0.4281  0.3794 -0.0846
 8587TIP3    H125725   6.761   2.336   3.234 -1.4524 -0.9567  2.9941
 8587TIP3    H225726   6.662   2.324   3.119  1.4343 -1.9176  0.4803
 8588TIP3   OH225727   6.250   4.248   0.343 -0.2464  0.1915  0.0609
 8588TIP3    H125728   6.330   4.196   0.345 -1.6588 -2.0838  1.6719
 8588TIP3    H225729   6.251   4.298   0.424 -0.7411 -0.3137  0.3818
 8589TIP3   OH225730   0.796   6.507   2.661 -0.1081 -0.1530  0.0078
 8589TIP3    H125731   0.891   6.498   2.654 -0.0787  0.4770 -0.5579
 8589TIP3    H225732   0.781   6.537   2.750  0.0836 -1.8304  0.6323
 8590TIP3   OH225733   3.872   3.803   3.583  0.0628  0.2021  0.5793
 8590TIP3    H125734   3.925   3.726   3.561 -1.2201 -0.6445  0.3981
 8590TIP3    H225735   3.856   3.795   3.677  0.0199  0.3131  0.5820
 8591TIP3   OH225736  -0.016   1.297   0.199 -0.4678  0.3669 -0.2785
 8591TIP3    H125737   0.073   1.303   0.233 -0.3493 -0.5895 -0.3837
 8591TIP3    H225738  -0.030   1.379   0.151 -0.1198  1.1009  0.8430
 8592TIP3   OH225739   3.025   4.419   0.992 -0.3096  0.2444  0.5941
 8592TIP3    H125740   3.045   4.455   0.906 -1.4970 -0.9562 -0.2207
 8592TIP3    H225741   3.094   4.454   1.049  1.6038 -0.3787 -1.1956
 8593TIP3   OH225742   0.958   1.362   2.234 -0.3754 -0.4429 -0.1685
 8593TIP3    H125743   0.920   1.379   2.320  0.6483 -0.7154  0.3407
 8593TIP3    H225744   0.884   1.372   2.173 -1.4848 -1.8193  0.8853
 8594TIP3   OH225745   2.752   2.778   0.557  0.6875  0.2045  0.0576
 8594TIP3    H125746   2.822   2.828   0.516  0.2593  0.8006  0.0431
 8594TIP3    H225747   2.798   2.715   0.613  1.2631 -0.2318 -0.8644
 8595TIP3   OH225748   6.434   5.926   0.778  0.1986  0.0162 -0.3644
 8595TIP3    H125749   6.513   5.894   0.821  0.7869  0.7884 -0.8277
 8595TIP3    H225750   6.465   5.995   0.719 -0.6395 -0.6678 -1.6500
 8596TIP3   OH225751   3.966   0.953   0.961 -0.1010 -0.6275 -0.3709
 8596TIP3    H125752   4.015   1.033   0.943  0.2798 -0.4644  1.2382
 8596TIP3    H225753   3.882   0.984   0.996 -0.1843 -0.9132 -0.3143
 8597TIP3   OH225754   2.588   6.645   4.854  0.0338 -0.1746  0.3367
 8597TIP3    H125755   2.541   6.709   4.800  0.6856  1.6123  1.7597
 8597TIP3    H225756   2.578   6.562   4.808 -1.3879  0.8286 -1.2836
 8598TIP3   OH225757   1.737   4.225   3.245 -0.1599 -0.3035 -0.1900
 8598TIP3    H125758   1.712   4.315   3.223  1.4019  0.0676 -0.5222
 8598TIP3    H225759   1.690   4.171   3.181 -0.7676  0.2890 -0.2592
 8599TIP3   OH225760   2.359   5.797   5.576 -0.0567 -0.2186 -0.1905
 8599TIP3    H125761   2.276   5.817   5.619  0.0955 -0.4473  0.2073
 8599TIP3    H225762   2.352   5.705   5.550  0.2563 -0.3681  0.2566
 8600TIP3   OH225763   0.803   4.904   3.551 -0.1420  0.0448  0.1299
 8600TIP3    H125764   0.793   4.960   3.629 -0.4786 -0.9197  0.7971
 8600TIP3    H225765   0.787   4.963   3.478 -0.7738  0.7748  0.8288
 8601TIP3   OH225766   1.716   1.323   2.537 -0.4097  0.4208 -0.2223
 8601TIP3    H125767   1.761   1.278   2.465  0.3205  0.0819  0.4333
 8601TIP3    H225768   1.679   1.252   2.589 -0.9679  0.6688 -0.2690
 8602TIP3   OH225769   5.372   2.754   4.662 -0.2240 -0.0393 -0.7153
 8602TIP3    H125770   5.377   2.843   4.696  0.4232  0.2083 -1.4469
 8602TIP3    H225771   5.462   2.729   4.646 -0.3892 -0.9041 -0.3379
 8603TIP3   OH225772   4.458   3.033   1.449 -0.1314 -0.3530  0.6314
 8603TIP3    H125773   4.469   3.099   1.517  1.9971 -0.4752  0.4916
 8603TIP3    H225774   4.373   3.051   1.411 -0.9138  0.3927  2.5965
 8604TIP3   OH225775   1.319   0.271   5.572  0.5493 -0.0034 -0.1783
 8604TIP3    H125776   1.304   0.177   5.559  1.3767 -0.1715  0.0341
 8604TIP3    H225777   1.268   0.313   5.503 -0.8739 -0.5407  0.5040
 8605TIP3   OH225778   1.090   2.498   5.445 -0.0628 -0.0265 -0.1287
 8605TIP3    H125779   1.104   2.404   5.434  0.7687  0.2637 -1.7483
 8605TIP3    H225780   1.151   2.539   5.385  0.2290  1.6055  1.2011
 8606TIP3   OH225781   2.630   0.777   5.231  1.1537  0.0214 -0.2488
 8606TIP3    H125782   2.724   0.789   5.242  1.1524 -0.0658 -0.1389
 8606TIP3    H225783   2.600   0.859   5.190  0.7556  1.5241  2.7722
 8607TIP3   OH225784   4.530   6.547   2.579 -0.3258  0.3879  0.2782
 8607TIP3    H125785   4.602   6.489   2.557  0.2326  1.3306 -0.4538
 8607TIP3    H225786   4.570   6.620   2.625 -0.7900  0.9711 -0.2235
 8608TIP3   OH225787   1.850   2.323   5.772  0.1003 -0.2467  0.2096
 8608TIP3    H125788   1.918   2.379   5.811  0.7832 -1.8260  1.3975
 8608TIP3    H225789   1.870   2.235   5.805 -1.3696 -1.0824 -1.0149
 8609TIP3   OH225790   1.475   3.589   1.048  0.0875 -0.7696  0.0504
 8609TIP3    H125791   1.471   3.545   0.963  0.9933  0.3920 -0.6241
 8609TIP3    H225792   1.567   3.612   1.059  0.0782 -1.3348  1.6001
 8610TIP3   OH225793   0.609   2.241   1.472  0.0235  0.8910  0.3958
 8610TIP3    H125794   0.624   2.321   1.522  0.3619  0.2137  1.4102
 8610TIP3    H225795   0.538   2.263   1.412 -1.1445  1.4175  1.9153
 8611TIP3   OH225796   2.887   2.330   5.211 -0.1097  0.1106  0.0119
 8611TIP3    H125797   2.850   2.242   5.213 -0.5610  0.2779 -0.5438
 8611TIP3    H225798   2.916   2.346   5.300 -0.0051 -0.6082  0.1123
 8612TIP3   OH225799   4.875   1.242   0.483 -0.2812 -0.2152  0.0230
 8612TIP3    H125800   4.879   1.173   0.417 -1.5126 -0.4149  0.1168
 8612TIP3    H225801   4.783   1.244   0.509 -0.1814  1.1342  0.3780
 8613TIP3   OH225802   6.253   4.114   2.821  0.0940  0.2807 -0.1323
 8613TIP3    H125803   6.179   4.171   2.801  0.7255  1.0433 -0.3615
 8613TIP3    H225804   6.325   4.174   2.842  0.5752 -0.4457  0.3546
 8614TIP3   OH225805   7.015   0.469   4.571 -0.7571  0.2453  0.4954
 8614TIP3    H125806   7.092   0.526   4.563 -0.6744  0.2092  1.0052
 8614TIP3    H225807   6.976   0.469   4.483 -1.3622  1.9581  0.7232
 8615TIP3   OH225808   5.927   1.643   2.964  0.0323 -0.0495  0.0574
 8615TIP3    H125809   5.847   1.593   2.980  0.6205 -0.5232  1.7847
 8615TIP3    H225810   5.985   1.619   3.037  0.9878  1.8409 -0.0276
 8616TIP3   OH225811   6.553   0.887   3.730 -0.4311 -0.7274  0.3888
 8616TIP3    H125812   6.532   0.794   3.741 -2.4679 -0.4220 -0.4012
 8616TIP3    H225813   6.470   0.932   3.746  0.3959  0.9212  0.2227
 8617TIP3   OH225814   5.358   3.960   3.654  0.8365  0.3622  0.0861
 8617TIP3    H125815   5.385   3.880   3.609  0.3325  0.2170  0.0364
 8617TIP3    H225816   5.278   3.935   3.700  0.1024  1.1080 -0.7556
 8618TIP3   OH225817   1.717   5.234   5.698  0.2672 -0.0929  0.3300
 8618TIP3    H125818   1.730   5.268   5.609  0.3850 -0.1912  0.3087
 8618TIP3    H225819   1.624   5.250   5.717  0.7392  2.0961  1.1010
 8619TIP3   OH225820   1.478   6.464   1.078 -0.1315 -0.0957  0.2919
 8619TIP3    H125821   1.454   6.371   1.076 -0.9537  0.1236 -0.7079
 8619TIP3    H225822   1.507   6.479   1.168 -0.1650 -1.2742  0.5187
 8620TIP3   OH225823   4.491   4.104   4.348  0.1328  0.0161  0.9693
 8620TIP3    H125824   4.407   4.068   4.319 -0.6671  2.7066 -0.4644
 8620TIP3    H225825   4.488   4.098   4.444 -1.2559 -0.8430  0.8974
 8621TIP3   OH225826   1.968   0.221   3.680  0.4756 -0.6421 -0.5877
 8621TIP3    H125827   1.998   0.130   3.677  1.2263 -0.4473  0.5730
 8621TIP3    H225828   2.006   0.257   3.760 -2.8159 -0.3350  0.9836
 8622TIP3   OH225829   5.805   6.465   4.320  0.3465 -0.1897 -0.0772
 8622TIP3    H125830   5.871   6.428   4.378  0.5370 -1.5312 -1.0927
 8622TIP3    H225831   5.725   6.417   4.340 -0.0029  0.5009  0.2165
 8623TIP3   OH225832   3.705   1.342   0.773 -0.5831  0.6431  0.6265
 8623TIP3    H125833   3.769   1.413   0.778 -2.7041  2.6566  0.6732
 8623TIP3    H225834   3.707   1.315   0.681  0.0037  0.9633  0.5400
 8624TIP3   OH225835   2.997   4.700   0.310 -0.3023 -0.0436  0.3607
 8624TIP3    H125836   3.058   4.770   0.331 -0.1471 -0.3063  0.8060
 8624TIP3    H225837   3.004   4.689   0.215  0.4812 -0.1961  0.4296
 8625TIP3   OH225838   3.638   3.847   1.849 -1.1884 -0.1572  0.4391
 8625TIP3    H125839   3.551   3.844   1.808 -0.6303 -1.4439 -0.7242
 8625TIP3    H225840   3.677   3.928   1.816 -0.4030 -1.5964 -2.4591
 8626TIP3   OH225841   5.019   5.579   5.784 -0.3564  0.4716 -0.2978
 8626TIP3    H125842   4.939   5.562   5.834 -0.6224  1.0035 -0.5349
 8626TIP3    H225843   5.027   5.505   5.725 -0.7267  0.4642 -0.3391
 8627TIP3   OH225844   0.740   5.566   5.006  0.3581 -0.2174 -0.1247
 8627TIP3    H125845   0.700   5.492   4.960  0.1380 -0.6940  0.8160
 8627TIP3    H225846   0.831   5.566   4.977  0.0702 -0.0737 -1.0872
 8628TIP3   OH225847   0.792   0.349   0.955  0.3592 -0.6552 -0.0395
 8628TIP3    H125848   0.745   0.383   1.031  1.3653 -1.8862  1.1827
 8628TIP3    H225849   0.885   0.359   0.978  0.6725 -1.7051 -0.7673
 8629TIP3   OH225850   3.639   0.284   1.163 -0.2836 -0.2315 -0.5383
 8629TIP3    H125851   3.653   0.218   1.094 -0.9710  0.0289 -0.9380
 8629TIP3    H225852   3.544   0.296   1.165 -0.2680 -0.2041  0.4378
 8630TIP3   OH225853   4.236   5.168   4.877  0.1307 -0.2843  0.4353
 8630TIP3    H125854   4.294   5.093   4.868 -0.4283 -0.8490  1.3975
 8630TIP3    H225855   4.181   5.165   4.799  1.3738  0.2646 -0.4910
 8631TIP3   OH225856   5.218   1.553   0.123 -0.3464  0.1624  0.2264
 8631TIP3    H125857   5.226   1.468   0.080 -1.9640  0.6832 -1.1921
 8631TIP3    H225858   5.237   1.535   0.215  1.2488 -1.3546 -0.3476
 8632TIP3   OH225859   1.213   2.084   4.921 -0.0008  0.4919 -0.7284
 8632TIP3    H125860   1.225   1.995   4.889  0.7722  0.3836 -0.1601
 8632TIP3    H225861   1.207   2.075   5.016 -1.9267  0.8445 -0.7813
 8633TIP3   OH225862   5.471   3.065   4.949  0.2530 -0.3671  1.1028
 8633TIP3    H125863   5.398   3.039   5.006 -0.4314  0.2530  0.5352
 8633TIP3    H225864   5.468   3.161   4.948 -1.2563 -0.3288 -1.7903
 8634TIP3   OH225865   4.199   2.553   0.562  0.4172  0.2596 -0.4130
 8634TIP3    H125866   4.128   2.617   0.557  0.7268  0.6427  0.0989
 8634TIP3    H225867   4.179   2.499   0.638  0.8252  0.5521 -0.0934
 8635TIP3   OH225868   1.777   4.200   1.037  0.6669  0.4088  0.5836
 8635TIP3    H125869   1.859   4.177   1.081  0.6821 -0.6041  0.0522
 8635TIP3    H225870   1.733   4.117   1.023 -1.1272  1.0294  2.0961
 8636TIP3   OH225871   3.066   0.479   3.692 -0.2455  0.3198  0.0713
 8636TIP3    H125872   3.075   0.454   3.600 -1.4179  0.5769 -0.1203
 8636TIP3    H225873   2.992   0.428   3.724 -0.1357  0.5828  0.7586
 8637TIP3   OH225874   1.893   1.564   0.728  0.0626 -0.1413  0.1962
 8637TIP3    H125875   1.886   1.490   0.667  0.8459  0.8971 -1.2319
 8637TIP3    H225876   1.955   1.534   0.795 -1.2620 -1.5245  0.8564
 8638TIP3   OH225877   0.255   4.818   2.938 -0.5657 -0.0238  0.0287
 8638TIP3    H125878   0.255   4.851   3.028 -1.4407 -0.5117  0.2115
 8638TIP3    H225879   0.309   4.881   2.890 -2.7389  2.0938  0.2263
 8639TIP3   OH225880   6.219   1.365   2.428 -0.2042 -0.2782  0.3395
 8639TIP3    H125881   6.200   1.414   2.508  1.1045  0.9984 -0.0969
 8639TIP3    H225882   6.134   1.328   2.403 -1.6863  3.0458 -0.1451
 8640TIP3   OH225883   4.477   1.516   5.317  0.6446 -0.0896 -0.4874
 8640TIP3    H125884   4.525   1.591   5.283 -0.6567  0.2944 -1.5424
 8640TIP3    H225885   4.523   1.440   5.281  1.1112  0.2321 -0.5782
 8641TIP3   OH225886   2.378   4.369   5.669  0.6025 -0.4688 -0.0111
 8641TIP3    H125887   2.445   4.372   5.738  0.4438 -1.1134  0.1824
 8641TIP3    H225888   2.374   4.276   5.644  0.1348 -0.3569 -0.3685
 8642TIP3   OH225889   0.014   4.547   1.684 -0.1675 -0.8908  0.9129
 8642TIP3    H125890   0.013   4.621   1.624 -0.8072 -1.4350  0.2343
 8642TIP3    H225891   0.059   4.477   1.636  0.9103 -0.7962  1.7469
 8643TIP3   OH225892   6.690   3.436   1.134  0.6695  0.1887 -0.1320
 8643TIP3    H125893   6.735   3.393   1.061 -0.0206 -0.1324 -0.3836
 8643TIP3    H225894   6.722   3.526   1.134  2.4635 -0.4131  0.6624
 8644TIP3   OH225895   2.736   3.872   0.445  0.1731  0.1054  0.3712
 8644TIP3    H125896   2.662   3.816   0.467 -0.1800  1.0646  1.7603
 8644TIP3    H225897   2.733   3.943   0.510  1.0002  1.3712 -0.9080
 8645TIP3   OH225898   6.303   2.152   2.079  0.6928 -0.2149 -0.1428
 8645TIP3    H125899   6.319   2.098   2.156 -2.3392 -0.9353  0.1114
 8645TIP3    H225900   6.261   2.093   2.017  0.1166  1.1297 -1.0686
 8646TIP3   OH225901   1.445   6.717   3.152  0.2852 -0.2181  0.1711
 8646TIP3    H125902   1.429   6.761   3.236  1.6501 -1.3174  1.0563
 8646TIP3    H225903   1.373   6.655   3.144  0.3015 -0.3106  0.6782
 8647TIP3   OH225904   1.766   4.174   0.361 -0.2412  0.0180 -0.1016
 8647TIP3    H125905   1.803   4.132   0.439 -0.4240 -0.9116 -0.5072
 8647TIP3    H225906   1.761   4.104   0.296 -1.1646  0.5181 -0.5860
 8648TIP3   OH225907   6.072   1.089   2.392 -0.0962  0.1749 -0.4527
 8648TIP3    H125908   6.010   1.160   2.409 -1.5244 -0.5870 -2.1912
 8648TIP3    H225909   6.020   1.009   2.400  1.3063 -0.6718  0.7085
 8649TIP3   OH225910   4.380   2.739   4.606  0.2539 -1.4648  0.7573
 8649TIP3    H125911   4.304   2.681   4.610 -0.5812 -0.3739  1.1201
 8649TIP3    H225912   4.453   2.685   4.638 -0.4031 -2.4513  0.6330
 8650TIP3   OH225913   5.138   6.720   2.397 -0.1114  0.0874  0.2930
 8650TIP3    H125914   5.088   6.713   2.316 -0.6097 -0.1534  0.6190
 8650TIP3    H225915   5.212   6.660   2.385 -0.5170 -0.4071  0.2610
 8651TIP3   OH225916   1.225   5.220   1.322 -0.1666  0.2190 -0.3087
 8651TIP3    H125917   1.190   5.292   1.375 -0.2342 -0.8025  1.0657
 8651TIP3    H225918   1.228   5.145   1.381 -2.2634 -1.5718 -2.2838
 8652TIP3   OH225919   3.128   3.980   5.194  0.3739 -0.1826 -0.5248
 8652TIP3    H125920   3.078   3.984   5.113  0.7878 -3.4191 -1.0553
 8652TIP3    H225921   3.062   3.987   5.264 -0.5490 -1.6312 -1.2050
 8653TIP3   OH225922   1.328   5.260   5.891  0.6439 -0.0067  0.0938
 8653TIP3    H125923   1.270   5.186   5.873  1.1841 -0.5675  0.5956
 8653TIP3    H225924   1.414   5.220   5.905  1.0386  0.7599 -0.0878
 8654TIP3   OH225925   4.796   4.062   4.804 -0.0783  0.6524 -0.5119
 8654TIP3    H125926   4.852   3.985   4.804 -1.6776 -0.5483 -0.8556
 8654TIP3    H225927   4.853   4.133   4.836  1.8596 -0.3117 -1.6193
 8655TIP3   OH225928   5.327   2.135   5.205  0.1301 -0.1641  0.4235
 8655TIP3    H125929   5.384   2.059   5.193 -0.2377 -0.2797 -0.6834
 8655TIP3    H225930   5.249   2.100   5.248  0.7114 -0.0633  1.6345
 8656TIP3   OH225931   0.694   0.068   1.093 -0.4544  0.0762  0.1555
 8656TIP3    H125932   0.653   0.106   1.015  1.6851 -0.2120 -1.2149
 8656TIP3    H225933   0.722  -0.020   1.065  2.0227  0.6523  0.5839
 8657TIP3   OH225934   2.317   6.546   2.618  0.2608  0.1300 -0.1988
 8657TIP3    H125935   2.292   6.638   2.604  1.9960  0.6195 -0.2944
 8657TIP3    H225936   2.345   6.515   2.532 -2.0028 -1.1033 -0.5823
 8658TIP3   OH225937   4.987   1.516   2.999 -0.3759 -0.2429 -0.1604
 8658TIP3    H125938   4.947   1.531   3.084 -2.0937 -0.6737 -0.8441
 8658TIP3    H225939   5.080   1.532   3.013 -0.8668  1.8157  1.2943
 8659TIP3   OH225940   0.947   5.751   1.540  0.0781 -0.1118 -0.4950
 8659TIP3    H125941   1.013   5.806   1.583  1.7033 -2.3542  0.0643
 8659TIP3    H225942   0.959   5.768   1.446  1.8996 -0.8991 -0.4431
 8660TIP3   OH225943   2.391   1.515   1.112 -0.1435 -0.1508 -0.9910
 8660TIP3    H125944   2.305   1.546   1.141  0.6967  1.2027  0.1835
 8660TIP3    H225945   2.453   1.562   1.167  1.3121 -2.7243 -0.2730
 8661TIP3   OH225946   2.247   2.995   0.839 -0.9204  0.1925 -0.3191
 8661TIP3    H125947   2.219   2.907   0.813 -0.5836 -0.0295  0.0590
 8661TIP3    H225948   2.252   2.991   0.934 -0.0950  0.3694 -0.3476
 8662TIP3   OH225949   0.444   2.081   1.734 -0.1044  0.6483 -0.0474
 8662TIP3    H125950   0.456   2.165   1.690  1.1580  1.0590  1.0133
 8662TIP3    H225951   0.447   2.103   1.827  2.3868 -0.7949  0.2868
 8663TIP3   OH225952   2.001   4.259   3.342  0.2328  0.5723  0.5061
 8663TIP3    H125953   1.909   4.256   3.316  0.1022  3.0989  0.4115
 8663TIP3    H225954   2.002   4.215   3.427 -0.7958 -0.6554 -0.0766
 8664TIP3   OH225955   6.344   5.795   4.849 -0.5552 -0.2248  0.4094
 8664TIP3    H125956   6.305   5.881   4.837 -0.0621 -0.1724 -1.0639
 8664TIP3    H225957   6.415   5.809   4.911  1.4651  1.1325 -2.0002
 8665TIP3   OH225958   2.014  -0.003   3.069  0.1072 -0.8676 -0.7660
 8665TIP3    H125959   1.953  -0.071   3.097  1.3842 -2.2834 -1.2747
 8665TIP3    H225960   1.985   0.076   3.114 -0.1059 -2.2466  1.6783
 8666TIP3   OH225961   6.360   4.319   3.170 -0.1291  0.2539  0.6012
 8666TIP3    H125962   6.286   4.269   3.135 -0.9735  1.9362 -0.1356
 8666TIP3    H225963   6.323   4.366   3.245  0.2087  1.0761  0.2531
 8667TIP3   OH225964   1.436   3.527   2.626 -0.3305  0.2093 -0.3287
 8667TIP3    H125965   1.349   3.554   2.658 -0.0014 -0.4085  1.1966
 8667TIP3    H225966   1.495   3.596   2.657  0.1517 -0.9264  1.4233
 8668TIP3   OH225967   1.471   1.765   1.741  0.1547 -0.0492 -0.0901
 8668TIP3    H125968   1.423   1.838   1.701  0.0351  0.1359  0.3903
 8668TIP3    H225969   1.516   1.804   1.816  1.0164 -0.2345 -0.5009
 8669TIP3   OH225970   5.293   0.324   2.119 -0.3502 -0.0719  0.1477
 8669TIP3    H125971   5.293   0.397   2.181 -1.4942  0.2998 -0.2605
 8669TIP3    H225972   5.201   0.314   2.094 -0.2030 -1.6083  0.1315
 8670TIP3   OH225973   1.487   5.941   0.911  0.0056  0.1198  0.9130
 8670TIP3    H125974   1.545   5.865   0.913  0.5615  0.5181  0.3248
 8670TIP3    H225975   1.418   5.921   0.974  0.6046 -0.5062  1.3752
 8671TIP3   OH225976   1.765   2.528   4.124  0.4315  0.3945 -0.1039
 8671TIP3    H125977   1.755   2.529   4.028 -2.6863  1.6479  0.1180
 8671TIP3    H225978   1.681   2.495   4.156  1.3289  0.2372  2.2305
 8672TIP3   OH225979   5.264   5.555   5.458 -0.4404 -0.0000  0.7987
 8672TIP3    H125980   5.306   5.503   5.389 -0.6208 -0.8828  1.3394
 8672TIP3    H225981   5.181   5.511   5.473 -1.3564  1.4219  0.1129
 8673TIP3   OH225982   7.096   5.695   2.114  0.1780  0.2657 -0.1031
 8673TIP3    H125983   7.167   5.631   2.120 -0.0203 -0.3335 -2.9407
 8673TIP3    H225984   7.054   5.678   2.030 -1.1243  2.8767 -0.1056
 8674TIP3   OH225985   4.801   4.182   0.731 -0.5196  0.0707 -0.5276
 8674TIP3    H125986   4.823   4.093   0.705 -1.0161  0.1243 -1.1674
 8674TIP3    H225987   4.742   4.213   0.662 -2.9854 -0.2168  1.3127
 8675TIP3   OH225988   6.400   5.308   4.736 -0.1009 -0.3159  0.0197
 8675TIP3    H125989   6.381   5.400   4.757 -0.7537 -0.6071  0.7523
 8675TIP3    H225990   6.487   5.293   4.773 -0.0947 -0.0601  0.1127
 8676TIP3   OH225991   5.910   2.032   2.081  0.8844  0.4779 -0.2266
 8676TIP3    H125992   5.855   2.111   2.079  0.0344 -0.1117 -0.6572
 8676TIP3    H225993   5.906   2.002   2.172  1.0100  0.7879 -0.1167
 8677TIP3   OH225994   6.178   0.712   3.624  0.0993  0.1712 -0.0016
 8677TIP3    H125995   6.255   0.663   3.651  0.0451 -0.1718 -0.4560
 8677TIP3    H225996   6.159   0.681   3.535 -0.1189  0.7906 -0.1805
 8678TIP3   OH225997   4.565   4.716   3.550  0.4652  0.1234  0.0232
 8678TIP3    H125998   4.565   4.798   3.502  1.7690  0.3910  0.4247
 8678TIP3    H225999   4.627   4.731   3.622  0.8033 -1.2267  0.0428
 8679TIP3   OH226000   6.687   0.215   0.408  0.0185  0.0877  0.1284
 8679TIP3    H126001   6.645   0.299   0.390  0.1645  0.5986  1.9544
 8679TIP3    H226002   6.773   0.238   0.442  1.0985 -0.8979 -1.7482
 8680TIP3   OH226003   7.083   6.097   2.540 -0.2130 -0.5879 -0.0875
 8680TIP3    H126004   7.073   6.002   2.548 -1.6080 -0.6876 -2.2705
 8680TIP3    H226005   7.125   6.110   2.455 -0.9415  0.7939 -0.2603
 8681TIP3   OH226006   6.247   0.992   1.109 -0.0761 -0.1449  0.2044
 8681TIP3    H126007   6.159   0.994   1.147  0.2619 -3.9621  1.7400
 8681TIP3    H226008   6.300   1.047   1.167 -1.0788  0.6472  0.3870
 8682TIP3   OH226009   5.874   2.426   4.301 -0.5081 -0.2132  0.7797
 8682TIP3    H126010   5.912   2.439   4.214 -0.4674  0.0225  0.8314
 8682TIP3    H226011   5.787   2.389   4.284 -0.8866  0.7302  0.5958
 8683TIP3   OH226012   6.382   0.893   3.148  0.6490  0.0967 -0.3014
 8683TIP3    H126013   6.312   0.946   3.186  1.4776  1.2374 -0.2925
 8683TIP3    H226014   6.338   0.818   3.110 -0.4442  0.1622  0.7910
 8684TIP3   OH226015   6.653   2.372   0.668 -0.0792 -0.3559 -0.3226
 8684TIP3    H126016   6.742   2.395   0.640  0.2461 -1.8090 -0.5662
 8684TIP3    H226017   6.616   2.454   0.700  0.6232  0.7334 -2.1201
 8685TIP3   OH226018   3.796   6.343   3.104  0.0676 -0.3136  0.8902
 8685TIP3    H126019   3.841   6.258   3.103 -0.0535 -0.4062 -0.8729
 8685TIP3    H226020   3.727   6.333   3.039 -0.2150  1.0071  0.9712
 8686TIP3   OH226021   2.070   0.608   0.354 -0.0411 -0.6380  0.5383
 8686TIP3    H126022   2.143   0.571   0.403  0.6857 -0.3843 -0.3414
 8686TIP3    H226023   1.992   0.569   0.394  0.6658 -3.5808 -0.6960
 8687TIP3   OH226024   5.886   0.526   0.467 -0.4089 -0.2033  0.0546
 8687TIP3    H126025   5.851   0.612   0.448  1.2931  0.3357 -0.8695
 8687TIP3    H226026   5.880   0.478   0.384 -0.6516 -0.7255  0.3672
 8688TIP3   OH226027   3.284   3.354   3.246 -0.0677  0.5062 -0.5361
 8688TIP3    H126028   3.233   3.428   3.214  1.0743  1.4051 -0.3300
 8688TIP3    H226029   3.293   3.296   3.171 -1.7342  0.1252 -0.4654
 8689TIP3   OH226030   0.176   0.520   0.966 -0.0133  0.0513  0.0251
 8689TIP3    H126031   0.161   0.552   1.056  1.4200 -0.9587  0.6585
 8689TIP3    H226032   0.192   0.427   0.976 -0.8458 -0.2722 -1.4316
 8690TIP3   OH226033   3.487   3.514   1.402 -0.6511 -0.0922  0.3852
 8690TIP3    H126034   3.395   3.539   1.389 -0.2388  0.4513 -1.7666
 8690TIP3    H226035   3.537   3.583   1.358  0.6890 -1.8411 -0.9477
 8691TIP3   OH226036   2.647   2.851   3.638 -0.0682 -0.7267  0.4449
 8691TIP3    H126037   2.610   2.931   3.599  0.2226 -1.1751 -0.7703
 8691TIP3    H226038   2.615   2.852   3.728  0.0476  0.8433  0.5025
 8692TIP3   OH226039   1.327   3.237   4.016  0.1929 -0.3711  0.2033
 8692TIP3    H126040   1.303   3.247   3.924  0.6378 -0.2317  0.0993
 8692TIP3    H226041   1.306   3.321   4.056 -2.2896 -1.1548  0.7823
 8693TIP3   OH226042   5.623   6.499   0.218  0.5129  0.5095 -0.1182
 8693TIP3    H126043   5.673   6.418   0.218 -0.4748 -0.1190 -0.6321
 8693TIP3    H226044   5.571   6.496   0.138 -0.9466  0.7483  0.7731
 8694TIP3   OH226045   3.881   1.163   0.352 -0.7723  0.0261 -0.3567
 8694TIP3    H126046   3.824   1.198   0.421  0.3148 -0.7249  0.9741
 8694TIP3    H226047   3.897   1.072   0.377 -0.0278 -0.1544 -1.3960
 8695TIP3   OH226048   5.432   1.621   0.959 -0.0926  0.0933 -0.5982
 8695TIP3    H126049   5.489   1.692   0.989  1.3116 -1.3607  0.3479
 8695TIP3    H226050   5.434   1.557   1.030 -2.9041 -0.0631 -0.5823
 8696TIP3   OH226051   2.824   5.462   5.046 -0.3417 -0.0500  0.3050
 8696TIP3    H126052   2.756   5.438   5.109 -1.2610  0.1894 -0.5672
 8696TIP3    H226053   2.856   5.379   5.012 -0.3267 -0.1589  0.5797
 8697TIP3   OH226054   5.717   3.065   3.838  0.4104 -0.2750  0.3757
 8697TIP3    H126055   5.640   3.009   3.832 -2.1037  2.6655  2.1364
 8697TIP3    H226056   5.719   3.094   3.929  0.5394  3.5861 -0.6492
 8698TIP3   OH226057   5.357   0.893   4.821  0.6511  0.5322 -0.7578
 8698TIP3    H126058   5.414   0.886   4.744  0.7596  0.9823 -0.7186
 8698TIP3    H226059   5.311   0.976   4.809  0.6103  0.5662 -0.3754
 8699TIP3   OH226060   0.632   1.009   4.700 -0.4797 -0.3943  0.0833
 8699TIP3    H126061   0.621   0.943   4.631  0.0246 -0.8063  0.3985
 8699TIP3    H226062   0.668   0.961   4.774 -2.4521 -0.2781  1.1852
 8700TIP3   OH226063   3.808   3.735   4.584 -0.4155  0.5850 -0.5581
 8700TIP3    H126064   3.775   3.663   4.529 -0.6513  1.0198 -0.9979
 8700TIP3    H226065   3.731   3.788   4.601 -0.3909  0.3095  0.4299
 8701TIP3   OH226066   1.635   0.613   1.869  0.2993 -0.1016  0.0441
 8701TIP3    H126067   1.695   0.587   1.799  0.0909 -1.9842  0.5165
 8701TIP3    H226068   1.551   0.626   1.826  0.0098 -1.9243 -0.0047
 8702TIP3   OH226069   2.916   5.224   5.477  0.2158  0.1408 -0.3241
 8702TIP3    H126070   2.881   5.218   5.566 -0.2233  0.9410 -0.4293
 8702TIP3    H226071   2.839   5.238   5.422  0.4129 -1.0430 -0.9222
 8703TIP3   OH226072   0.188   2.462   1.534  0.4074  0.2688  0.9040
 8703TIP3    H126073   0.161   2.472   1.625 -1.1062 -0.0406  0.5151
 8703TIP3    H226074   0.121   2.405   1.495  0.2401  1.5026 -0.7283
 8704TIP3   OH226075   0.818   5.695   3.256  0.4513 -0.5386 -0.1153
 8704TIP3    H126076   0.840   5.784   3.282  0.2871 -0.5473  0.0560
 8704TIP3    H226077   0.851   5.640   3.328  1.8066 -0.7444 -0.8591
 8705TIP3   OH226078   6.665   3.754   3.090  0.2088 -0.0347  0.0560
 8705TIP3    H126079   6.746   3.755   3.141 -0.2625 -0.7132  0.8326
 8705TIP3    H226080   6.651   3.845   3.065  1.1558  0.1072 -0.0095
 8706TIP3   OH226081   0.688   4.898   1.614 -0.5431  0.6722 -0.3732
 8706TIP3    H126082   0.779   4.926   1.602 -0.8365  0.8814 -2.4622
 8706TIP3    H226083   0.687   4.806   1.587 -1.0876  0.8927 -1.1353
 8707TIP3   OH226084   1.466   5.310   5.655  0.1732  0.0040 -0.0993
 8707TIP3    H126085   1.418   5.305   5.737  0.4201 -0.2953  0.0253
 8707TIP3    H226086   1.488   5.403   5.646  1.0301 -0.1063  0.6813
 8708TIP3   OH226087   3.452   0.085   4.829 -0.0541 -0.0224 -0.1511
 8708TIP3    H126088   3.545   0.071   4.815 -0.1433 -0.4127 -0.3842
 8708TIP3    H226089   3.411   0.060   4.746 -0.2204  1.8074 -0.6793
 8709TIP3   OH226090   1.335   3.116   5.830 -0.4520 -0.2902 -0.4522
 8709TIP3    H126091   1.286   3.039   5.858 -1.2689  0.4944  0.3611
 8709TIP3    H226092   1.284   3.190   5.865  1.0488  0.5642 -0.0001
 8710TIP3   OH226093   6.453   3.904   3.310  0.3535 -0.3234 -0.3763
 8710TIP3    H126094   6.548   3.904   3.322  0.2244  1.7332  1.3854
 8710TIP3    H226095   6.440   3.922   3.217  1.7072  0.6495 -0.3976
 8711TIP3   OH226096   3.350   6.318   4.914 -0.4254  0.3976 -0.3609
 8711TIP3    H126097   3.345   6.412   4.895  0.1345  0.6627  0.7376
 8711TIP3    H226098   3.310   6.308   5.000  1.1494 -0.0794  0.3561
 8712TIP3   OH226099   3.168   0.481   0.144  0.4846  0.3752  0.0668
 8712TIP3    H126100   3.229   0.518   0.080  1.5990 -1.1576  0.2169
 8712TIP3    H226101   3.185   0.530   0.224  1.8201 -0.2843  0.2145
 8713TIP3   OH226102   6.136   5.202   3.949  0.1349 -0.5916  0.0657
 8713TIP3    H126103   6.171   5.266   3.887  0.1673 -1.0994 -0.4470
 8713TIP3    H226104   6.207   5.140   3.963  0.4112 -0.0274  1.2606
 8714TIP3   OH226105   0.051   5.918   1.317  0.4695 -0.3300  0.0676
 8714TIP3    H126106   0.041   5.824   1.332 -1.0231 -0.0193  1.2622
 8714TIP3    H226107  -0.026   5.957   1.358  0.3461  1.3149 -1.5834
 8715TIP3   OH226108   6.210   1.888   5.135 -0.9449 -0.5317 -0.1430
 8715TIP3    H126109   6.267   1.884   5.212 -1.8155  0.2879  0.5654
 8715TIP3    H226110   6.123   1.869   5.169 -1.2704 -0.5994 -1.0094
 8716TIP3   OH226111   6.673   5.944   1.650 -0.2771  0.0440 -0.2484
 8716TIP3    H126112   6.646   5.926   1.741  0.0354 -1.6522 -0.4681
 8716TIP3    H226113   6.697   5.859   1.615 -2.9886  0.1800 -2.7970
 8717TIP3   OH226114   3.949   2.378   3.194 -0.1845 -0.0212  0.4063
 8717TIP3    H126115   3.987   2.391   3.281 -1.0880 -0.8046  0.9373
 8717TIP3    H226116   3.873   2.322   3.209  0.0020 -0.6989 -0.9719
 8718TIP3   OH226117   3.608   6.265   3.772 -0.0017  0.0442 -0.3727
 8718TIP3    H126118   3.572   6.238   3.688 -1.5936  0.3256  0.1794
 8718TIP3    H226119   3.586   6.358   3.779 -1.2116 -0.3213  0.9807
 8719TIP3   OH226120   5.643   0.012   0.437 -0.1869 -0.1072  0.0986
 8719TIP3    H126121   5.627  -0.053   0.504  0.0632 -0.5580 -0.2728
 8719TIP3    H226122   5.710   0.069   0.474 -1.6957  1.0511  1.1580
 8720TIP3   OH226123   4.742   3.108   1.698  0.0033 -0.1162 -0.2070
 8720TIP3    H126124   4.758   3.018   1.671 -0.1206 -0.0941 -0.3498
 8720TIP3    H226125   4.700   3.100   1.784  1.0621 -0.1714  0.3329
 8721TIP3   OH226126   4.590   4.592   3.141 -0.2641 -0.1170  0.2845
 8721TIP3    H126127   4.672   4.565   3.183  0.4489  2.1109  0.4285
 8721TIP3    H226128   4.527   4.525   3.168  1.1552 -1.0740  1.3993
 8722TIP3   OH226129   3.324   3.967   4.303 -0.7869  0.1365 -0.4914
 8722TIP3    H126130   3.293   3.902   4.366  0.3064  0.9718  0.9565
 8722TIP3    H226131   3.359   3.915   4.230  1.0269 -0.9695  1.0794
 8723TIP3   OH226132   4.260   2.188   5.275 -0.0691  1.1557  0.3461
 8723TIP3    H126133   4.259   2.248   5.350  0.5868  2.2613 -0.5084
 8723TIP3    H226134   4.322   2.119   5.301  1.3652  2.3545  0.2322
 8724TIP3   OH226135   5.992   2.920   4.743 -0.5897 -0.0458 -0.2963
 8724TIP3    H126136   6.062   2.881   4.796 -0.8871  0.1252  0.2279
 8724TIP3    H226137   5.930   2.849   4.729 -0.9178  0.1149  0.2933
 8725TIP3   OH226138   5.424   0.090   2.671  0.1443 -0.5667  0.2574
 8725TIP3    H126139   5.381   0.151   2.611  0.5202 -0.8868 -0.3479
 8725TIP3    H226140   5.489   0.144   2.717  1.0380 -0.6455 -0.8482
 8726TIP3   OH226141   1.849   5.290   5.437  0.3894 -0.1351  0.4821
 8726TIP3    H126142   1.814   5.374   5.466  0.7909 -0.0126  0.6180
 8726TIP3    H226143   1.941   5.308   5.416  0.3416 -0.4208 -0.0051
 8727TIP3   OH226144   3.856   1.154   2.514 -0.2474  0.4952  0.5059
 8727TIP3    H126145   3.814   1.124   2.433 -1.1232  3.2609 -0.1512
 8727TIP3    H226146   3.790   1.206   2.558  0.6917  0.2315  2.3403
 8728TIP3   OH226147   5.556   0.299   1.699  0.3715 -0.0314 -0.3088
 8728TIP3    H126148   5.481   0.296   1.759  0.3850 -2.4280 -0.2961
 8728TIP3    H226149   5.632   0.312   1.756  0.0395  2.3647 -0.3187
 8729TIP3   OH226150   4.996   0.326   2.375 -0.0028  0.2442 -0.3519
 8729TIP3    H126151   4.967   0.416   2.359 -1.4237 -0.1250 -0.0386
 8729TIP3    H226152   4.940   0.296   2.447  1.2157 -0.5342  0.2949
 8730TIP3   OH226153   2.780   6.809   1.525  0.3020 -0.2005 -0.1476
 8730TIP3    H126154   2.874   6.806   1.542  1.1732  1.1326 -3.8030
 8730TIP3    H226155   2.755   6.718   1.512  1.5533 -0.4377 -1.0938
 8731TIP3   OH226156   2.471   3.163   3.870  0.5028 -0.1533 -0.4860
 8731TIP3    H126157   2.395   3.107   3.884 -0.3964  0.9841 -0.6079
 8731TIP3    H226158   2.455   3.239   3.927  1.4223  0.2227 -0.7114
 8732TIP3   OH226159   0.909   2.828   2.720 -0.2076 -0.2573 -0.2008
 8732TIP3    H126160   0.871   2.840   2.634 -0.2222  1.2571 -0.0108
 8732TIP3    H226161   0.842   2.781   2.770 -1.8605  2.2192  0.0870
 8733TIP3   OH226162   6.773   5.584   0.478  0.0336 -0.2705 -0.1588
 8733TIP3    H126163   6.681   5.591   0.453  0.4611  1.8027 -1.3884
 8733TIP3    H226164   6.771   5.547   0.566 -2.0686  1.0234  0.4146
 8734TIP3   OH226165   0.227   1.714   3.710  0.3304  0.0787  0.3174
 8734TIP3    H126166   0.191   1.641   3.762 -0.2658 -0.5153 -0.8880
 8734TIP3    H226167   0.297   1.750   3.765 -1.4248  0.6445  2.3349
 8735TIP3   OH226168   5.120   5.442   3.338  0.0856 -0.5039  0.6022
 8735TIP3    H126169   5.180   5.475   3.405  2.2807 -0.9437 -0.9930
 8735TIP3    H226170   5.143   5.350   3.328 -0.4189 -0.5347 -0.4782
 8736TIP3   OH226171   1.235   5.708   2.935 -0.6944 -0.0364  0.5611
 8736TIP3    H126172   1.289   5.749   3.003  0.6302 -0.0110 -0.4821
 8736TIP3    H226173   1.166   5.663   2.984 -0.3862  0.8530  1.8734
 8737TIP3   OH226174   2.297   4.871   2.906  0.1610 -0.2292  0.0549
 8737TIP3    H126175   2.245   4.808   2.955 -1.0040  0.8519  0.2691
 8737TIP3    H226176   2.372   4.889   2.963 -1.3802  1.3251  1.7252
 8738TIP3   OH226177   5.608   5.248   2.750 -0.3991  0.4918  0.6662
 8738TIP3    H126178   5.662   5.242   2.671 -1.0136  0.5594  0.2359
 8738TIP3    H226179   5.523   5.278   2.719 -1.3114 -1.5588  1.0541
 8739TIP3   OH226180   3.269   5.821   2.417 -0.2261  0.2440 -0.1038
 8739TIP3    H126181   3.204   5.760   2.382 -0.1472  0.6106 -0.9150
 8739TIP3    H226182   3.347   5.767   2.430  0.0787  0.2893 -1.5261
 8740TIP3   OH226183   2.889   3.562   0.724  0.7273 -0.4641 -0.1184
 8740TIP3    H126184   2.906   3.483   0.775  1.7154 -1.1012 -1.3918
 8740TIP3    H226185   2.952   3.626   0.758 -2.0091  0.8921  3.0426
 8741TIP3   OH226186   3.865   3.831   5.271  0.1514  0.4295  0.1541
 8741TIP3    H126187   3.871   3.747   5.226  0.2681  0.4870  0.0608
 8741TIP3    H226188   3.916   3.891   5.217  2.6060 -0.0872  1.7032
 8742TIP3   OH226189   1.410   0.376   5.838  0.1970 -0.6935 -0.3024
 8742TIP3    H126190   1.394   0.470   5.840 -1.5963 -0.9634  0.2634
 8742TIP3    H226191   1.378   0.348   5.753  1.0528 -0.7609 -0.6112
 8743TIP3   OH226192   6.867   2.113   2.606  0.0787 -0.1119 -0.0778
 8743TIP3    H126193   6.928   2.042   2.622  0.2163  0.2297  0.9778
 8743TIP3    H226194   6.788   2.070   2.572  0.0271 -0.8051  0.8883
 8744TIP3   OH226195   6.094   4.604   4.895  0.1928 -0.2970  0.1585
 8744TIP3    H126196   6.177   4.651   4.891  0.3728 -0.6602 -0.5064
 8744TIP3    H226197   6.073   4.585   4.803  0.6148 -2.3775  0.4675
 8745TIP3   OH226198   0.081   3.579   3.857  0.6700  0.5399  0.1789
 8745TIP3    H126199   0.093   3.525   3.935  1.9139  1.3470  0.5681
 8745TIP3    H226200   0.002   3.631   3.876  0.3447 -0.0391  0.4345
 8746TIP3   OH226201   3.823   3.209   5.476 -0.1912  0.1287  0.4354
 8746TIP3    H126202   3.775   3.286   5.506 -0.6576 -0.6263  1.6734
 8746TIP3    H226203   3.901   3.245   5.434 -1.8523  1.4154 -1.8538
 8747TIP3   OH226204   7.151   2.417   4.124  0.8192 -0.0985 -0.6385
 8747TIP3    H126205   7.096   2.348   4.160  0.7318  1.2313  2.0305
 8747TIP3    H226206   7.091   2.472   4.074  0.1044  0.1045  0.3973
 8748TIP3   OH226207   0.537   3.652   1.886  0.5026  0.9343  0.5233
 8748TIP3    H126208   0.631   3.659   1.904  0.8844  5.8754 -1.7288
 8748TIP3    H226209   0.496   3.713   1.948 -1.4680 -1.4824  1.8044
 8749TIP3   OH226210   1.263   3.259   0.829 -0.4646 -0.0257 -0.0841
 8749TIP3    H126211   1.268   3.175   0.782  1.1667 -0.4227  0.7217
 8749TIP3    H226212   1.173   3.289   0.815 -0.7632 -1.3680 -1.3098
 8750TIP3   OH226213   3.070   2.741   2.854  0.1530  0.2629  0.7152
 8750TIP3    H126214   3.096   2.828   2.883  2.3385 -0.0291 -0.1613
 8750TIP3    H226215   3.011   2.756   2.780 -0.0914  0.9665  1.0469
 8751TIP3   OH226216   3.984   4.298   4.026  0.1501  0.5217 -0.1632
 8751TIP3    H126217   3.964   4.317   3.934  2.9421 -0.8134 -1.1733
 8751TIP3    H226218   4.063   4.349   4.045  0.0815  0.1479  1.2549
 8752TIP3   OH226219   3.752   5.546   1.026 -0.5187 -0.3935  0.3823
 8752TIP3    H126220   3.721   5.583   0.943  0.9398  1.6849  0.6621
 8752TIP3    H226221   3.847   5.555   1.021 -0.2995 -1.7137  1.6504
 8753TIP3   OH226222   2.761   1.916   1.453  0.8702  0.1363 -0.2383
 8753TIP3    H126223   2.830   1.953   1.508  1.4035 -0.3211 -0.5866
 8753TIP3    H226224   2.712   1.991   1.422 -0.2801  0.3516  1.9128
 8754TIP3   OH226225   3.755   4.688   1.258 -0.1512 -0.1322  0.2612
 8754TIP3    H126226   3.748   4.720   1.168  0.2349  0.2598  0.3698
 8754TIP3    H226227   3.756   4.593   1.249  0.1011 -0.0913 -0.1655
 8755TIP3   OH226228   2.443   4.400   5.342 -0.3029 -0.2247  0.2021
 8755TIP3    H126229   2.441   4.305   5.324  0.8331 -0.2141 -0.0462
 8755TIP3    H226230   2.381   4.412   5.413 -1.9519 -0.8710 -1.0437
 8756TIP3   OH226231   2.723   1.565   0.433  0.2382 -0.1202 -0.6152
 8756TIP3    H126232   2.787   1.635   0.421 -0.0733  0.0059 -1.6351
 8756TIP3    H226233   2.711   1.560   0.528  0.8147  0.7004 -0.4833
 8757TIP3   OH226234   0.307   2.715  -0.003 -0.0210  0.1474 -0.0723
 8757TIP3    H126235   0.212   2.728  -0.003 -0.0081  0.2888  1.2381
 8757TIP3    H226236   0.318   2.621   0.012  0.0605  0.2213  0.3204
 8758TIP3   OH226237   1.716   2.629   5.549 -0.0552  0.1430 -0.0040
 8758TIP3    H126238   1.645   2.567   5.531  0.8571 -0.5591 -1.3704
 8758TIP3    H226239   1.676   2.715   5.534 -0.8373 -0.2000  0.0517
 8759TIP3   OH226240   5.610   5.749   0.543  0.1393  0.3207 -0.2880
 8759TIP3    H126241   5.621   5.789   0.630  1.0527 -1.5091  0.4907
 8759TIP3    H226242   5.515   5.751   0.528  0.1319  2.6950 -0.2956
 8760TIP3   OH226243   2.727   5.922   2.313 -0.5331 -0.0489  0.1100
 8760TIP3    H126244   2.705   5.919   2.220 -0.6106  2.6257 -0.0270
 8760TIP3    H226245   2.744   5.830   2.336  1.3456 -0.6514 -2.9822
 8761TIP3   OH226246   5.176   4.296   3.472 -0.3234  0.6015 -0.0597
 8761TIP3    H126247   5.098   4.280   3.525 -0.5235 -0.6529 -0.6913
 8761TIP3    H226248   5.160   4.247   3.391  0.2573  1.9489 -1.0270
 8762TIP3   OH226249   6.632   2.181   5.841  0.0826 -0.0283  0.0919
 8762TIP3    H126250   6.600   2.149   5.925 -0.2085 -0.2651 -0.1073
 8762TIP3    H226251   6.554   2.214   5.796  0.5433  2.2370  0.8316
 8763TIP3   OH226252   1.226   1.698   1.879 -0.0218 -0.1973  0.1504
 8763TIP3    H126253   1.238   1.643   1.956 -1.0437 -2.2379 -1.0524
 8763TIP3    H226254   1.313   1.703   1.839  0.1715 -0.5466  0.5294
 8764TIP3   OH226255   1.985   6.566   4.186  0.5093 -0.0209 -0.3583
 8764TIP3    H126256   1.982   6.651   4.230 -1.0901 -1.0216  1.6329
 8764TIP3    H226257   2.076   6.557   4.158  1.3620  1.2032  1.7677
 8765TIP3   OH226258   0.212   4.661   5.646  0.4942  0.1030 -0.7767
 8765TIP3    H126259   0.231   4.705   5.563  0.2935  0.3244 -0.7092
 8765TIP3    H226260   0.294   4.666   5.695  0.2071  1.3002 -0.3751
 8766TIP3   OH226261   1.217   2.749   5.054 -0.3501  0.3828  0.1115
 8766TIP3    H126262   1.253   2.690   5.120 -2.4161  0.4149  1.3463
 8766TIP3    H226263   1.196   2.692   4.980  0.8684  0.1600 -0.0891
 8767TIP3   OH226264   5.936   0.899   3.575 -0.2766  0.0047  0.1152
 8767TIP3    H126265   5.998   0.843   3.622 -1.7194 -2.1595 -0.4252
 8767TIP3    H226266   5.850   0.871   3.605 -1.0904  1.1233 -1.0798
 8768TIP3   OH226267   1.717   1.904   3.039 -0.2006 -0.0003  0.1314
 8768TIP3    H126268   1.808   1.900   3.009 -0.4951 -0.2464 -0.7460
 8768TIP3    H226269   1.694   1.996   3.036  0.4587  0.2496  1.7316
 8769TIP3   OH226270   5.343   5.749   4.821 -0.2568 -0.2608 -0.0401
 8769TIP3    H126271   5.366   5.656   4.813  0.2664 -0.2314  0.9724
 8769TIP3    H226272   5.273   5.751   4.886 -1.0854 -0.0447 -0.9146
 8770TIP3   OH226273   4.388   0.604   0.440 -0.6392  0.0506  0.1199
 8770TIP3    H126274   4.325   0.650   0.385 -2.7638 -1.2504  1.3373
 8770TIP3    H226275   4.359   0.622   0.530  1.5113  0.4407  0.7924
 8771TIP3   OH226276   6.951   1.173   5.781 -0.5203  0.6013  0.0511
 8771TIP3    H126277   6.968   1.189   5.688 -1.3489 -1.7499 -0.5823
 8771TIP3    H226278   6.873   1.225   5.800 -1.1933  0.0090 -0.9872
 8772TIP3   OH226279   0.798   4.227   0.031 -0.4584 -0.1505  0.0615
 8772TIP3    H126280   0.707   4.220   0.002 -0.4642 -2.5941  0.4409
 8772TIP3    H226281   0.836   4.294  -0.026 -2.5837  1.3671  0.2802
 8773TIP3   OH226282   3.698   3.062   5.234 -0.1943 -0.3050 -0.1232
 8773TIP3    H126283   3.776   3.046   5.182 -0.3195  1.0446 -0.7708
 8773TIP3    H226284   3.731   3.091   5.320  0.0657  1.0452 -0.6422
 8774TIP3   OH226285   4.573   2.642   4.756  0.2624  0.2699  0.2272
 8774TIP3    H126286   4.564   2.644   4.851  0.2888 -1.0678  0.2636
 8774TIP3    H226287   4.624   2.564   4.737 -0.9336 -0.2582 -0.9722
 8775TIP3   OH226288   1.554   3.038   3.979 -0.4966 -0.4786  0.0582
 8775TIP3    H126289   1.481   3.091   4.011 -0.5458  0.0796 -0.9286
 8775TIP3    H226290   1.519   2.993   3.902  0.7258  1.4394 -1.7466
 8776TIP3   OH226291   3.421   4.997   0.020  0.4254  0.2427 -0.0590
 8776TIP3    H126292   3.504   4.999   0.066  1.0325 -1.9174 -0.9252
 8776TIP3    H226293   3.358   4.968   0.086  0.3320  1.7949  0.5741
 8777TIP3   OH226294   5.551   0.396   1.076  0.2120  0.2791 -0.1054
 8777TIP3    H126295   5.516   0.479   1.108  0.3792 -0.0401  0.9442
 8777TIP3    H226296   5.625   0.377   1.133  0.2588 -0.5258 -0.4137
 8778TIP3   OH226297   7.006   4.886   4.804  0.1877 -0.0872 -0.0885
 8778TIP3    H126298   7.100   4.892   4.820 -0.0486 -2.2080  2.8834
 8778TIP3    H226299   6.999   4.868   4.710  2.6822  0.6146 -0.4903
 8779TIP3   OH226300   5.176   1.352   1.040 -0.1563  0.5189 -0.1141
 8779TIP3    H126301   5.131   1.353   1.124  0.1461 -0.4646  0.0761
 8779TIP3    H226302   5.108   1.373   0.976 -0.7379 -0.2635  0.2343
 8780TIP3   OH226303   0.948   1.550   3.356 -0.0128  0.1962  0.5974
 8780TIP3    H126304   0.874   1.560   3.416  0.3935 -1.3980  1.4196
 8780TIP3    H226305   0.998   1.631   3.365 -0.0419  0.0481  2.3188
 8781TIP3   OH226306   0.386   3.792   2.083 -0.4482  0.4264  0.0320
 8781TIP3    H126307   0.316   3.732   2.107 -1.0185  0.9522 -0.3088
 8781TIP3    H226308   0.452   3.780   2.152 -0.1932 -1.1423 -0.4442
 8782TIP3   OH226309   3.408   3.484   2.367 -0.1159 -0.0052 -0.4753
 8782TIP3    H126310   3.379   3.526   2.286 -0.5017  0.3747 -0.1518
 8782TIP3    H226311   3.468   3.547   2.406  0.5670 -0.4659 -0.7756
 8783TIP3   OH226312   0.547   4.374   4.507 -0.0715  0.0710  0.2382
 8783TIP3    H126313   0.537   4.346   4.598  0.8495 -2.2473 -0.3065
 8783TIP3    H226314   0.467   4.424   4.489  0.3966  1.9113  2.7179
 8784TIP3   OH226315   5.598   0.289   4.210  0.3356 -0.6595 -0.1128
 8784TIP3    H126316   5.677   0.250   4.248  0.7551  0.8133  0.5792
 8784TIP3    H226317   5.594   0.377   4.247 -1.7291 -0.7509 -0.0168
 8785TIP3   OH226318   4.010   3.331   4.747 -0.4153 -0.1241  0.1503
 8785TIP3    H126319   4.071   3.400   4.773 -1.6166  1.2428 -0.5484
 8785TIP3    H226320   3.968   3.304   4.829 -0.1362  0.1720  0.3914
 8786TIP3   OH226321   6.536   6.604   5.651 -0.3530  0.4440 -0.3771
 8786TIP3    H126322   6.483   6.625   5.574 -1.6277  2.2969  0.9405
 8786TIP3    H226323   6.520   6.511   5.666  0.2841 -0.0946 -2.5507
 8787TIP3   OH226324   1.870   0.561   4.357 -0.2326 -0.1273  0.4856
 8787TIP3    H126325   1.835   0.594   4.440 -0.0163 -1.4702  1.1338
 8787TIP3    H226326   1.921   0.484   4.382 -1.8317 -1.7708 -1.1005
 8788TIP3   OH226327   4.221   2.488   4.215  0.2322 -0.2861  0.0542
 8788TIP3    H126328   4.250   2.521   4.300  0.8171 -0.4943 -0.0601
 8788TIP3    H226329   4.269   2.540   4.151 -0.0089 -0.3080 -0.1473
 8789TIP3   OH226330   1.496   4.545   4.749  0.0803  0.5620  1.2364
 8789TIP3    H126331   1.572   4.582   4.702 -1.4601  1.9095 -0.3490
 8789TIP3    H226332   1.534   4.479   4.807  2.1285 -2.2539 -2.7629
 8790TIP3   OH226333   3.123   0.533   2.335  0.7434 -0.6097  0.0514
 8790TIP3    H126334   3.059   0.546   2.265  2.7174  1.6947 -1.4715
 8790TIP3    H226335   3.156   0.620   2.354  1.5775 -1.3998  2.6435
 8791TIP3   OH226336   4.037   5.121   0.982 -0.5727  0.4032  0.3068
 8791TIP3    H126337   4.071   5.081   0.902 -2.8425 -1.0727 -0.0016
 8791TIP3    H226338   4.114   5.163   1.022  0.6294  1.3006 -2.6452
 8792TIP3   OH226339   0.091   3.326   2.237  0.4866  0.5960  0.0469
 8792TIP3    H126340   0.043   3.311   2.155  0.1599 -1.1218  0.5026
 8792TIP3    H226341   0.023   3.328   2.304  0.8490  0.7417  0.4102
 8793TIP3   OH226342   6.907   6.123   0.852  0.2236  0.9398  0.4877
 8793TIP3    H126343   6.961   6.194   0.886  1.8736  1.2135 -2.4107
 8793TIP3    H226344   6.962   6.045   0.859 -0.3693  0.5390  0.7448
 8794TIP3   OH226345   2.460   4.077   3.860  0.1909 -0.7396  0.3539
 8794TIP3    H126346   2.436   4.155   3.911  1.2174  0.5699 -1.0950
 8794TIP3    H226347   2.385   4.062   3.803  0.4361 -0.1444 -0.1284
 8795TIP3   OH226348   5.158   3.473   1.362  0.7222  0.2509  0.0779
 8795TIP3    H126349   5.125   3.439   1.446 -0.4642  1.3758  0.1034
 8795TIP3    H226350   5.154   3.568   1.372  3.8907  0.5041 -0.0074
 8796TIP3   OH226351   0.308   6.719   4.812 -0.0276  0.3566  0.1634
 8796TIP3    H126352   0.246   6.667   4.760  0.2418  0.4309 -0.2346
 8796TIP3    H226353   0.335   6.790   4.754  0.0319  0.6221  0.5154
 8797TIP3   OH226354   5.339   3.606   2.352 -0.3345  0.3871 -0.1660
 8797TIP3    H126355   5.380   3.520   2.345 -2.1471 -0.4965 -0.6574
 8797TIP3    H226356   5.359   3.636   2.441 -0.6248 -1.0650  0.4128
 8798TIP3   OH226357   2.366   4.084   3.261  0.3344 -0.1490  0.2572
 8798TIP3    H126358   2.277   4.090   3.228 -0.3765 -1.8378  1.7029
 8798TIP3    H226359   2.389   4.173   3.287 -0.6539  0.4266 -0.7698
 8799TIP3   OH226360   0.171   3.976   3.526 -0.0096 -0.0405  0.1845
 8799TIP3    H126361   0.176   4.004   3.435  0.5210  0.0959  0.2501
 8799TIP3    H226362   0.078   3.966   3.543 -0.2010  1.2888  0.0398
 8800TIP3   OH226363   2.467   3.808   3.597 -0.4839 -0.4831  0.0631
 8800TIP3    H126364   2.386   3.858   3.608 -0.2469  0.4835 -2.1327
 8800TIP3    H226365   2.506   3.842   3.517  1.8067 -1.3651  0.7228
 8801TIP3   OH226366   2.840   5.699   2.398 -0.5470  0.2307 -0.3833
 8801TIP3    H126367   2.862   5.739   2.482 -0.0989  1.6938 -1.1610
 8801TIP3    H226368   2.895   5.620   2.394 -0.1342  0.4696  0.4407
 8802TIP3   OH226369   3.677   1.699   2.313 -1.1704  0.1508 -0.4770
 8802TIP3    H126370   3.661   1.604   2.309  2.6818 -0.5990 -2.0169
 8802TIP3    H226371   3.712   1.714   2.400 -1.0488  0.0355 -0.5063
 8803TIP3   OH226372   3.421   3.521   2.987  0.2138 -0.4479  0.3645
 8803TIP3    H126373   3.382   3.601   2.952  0.6571 -1.0431 -1.5946
 8803TIP3    H226374   3.456   3.547   3.072 -1.5313  0.8947  0.7319
 8804TIP3   OH226375   0.707   2.095   4.026 -0.2470 -0.2313  0.1594
 8804TIP3    H126376   0.789   2.110   3.979 -0.6007 -2.4336 -1.3579
 8804TIP3    H226377   0.734   2.051   4.106  0.0925 -0.8415 -0.2775
 8805TIP3   OH226378   4.594   2.392   0.146  0.4323  0.1397 -0.1343
 8805TIP3    H126379   4.681   2.363   0.176  1.6719  1.3471 -2.3129
 8805TIP3    H226380   4.585   2.480   0.182 -1.1541 -0.9060  2.3068
 8806TIP3   OH226381   5.085   2.284   4.256 -0.2738  0.1577 -0.1067
 8806TIP3    H126382   5.158   2.235   4.293  0.7745  2.2272  0.7243
 8806TIP3    H226383   5.019   2.285   4.326 -0.3533 -0.1691 -0.1763
 8807TIP3   OH226384   0.909   1.294   3.601  0.7240 -0.6453 -0.3172
 8807TIP3    H126385   0.816   1.316   3.614  0.8730  2.5212 -3.2637
 8807TIP3    H226386   0.956   1.350   3.662  0.7480  0.0004 -0.9110
 8808TIP3   OH226387   0.322   3.029   1.814 -0.6368  0.5793 -0.0655
 8808TIP3    H126388   0.242   3.078   1.836 -1.5423  0.1913 -2.2604
 8808TIP3    H226389   0.384   3.052   1.884 -2.9990 -0.0347  2.4184
 8809TIP3   OH226390   2.289   3.552   3.919 -0.0384  0.3358 -0.4439
 8809TIP3    H126391   2.234   3.529   3.844  1.7023 -2.2362 -1.0717
 8809TIP3    H226392   2.309   3.468   3.960  2.6481  1.2421  0.2793
 8810TIP3   OH226393   4.588   0.209   4.337  0.0432  0.3384 -1.0816
 8810TIP3    H126394   4.585   0.303   4.353 -0.7864  0.5747 -2.5043
 8810TIP3    H226395   4.575   0.169   4.423 -1.0088  1.5322 -0.6633
 8811TIP3   OH226396   1.978   1.768   3.559  0.1355  0.4508 -0.4027
 8811TIP3    H126397   2.000   1.692   3.613 -1.1823  0.2238 -0.1548
 8811TIP3    H226398   1.882   1.769   3.555  0.1245  1.9379 -0.6326
 8812TIP3   OH226399   1.065   6.205   2.848  0.6176 -0.3317  0.4615
 8812TIP3    H126400   1.144   6.150   2.848  1.1178  0.3726  0.5474
 8812TIP3    H226401   1.052   6.227   2.756  0.8935  0.0684  0.5155
 8813TIP3   OH226402   6.486   6.004   4.581  0.4643 -0.0246 -0.1295
 8813TIP3    H126403   6.511   6.003   4.673  1.0848  2.1326 -0.2110
 8813TIP3    H226404   6.399   5.963   4.579  0.5982 -0.4309  1.3536
 8814TIP3   OH226405   1.469   0.269   1.879  0.1769  0.1556 -0.2053
 8814TIP3    H126406   1.486   0.185   1.923  0.5112  0.5130  0.3729
 8814TIP3    H226407   1.542   0.324   1.907  0.7671  0.1965 -1.7680
 8815TIP3   OH226408   3.914   2.533  -0.001 -0.2696 -0.2087  0.2946
 8815TIP3    H126409   3.968   2.575   0.065  2.2330 -0.7455 -1.2905
 8815TIP3    H226410   3.862   2.469   0.047  1.5264 -0.6482  1.7612
 8816TIP3   OH226411   2.244   6.691   5.919 -0.2455 -0.3404 -0.2017
 8816TIP3    H126412   2.195   6.736   5.850  0.3209  1.4174  0.4892
 8816TIP3    H226413   2.330   6.676   5.880 -0.0576  0.2774 -0.0384
 8817TIP3   OH226414   4.990   4.701   3.906 -0.0803 -0.3091  0.0540
 8817TIP3    H126415   4.979   4.647   3.828  1.6383 -0.7722  0.1027
 8817TIP3    H226416   5.057   4.765   3.882 -1.2805  1.1276  0.3669
 8818TIP3   OH226417   6.378   5.209   1.298 -0.0320  0.8588  0.2624
 8818TIP3    H126418   6.354   5.276   1.362  0.2046  0.2032  1.0579
 8818TIP3    H226419   6.358   5.126   1.342  1.7561  0.3416  0.1701
 8819TIP3   OH226420   7.027   3.180   2.805  0.1278 -0.0207  0.2292
 8819TIP3    H126421   7.092   3.122   2.844 -1.6351 -0.6447  2.4725
 8819TIP3    H226422   6.972   3.122   2.752 -1.3945 -0.4359  2.1539
 8820TIP3   OH226423   6.784   0.222   2.300  0.4403 -0.0246  0.8688
 8820TIP3    H126424   6.711   0.176   2.257 -0.2444  1.6051  0.2295
 8820TIP3    H226425   6.778   0.195   2.392 -0.2747 -0.7753  0.6204
 8821TIP3   OH226426   1.288   6.559   4.099 -0.6197 -0.4868  0.1556
 8821TIP3    H126427   1.326   6.591   4.017  1.2200 -0.2557  1.0536
 8821TIP3    H226428   1.291   6.635   4.158 -1.1754 -0.8713  0.6962
 8822TIP3   OH226429   6.017   0.646   4.152 -0.5004 -0.4646 -0.3276
 8822TIP3    H126430   5.999   0.629   4.059  0.4879 -0.1824 -0.5781
 8822TIP3    H226431   5.945   0.604   4.198 -1.3781 -0.0278 -1.2565
 8823TIP3   OH226432   3.783   0.391   4.931  0.1784  0.1168 -0.1338
 8823TIP3    H126433   3.868   0.406   4.973 -0.3675 -1.0150  1.4676
 8823TIP3    H226434   3.745   0.478   4.920  1.6228  0.6652 -1.1154
 8824TIP3   OH226435   6.165   2.596   5.529  0.0611  0.4764  0.0899
 8824TIP3    H126436   6.096   2.657   5.507 -0.7982 -0.2634  0.6427
 8824TIP3    H226437   6.179   2.545   5.450  0.5294  1.1323 -0.2606
 8825TIP3   OH226438   2.015   1.216   4.825 -0.1759 -0.3994 -0.0601
 8825TIP3    H126439   2.066   1.151   4.874 -1.6393 -1.8168 -0.3223
 8825TIP3    H226440   1.963   1.261   4.891 -0.2987 -0.5690 -0.0407
 8826TIP3   OH226441   3.085   0.708   1.009  0.0693 -0.7559  0.4445
 8826TIP3    H126442   3.095   0.649   0.935  0.3675 -0.5870  0.3507
 8826TIP3    H226443   2.993   0.698   1.035 -0.0650 -0.7284 -0.0196
 8827TIP3   OH226444   6.976   4.864   4.504  0.3373 -0.3608 -0.0192
 8827TIP3    H126445   7.036   4.934   4.479 -0.7011  0.8442  0.7332
 8827TIP3    H226446   6.929   4.843   4.424  0.8172 -0.3661 -0.3042
 8828TIP3   OH226447   5.219   4.546   0.584  0.0074 -0.6477  0.2933
 8828TIP3    H126448   5.150   4.482   0.566 -0.7125  0.6010 -1.7766
 8828TIP3    H226449   5.173   4.622   0.619  0.4351 -0.1465 -0.2081
 8829TIP3   OH226450   3.469   4.559   1.364  0.2918  0.2276  0.0020
 8829TIP3    H126451   3.518   4.579   1.444  0.3004 -1.9675  0.6010
 8829TIP3    H226452   3.533   4.521   1.305  0.0426  0.7623 -0.6279
 8830TIP3   OH226453   6.797   3.327   2.595 -0.2027  0.3230 -0.2329
 8830TIP3    H126454   6.791   3.250   2.539 -0.5444  1.6674 -2.1742
 8830TIP3    H226455   6.822   3.294   2.681 -0.2455 -1.9079 -1.0358
 8831TIP3   OH226456   2.916   6.440   4.987  0.1228 -0.2411  0.1042
 8831TIP3    H126457   2.914   6.345   4.976 -2.5601 -0.1625 -0.7931
 8831TIP3    H226458   2.934   6.452   5.081 -1.9725 -1.7525  0.7790
 8832TIP3   OH226459   6.670   4.844   4.044  0.5342 -0.4465 -0.3503
 8832TIP3    H126460   6.733   4.775   4.062  0.8179  0.1027  0.8588
 8832TIP3    H226461   6.722   4.919   4.015  0.3000 -0.4710 -0.8484
 8833TIP3   OH226462   3.161   0.693   3.832 -0.0769 -0.1792 -0.2754
 8833TIP3    H126463   3.250   0.715   3.805 -1.1331  2.7782 -1.8398
 8833TIP3    H226464   3.139   0.615   3.780  1.2340 -0.3664 -0.5976
 8834TIP3   OH226465   3.781   1.455   1.956  0.0720  0.3464 -0.4147
 8834TIP3    H126466   3.754   1.364   1.949  0.2511  0.1129  1.3561
 8834TIP3    H226467   3.700   1.503   1.976  0.0978  0.4579 -0.5770
 8835TIP3   OH226468   0.810   5.916   4.632 -0.3031  0.4261  0.4486
 8835TIP3    H126469   0.757   5.850   4.675 -0.9312  0.1762 -0.6631
 8835TIP3    H226470   0.810   5.891   4.540  1.6501  0.4984  0.3757
 8836TIP3   OH226471   4.182   6.584   3.145  0.2063 -0.3701 -0.1395
 8836TIP3    H126472   4.189   6.655   3.081  0.7403 -0.7881 -0.5481
 8836TIP3    H226473   4.148   6.510   3.095 -0.0462 -0.5026  0.2194
 8837TIP3   OH226474   2.923   0.278   1.523  0.4611 -0.1362  0.0634
 8837TIP3    H126475   2.899   0.362   1.560 -0.0797 -0.4420  0.4164
 8837TIP3    H226476   2.872   0.214   1.573 -0.5597 -0.5386 -1.4213
 8838TIP3   OH226477   3.086   6.427   4.750 -0.1839 -0.0443 -0.6296
 8838TIP3    H126478   3.124   6.355   4.700 -1.2587 -1.1370  0.0463
 8838TIP3    H226479   3.046   6.384   4.826 -0.4256  1.3320  0.0559
 8839TIP3   OH226480   6.160   1.655   1.007  0.2675 -0.1434  0.4758
 8839TIP3    H126481   6.244   1.700   1.004 -0.1402  0.6761  1.0037
 8839TIP3    H226482   6.101   1.712   0.959  0.2213 -1.2145 -0.7911
 8840TIP3   OH226483   3.579   6.337   4.126  0.2622  0.5345 -0.1696
 8840TIP3    H126484   3.527   6.257   4.142 -0.4476  0.8631 -0.7869
 8840TIP3    H226485   3.639   6.312   4.056 -0.2816  0.6808 -0.6891
 8841TIP3   OH226486   6.290   0.046   5.782  0.2936  0.2015 -0.3645
 8841TIP3    H126487   6.358   0.073   5.720  0.6221  0.5493  0.1409
 8841TIP3    H226488   6.222   0.112   5.773  0.6886  0.7035  0.2004
 8842TIP3   OH226489   6.478   3.923   1.598 -0.7159 -0.3237 -0.1020
 8842TIP3    H126490   6.448   4.014   1.605  0.8590  0.1895  0.3394
 8842TIP3    H226491   6.454   3.883   1.681  0.3547  0.2649  0.5122
 8843TIP3   OH226492   4.545   5.646   5.549  0.2191  0.1861 -0.0671
 8843TIP3    H126493   4.449   5.642   5.546 -0.0205  3.1595  0.3263
 8843TIP3    H226494   4.569   5.686   5.465  0.9549  0.7726  0.4103
 8844TIP3   OH226495   6.883   5.933   0.334 -0.2478 -0.9581 -0.5073
 8844TIP3    H126496   6.896   5.839   0.337 -0.3163 -0.9510  1.8756
 8844TIP3    H226497   6.913   5.964   0.419  0.7946  1.3366 -1.6120
 8845TIP3   OH226498   1.706   3.919   4.822 -0.1466 -0.8458 -0.6018
 8845TIP3    H126499   1.686   3.845   4.764  2.3109 -1.4881 -0.7727
 8845TIP3    H226500   1.690   3.885   4.910 -1.9742 -0.5340 -0.7926
 8846TIP3   OH226501   6.896   3.934   4.188 -0.5030 -0.6887 -0.5357
 8846TIP3    H126502   6.916   3.894   4.273 -0.6552 -0.5293 -0.4240
 8846TIP3    H226503   6.944   4.017   4.189  0.6504 -1.3161 -1.1846
 8847TIP3   OH226504   5.259   0.435   2.607  0.1520 -0.6199  1.2178
 8847TIP3    H126505   5.285   0.524   2.581 -0.1187 -0.8937 -0.0416
 8847TIP3    H226506   5.164   0.439   2.615 -0.0517 -1.1846 -0.5141
 8848TIP3   OH226507   5.023   6.033   5.144  0.3763  0.2348  0.3516
 8848TIP3    H126508   4.970   6.086   5.203  1.5615  0.3716  1.3300
 8848TIP3    H226509   5.040   6.090   5.069 -1.2840 -0.0023 -0.2482
 8849TIP3   OH226510   1.592   5.802   2.189 -0.1487 -0.1264 -0.0588
 8849TIP3    H126511   1.543   5.866   2.240 -1.0835 -0.8943  0.0307
 8849TIP3    H226512   1.525   5.751   2.145  0.4807 -2.1970  1.2560
 8850TIP3   OH226513   3.702   3.427   5.608  0.0183 -0.0614  0.0599
 8850TIP3    H126514   3.754   3.490   5.558  0.5300  0.3494  1.0908
 8850TIP3    H226515   3.613   3.463   5.606  0.3182  0.7443  0.7014
 8851TIP3   OH226516   4.958   3.744   2.107  0.3180 -0.2721 -0.3389
 8851TIP3    H126517   5.033   3.770   2.053  0.9751  0.0226  0.6896
 8851TIP3    H226518   4.965   3.649   2.113  0.5906 -0.2489 -0.2771
 8852TIP3   OH226519   3.917   3.630   5.066 -0.3103  0.2617 -0.1236
 8852TIP3    H126520   3.956   3.542   5.064  3.9444  1.8188  2.0718
 8852TIP3    H226521   3.951   3.673   4.987 -1.0138  0.4496 -0.3309
 8853TIP3   OH226522   4.518   5.436   4.902 -0.1622 -0.6020  0.3291
 8853TIP3    H126523   4.499   5.517   4.853  0.7986  0.8775  2.2736
 8853TIP3    H226524   4.517   5.368   4.835 -1.2142  0.9591 -1.3777
 8854TIP3   OH226525   2.340   4.414   4.916 -0.3640  0.6296 -1.1490
 8854TIP3    H126526   2.337   4.509   4.931 -2.4288  0.3590  0.8161
 8854TIP3    H226527   2.429   4.397   4.886  0.5446  3.0223 -0.0945
 8855TIP3   OH226528   3.181   6.173   3.247  0.4054  0.5802  0.2254
 8855TIP3    H126529   3.219   6.138   3.166 -1.5237  0.2201 -0.5715
 8855TIP3    H226530   3.224   6.123   3.316 -1.2191 -2.5155 -0.8011
 8856TIP3   OH226531   2.898   1.168   2.191 -0.3731 -0.5624  1.1069
 8856TIP3    H126532   2.949   1.249   2.191  1.6124 -1.7578  1.6856
 8856TIP3    H226533   2.819   1.190   2.142  0.9997  1.1851 -0.4769
 8857TIP3   OH226534   4.590   1.679   3.169 -0.3494 -0.6524  0.4504
 8857TIP3    H126535   4.510   1.699   3.120 -0.9759  0.0185  1.6795
 8857TIP3    H226536   4.655   1.740   3.136 -1.3410  1.2745  1.8583
 8858TIP3   OH226537   5.127   3.959   4.026 -0.8202  0.0457  0.2641
 8858TIP3    H126538   5.113   3.972   3.932  1.4413  0.0966 -0.1403
 8858TIP3    H226539   5.046   3.921   4.058 -1.1777 -1.3040 -1.9979
 8859TIP3   OH226540   6.771   1.418   3.404 -0.0534 -0.2101 -0.2119
 8859TIP3    H126541   6.682   1.384   3.395 -0.5183  1.1685 -1.3301
 8859TIP3    H226542   6.780   1.480   3.331  2.0154 -0.7018 -0.4237
 8860TIP3   OH226543   0.720   1.609   3.465 -0.3483  0.3650  0.0993
 8860TIP3    H126544   0.678   1.674   3.410 -1.0143  1.1377  1.4767
 8860TIP3    H226545   0.665   1.531   3.457  0.2093  0.0784 -1.2097
 8861TIP3   OH226546   4.995   5.292   2.502  1.0679  0.2890 -0.3316
 8861TIP3    H126547   5.071   5.310   2.446  0.5896 -0.2404 -1.1797
 8861TIP3    H226548   4.961   5.209   2.470  0.0383  0.5942 -0.0704
 8862TIP3   OH226549   5.695   5.937   1.436 -0.4967 -0.3521 -0.3346
 8862TIP3    H126550   5.785   5.949   1.464 -0.4334  0.1205 -0.7338
 8862TIP3    H226551   5.668   5.855   1.478  0.3450 -0.8811 -0.7851
 8863TIP3   OH226552   0.793   3.621   0.575  0.4723  0.3913  0.0056
 8863TIP3    H126553   0.764   3.626   0.666  1.3904  0.6310  0.2901
 8863TIP3    H226554   0.875   3.670   0.572 -0.5464  2.1580 -1.3824
 8864TIP3   OH226555   5.043   3.967   1.067  0.0676 -0.0008 -0.2878
 8864TIP3    H126556   5.134   3.995   1.071 -0.3078  1.5917 -1.7133
 8864TIP3    H226557   5.045   3.874   1.092  1.8126  0.4245  1.3645
 8865TIP3   OH226558   4.776   6.194   4.503  0.2735 -0.1640  0.2626
 8865TIP3    H126559   4.871   6.191   4.494  0.3631  2.5908 -0.4928
 8865TIP3    H226560   4.744   6.124   4.445  1.7912 -0.4295 -0.2893
 8866TIP3   OH226561   2.659   0.917   2.040  0.2164 -0.1466  0.1968
 8866TIP3    H126562   2.611   0.861   1.979  1.7901 -1.6027  0.2293
 8866TIP3    H226563   2.592   0.953   2.097 -0.8693 -2.1807  0.3025
 8867TIP3   OH226564   4.467   3.254   1.891 -0.2227 -0.1635  0.4586
 8867TIP3    H126565   4.533   3.314   1.857 -1.0705  1.3113  1.3166
 8867TIP3    H226566   4.394   3.310   1.917 -1.2496 -1.6170  0.8400
 8868TIP3   OH226567   6.221   2.657   3.816 -0.1702 -0.0702  0.2528
 8868TIP3    H126568   6.139   2.688   3.855  0.2705 -0.1547  1.2746
 8868TIP3    H226569   6.222   2.563   3.835  0.8701  0.1905  1.5847
 8869TIP3   OH226570   0.668   6.304   5.233  0.9595  0.0919 -0.4108
 8869TIP3    H126571   0.758   6.299   5.264  0.3339  1.9400  1.9753
 8869TIP3    H226572   0.615   6.296   5.312 -0.8612  1.5513 -1.4128
 8870TIP3   OH226573   3.549   4.002   4.925 -0.2341 -0.0677  0.6242
 8870TIP3    H126574   3.501   3.923   4.951 -1.5213  0.5332  0.1546
 8870TIP3    H226575   3.483   4.071   4.923  0.5112  0.6471 -0.7830
 8871TIP3   OH226576   0.661   5.908   5.213  0.1297 -0.0253  0.0660
 8871TIP3    H126577   0.649   5.941   5.301 -0.7824  0.8268 -0.3658
 8871TIP3    H226578   0.678   5.986   5.160  0.7352 -0.5325 -0.5138
 8872TIP3   OH226579   2.354   0.422   0.666 -0.2707 -0.1599  0.2991
 8872TIP3    H126580   2.340   0.486   0.736 -1.7907 -1.4605  1.2187
 8872TIP3    H226581   2.388   0.475   0.593  0.7796  1.3174  1.7693
 8873TIP3   OH226582   6.041   3.908   0.080 -0.1032  0.1924  0.6757
 8873TIP3    H126583   6.079   3.987   0.118 -1.2790  1.0117  0.1697
 8873TIP3    H226584   5.972   3.939   0.022 -0.1714 -1.1797 -0.0177
 8874TIP3   OH226585   2.124   6.401   5.664 -0.6701 -0.4458 -0.3780
 8874TIP3    H126586   2.097   6.364   5.748 -0.5730  0.4556  0.0696
 8874TIP3    H226587   2.212   6.365   5.649 -1.1188 -1.4482 -0.6263
 8875TIP3   OH226588   3.376   6.516   4.135 -0.4231  0.0373  0.4114
 8875TIP3    H126589   3.447   6.454   4.118 -1.1729 -0.4972 -0.8579
 8875TIP3    H226590   3.421   6.599   4.150  0.4786 -0.1310 -1.1017
 8876TIP3   OH226591   6.721   1.632   4.781 -0.2761 -0.4276 -0.7956
 8876TIP3    H126592   6.679   1.710   4.744  0.1029 -0.2474 -0.8461
 8876TIP3    H226593   6.713   1.642   4.875  0.8579  0.2839 -0.7574
 8877TIP3   OH226594   4.387  -0.010   1.661 -0.1903 -0.4959 -0.3147
 8877TIP3    H126595   4.431   0.073   1.645 -0.5211  0.7556  4.0245
 8877TIP3    H226596   4.450  -0.062   1.711 -1.6769 -0.7263  1.4599
 8878TIP3   OH226597   0.978   5.731   0.509 -0.2327  0.4353  0.6484
 8878TIP3    H126598   0.976   5.670   0.435  1.5217 -0.2654  1.1152
 8878TIP3    H226599   0.945   5.680   0.583 -0.3327  0.5712  0.6969
 8879TIP3   OH226600   3.742   2.867   4.932  0.2638  0.4180 -0.1129
 8879TIP3    H126601   3.759   2.915   4.851  1.5264  1.5223  0.7598
 8879TIP3    H226602   3.729   2.776   4.905  0.4539  0.8095 -1.5661
 8880TIP3   OH226603   6.931   5.395   3.184 -0.1104  0.5711 -0.6356
 8880TIP3    H126604   6.873   5.336   3.134  0.6105 -1.3112  0.6183
 8880TIP3    H226605   7.019   5.363   3.165  0.3230  1.4520 -0.1374
 8881TIP3   OH226606   5.716   5.604   1.383 -0.2150  0.2088 -0.2361
 8881TIP3    H126607   5.746   5.694   1.368  0.3618  0.4667  2.1176
 8881TIP3    H226608   5.629   5.614   1.421 -0.0622 -0.2233  0.2245
 8882TIP3   OH226609   1.476   4.092   5.241 -0.1098 -0.2290  0.3118
 8882TIP3    H126610   1.418   4.155   5.200  1.2136  0.1824 -0.9933
 8882TIP3    H226611   1.417   4.027   5.281 -1.4676 -0.5108 -2.0168
 8883TIP3   OH226612   0.180   6.113   4.470 -0.0535  0.0688  0.2331
 8883TIP3    H126613   0.108   6.176   4.461  0.7385  0.8445 -1.0748
 8883TIP3    H226614   0.162   6.047   4.402  0.4454  0.2561 -0.0843
 8884TIP3   OH226615   1.485   5.081   4.267  0.1406 -0.2394 -0.4972
 8884TIP3    H126616   1.431   5.137   4.323  0.5863  0.7071 -0.9903
 8884TIP3    H226617   1.532   5.025   4.328  2.0339  2.0158  0.2697
 8885TIP3   OH226618   3.013   4.238   4.906  0.0090  0.0813  0.4845
 8885TIP3    H126619   3.031   4.318   4.857  1.0017  0.3875  1.3205
 8885TIP3    H226620   2.991   4.269   4.994 -0.3015 -0.5387  0.6268
 8886TIP3   OH226621   6.271   5.786   4.589 -0.1146 -0.1055 -0.5060
 8886TIP3    H126622   6.219   5.796   4.669  1.4365  1.7463  0.3746
 8886TIP3    H226623   6.328   5.712   4.607 -0.1554 -0.0428 -0.0955
 8887TIP3   OH226624   4.758   4.789   0.427 -0.1527  0.7682 -0.0272
 8887TIP3    H126625   4.817   4.713   0.428 -1.5578 -0.3537  0.7564
 8887TIP3    H226626   4.810   4.858   0.387  0.5843 -1.0711 -2.5325
 8888TIP3   OH226627   1.418   2.540   0.579 -1.1516  0.0875  0.3667
 8888TIP3    H126628   1.505   2.564   0.611  0.2369 -2.4393 -1.2332
 8888TIP3    H226629   1.402   2.599   0.505 -2.1624  2.4643  2.3019
 8889TIP3   OH226630   4.202   2.433   2.203  0.2921 -0.1858 -0.0078
 8889TIP3    H126631   4.264   2.442   2.130 -0.7289 -1.2180 -1.0514
 8889TIP3    H226632   4.226   2.350   2.244  0.2034 -0.1100  0.1954
 8890TIP3   OH226633   4.546   3.143   4.572 -0.0020 -0.8216  0.3013
 8890TIP3    H126634   4.575   3.109   4.487 -0.1386  2.5153 -1.2298
 8890TIP3    H226635   4.452   3.125   4.575  0.0277 -1.0755 -0.1822
 8891TIP3   OH226636   5.852   5.876   4.731 -0.7713 -0.4904  0.2306
 8891TIP3    H126637   5.895   5.815   4.791 -0.7386  1.0490  1.8519
 8891TIP3    H226638   5.789   5.823   4.684 -1.5871 -1.5879  2.4430
 8892TIP3   OH226639   0.993   2.552   4.456  0.5693 -0.2606  0.1052
 8892TIP3    H126640   1.038   2.469   4.474 -0.5817 -0.5868  1.7160
 8892TIP3    H226641   0.900   2.530   4.458  0.2316  0.4473 -2.8806
 8893TIP3   OH226642   4.908   3.349   4.197  0.2240 -0.4044 -0.2296
 8893TIP3    H126643   4.934   3.355   4.106 -1.4243  0.3670 -0.7002
 8893TIP3    H226644   4.857   3.268   4.203 -2.1045  0.9314 -0.7311
 8894TIP3   OH226645   6.505   5.453   3.630  0.4007 -0.1538 -0.2864
 8894TIP3    H126646   6.508   5.371   3.680 -1.5549 -0.7282 -1.0065
 8894TIP3    H226647   6.556   5.515   3.682  0.2322 -1.2975  1.3218
 8895TIP3   OH226648   3.078   4.543   2.260 -0.1609  0.0403 -0.4222
 8895TIP3    H126649   3.159   4.503   2.228 -0.1447  0.7871 -1.3473
 8895TIP3    H226650   3.012   4.519   2.194 -1.4267 -3.0409  1.7357
 8896TIP3   OH226651   2.228   6.377   0.957  0.1940 -0.5608 -0.4166
 8896TIP3    H126652   2.138   6.349   0.978  0.0434  0.4759  0.3867
 8896TIP3    H226653   2.217   6.451   0.898  0.4246  0.7653  1.1131
 8897TIP3   OH226654   5.914   4.066   4.275 -0.7087 -0.6177  0.2129
 8897TIP3    H126655   5.899   4.041   4.183 -0.8487  1.2667 -0.3021
 8897TIP3    H226656   5.832   4.107   4.303 -0.3596 -0.3783  0.9115
 8898TIP3   OH226657   3.394   4.126   1.747  0.0786 -0.0052 -0.1177
 8898TIP3    H126658   3.314   4.107   1.698 -0.2220  1.3033 -0.1655
 8898TIP3    H226659   3.365   4.132   1.838 -0.0352  1.1490 -0.2071
 8899TIP3   OH226660   1.294   4.604   0.067  0.3622  0.2447 -0.0580
 8899TIP3    H126661   1.202   4.576   0.071  1.0799 -2.2507  1.2851
 8899TIP3    H226662   1.329   4.557  -0.009  0.2535  2.3323 -1.4700
 8900TIP3   OH226663   1.822   2.806   2.355  0.2236  0.1466 -0.1832
 8900TIP3    H126664   1.882   2.799   2.430  1.1550  1.5893 -0.7432
 8900TIP3    H226665   1.748   2.857   2.388  0.3633  0.2931 -0.0943
 8901TIP3   OH226666   4.453   6.629   5.375  0.0243  0.1168  0.3353
 8901TIP3    H126667   4.417   6.709   5.412  2.3476  0.6484  1.6628
 8901TIP3    H226668   4.425   6.560   5.435 -0.3945  0.2126  0.2520
 8902TIP3   OH226669   4.479   3.076   4.252  0.0126 -0.3823  0.2104
 8902TIP3    H126670   4.489   3.061   4.158  0.1771 -1.5859  0.4068
 8902TIP3    H226671   4.412   3.015   4.280  0.5373 -0.6068  1.0193
 8903TIP3   OH226672   2.023   1.402   0.057 -0.2583 -0.4561 -0.9363
 8903TIP3    H126673   1.959   1.469   0.085  1.1852  0.8290 -0.5930
 8903TIP3    H226674   1.994   1.376  -0.030 -0.8239  0.6711 -1.1037
 8904TIP3   OH226675   1.437   3.616   2.354  0.3082 -0.2322  0.0703
 8904TIP3    H126676   1.510   3.653   2.304  0.3362  0.9063  0.9357
 8904TIP3    H226677   1.470   3.609   2.443 -1.0308  1.5378  0.7648
 8905TIP3   OH226678   0.042   1.731   2.680  0.0215  0.0536  0.1560
 8905TIP3    H126679   0.106   1.708   2.612  0.1974 -1.2054  0.7378
 8905TIP3    H226680   0.019   1.648   2.721 -1.2349  0.6164  0.6403
 8906TIP3   OH226681   1.735   3.971   3.745  0.4190  0.4671 -0.5354
 8906TIP3    H126682   1.738   3.879   3.720  1.9097  0.0676  0.9668
 8906TIP3    H226683   1.732   4.018   3.661  2.6904 -0.8603 -1.4467
 8907TIP3   OH226684   6.886   3.777   4.677  0.0234  0.3587  0.4470
 8907TIP3    H126685   6.914   3.685   4.672  0.1117  0.3840  0.4664
 8907TIP3    H226686   6.805   3.775   4.727  0.5544  0.4023  1.3372
 8908TIP3   OH226687   3.146   6.531   5.547 -0.4948  0.0129 -0.0745
 8908TIP3    H126688   3.229   6.500   5.510 -1.1221 -1.3896 -0.3891
 8908TIP3    H226689   3.123   6.464   5.612 -0.7065  1.1025  1.0254
 8909TIP3   OH226690   5.203   5.674   3.172  0.7735  0.4912  0.0853
 8909TIP3    H126691   5.280   5.619   3.159 -0.6724 -1.5691 -0.2851
 8909TIP3    H226692   5.139   5.616   3.212 -0.7979  1.9613 -0.1948
 8910TIP3   OH226693   4.782   1.882   5.540  0.0479 -0.4116 -0.2962
 8910TIP3    H126694   4.823   1.936   5.472  0.0458 -1.5038 -1.1877
 8910TIP3    H226695   4.701   1.929   5.562 -0.0577 -0.1472 -1.2034
 8911TIP3   OH226696   0.217   0.154   3.017  0.3680 -0.1216  0.4912
 8911TIP3    H126697   0.169   0.126   2.939 -1.0432 -1.4679  1.7968
 8911TIP3    H226698   0.309   0.151   2.991 -0.1341  1.7446 -1.8272
 8912TIP3   OH226699   6.202   4.001   0.645  0.3735 -0.1371 -0.5779
 8912TIP3    H126700   6.279   4.044   0.682 -0.6460  0.5832  0.7603
 8912TIP3    H226701   6.238   3.924   0.600  1.7817 -0.3869  0.8778
 8913TIP3   OH226702   2.521   2.682   5.557  0.3396  0.2816 -0.1815
 8913TIP3    H126703   2.556   2.644   5.637 -0.5115  1.0610  0.5813
 8913TIP3    H226704   2.516   2.776   5.575 -0.0712  0.4379 -1.0665
 8914TIP3   OH226705   7.058   3.172   4.597  0.0183 -0.0290  0.4233
 8914TIP3    H126706   7.105   3.227   4.659 -1.0518 -0.5385  1.7569
 8914TIP3    H226707   6.972   3.159   4.637 -0.2152 -1.5675 -0.4809
 8915TIP3   OH226708   3.674   0.455   0.664 -0.4287  0.0934 -0.2720
 8915TIP3    H126709   3.673   0.359   0.662  1.5598  0.0274 -0.0370
 8915TIP3    H226710   3.720   0.476   0.746 -1.2931  1.2721 -0.0661
 8916TIP3   OH226711   0.735   0.244   0.110 -0.4791 -0.0342  0.5445
 8916TIP3    H126712   0.644   0.244   0.142 -0.3081  2.1310  1.2070
 8916TIP3    H226713   0.777   0.174   0.159 -1.7419 -1.0142  0.3025
 8917TIP3   OH226714   3.600   6.038   5.714  1.1024  0.4946  0.5446
 8917TIP3    H126715   3.574   6.019   5.805 -1.7337  1.3315  0.0048
 8917TIP3    H226716   3.592   6.133   5.706 -2.0628  0.2110 -1.3707
 8918TIP3   OH226717   6.621   5.199   0.521 -0.2162 -0.2499 -0.5224
 8918TIP3    H126718   6.609   5.113   0.562 -0.0703 -0.2795 -0.5420
 8918TIP3    H226719   6.533   5.235   0.515 -0.2824 -0.4167 -0.5529
 8919TIP3   OH226720   7.231   1.295   5.294  0.4071 -0.1888 -0.0646
 8919TIP3    H126721   7.169   1.286   5.221  0.0240 -2.2114  0.4540
 8919TIP3    H226722   7.222   1.214   5.343  3.3262 -0.4509  0.1859
 8920TIP3   OH226723   3.090   4.039   4.604  0.2327  0.1577  0.6552
 8920TIP3    H126724   3.133   3.980   4.665 -0.4526  0.6221  1.6110
 8920TIP3    H226725   3.006   3.997   4.584  0.6296 -0.1966 -0.3068
 8921TIP3   OH226726   5.308   4.074   1.839  0.0011 -0.0693 -0.0109
 8921TIP3    H126727   5.364   4.089   1.763  0.5784  1.7915  0.7280
 8921TIP3    H226728   5.369   4.054   1.910 -0.4699 -0.7634  0.2095
 8922TIP3   OH226729   3.658   3.169   5.743  0.3241  0.3087  0.3208
 8922TIP3    H126730   3.631   3.186   5.834  0.2943  2.2731 -0.0063
 8922TIP3    H226731   3.663   3.256   5.703 -0.5408 -0.5560 -1.8301
 8923TIP3   OH226732   4.881   1.563   1.943 -0.3518  0.2669  0.4185
 8923TIP3    H126733   4.951   1.498   1.956  0.1531  0.8388  0.6288
 8923TIP3    H226734   4.800   1.512   1.942 -0.1675 -0.1800  2.7222
 8924TIP3   OH226735   4.501   0.237   4.620 -0.5973 -0.8558 -0.5686
 8924TIP3    H126736   4.522   0.301   4.688 -0.7684  0.0909 -1.3817
 8924TIP3    H226737   4.405   0.239   4.615 -0.6710 -1.9623  0.1244
 8925TIP3   OH226738   0.470   0.214   2.868  0.5511 -0.3225  0.1911
 8925TIP3    H126739   0.475   0.142   2.804  1.5525 -0.8138  0.8026
 8925TIP3    H226740   0.486   0.293   2.815 -1.6133 -0.4102 -0.6732
 8926TIP3   OH226741   2.046   4.021   4.283  0.2842  0.4542 -0.2241
 8926TIP3    H126742   2.085   3.942   4.320  1.2509  0.7294 -0.6307
 8926TIP3    H226743   1.952   4.010   4.298  0.4376 -0.5780  0.0919
 8927TIP3   OH226744   7.158   5.311   3.059  0.2011  0.4028 -0.0854
 8927TIP3    H126745   7.166   5.231   3.111 -0.0265 -0.0448 -0.7248
 8927TIP3    H226746   7.249   5.341   3.048  0.2222  0.7292  0.8999
 8928TIP3   OH226747   0.714   1.107   4.316  0.2201 -0.1185 -0.0856
 8928TIP3    H126748   0.745   1.169   4.250 -1.1917  1.0138  0.2680
 8928TIP3    H226749   0.637   1.066   4.277  0.5538 -0.9360  0.0811
 8929TIP3   OH226750   0.371   5.778   1.383  0.2254  0.1706 -0.1946
 8929TIP3    H126751   0.417   5.702   1.420 -0.8056 -0.4224 -0.0694
 8929TIP3    H226752   0.294   5.740   1.341  0.3541  1.0436 -1.2433
 8930TIP3   OH226753   1.010   5.235   5.828 -0.4964  0.2338  0.6630
 8930TIP3    H126754   0.971   5.308   5.780  0.9077  0.6512  0.1171
 8930TIP3    H226755   1.012   5.163   5.764  0.6481  0.5561  0.3131
 8931TIP3   OH226756   1.516   6.658   4.468 -0.2267  0.3848  0.7382
 8931TIP3    H126757   1.604   6.620   4.466 -0.6037 -0.6769  2.4549
 8931TIP3    H226758   1.460   6.588   4.501 -1.7074  1.1070 -0.1188
 8932TIP3   OH226759   4.593   1.173   0.464 -0.6160  0.4634  0.3787
 8932TIP3    H126760   4.567   1.175   0.372 -2.1089  2.1120  0.7642
 8932TIP3    H226761   4.591   1.081   0.488 -0.8674  0.0755 -1.0634
 8933TIP3   OH226762   5.276   2.071   4.027 -0.3250  0.1797 -0.0487
 8933TIP3    H126763   5.256   2.024   4.108  0.7626 -0.3680 -0.0801
 8933TIP3    H226764   5.267   2.005   3.958  0.6140  0.1582 -0.1615
 8934TIP3   OH226765   0.293   3.167   0.800 -0.2080 -0.2641  0.0052
 8934TIP3    H126766   0.240   3.116   0.861  0.2896  0.6070  1.2355
 8934TIP3    H226767   0.383   3.154   0.831 -0.0274  0.9128  0.0542
 8935TIP3   OH226768   1.737   3.279   3.895 -0.6838  0.1085 -0.8271
 8935TIP3    H126769   1.701   3.368   3.900  0.7842  0.6919 -0.0336
 8935TIP3    H226770   1.700   3.234   3.970  0.5645  0.8604  0.2859
 8936TIP3   OH226771   3.197   1.613   2.931  0.1698 -0.0803 -0.1769
 8936TIP3    H126772   3.245   1.654   2.859  1.2125 -0.4136  0.3025
 8936TIP3    H226773   3.178   1.524   2.899  0.6318 -0.2282 -0.0450
 8937TIP3   OH226774   4.612   3.024   0.720  0.3782 -0.1629 -0.5346
 8937TIP3    H126775   4.523   3.008   0.688 -0.6341  2.0768  0.8366
 8937TIP3    H226776   4.623   3.119   0.712  1.3599  0.0611  2.3129
 8938TIP3   OH226777   4.058   0.268   0.389  0.5154 -0.6724 -0.4013
 8938TIP3    H126778   3.987   0.238   0.445 -0.0060 -0.0487 -0.7252
 8938TIP3    H226779   4.025   0.259   0.300  1.1059 -1.0500 -0.5897
 8939TIP3   OH226780   1.634   3.720   2.727  0.2485  0.3865  0.0085
 8939TIP3    H126781   1.680   3.737   2.809  0.3576 -0.5639  0.1556
 8939TIP3    H226782   1.595   3.804   2.704 -0.3989  0.5052  1.4260
 8940TIP3   OH226783   1.136   4.986   3.979 -0.6336  0.1172 -0.2147
 8940TIP3    H126784   1.136   4.940   4.063 -0.2541  1.8510  0.7921
 8940TIP3    H226785   1.168   5.074   4.000  0.5355  0.2737 -2.3774
 8941TIP3   OH226786   0.423   3.156   2.484  0.2232 -0.0122 -0.0351
 8941TIP3    H126787   0.451   3.164   2.575  0.3685  2.9363 -0.2476
 8941TIP3    H226788   0.504   3.148   2.434  0.1848 -0.6418 -0.0112
 8942TIP3   OH226789   4.692   5.280   2.312  0.5686 -0.0276 -0.0111
 8942TIP3    H126790   4.764   5.218   2.321 -0.0712 -0.9222 -0.7632
 8942TIP3    H226791   4.619   5.239   2.359  0.3285  0.4984  0.0867
 8943TIP3   OH226792   5.307   5.176   0.954 -0.3429 -0.4753  0.5183
 8943TIP3    H126793   5.381   5.115   0.957  0.4602  0.3912 -0.5437
 8943TIP3    H226794   5.307   5.218   1.040 -0.1259 -1.0687  0.8145
 8944TIP3   OH226795   2.641   6.071   0.071  0.3521  0.2803 -0.6523
 8944TIP3    H126796   2.652   6.061  -0.024 -0.3505 -0.3458 -0.6790
 8944TIP3    H226797   2.547   6.069   0.084  0.4634 -0.4884  0.1370
 8945TIP3   OH226798   3.340   0.978   1.826 -0.0048 -0.6045 -0.1203
 8945TIP3    H126799   3.343   1.045   1.757  0.1376 -0.4045  0.0767
 8945TIP3    H226800   3.429   0.945   1.832 -0.5502 -2.5990 -1.9336
 8946TIP3   OH226801   3.045   2.520   3.249 -0.1376  0.8939  0.1312
 8946TIP3    H126802   3.094   2.600   3.270  2.7024 -0.9682  1.2013
 8946TIP3    H226803   3.011   2.490   3.333 -0.5789  0.5995 -0.1513
 8947TIP3   OH226804   1.111   5.830   0.704  0.4903  0.0375  0.2467
 8947TIP3    H126805   1.190   5.875   0.675 -1.1618  2.8117 -0.2500
 8947TIP3    H226806   1.096   5.762   0.638  1.4221  0.6966 -0.6709
 8948TIP3   OH226807   6.887   4.333   5.872 -0.2550  0.5083  0.1996
 8948TIP3    H126808   6.896   4.385   5.792 -0.2050  1.6487  0.9219
 8948TIP3    H226809   6.959   4.269   5.868 -0.4561  0.3378 -0.8158
 8949TIP3   OH226810   2.810   4.155   2.192 -0.2141 -0.3342  0.4814
 8949TIP3    H126811   2.733   4.120   2.149  0.1111 -0.5060  0.0303
 8949TIP3    H226812   2.865   4.079   2.211 -0.2477 -0.2355  0.9838
 8950TIP3   OH226813   1.323   4.885   4.599  0.2976  0.3985 -0.5849
 8950TIP3    H126814   1.284   4.965   4.566  0.3891  0.7900  0.2334
 8950TIP3    H226815   1.347   4.905   4.689  1.3488 -0.1881 -0.7136
 8951TIP3   OH226816   2.019   6.504   4.941 -0.5205 -0.2061 -0.0462
 8951TIP3    H126817   2.030   6.566   4.869  0.9340  0.4513  0.7234
 8951TIP3    H226818   2.091   6.442   4.930  0.3301  0.4850  1.4108
 8952TIP3   OH226819   2.789   0.292   4.463 -0.0748 -0.6771  0.3110
 8952TIP3    H126820   2.732   0.227   4.421 -0.6502 -1.1118  1.7171
 8952TIP3    H226821   2.733   0.338   4.525  0.0469  1.9571 -1.3609
 8953TIP3   OH226822   0.793   1.119   3.396 -0.9257  0.1979  0.2419
 8953TIP3    H126823   0.867   1.133   3.455 -0.4870  0.4189 -0.3526
 8953TIP3    H226824   0.768   1.028   3.412 -0.9056  0.2989  0.8722
 8954TIP3   OH226825   3.972   0.049   0.120  0.3634  0.1554 -0.0488
 8954TIP3    H126826   4.067   0.060   0.128  0.1976  1.9351 -0.1248
 8954TIP3    H226827   3.951  -0.022   0.181  1.7692 -0.5033 -0.2762
 8955TIP3   OH226828   6.780   5.908   0.052  0.0714  0.0488 -0.5954
 8955TIP3    H126829   6.693   5.868   0.057  0.6909 -1.5352 -1.7120
 8955TIP3    H226830   6.801   5.929   0.143  0.2736 -3.5472  0.3445
 8956TIP3   OH226831   4.939   2.866   3.493 -0.3003 -0.5727  0.3853
 8956TIP3    H126832   5.019   2.888   3.540  1.7611 -1.7951 -2.3378
 8956TIP3    H226833   4.929   2.771   3.505 -0.3963 -0.7042 -0.6507
 8957TIP3   OH226834   2.653   5.405  -0.028 -0.2878  0.7382  0.1226
 8957TIP3    H126835   2.560   5.393  -0.010  0.0540 -0.1672  1.4636
 8957TIP3    H226836   2.695   5.401   0.058  1.1114 -0.1702 -0.5587
 8958TIP3   OH226837   1.458   3.477   0.282 -0.2914  0.3161 -0.4178
 8958TIP3    H126838   1.512   3.532   0.226  0.1733 -2.3266 -2.7737
 8958TIP3    H226839   1.520   3.426   0.334 -0.5600 -0.5704 -0.9378
 8959TIP3   OH226840   5.249   1.393   5.008 -0.3341 -0.1504  0.0184
 8959TIP3    H126841   5.214   1.348   5.085 -0.6036  0.5335  0.2984
 8959TIP3    H226842   5.255   1.485   5.034 -1.5920  0.3010 -1.1639
 8960TIP3   OH226843   5.521   3.306   1.336 -0.1013 -0.0472 -0.1409
 8960TIP3    H126844   5.538   3.225   1.384  0.9467 -0.7941 -1.7007
 8960TIP3    H226845   5.550   3.376   1.394 -2.1221 -0.6504  1.7370
 8961TIP3   OH226846   0.986   5.970   0.384  0.0549 -0.2311 -0.4468
 8961TIP3    H126847   0.984   5.893   0.440  1.1297 -0.2051 -0.3490
 8961TIP3    H226848   0.910   6.021   0.411 -0.6327 -1.2147 -0.4764
 8962TIP3   OH226849   3.240   6.769   0.110 -0.4336 -0.3643  0.8801
 8962TIP3    H126850   3.197   6.768   0.196  0.4318  2.5341  1.4447
 8962TIP3    H226851   3.320   6.820   0.124  1.0570 -1.9990 -1.1115
 8963TIP3   OH226852   2.285   1.861   4.874 -0.2818  0.5175  0.1096
 8963TIP3    H126853   2.256   1.813   4.951  1.0711 -0.7801 -0.1276
 8963TIP3    H226854   2.206   1.872   4.821 -0.7720 -0.8761  0.5005
 8964TIP3   OH226855   1.644   6.750   1.135 -0.2472  0.1972  0.1149
 8964TIP3    H126856   1.552   6.724   1.125 -0.5071  0.8349  0.7704
 8964TIP3    H226857   1.691   6.697   1.070 -0.7772 -1.7762  1.2410
 8965TIP3   OH226858   5.674   6.492   5.365 -0.2486 -0.4427 -0.4071
 8965TIP3    H126859   5.604   6.490   5.431 -0.6847 -1.9989 -0.8748
 8965TIP3    H226860   5.628   6.498   5.281  0.2317 -0.1760 -0.6527
 8966TIP3   OH226861   1.953   2.713   5.652  0.2830 -0.3994 -0.1957
 8966TIP3    H126862   1.958   2.710   5.748 -0.0255  0.6991 -0.1279
 8966TIP3    H226863   1.879   2.657   5.629 -0.0602 -0.1338  0.2550
 8967TIP3   OH226864   1.965   1.829   1.971  0.2550  0.4290  0.3870
 8967TIP3    H126865   1.947   1.923   1.976  0.7374  0.5254  0.3129
 8967TIP3    H226866   2.016   1.810   2.050  0.0525  0.2008  0.4671
 8968TIP3   OH226867   6.436   4.088   1.003 -0.4595  0.3451  0.0691
 8968TIP3    H126868   6.455   4.047   0.919 -1.1637 -1.7912  0.8719
 8968TIP3    H226869   6.452   4.181   0.989 -0.1788 -0.0007 -2.2958
 8969TIP3   OH226870   5.869   2.608   4.500 -0.2040 -0.0434  0.0599
 8969TIP3    H126871   5.817   2.677   4.458 -1.3349 -0.8349  0.1085
 8969TIP3    H226872   5.876   2.540   4.433 -0.6004 -0.6144  0.5925
 8970TIP3   OH226873   0.045   6.658   0.059  0.5241 -0.2574 -0.0499
 8970TIP3    H126874   0.066   6.688   0.147 -1.6834 -0.0074  0.4546
 8970TIP3    H226875   0.027   6.565   0.068  1.2824 -0.4525 -0.4501
 8971TIP3   OH226876   2.141   2.758   2.333  0.2964 -0.1750  0.7879
 8971TIP3    H126877   2.233   2.733   2.341  0.3949  0.2102  0.8783
 8971TIP3    H226878   2.143   2.853   2.321 -0.0500 -0.2455  0.1216
 8972TIP3   OH226879   2.861   4.308   0.447  0.7270 -0.0740 -0.4552
 8972TIP3    H126880   2.792   4.273   0.503  0.3001  0.6264 -0.5224
 8972TIP3    H226881   2.861   4.402   0.466 -0.3329  0.4196 -2.5742
 8973TIP3   OH226882   1.456   2.629   3.080 -0.0967 -0.8712  0.9954
 8973TIP3    H126883   1.492   2.567   3.143  1.8228  0.0164  0.8333
 8973TIP3    H226884   1.429   2.704   3.133  0.3428 -0.6352  0.8819
 8974TIP3   OH226885   3.154   2.788   4.647 -0.0489 -1.0182  0.0481
 8974TIP3    H126886   3.131   2.753   4.561 -0.2728 -0.3074 -0.1859
 8974TIP3    H226887   3.073   2.784   4.698 -1.1814  2.6128 -1.1476
 8975TIP3   OH226888   3.047   0.849   5.729  0.1159  0.0084 -0.5378
 8975TIP3    H126889   3.075   0.827   5.817 -0.6078  0.7263 -0.1152
 8975TIP3    H226890   3.124   0.887   5.688  0.7355 -1.2300 -0.5485
 8976TIP3   OH226891   6.755   3.495   3.432  0.0071 -0.5367 -0.1169
 8976TIP3    H126892   6.705   3.451   3.363 -0.0807  0.8826 -0.9932
 8976TIP3    H226893   6.731   3.449   3.513 -0.3009 -1.8789 -0.9480
 8977TIP3   OH226894   3.361   1.399   2.675  0.1789 -0.0639  0.4498
 8977TIP3    H126895   3.273   1.434   2.693 -0.5831 -0.9985 -1.2803
 8977TIP3    H226896   3.371   1.326   2.736  0.1608  0.5976  1.2782
 8978TIP3   OH226897   6.634   5.005   5.575 -0.2897 -0.4127 -0.2756
 8978TIP3    H126898   6.682   4.966   5.503 -0.0469 -0.9447  0.1648
 8978TIP3    H226899   6.574   4.937   5.605 -0.3698 -0.2114  0.0422
 8979TIP3   OH226900   1.814   5.666   4.996  0.2416  0.2616  0.0386
 8979TIP3    H126901   1.728   5.662   4.954 -0.6428  0.7206  1.7068
 8979TIP3    H226902   1.827   5.578   5.032  0.4680  0.1861 -0.2343
 8980TIP3   OH226903   2.518   0.441   1.825 -0.2689  0.2071 -0.3641
 8980TIP3    H126904   2.468   0.476   1.899 -0.2030  0.1088 -0.2727
 8980TIP3    H226905   2.485   0.489   1.749  1.5145  2.2636  0.0577
 8981TIP3   OH226906   3.126   2.728   1.593  0.0388  0.0947 -0.1130
 8981TIP3    H126907   3.191   2.797   1.577  1.5841 -0.3463  3.2308
 8981TIP3    H226908   3.176   2.647   1.591 -0.7713 -0.4458  0.6145
 8982TIP3   OH226909   7.062   3.735   1.360  0.6141  0.4180  0.1448
 8982TIP3    H126910   7.053   3.817   1.310  1.3226  0.2234 -0.3089
 8982TIP3    H226911   7.061   3.667   1.293  1.9968  0.1743  0.3626
 8983TIP3   OH226912   2.541   5.948   0.475  0.3706  0.2224 -0.1594
 8983TIP3    H126913   2.547   6.043   0.463  1.3818  0.0391 -1.2420
 8983TIP3    H226914   2.493   5.917   0.398  1.0696 -0.2616 -0.4064
 8984TIP3   OH226915   1.514   0.933   3.956  0.1356 -0.3480  0.0205
 8984TIP3    H126916   1.561   0.993   3.898 -0.2676 -0.0254  0.0198
 8984TIP3    H226917   1.482   0.863   3.899  0.7988 -0.6880  0.0557
 8985TIP3   OH226918   0.511   5.710   0.935  0.4020  0.5853 -0.3331
 8985TIP3    H126919   0.524   5.617   0.920  0.5188  0.7761 -1.5532
 8985TIP3    H226920   0.533   5.751   0.851  2.7246  1.9555  0.8481
 8986TIP3   OH226921   2.103   5.931   1.864 -0.0795 -0.2280 -0.4606
 8986TIP3    H126922   2.026   5.985   1.881 -0.9640 -1.6169  0.2157
 8986TIP3    H226923   2.118   5.884   1.946 -0.7090 -2.5995 -1.6002
 8987TIP3   OH226924   6.543   0.017   1.319  0.5814  0.4575 -0.1492
 8987TIP3    H126925   6.568   0.107   1.341  0.8476  0.1416  0.9125
 8987TIP3    H226926   6.613  -0.014   1.261  2.0764  0.0048  1.7838
 8988TIP3   OH226927   0.045   2.907   3.352 -0.3670  0.6180 -0.0849
 8988TIP3    H126928  -0.032   2.962   3.364 -0.6777  0.0375  0.6589
 8988TIP3    H226929   0.118   2.963   3.379 -0.6332  0.8163  0.2411
 8989TIP3   OH226930   3.019   0.097   4.000 -0.5735  0.0360 -0.1111
 8989TIP3    H126931   2.931   0.135   3.996 -0.5650  0.0641 -0.0402
 8989TIP3    H226932   3.046   0.090   3.909 -0.1669  1.1563 -0.0872
 8990TIP3   OH226933   5.506   4.675   4.331  0.0956 -0.3138 -1.1544
 8990TIP3    H126934   5.486   4.627   4.411  0.4220  1.4320  0.0059
 8990TIP3    H226935   5.433   4.735   4.319  1.5035  1.6335 -0.3931
 8991TIP3   OH226936   3.774   3.705   0.326  0.7677  0.3763 -0.3171
 8991TIP3    H126937   3.695   3.735   0.372 -0.1254 -3.2483  0.8504
 8991TIP3    H226938   3.742   3.669   0.243  1.2881 -0.2645 -0.2545
 8992TIP3   OH226939   4.254   0.720   4.832  0.2043 -0.4097 -0.3247
 8992TIP3    H126940   4.291   0.798   4.790  1.0132 -1.0037 -0.7194
 8992TIP3    H226941   4.163   0.718   4.802  0.3496  0.0338 -0.8111
 8993TIP3   OH226942   3.395   0.088   5.820 -0.1720  0.4463 -0.0947
 8993TIP3    H126943   3.349   0.155   5.769 -0.2663  1.2398  0.9822
 8993TIP3    H226944   3.439   0.033   5.755 -3.2506 -0.8746 -1.2959
 8994TIP3   OH226945   0.180   0.662   1.193  0.8450  0.1040  0.0926
 8994TIP3    H126946   0.200   0.746   1.152  1.7577  0.0255  0.3429
 8994TIP3    H226947   0.256   0.644   1.248  0.4683 -0.6842  0.3712
 8995TIP3   OH226948   2.977   2.509   0.370 -0.1236 -1.4500  0.3473
 8995TIP3    H126949   3.050   2.571   0.383  0.5415 -2.1895  0.2070
 8995TIP3    H226950   2.908   2.542   0.427  0.4370 -0.9158  0.7361
 8996TIP3   OH226951   5.704   0.457   5.468  0.1074  0.1700  0.3574
 8996TIP3    H126952   5.747   0.524   5.413  0.3342 -0.8522 -0.7518
 8996TIP3    H226953   5.766   0.440   5.538  0.7554 -0.0373 -0.2584
 8997TIP3   OH226954   5.002   2.141   5.729 -0.1473  0.0342  0.4943
 8997TIP3    H126955   4.913   2.168   5.749 -0.1223  0.2011  0.3833
 8997TIP3    H226956   5.044   2.220   5.696 -0.4516 -0.4408 -1.1145
 8998TIP3   OH226957   4.527   0.986   5.511  0.3177  0.5573  0.3009
 8998TIP3    H126958   4.469   1.016   5.441 -1.9739 -1.6434  1.0922
 8998TIP3    H226959   4.503   0.895   5.524  1.7225  0.4678  2.9297
 8999TIP3   OH226960   1.295   5.612   1.561  0.3348 -0.2359  0.3101
 8999TIP3    H126961   1.380   5.573   1.540 -0.7419 -1.4119 -2.3922
 8999TIP3    H226962   1.300   5.632   1.655  3.1952 -1.1721  0.4559
 9000TIP3   OH226963   1.314   1.498   2.057 -0.4080 -0.2414 -0.2834
 9000TIP3    H126964   1.296   1.414   2.099 -1.1678 -0.0958 -0.3139
 9000TIP3    H226965   1.328   1.558   2.131 -0.2884 -0.3011 -0.2571
 9001TIP3   OH226966   3.840   6.790   3.805  0.0022 -0.1687 -0.0473
 9001TIP3    H126967   3.754   6.822   3.831 -0.3659  0.5249 -1.9596
 9001TIP3    H226968   3.825   6.748   3.720  1.8167  1.8224 -1.4795
 9002TIP3   OH226969   0.516   0.257   1.217 -0.3192 -0.1604  0.1673
 9002TIP3    H126970   0.522   0.206   1.298  1.2754  1.3575  1.0797
 9002TIP3    H226971   0.575   0.211   1.156  0.3342  0.0175  0.6554
 9003TIP3   OH226972   1.715   1.681   2.335 -0.5418  0.8392 -0.0923
 9003TIP3    H126973   1.750   1.644   2.253  0.2965  0.7269  0.3052
 9003TIP3    H226974   1.743   1.772   2.333 -0.6932  0.8862 -0.0238
 9004TIP3   OH226975   2.241   6.355   2.796 -0.0377 -0.1156 -0.9812
 9004TIP3    H126976   2.226   6.428   2.736 -1.9691  0.5697  0.2105
 9004TIP3    H226977   2.163   6.300   2.786  0.7738 -1.3241 -0.8924
 9005TIP3   OH226978   6.688   2.049   3.187  0.1608  0.1814  0.2714
 9005TIP3    H126979   6.652   2.137   3.196  0.5082  0.7608 -2.8522
 9005TIP3    H226980   6.756   2.058   3.120 -2.4854 -3.0033 -3.3133
 9006TIP3   OH226981   4.831   0.490   5.322  0.4769  0.3164  0.5703
 9006TIP3    H126982   4.778   0.545   5.381 -0.0548  0.5977 -0.1566
 9006TIP3    H226983   4.907   0.544   5.302 -0.9347  1.6198 -1.6494
 9007TIP3   OH226984   2.324   3.114   0.248 -0.0705 -0.0289  0.6133
 9007TIP3    H126985   2.368   3.082   0.170 -1.5810 -2.3102  0.5721
 9007TIP3    H226986   2.300   3.204   0.227  1.1105 -0.0141 -0.8360
 9008TIP3   OH226987   1.130   5.892   3.340  0.5294  0.0028  0.5817
 9008TIP3    H126988   1.105   5.888   3.433 -0.0038  0.7631  0.4796
 9008TIP3    H226989   1.049   5.917   3.295  0.9588  0.3310 -0.0107
 9009TIP3   OH226990   1.857   6.005   3.260 -0.1509 -0.0892  0.1767
 9009TIP3    H126991   1.849   5.964   3.173 -2.1247 -1.1520  0.8037
 9009TIP3    H226992   1.903   5.941   3.313 -0.1517 -0.0148  0.2682
 9010TIP3   OH226993   6.182   3.645   5.127  0.1028  0.2624 -0.0447
 9010TIP3    H126994   6.153   3.680   5.042 -1.0979 -0.8459 -0.1228
 9010TIP3    H226995   6.170   3.551   5.120 -0.5555  0.1894  1.5322
 9011TIP3   OH226996   1.567   2.046   4.929  0.5851 -0.7875  0.3778
 9011TIP3    H126997   1.519   2.027   4.848 -0.6890 -0.2336  0.9732
 9011TIP3    H226998   1.623   2.120   4.906  0.3603 -0.7470 -0.0583
 9012TIP3   OH226999   5.809   2.349   1.171 -0.1588  0.2078  0.1357
 9012TIP3    H127000   5.811   2.375   1.263  1.4174  2.6950 -0.5046
 9012TIP3    H227001   5.876   2.281   1.164  0.8817  1.1533  0.5687
 9013TIP3   OH227002   6.949   0.289   0.537 -0.0635 -0.5224 -0.4313
 9013TIP3    H127003   7.026   0.342   0.519  0.9132 -1.1798  1.4203
 9013TIP3    H227004   6.950   0.277   0.632 -2.0033 -1.2534 -0.4400
 9014TIP3   OH227005   4.503   6.602   1.819  0.1330  0.1412  0.4380
 9014TIP3    H127006   4.445   6.654   1.763  0.7572 -0.6965 -1.0281
 9014TIP3    H227007   4.591   6.620   1.785  0.6115  0.1995  1.6567
 9015TIP3   OH227008   6.062   0.351   4.972 -0.3539  0.2324  0.1708
 9015TIP3    H127009   6.071   0.421   4.908  1.1327  0.0373  0.1361
 9015TIP3    H227010   6.145   0.303   4.968 -1.3362 -1.5561  0.1832
 9016TIP3   OH227011   1.646   6.481   4.188  0.5196  0.2234 -0.2753
 9016TIP3    H127012   1.576   6.443   4.241  0.3666 -0.7896 -1.1496
 9016TIP3    H227013   1.698   6.533   4.249  1.6180 -2.5964  1.3873
 9017TIP3   OH227014   4.268   5.598   0.715  0.4719 -0.2009 -0.1632
 9017TIP3    H127015   4.345   5.651   0.692  0.4627  0.1940  0.6709
 9017TIP3    H227016   4.207   5.660   0.755 -0.4398 -0.4440 -1.1358
 9018TIP3   OH227017   2.644   1.063   5.350 -0.2149 -0.3133 -0.1101
 9018TIP3    H127018   2.694   1.095   5.426 -0.1459 -0.6793  0.0007
 9018TIP3    H227019   2.578   1.130   5.336 -1.5790 -1.2170  1.5982
 9019TIP3   OH227020   2.496   0.573   4.293 -0.1967 -0.3412  0.7777
 9019TIP3    H127021   2.592   0.573   4.292 -0.1232  2.4615  0.3571
 9019TIP3    H227022   2.471   0.524   4.215  0.9886  0.7921 -0.3753
 9020TIP3   OH227023   4.461   0.913   0.457  0.2132 -0.4356  0.2710
 9020TIP3    H127024   4.399   0.958   0.515  0.4082 -0.7643  0.7398
 9020TIP3    H227025   4.409   0.893   0.379  0.0914  0.4862  0.0983
 9021TIP3   OH227026   3.986   1.984   0.937 -0.1315  0.3303  0.6715
 9021TIP3    H127027   3.967   1.974   1.030  2.2826  1.9079  1.4241
 9021TIP3    H227028   3.985   1.895   0.902 -3.6798 -0.1054  1.5422
 9022TIP3   OH227029   5.004   5.462   5.505  0.1279 -0.1794  0.1963
 9022TIP3    H127030   4.949   5.418   5.569 -0.1042  1.1185  0.9286
 9022TIP3    H227031   4.965   5.440   5.420 -0.8596 -0.1782  0.6405
 9023TIP3   OH227032   0.456   0.161   5.191  0.1436 -0.1173 -0.2698
 9023TIP3    H127033   0.425   0.248   5.217  3.2022  1.1693 -0.5007
 9023TIP3    H227034   0.386   0.102   5.219 -1.3901  2.2291  1.3063
 9024TIP3   OH227035   1.594   3.655   3.481 -0.7872  0.3908  0.2326
 9024TIP3    H127036   1.501   3.632   3.476 -0.4632 -1.2749  0.9451
 9024TIP3    H227037   1.618   3.638   3.572  0.6970 -1.5032 -0.4244
 9025TIP3   OH227038   1.519   2.340   1.082 -0.5179 -0.5104 -0.3651
 9025TIP3    H127039   1.490   2.322   0.993 -0.1118  0.4005 -0.7046
 9025TIP3    H227040   1.615   2.340   1.076 -0.4655 -1.4382  0.2933
 9026TIP3   OH227041   2.026   5.020   3.195 -0.2247  0.0377  0.1686
 9026TIP3    H127042   1.935   5.045   3.181 -0.3260  0.1347  0.9572
 9026TIP3    H227043   2.059   5.083   3.259  0.5465  0.3120 -0.4797
 9027TIP3   OH227044   6.688   4.067   5.394 -0.6398  0.1798  0.0017
 9027TIP3    H127045   6.757   4.016   5.436 -2.0284  0.6526  3.1784
 9027TIP3    H227046   6.734   4.134   5.343  1.3485  0.9081  2.5343
 9028TIP3   OH227047   6.316  -0.008   0.838  0.0781 -0.0958 -0.9152
 9028TIP3    H127048   6.242   0.043   0.872  0.6608 -0.1944  0.5343
 9028TIP3    H227049   6.327   0.024   0.749 -0.2305  1.5754 -0.3879
 9029TIP3   OH227050   2.261   4.986   2.372  0.3254  0.5212 -0.2446
 9029TIP3    H127051   2.337   4.968   2.317  1.7711  0.4288  1.7136
 9029TIP3    H227052   2.286   4.956   2.459 -2.5202 -0.9132  0.1971
 9030TIP3   OH227053   3.966   6.270   4.274 -0.1911 -0.2985  0.1186
 9030TIP3    H127054   4.004   6.259   4.187 -0.1440  0.2860  0.0609
 9030TIP3    H227055   3.990   6.191   4.321  1.1053  0.0611  0.0871
 9031TIP3   OH227056   1.252   1.070   5.614  0.4369  0.5973  0.6448
 9031TIP3    H127057   1.192   1.062   5.687  0.1975  0.0007  0.3931
 9031TIP3    H227058   1.327   1.015   5.638  1.1798  1.8443  1.2421
 9032TIP3   OH227059   6.505   6.493   3.240 -0.4907 -0.4559  0.2144
 9032TIP3    H127060   6.510   6.405   3.204  0.1059 -0.6999  0.8792
 9032TIP3    H227061   6.530   6.484   3.331  2.7406  0.8074 -0.3878
 9033TIP3   OH227062   6.185   3.788   1.421 -0.1545 -0.1400  0.3077
 9033TIP3    H127063   6.185   3.782   1.517 -0.0715 -2.4368  0.2092
 9033TIP3    H227064   6.146   3.874   1.403  2.3413  1.6180  2.4167
 9034TIP3   OH227065   0.870   4.230   4.673 -0.7191 -0.5621 -0.0094
 9034TIP3    H127066   0.853   4.320   4.647 -0.4192 -0.8489 -1.2427
 9034TIP3    H227067   0.965   4.226   4.685 -0.8368 -0.4698  1.0244
 9035TIP3   OH227068   4.504   4.166   3.522 -0.6813  0.6951  0.5737
 9035TIP3    H127069   4.422   4.162   3.570 -1.7524  0.1200 -1.2165
 9035TIP3    H227070   4.526   4.260   3.522 -0.4786  0.6931  2.3583
 9036TIP3   OH227071   5.606   0.347   3.932  0.2372 -0.0003 -0.2309
 9036TIP3    H127072   5.612   0.323   4.024  0.2444 -0.1704 -0.2750
 9036TIP3    H227073   5.603   0.263   3.885  1.4563  0.0630 -0.4576
 9037TIP3   OH227074   2.496   2.950   5.001  0.0163  1.0576 -0.2884
 9037TIP3    H127075   2.552   2.873   5.008 -0.7483  0.5032 -0.0341
 9037TIP3    H227076   2.521   3.005   5.076  1.2994  1.5733 -1.0717
 9038TIP3   OH227077   2.317   0.859   0.306  0.5534 -0.7980 -0.0622
 9038TIP3    H127078   2.393   0.804   0.323  0.0280 -1.6942 -0.5681
 9038TIP3    H227079   2.271   0.865   0.389  1.2536 -0.1080  0.2903
 9039TIP3   OH227080   3.800   5.362   3.722 -0.4809  0.2544  0.0054
 9039TIP3    H127081   3.786   5.454   3.699 -0.4606  0.0467 -0.8809
 9039TIP3    H227082   3.889   5.359   3.758  0.4630  0.2058 -2.2154
 9040TIP3   OH227083   4.953   0.234   3.535  0.2643  0.5540  0.0015
 9040TIP3    H127084   4.917   0.148   3.511  1.2780  0.2590 -0.5518
 9040TIP3    H227085   4.997   0.264   3.455 -0.4627  1.8005  0.0536
 9041TIP3   OH227086   5.823   0.218   0.466  0.1298  0.2403 -0.0721
 9041TIP3    H127087   5.778   0.274   0.529  0.7471 -0.7554  1.3256
 9041TIP3    H227088   5.915   0.223   0.492  0.3297 -0.5898 -0.5811
 9042TIP3   OH227089   1.892   3.190   0.514 -0.3200  0.2114 -0.1127
 9042TIP3    H127090   1.963   3.183   0.578 -0.6662 -1.0354  0.1619
 9042TIP3    H227091   1.912   3.270   0.465  1.1276  0.0258  0.1326
 9043TIP3   OH227092   6.353   6.730   1.271  0.3281  0.4498  0.6712
 9043TIP3    H127093   6.387   6.653   1.225  2.4745  1.3856  0.5816
 9043TIP3    H227094   6.334   6.698   1.359 -1.2417 -0.7337 -0.0431
 9044TIP3   OH227095   5.207   3.816   3.317 -0.0938 -0.4011  0.1243
 9044TIP3    H127096   5.209   3.845   3.226  0.5236 -0.4099  0.1315
 9044TIP3    H227097   5.298   3.798   3.339 -0.2861 -0.8140  0.6146
 9045TIP3   OH227098   2.356   4.548   3.523 -0.6811  0.1764  0.0530
 9045TIP3    H127099   2.296   4.621   3.537 -0.0115  0.7004  0.2624
 9045TIP3    H227100   2.437   4.589   3.492 -0.8278 -0.6208 -1.4766
 9046TIP3   OH227101   3.720   6.264   0.463  0.5183 -0.1887 -0.3047
 9046TIP3    H127102   3.697   6.258   0.556  0.2727  0.7820 -0.2867
 9046TIP3    H227103   3.799   6.211   0.454  0.0403 -1.0219  0.2729
 9047TIP3   OH227104   6.634   4.846   3.147  0.6025 -0.2654  0.1556
 9047TIP3    H127105   6.646   4.896   3.067 -0.9798 -0.6308 -0.3450
 9047TIP3    H227106   6.695   4.772   3.137  1.2066  0.2616 -0.1925
 9048TIP3   OH227107   1.327   3.363   3.741 -0.1571 -0.1858  0.1596
 9048TIP3    H127108   1.293   3.437   3.791  0.6294  2.3000 -2.6985
 9048TIP3    H227109   1.253   3.334   3.688 -0.6703 -2.0613  1.7821
 9049TIP3   OH227110   0.277   2.046   2.129 -0.3861  0.2165  0.5224
 9049TIP3    H127111   0.304   1.967   2.175 -0.2588 -0.5070 -0.7437
 9049TIP3    H227112   0.229   2.097   2.194 -2.3883 -1.9037  0.8471
 9050TIP3   OH227113   5.564   4.732   3.569 -0.3582  0.0785  0.2272
 9050TIP3    H127114   5.614   4.735   3.651 -1.0302  0.0695  0.6471
 9050TIP3    H227115   5.529   4.643   3.565 -1.7228  0.5645  0.7970
 9051TIP3   OH227116   4.793   6.063   3.513  0.2539  0.0069 -0.1387
 9051TIP3    H127117   4.769   6.148   3.475 -1.6056 -1.0137 -1.4027
 9051TIP3    H227118   4.765   6.069   3.604 -0.0475  0.6780 -0.2697
 9052TIP3   OH227119   1.821   6.452   3.683  0.4441 -0.2571 -0.0094
 9052TIP3    H127120   1.893   6.506   3.716  1.3151 -0.1147 -2.0172
 9052TIP3    H227121   1.818   6.378   3.743  2.2092 -0.2118  0.2058
 9053TIP3   OH227122   1.511   1.163   5.357  0.6610 -0.2575 -0.2341
 9053TIP3    H127123   1.488   1.215   5.280 -1.3430 -1.2917 -0.4003
 9053TIP3    H227124   1.432   1.114   5.378  1.0742  0.0942  2.6010
 9054TIP3   OH227125   5.277   5.324   0.703 -0.1063 -0.0211 -0.5242
 9054TIP3    H127126   5.364   5.364   0.695 -0.1456 -0.0307 -1.0517
 9054TIP3    H227127   5.279   5.279   0.787  0.4368 -0.0990 -0.5706
 9055TIP3   OH227128   6.242   1.749   1.523 -0.1300 -0.5254 -0.4136
 9055TIP3    H127129   6.235   1.655   1.508 -1.2959 -0.4859 -0.2163
 9055TIP3    H227130   6.175   1.788   1.466 -0.1931  0.1214  0.0897
 9056TIP3   OH227131   0.048   4.956   4.814 -0.0689 -0.4812 -0.3125
 9056TIP3    H127132   0.058   5.047   4.844  0.4635 -0.3072 -0.9979
 9056TIP3    H227133   0.087   4.903   4.883 -1.5049 -0.2843  0.6962
 9057TIP3   OH227134   4.154   2.946   1.292  0.6417 -0.0614 -0.1493
 9057TIP3    H127135   4.131   3.024   1.243 -1.2640 -1.7810 -2.2407
 9057TIP3    H227136   4.082   2.935   1.354  0.6113 -0.4554 -0.2524
 9058TIP3   OH227137   3.071   1.482   4.425 -0.1140  0.3396 -0.1930
 9058TIP3    H127138   3.021   1.436   4.357  0.3615  1.5965 -1.4544
 9058TIP3    H227139   3.008   1.542   4.464  0.3302  1.9193 -1.7786
 9059TIP3   OH227140   0.449   3.346   2.108 -0.2848 -0.0050  0.0853
 9059TIP3    H127141   0.421   3.348   2.200  0.5456 -0.5680  0.3597
 9059TIP3    H227142   0.468   3.438   2.088  0.1662  0.0408  0.6823
 9060TIP3   OH227143   0.517   6.338   3.177 -0.5980 -0.0631 -0.1368
 9060TIP3    H127144   0.541   6.384   3.097 -0.3910  0.6203  0.3178
 9060TIP3    H227145   0.428   6.306   3.160 -0.3604 -0.3862 -0.8341
 9061TIP3   OH227146   3.671   0.125   0.951 -0.6052  0.2383 -0.7474
 9061TIP3    H127147   3.715   0.051   0.991 -0.2587 -0.1853 -1.8910
 9061TIP3    H227148   3.612   0.087   0.886 -1.4975  0.8886 -0.3490
 9062TIP3   OH227149   3.720   5.393   4.347 -0.2653  0.5812  0.1535
 9062TIP3    H127150   3.754   5.304   4.348  1.7451  1.2825  1.3603
 9062TIP3    H227151   3.627   5.384   4.369 -0.7452 -1.3694 -2.2586
 9063TIP3   OH227152   3.901   3.313   5.155  0.8742  0.6022 -0.4986
 9063TIP3    H127153   3.922   3.225   5.186  1.1873  0.9773  0.3753
 9063TIP3    H227154   3.944   3.372   5.218 -1.5581  1.3943  0.5356
 9064TIP3   OH227155   4.908   4.754   3.132  0.5820 -0.5605 -0.3255
 9064TIP3    H127156   4.978   4.806   3.169 -0.7179  0.5922  0.6113
 9064TIP3    H227157   4.836   4.816   3.117 -1.5409 -2.1924  2.1422
 9065TIP3   OH227158   2.482   2.794   0.219 -0.1940 -0.2740 -0.0207
 9065TIP3    H127159   2.452   2.704   0.234 -0.4038 -0.1986  0.0045
 9065TIP3    H227160   2.476   2.836   0.305  0.8660 -0.5212  0.1895
 9066TIP3   OH227161   1.126   1.014   2.252 -0.1658 -0.3645  0.2352
 9066TIP3    H127162   1.036   1.025   2.283 -0.0847 -0.2282  0.4228
 9066TIP3    H227163   1.164   0.949   2.311  0.4749  1.0554  1.4379
 9067TIP3   OH227164   4.376   2.453   1.963 -0.2492 -0.2602 -0.5144
 9067TIP3    H127165   4.353   2.524   1.903 -0.9785  0.1046  0.1739
 9067TIP3    H227166   4.468   2.435   1.945  0.2296  1.5074 -0.0743
 9068TIP3   OH227167   1.394   3.811   4.093  0.1827 -0.0511  0.3564
 9068TIP3    H127168   1.302   3.832   4.110 -0.0232 -0.6485 -0.0114
 9068TIP3    H227169   1.412   3.849   4.007 -0.4463 -2.0757 -0.7288
 9069TIP3   OH227170   5.137   4.421   3.105  0.2599 -0.1164 -0.0325
 9069TIP3    H127171   5.107   4.478   3.176 -0.1654  0.0487 -0.3436
 9069TIP3    H227172   5.142   4.478   3.029 -1.7136 -0.8097 -0.7293
 9070TIP3   OH227173   0.864   3.272   4.090 -0.1108  0.3134  0.1133
 9070TIP3    H127174   0.924   3.271   4.016  0.4884  0.0005  0.5949
 9070TIP3    H227175   0.883   3.191   4.138 -0.2992  0.6383  0.7607
 9071TIP3   OH227176   0.496   4.402   0.233 -0.1237 -0.1170  0.4811
 9071TIP3    H127177   0.525   4.440   0.150 -2.3149  1.5463  0.3870
 9071TIP3    H227178   0.559   4.435   0.297 -1.4582  3.2302  0.2610
 9072TIP3   OH227179   0.457   5.755   2.473  0.0295  0.5521 -0.2339
 9072TIP3    H127180   0.405   5.818   2.424 -0.0673  0.9031  0.3133
 9072TIP3    H227181   0.396   5.685   2.495 -0.0246  0.5873 -0.2732
 9073TIP3   OH227182   3.299   5.783   3.347 -0.5267  0.1535 -0.1091
 9073TIP3    H127183   3.263   5.720   3.410  0.4278  1.2986  1.6581
 9073TIP3    H227184   3.353   5.729   3.289  0.3057 -0.7224  1.3924
 9074TIP3   OH227185   0.911   6.472   5.683 -0.3654  0.4835 -0.6407
 9074TIP3    H127186   0.877   6.432   5.603 -0.8043  0.1920 -0.3116
 9074TIP3    H227187   0.917   6.400   5.745 -0.5931  0.8194 -0.2264
 9075TIP3   OH227188   0.455   5.908   2.795  0.9187 -0.2842 -0.4045
 9075TIP3    H127189   0.497   5.836   2.842  0.5042  0.2356  0.7886
 9075TIP3    H227190   0.525   5.972   2.782  0.8598 -0.0934  0.2006
 9076TIP3   OH227191   6.282   6.646   3.185  0.3341  0.0947 -0.4447
 9076TIP3    H127192   6.281   6.675   3.094  0.4881 -0.1708 -0.5311
 9076TIP3    H227193   6.349   6.579   3.188 -0.8724 -1.1647 -0.5240
 9077TIP3   OH227194   3.725   1.543   0.405 -0.1410 -0.2894 -0.0152
 9077TIP3    H127195   3.766   1.552   0.318 -1.2466  1.0827 -0.4386
 9077TIP3    H227196   3.699   1.632   0.428  0.3912 -0.5909  1.8867
 9078TIP3   OH227197   1.623   4.480   3.178 -0.2001 -0.0673  0.3215
 9078TIP3    H127198   1.565   4.440   3.243  1.0407 -0.8251  0.9813
 9078TIP3    H227199   1.571   4.480   3.097 -0.5621 -2.1815  0.5059
 9079TIP3   OH227200   5.723   3.772   5.165 -0.2080  0.0827  0.0658
 9079TIP3    H127201   5.780   3.713   5.116 -0.3916 -0.3809  0.4077
 9079TIP3    H227202   5.720   3.736   5.253  0.4773  1.1581  0.5550
 9080TIP3   OH227203   5.927   3.607   5.289 -0.3419  0.1181  0.2767
 9080TIP3    H127204   5.880   3.524   5.283  1.2756 -0.9474  1.5556
 9080TIP3    H227205   5.981   3.610   5.210 -2.2646  1.2484 -1.0925
 9081TIP3   OH227206   6.043   3.240   2.851 -0.1141 -0.4028 -0.2521
 9081TIP3    H127207   6.074   3.330   2.838 -2.2689  0.5166  0.4624
 9081TIP3    H227208   5.952   3.242   2.821 -0.0201 -2.5235 -0.7857
 9082TIP3   OH227209   3.160   2.395   3.028 -0.4196 -0.8004 -0.0623
 9082TIP3    H127210   3.249   2.424   3.013 -1.2295  0.4635 -3.3990
 9082TIP3    H227211   3.130   2.444   3.104  1.1094  0.1843 -0.0655
 9083TIP3   OH227212   3.257   6.626   4.803  0.0977  0.1585  0.2969
 9083TIP3    H127213   3.187   6.561   4.794 -2.3740  2.5861  0.8879
 9083TIP3    H227214   3.253   6.653   4.895 -0.7776  3.0110 -0.4950
 9084TIP3   OH227215   0.302   2.458   5.517  0.0818 -0.0024  0.7377
 9084TIP3    H127216   0.380   2.438   5.465 -0.0729 -2.6801  1.3928
 9084TIP3    H227217   0.230   2.457   5.453  0.3216  0.3613  0.4582
 9085TIP3   OH227218   6.004   5.801   5.621  0.2270 -0.1403 -0.6700
 9085TIP3    H127219   6.075   5.782   5.559 -0.8622 -1.6659 -1.5175
 9085TIP3    H227220   5.989   5.895   5.613  1.9186  0.1530 -0.7146
 9086TIP3   OH227221   5.604   1.034   5.711 -0.1016  0.4549 -0.5083
 9086TIP3    H127222   5.569   1.019   5.624  1.0629 -2.2974 -0.6201
 9086TIP3    H227223   5.695   1.060   5.697  0.6288 -1.6845 -0.2046
 9087TIP3   OH227224   5.614   6.403   0.723  0.1895  0.6378 -0.1951
 9087TIP3    H127225   5.606   6.338   0.652 -0.8408  0.7447 -0.1929
 9087TIP3    H227226   5.540   6.384   0.781  0.4343  1.2072  0.3139
 9088TIP3   OH227227   2.793   0.340   2.937  0.2805 -0.2092  0.4517
 9088TIP3    H127228   2.743   0.272   2.892 -0.0377  0.9277 -0.9472
 9088TIP3    H227229   2.801   0.411   2.874  0.9237  0.9284  1.7558
 9089TIP3   OH227230   5.439   0.678   1.514  0.3671 -0.1090  0.0995
 9089TIP3    H127231   5.374   0.732   1.470  1.0827  0.4551 -0.2900
 9089TIP3    H227232   5.453   0.722   1.598  0.2620 -0.2193  0.1750
 9090TIP3   OH227233   6.504   2.413   1.598  0.4910 -0.1342 -0.5632
 9090TIP3    H127234   6.430   2.470   1.576 -0.0965 -0.5557  0.2925
 9090TIP3    H227235   6.471   2.355   1.666  1.7934  0.0732  0.2775
 9091TIP3   OH227236   5.020   1.298   4.305  0.2232  0.5635 -0.0830
 9091TIP3    H127237   4.980   1.310   4.219  1.1347 -0.9412 -0.7568
 9091TIP3    H227238   5.103   1.254   4.287  0.4271  0.2020  1.5797
 9092TIP3   OH227239   6.947   3.522   4.683 -0.1099  0.3184  0.1626
 9092TIP3    H127240   7.011   3.462   4.644 -1.8078 -0.6843 -1.1954
 9092TIP3    H227241   6.904   3.471   4.751  0.0121  0.7779  0.6007
 9093TIP3   OH227242   2.398   4.642   3.910  0.5098 -0.1156 -0.2645
 9093TIP3    H127243   2.415   4.716   3.967 -1.8884  0.5821 -0.3160
 9093TIP3    H227244   2.430   4.566   3.959 -0.3705  0.5861  1.5047
 9094TIP3   OH227245   6.554   2.592   3.341  0.2198  0.0416 -0.0360
 9094TIP3    H127246   6.480   2.630   3.293  0.1759 -1.1901 -0.9920
 9094TIP3    H227247   6.608   2.551   3.274  1.6140  0.6186  0.6927
 9095TIP3   OH227248   1.750   6.616   2.275  0.2767  0.0778 -0.0971
 9095TIP3    H127249   1.668   6.620   2.323 -0.1382  2.1703 -0.8356
 9095TIP3    H227250   1.800   6.547   2.317 -0.4801  1.0886  2.6329
 9096TIP3   OH227251   1.270   6.301   3.252 -0.0060  0.4306  0.2619
 9096TIP3    H127252   1.198   6.307   3.189 -0.2439  0.5726  0.5453
 9096TIP3    H227253   1.265   6.382   3.303 -0.7647 -0.3359  1.4608
 9097TIP3   OH227254   7.021   0.596   0.978  0.1472 -0.1002  0.3724
 9097TIP3    H127255   7.037   0.570   1.069  0.2208  0.5030  0.5394
 9097TIP3    H227256   6.926   0.604   0.971  0.1187 -0.5084  0.2924
 9098TIP3   OH227257   0.225   4.276   1.891 -0.0453 -0.1573 -0.1864
 9098TIP3    H127258   0.242   4.197   1.942 -0.2178 -2.1081 -2.8845
 9098TIP3    H227259   0.179   4.244   1.813 -0.6592  2.7187 -1.1177
 9099TIP3   OH227260   4.772   1.584   3.730 -0.0942  0.2111 -0.1907
 9099TIP3    H127261   4.745   1.629   3.650 -1.6187 -1.5110 -0.7058
 9099TIP3    H227262   4.702   1.521   3.748 -0.1425  0.9846  2.9049
 9100TIP3   OH227263   4.723   3.384   5.732  0.0020  0.0596 -0.0625
 9100TIP3    H127264   4.749   3.316   5.794 -2.4412 -0.6141  0.3308
 9100TIP3    H227265   4.682   3.451   5.786 -2.9680 -0.9368 -0.9075
 9101TIP3   OH227266   1.819   6.082   4.464 -0.6286 -0.1079 -0.9588
 9101TIP3    H127267   1.867   6.074   4.546 -1.0197 -0.3832 -0.7505
 9101TIP3    H227268   1.727   6.067   4.489 -0.6344 -1.3157 -1.6188
 9102TIP3   OH227269   2.395   0.016   1.195 -0.0287  0.2941  0.0829
 9102TIP3    H127270   2.373  -0.023   1.111 -1.0847 -1.1567  0.9853
 9102TIP3    H227271   2.409   0.109   1.176 -0.3680  0.0140 -1.6527
 9103TIP3   OH227272   0.374   0.007   5.690 -0.2822  0.0584  0.1227
 9103TIP3    H127273   0.283   0.027   5.709 -0.4388 -0.9944  0.5291
 9103TIP3    H227274   0.412  -0.019   5.774  0.1024 -0.5770 -0.2388
 9104TIP3   OH227275   4.727   1.697   3.487 -0.0389  0.4157  0.2216
 9104TIP3    H127276   4.804   1.748   3.466  0.6075  0.0381  1.5488
 9104TIP3    H227277   4.657   1.735   3.434  1.1460  0.4271 -1.4016
 9105TIP3   OH227278   0.016   5.252   2.336 -0.2999  0.2584 -0.1576
 9105TIP3    H127279   0.045   5.205   2.258 -1.5782  0.6570 -0.9146
 9105TIP3    H227280   0.030   5.345   2.315  0.0320  0.3323  0.3828
 9106TIP3   OH227281   6.686   4.639   3.442  0.5157 -0.3493  0.2511
 9106TIP3    H127282   6.728   4.627   3.528 -1.0477  0.9494  1.2572
 9106TIP3    H227283   6.611   4.579   3.445 -0.2992  0.6529  0.3517
 9107TIP3   OH227284   4.709   6.355   1.912 -0.3514  0.4053 -0.3507
 9107TIP3    H127285   4.632   6.366   1.969  0.2300 -1.1384  0.8045
 9107TIP3    H227286   4.780   6.398   1.960 -0.2410  0.7673 -0.8377
 9108TIP3   OH227287   5.036   3.300   5.533  0.1581 -0.3155 -0.4647
 9108TIP3    H127288   5.127   3.323   5.512  0.2480  2.4630  2.2831
 9108TIP3    H227289   4.984   3.356   5.476  0.2457  0.4617  0.2089
 9109TIP3   OH227290   4.951   6.639   2.908  0.1542  0.0648  0.8169
 9109TIP3    H127291   4.972   6.654   2.816 -0.7916  1.1448  0.7632
 9109TIP3    H227292   4.885   6.570   2.906  0.7192 -0.4817  0.7438
 9110TIP3   OH227293   5.146   0.959   4.193 -0.8118  0.1144 -0.8813
 9110TIP3    H127294   5.053   0.939   4.182 -0.7917 -0.8193  0.4136
 9110TIP3    H227295   5.168   0.925   4.280  0.4915  1.2834 -0.7102
 9111TIP3   OH227296   6.664   4.994   0.920 -0.0255 -0.0902  0.1848
 9111TIP3    H127297   6.751   5.000   0.959 -0.4839  0.8826  1.0907
 9111TIP3    H227298   6.612   5.059   0.966 -1.5489 -1.4312  0.4514
 9112TIP3   OH227299   5.504   1.409   1.580 -0.4704 -0.4453 -0.4646
 9112TIP3    H127300   5.569   1.342   1.560  1.2099  0.6061  1.1127
 9112TIP3    H227301   5.516   1.475   1.512  1.1048  0.3677  0.5535
 9113TIP3   OH227302   0.198   5.901   5.817  0.3190 -0.2981 -0.0521
 9113TIP3    H127303   0.110   5.929   5.845  1.2453  1.6648  1.1173
 9113TIP3    H227304   0.257   5.968   5.852  2.3209 -1.6167 -0.7111
 9114TIP3   OH227305   5.816   6.306   2.871 -0.3191  0.2125  0.5113
 9114TIP3    H127306   5.879   6.291   2.800 -0.2471  0.7356  0.4650
 9114TIP3    H227307   5.731   6.310   2.826 -0.4022 -0.6060  0.5868
 9115TIP3   OH227308   5.287   3.512   3.209  0.4101 -0.0665 -0.1276
 9115TIP3    H127309   5.285   3.605   3.233  0.1859  0.2189 -1.2217
 9115TIP3    H227310   5.201   3.495   3.172 -0.6095 -1.4480  2.5836
 9116TIP3   OH227311   2.773   2.704   3.920  0.7996  0.9956  0.2049
 9116TIP3    H127312   2.730   2.788   3.903  0.2397  0.3416 -2.0476
 9116TIP3    H227313   2.729   2.642   3.862  2.0463 -0.6019  0.8584
 9117TIP3   OH227314   0.997   3.895   2.865  0.0138 -0.5308  0.2250
 9117TIP3    H127315   1.001   3.853   2.780  0.0480 -1.4862  0.6892
 9117TIP3    H227316   0.906   3.926   2.873 -0.5677 -2.2213  0.6558
 9118TIP3   OH227317   4.059   3.765   4.261  0.1656  0.1578 -0.0911
 9118TIP3    H127318   4.006   3.769   4.181  0.4925  1.2137 -0.2735
 9118TIP3    H227319   4.137   3.717   4.235  0.2503  0.4579 -0.4128
 9119TIP3   OH227320   4.985   3.859   5.639 -0.5265 -0.4213  0.0823
 9119TIP3    H127321   4.908   3.829   5.688  0.7552 -0.4882  2.1760
 9119TIP3    H227322   4.991   3.952   5.660  1.0288 -0.8070  1.5506
 9120TIP3   OH227323   4.444   3.534   3.035 -0.4831 -0.3633  0.4159
 9120TIP3    H127324   4.408   3.621   3.017 -1.8168 -0.5500  1.9352
 9120TIP3    H227325   4.479   3.541   3.124  2.0573 -0.6147 -0.4744
 9121TIP3   OH227326   6.656   6.355   1.680  0.2624 -0.2669 -0.4013
 9121TIP3    H127327   6.570   6.348   1.722  0.1132 -1.3841 -0.8526
 9121TIP3    H227328   6.669   6.269   1.639  0.7999  0.4795 -1.8590
 9122TIP3   OH227329   3.224   6.260   5.614 -0.0052 -0.6443 -0.7965
 9122TIP3    H127330   3.192   6.229   5.699 -1.3471  0.4341 -0.8710
 9122TIP3    H227331   3.223   6.183   5.559  0.4669 -1.2686  0.0326
 9123TIP3   OH227332   6.571   2.139   1.105  0.0298  0.1646  0.2929
 9123TIP3    H127333   6.576   2.052   1.145  1.0588 -0.4479 -1.0773
 9123TIP3    H227334   6.662   2.168   1.099 -0.1482  0.5231 -0.9279
 9124TIP3   OH227335   1.926   3.146   3.744 -0.1097 -0.1084 -0.5294
 9124TIP3    H127336   1.873   3.087   3.690  0.3518 -1.1164  0.0842
 9124TIP3    H227337   1.865   3.178   3.811 -1.3702  3.1208 -2.9659
 9125TIP3   OH227338   3.993   1.529   3.366  0.8503 -0.5659  0.3370
 9125TIP3    H127339   4.019   1.520   3.275  1.1453 -0.2012  0.3786
 9125TIP3    H227340   4.073   1.557   3.411  0.4253  0.4971  0.4837
 9126TIP3   OH227341   6.590   0.962   4.021 -0.1236 -0.5760  0.1423
 9126TIP3    H127342   6.579   1.054   3.997 -1.8651 -0.6648  0.4464
 9126TIP3    H227343   6.618   0.919   3.941 -0.9048 -0.0445 -0.4268
 9127TIP3   OH227344   0.847   5.781   2.170 -0.4406 -0.3618 -0.1994
 9127TIP3    H127345   0.939   5.800   2.184 -0.2586 -1.5875  0.4316
 9127TIP3    H227346   0.826   5.713   2.234 -1.6815 -0.3878 -0.5941
 9128TIP3   OH227347   1.302   0.040   1.682 -0.0931  0.3060 -0.2519
 9128TIP3    H127348   1.368   0.027   1.750  0.5909  0.5370 -0.8700
 9128TIP3    H227349   1.225  -0.005   1.716  0.5805 -0.5641  0.1653
 9129TIP3   OH227350   1.954   0.249   1.146 -0.3869  0.6680  0.2041
 9129TIP3    H127351   1.864   0.282   1.149 -0.8702 -0.5608 -0.1652
 9129TIP3    H227352   1.951   0.167   1.195  0.6022  0.7361  0.4052
 9130TIP3   OH227353   1.567   3.599   3.046  0.1732  0.5925  0.3849
 9130TIP3    H127354   1.536   3.634   2.962 -2.4189  0.8929  1.3691
 9130TIP3    H227355   1.573   3.505   3.032 -2.3394  0.3698  0.3710
 9131TIP3   OH227356   7.144   6.719   3.769 -0.3127 -0.1738 -0.2460
 9131TIP3    H127357   7.175   6.629   3.769 -0.1075 -0.1038 -0.3892
 9131TIP3    H227358   7.147   6.746   3.861 -2.2430 -0.9435  0.0856
 9132TIP3   OH227359   6.271   6.294   4.074 -0.2060  0.2682  0.1730
 9132TIP3    H127360   6.249   6.204   4.048  1.6231 -0.5369  1.2525
 9132TIP3    H227361   6.241   6.348   4.001 -0.8098 -1.2682 -0.7693
 9133TIP3   OH227362   3.652   6.322   0.706  0.5088  0.4985  0.0236
 9133TIP3    H127363   3.601   6.401   0.722 -0.8705  0.0445 -1.8317
 9133TIP3    H227364   3.709   6.315   0.783 -0.7185  2.1906  1.1729
 9134TIP3   OH227365   2.911   3.304   0.050  0.4981  0.0508 -0.4075
 9134TIP3    H127366   2.966   3.238   0.007  0.5999 -0.2949  0.2354
 9134TIP3    H227367   2.893   3.267   0.136 -0.4633  0.3156 -0.4828
 9135TIP3   OH227368   2.677   4.235   1.216 -0.1823 -0.4259  0.1259
 9135TIP3    H127369   2.710   4.286   1.290 -0.0438  1.4177 -1.1400
 9135TIP3    H227370   2.740   4.252   1.146 -0.9759 -1.1236 -0.7847
 9136TIP3   OH227371   1.685   0.357   1.139  0.0640  0.0702 -0.5446
 9136TIP3    H127372   1.615   0.411   1.103 -0.0358  0.5906  0.3961
 9136TIP3    H227373   1.666   0.353   1.233 -0.0935 -1.8344 -0.6015
 9137TIP3   OH227374   2.955   3.611   1.377 -0.1174  0.0439 -0.3077
 9137TIP3    H127375   2.868   3.574   1.360 -0.4053  0.0427  1.1033
 9137TIP3    H227376   2.944   3.705   1.367 -0.3849  0.0780  0.3249
 9138TIP3   OH227377   2.602   6.203   4.597 -0.6788  0.3843 -0.0527
 9138TIP3    H127378   2.590   6.279   4.654  0.5870 -0.1415  0.9724
 9138TIP3    H227379   2.636   6.135   4.654  0.1163 -0.3389 -1.3191
 9139TIP3   OH227380   5.832   4.530   0.082 -0.0354  0.3035  0.1660
 9139TIP3    H127381   5.793   4.460   0.133 -1.4244  0.6733 -0.3515
 9139TIP3    H227382   5.903   4.563   0.137 -0.5309 -0.3004  1.1944
 9140TIP3   OH227383   4.242   1.494   5.099 -0.3285  0.0798  0.2854
 9140TIP3    H127384   4.215   1.585   5.097  0.5858  0.3571 -1.5984
 9140TIP3    H227385   4.337   1.498   5.112 -0.3355 -0.6165  0.5771
 9141TIP3   OH227386   0.072   5.527   3.390  0.2282  0.1217 -0.3005
 9141TIP3    H127387   0.136   5.462   3.363  0.2893 -0.3041  0.8167
 9141TIP3    H227388  -0.008   5.477   3.408 -0.0553  0.4942 -0.5082
 9142TIP3   OH227389   0.948   1.630   0.638  0.0372  0.0673  0.0309
 9142TIP3    H127390   1.037   1.594   0.632  0.7434  1.9948 -3.0130
 9142TIP3    H227391   0.960   1.716   0.678 -0.5152  0.1880 -0.0631
 9143TIP3   OH227392   0.466   0.624   4.484 -0.4698  0.2188  0.4924
 9143TIP3    H127393   0.488   0.717   4.486  0.8660 -0.0736  0.1454
 9143TIP3    H227394   0.443   0.603   4.575 -0.3075  0.7751  0.6663
 9144TIP3   OH227395   4.871   6.143   5.327 -0.2797 -0.1324  0.5636
 9144TIP3    H127396   4.907   6.189   5.403 -1.1264 -2.9804  2.8659
 9144TIP3    H227397   4.847   6.057   5.360 -1.3945 -1.2872 -2.8226
 9145TIP3   OH227398   3.100   1.357   2.227  0.1695  0.3427  0.2302
 9145TIP3    H127399   3.056   1.413   2.163 -0.7057  0.5924  1.0292
 9145TIP3    H227400   3.096   1.406   2.309 -1.3001 -1.1833  1.1353
 9146TIP3   OH227401   2.113   3.901   4.927  0.6392  0.0414  0.5490
 9146TIP3    H127402   2.189   3.957   4.943  1.3650 -0.8455  0.2365
 9146TIP3    H227403   2.060   3.951   4.864  0.3658  1.1794  1.6380
 9147TIP3   OH227404   1.231   0.070   1.181  0.3450  0.6153 -0.4376
 9147TIP3    H127405   1.300   0.015   1.144 -0.0963  0.5469 -1.1759
 9147TIP3    H227406   1.247   0.157   1.144 -0.7587  0.3052 -1.7223
 9148TIP3   OH227407   3.625   4.031   0.540 -0.8351  0.0840  0.0325
 9148TIP3    H127408   3.541   3.987   0.543 -0.6011 -0.6524 -2.1580
 9148TIP3    H227409   3.614   4.098   0.472 -0.2802  1.4552  1.2350
 9149TIP3   OH227410   0.958   4.967   0.494 -0.3742 -0.3905  0.1119
 9149TIP3    H127411   0.910   4.945   0.574  0.4794 -1.0693  0.4542
 9149TIP3    H227412   0.926   4.904   0.429 -1.5634  0.5916 -0.2919
 9150TIP3   OH227413   4.190   0.875   0.547  0.3075 -0.5027  0.2775
 9150TIP3    H127414   4.109   0.876   0.597 -0.3678 -1.1149 -0.7695
 9150TIP3    H227415   4.236   0.796   0.578 -0.8535 -1.8021 -1.1638
 9151TIP3   OH227416   1.398   2.037   2.462 -0.2257  0.2044  0.0189
 9151TIP3    H127417   1.357   1.959   2.426 -0.6489  0.3244  0.2325
 9151TIP3    H227418   1.339   2.066   2.531  0.4064  0.1793  0.5773
 9152TIP3   OH227419   0.839   0.764   2.055 -0.0888 -0.2694  0.1899
 9152TIP3    H127420   0.761   0.793   2.007 -0.6222  1.1650  1.8212
 9152TIP3    H227421   0.910   0.772   1.991 -0.8197  1.2490 -0.4918
 9153TIP3   OH227422   5.476   4.061   2.046 -0.7022  0.7750  0.1611
 9153TIP3    H127423   5.428   4.023   2.120  1.2474 -1.0169  0.6057
 9153TIP3    H227424   5.526   4.132   2.085 -0.3724  0.4171  0.4023
 9154TIP3   OH227425   2.230   3.112   1.383 -0.0911  0.1520 -0.5674
 9154TIP3    H127426   2.201   3.200   1.407  0.7886  0.4851 -0.7032
 9154TIP3    H227427   2.250   3.070   1.466 -0.1442  0.2079 -0.5260
 9155TIP3   OH227428   6.012   0.757   4.539 -0.6162 -0.1599 -0.1454
 9155TIP3    H127429   5.977   0.778   4.626  0.6668  1.2600  0.0798
 9155TIP3    H227430   6.101   0.726   4.556  0.2934  1.8332 -1.0306
 9156TIP3   OH227431   2.101   2.610   3.417  0.1328 -0.4903 -0.4145
 9156TIP3    H127432   2.166   2.677   3.436  0.6167 -1.2343  0.6147
 9156TIP3    H227433   2.095   2.558   3.497  0.4151 -2.2166 -1.4517
 9157TIP3   OH227434   4.261   2.171   3.327  0.4821 -0.5154 -0.4518
 9157TIP3    H127435   4.209   2.167   3.247  1.0682  0.6730 -0.9089
 9157TIP3    H227436   4.223   2.243   3.377  1.1817 -0.1445 -0.4402
 9158TIP3   OH227437   6.605   6.519   5.064 -0.0769 -0.2864 -0.0349
 9158TIP3    H127438   6.594   6.487   4.975 -1.4530  0.2053 -0.0574
 9158TIP3    H227439   6.562   6.453   5.119  1.1053 -0.7928  0.3280
 9159TIP3   OH227440   1.062   3.664   0.623 -0.2700  0.0161  0.4492
 9159TIP3    H127441   1.112   3.606   0.567  0.5108  0.5252  0.5986
 9159TIP3    H227442   1.122   3.686   0.695 -1.3051 -0.7829  1.6026
 9160TIP3   OH227443   0.040   4.270   2.589  0.2627  0.6096  0.0471
 9160TIP3    H127444   0.013   4.215   2.662  0.1259  1.8194  0.9541
 9160TIP3    H227445   0.038   4.213   2.513 -1.7317 -0.1671  0.6150
 9161TIP3   OH227446   6.046   6.045   2.002  0.3108 -0.1172  0.6327
 9161TIP3    H127447   6.017   6.075   2.089 -1.4189  0.4764 -0.0891
 9161TIP3    H227448   6.023   6.118   1.944  1.5686 -0.4614 -0.3099
 9162TIP3   OH227449   2.471   4.740   1.017  0.1679 -0.0581 -0.1878
 9162TIP3    H127450   2.470   4.704   0.929 -1.6918 -0.7779  0.0823
 9162TIP3    H227451   2.395   4.799   1.020  0.6290  0.5223  0.7195
 9163TIP3   OH227452   3.013   5.440   5.279 -0.1557  0.0289 -0.2732
 9163TIP3    H127453   2.938   5.450   5.220 -0.4078  0.7004  0.1442
 9163TIP3    H227454   2.980   5.383   5.350 -0.1433 -0.0072 -0.2965
 9164TIP3   OH227455   2.519   0.998   3.371  0.0847  0.5021 -0.1623
 9164TIP3    H127456   2.572   0.923   3.398 -0.0112  0.4469 -0.1292
 9164TIP3    H227457   2.429   0.968   3.378  0.0153  0.8332  0.5230
 9165TIP3   OH227458   6.883   4.206   3.206 -0.3043  0.9220 -0.4291
 9165TIP3    H127459   6.790   4.201   3.229 -0.4184 -0.4371 -1.0449
 9165TIP3    H227460   6.921   4.127   3.246  0.3551  0.8699 -1.1446
 9166TIP3   OH227461   5.924   3.785   1.828 -0.1034  0.0524 -0.4384
 9166TIP3    H127462   5.939   3.709   1.883 -3.4819  1.1477  2.3824
 9166TIP3    H227463   5.857   3.757   1.765 -2.0172  0.7786  1.1768
 9167TIP3   OH227464   0.369   6.222   0.977  0.4160 -0.0969 -0.0700
 9167TIP3    H127465   0.357   6.260   0.889 -1.7556  0.4184  0.3852
 9167TIP3    H227466   0.280   6.217   1.013  1.0202 -2.3033  1.2999
 9168TIP3   OH227467   2.345   0.605   1.077  0.5237  0.2970  0.0674
 9168TIP3    H127468   2.313   0.540   1.139  0.1048 -0.7433 -1.2016
 9168TIP3    H227469   2.440   0.593   1.076  0.5059  0.1380  0.3006
 9169TIP3   OH227470   3.969   4.467   0.239  0.0600  0.3406 -0.2574
 9169TIP3    H127471   3.938   4.408   0.307 -0.4915  0.6407 -0.2476
 9169TIP3    H227472   4.048   4.425   0.205  0.0526 -0.0597  0.2178
 9170TIP3   OH227473   6.207   3.689   0.168 -0.1312 -0.2851  0.4011
 9170TIP3    H127474   6.144   3.625   0.202 -0.7514 -0.4231 -0.9407
 9170TIP3    H227475   6.155   3.745   0.109  1.1648 -1.0757 -1.6133
 9171TIP3   OH227476   1.830   1.546   3.144 -0.2272  0.6881  0.6033
 9171TIP3    H127477   1.907   1.549   3.086 -0.4475 -1.8800  0.0326
 9171TIP3    H227478   1.755   1.545   3.084 -0.5394 -0.1785  0.9918
 9172TIP3   OH227479   2.467   5.016   2.164  0.1966 -0.1609 -0.6183
 9172TIP3    H127480   2.530   4.952   2.198  1.5026  1.1308 -0.5029
 9172TIP3    H227481   2.486   5.021   2.071  1.7840  1.7811 -0.2486
 9173TIP3   OH227482   0.520   4.230   2.057  0.3585  0.1080 -0.5070
 9173TIP3    H127483   0.588   4.238   1.991  2.8691  1.3877  2.0249
 9173TIP3    H227484   0.468   4.310   2.049  1.2227  0.6942 -0.3743
 9174TIP3   OH227485   1.540   1.922   3.805  0.2223 -0.0343 -0.0825
 9174TIP3    H127486   1.554   2.009   3.842  0.8460 -0.5258  0.8884
 9174TIP3    H227487   1.554   1.933   3.711  0.0650  0.9565  0.0032
 9175TIP3   OH227488   3.147   6.119   4.347  0.5408  0.2246 -0.1552
 9175TIP3    H127489   3.075   6.179   4.366 -0.3062 -0.9890  0.6372
 9175TIP3    H227490   3.170   6.081   4.432  0.1596 -1.5180 -0.7833
 9176TIP3   OH227491   1.597   3.310   2.699 -0.3560  0.9657  0.3151
 9176TIP3    H127492   1.665   3.264   2.651 -3.0208 -3.4701  0.1933
 9176TIP3    H227493   1.553   3.364   2.633 -0.8273 -1.1367 -1.1923
 9177TIP3   OH227494   3.096   0.153   0.339 -0.6236 -0.1836 -0.4266
 9177TIP3    H127495   3.145   0.071   0.339  1.3030  0.8793 -0.0881
 9177TIP3    H227496   3.090   0.178   0.247 -0.6471 -0.3858 -0.4808
 9178TIP3   OH227497   4.043   6.361   5.376  0.0910 -0.2057  0.4864
 9178TIP3    H127498   3.982   6.424   5.337  0.2971  0.1853  0.7845
 9178TIP3    H227499   4.079   6.313   5.302  0.4848  0.5298  0.1882
 9179TIP3   OH227500   2.868   4.637   1.626  0.5137  0.0592 -0.5456
 9179TIP3    H127501   2.946   4.674   1.669  0.1611  0.5017 -0.2772
 9179TIP3    H227502   2.878   4.663   1.534  1.5792 -1.4112 -0.8805
 9180TIP3   OH227503   1.651   1.232   1.541 -0.0954  0.7667  0.6260
 9180TIP3    H127504   1.615   1.154   1.584 -0.1454 -0.4256 -1.4169
 9180TIP3    H227505   1.574   1.284   1.518 -0.5091 -0.7060 -1.7495
 9181TIP3   OH227506   6.155   4.491   2.437 -0.4622  0.9578 -0.4391
 9181TIP3    H127507   6.194   4.576   2.417 -1.4942  1.2537 -1.2746
 9181TIP3    H227508   6.141   4.450   2.351  2.5827 -1.2903 -0.0255
 9182TIP3   OH227509   6.623   1.124   5.759  0.3377 -0.3834 -0.4267
 9182TIP3    H127510   6.648   1.204   5.806 -0.5638  0.2421 -0.9911
 9182TIP3    H227511   6.617   1.150   5.668 -0.6095 -0.9345 -0.5344
 9183TIP3   OH227512   4.503   4.220   1.033  0.0187 -0.0831 -0.2300
 9183TIP3    H127513   4.471   4.138   0.995  0.8109  0.0422 -1.2029
 9183TIP3    H227514   4.573   4.193   1.092  0.8320 -0.0627 -1.1665
 9184TIP3   OH227515   1.441   6.790   3.434 -0.2675  0.0031  0.4805
 9184TIP3    H127516   1.462   6.836   3.516 -1.4672  0.9041  0.3107
 9184TIP3    H227517   1.490   6.708   3.439 -0.8719 -0.2900  2.4430
 9185TIP3   OH227518   5.297   5.931   0.424 -0.5133  0.4868 -0.0221
 9185TIP3    H127519   5.332   5.843   0.415 -1.2999  0.2033 -0.3097
 9185TIP3    H227520   5.204   5.919   0.442 -0.3318  1.2131  1.5989
 9186TIP3   OH227521   6.500   1.473   3.939  0.5241  0.4983  0.2449
 9186TIP3    H127522   6.453   1.554   3.958 -0.8653  0.1331 -1.4927
 9186TIP3    H227523   6.454   1.406   3.990 -0.1021  0.3508 -0.4967
 9187TIP3   OH227524   3.943   2.114   2.228 -0.3098 -0.2074 -0.3589
 9187TIP3    H127525   4.016   2.131   2.287 -0.5976 -2.3812  0.7469
 9187TIP3    H227526   3.921   2.199   2.191  2.0338  0.6874  0.1232
 9188TIP3   OH227527   2.012   5.964   3.882 -0.1497  0.9365 -0.0820
 9188TIP3    H127528   2.096   5.920   3.897  0.6593  1.7946 -1.7268
 9188TIP3    H227529   2.025   6.053   3.915 -1.2453  0.4593  1.7859
 9189TIP3   OH227530   0.458   2.530   3.044  0.4790 -0.6346  0.3618
 9189TIP3    H127531   0.521   2.540   3.116 -0.2690 -0.2028  0.9730
 9189TIP3    H227532   0.512   2.508   2.968  1.6158  1.8733  0.3614
 9190TIP3   OH227533   4.716   0.391   0.055 -0.2320 -0.0169  0.7583
 9190TIP3    H127534   4.693   0.445   0.131 -0.0576  0.9837  0.1282
 9190TIP3    H227535   4.727   0.303   0.090  2.5402  0.8532  2.4021
 9191TIP3   OH227536   5.150   2.912   3.651  0.0331  0.0538 -0.2222
 9191TIP3    H127537   5.199   2.837   3.686  2.1208  0.2442 -2.4764
 9191TIP3    H227538   5.175   2.985   3.707 -2.3777 -0.8419  2.2956
 9192TIP3   OH227539   0.340   2.969   2.309 -0.1638 -0.0008 -0.0547
 9192TIP3    H127540   0.350   3.038   2.375  1.2622 -1.0458  0.8933
 9192TIP3    H227541   0.280   3.006   2.244 -1.0800  1.3210  1.4745
 9193TIP3   OH227542   1.135   4.740   2.905 -0.0189 -0.8057  0.2522
 9193TIP3    H127543   1.207   4.757   2.845  0.0644 -1.2471  0.2247
 9193TIP3    H227544   1.074   4.812   2.890 -0.1695 -1.1043 -0.6136
 9194TIP3   OH227545   4.643   2.622   5.001 -0.2188 -0.3514  0.3137
 9194TIP3    H127546   4.664   2.558   5.069  1.3031  0.2488  0.4514
 9194TIP3    H227547   4.726   2.666   4.983 -1.0743  1.1004 -0.2819
 9195TIP3   OH227548   6.006   1.795   0.818  0.0592 -0.6414  0.3636
 9195TIP3    H127549   6.040   1.791   0.728  0.2284  0.4816  0.3554
 9195TIP3    H227550   5.918   1.760   0.812 -0.1896  0.0711 -0.3894
 9196TIP3   OH227551   2.042   5.601   2.893 -0.2019  0.0424  0.2709
 9196TIP3    H127552   2.060   5.653   2.971 -3.3813  1.8344 -0.0153
 9196TIP3    H227553   2.113   5.623   2.832 -0.1974  2.3316  1.0126
 9197TIP3   OH227554   0.926   3.485   1.843  0.0337  0.8543 -0.3722
 9197TIP3    H127555   0.987   3.460   1.913 -2.0730 -0.6834  1.0656
 9197TIP3    H227556   0.899   3.574   1.866  0.6725  1.0148 -0.2226
 9198TIP3   OH227557   3.774   0.289   5.586  0.3983  0.6915  0.2709
 9198TIP3    H127558   3.819   0.346   5.649 -0.6434  1.9813 -0.1157
 9198TIP3    H227559   3.682   0.295   5.609  0.1738 -0.2033 -0.3126
 9199TIP3   OH227560   3.074   5.192   3.224  0.8019 -0.5743 -0.2287
 9199TIP3    H127561   3.072   5.208   3.318 -0.8509  0.3825 -0.3886
 9199TIP3    H227562   3.006   5.249   3.188  0.7789 -1.5796 -1.9033
 9200TIP3   OH227563   2.333   2.375   2.498  0.2071 -0.1257 -0.5854
 9200TIP3    H127564   2.291   2.444   2.446 -2.5824  0.5525  2.2544
 9200TIP3    H227565   2.423   2.405   2.510 -0.0779  1.4353 -2.0100
 9201TIP3   OH227566   1.070   0.199   0.012  0.1851 -0.3757  0.2880
 9201TIP3    H127567   0.985   0.242   0.010 -0.3535 -1.4389 -0.2242
 9201TIP3    H227568   1.051   0.109   0.039  0.8839 -1.1764 -1.7238
 9202TIP3   OH227569   5.338   0.634   5.027 -0.5874 -0.0663  0.0182
 9202TIP3    H127570   5.401   0.563   5.033  0.1359  0.4650 -0.9454
 9202TIP3    H227571   5.384   0.703   4.980 -2.1179  0.0786 -1.3605
 9203TIP3   OH227572   4.730   3.681   0.529  0.0247  0.1129 -0.3517
 9203TIP3    H127573   4.758   3.659   0.439 -0.8876  0.4217 -0.7178
 9203TIP3    H227574   4.804   3.655   0.583  0.5139 -0.2687 -1.1762
 9204TIP3   OH227575   3.819   2.413   1.654 -0.3085 -0.3654  0.4175
 9204TIP3    H127576   3.824   2.405   1.558  0.8526 -0.3148  0.4555
 9204TIP3    H227577   3.772   2.495   1.669 -1.9897 -1.2068 -0.0807
 9205TIP3   OH227578   2.277   3.022   1.128 -0.1457  0.1583 -0.1434
 9205TIP3    H127579   2.259   3.054   1.216 -2.0018  2.6948 -1.3302
 9205TIP3    H227580   2.220   2.945   1.119  0.0605 -0.1279  0.8342
 9206TIP3   OH227581   7.040   3.050   2.413  0.7570 -0.2726 -0.2620
 9206TIP3    H127582   6.955   3.016   2.385  0.2617 -0.0588  0.8837
 9206TIP3    H227583   7.072   2.985   2.476  1.3002 -0.2040 -0.4669
 9207TIP3   OH227584   5.795   5.007   2.669 -0.1531  0.2917  0.5530
 9207TIP3    H127585   5.848   5.066   2.722  2.1162 -0.6369 -0.5231
 9207TIP3    H227586   5.859   4.949   2.627 -1.9601 -0.2466 -1.6620
 9208TIP3   OH227587   2.892   1.314   5.706 -0.0116  0.0548 -0.3680
 9208TIP3    H127588   2.970   1.337   5.757  0.2529  1.8661 -1.4933
 9208TIP3    H227589   2.925   1.302   5.616 -0.7035 -1.4623 -0.4400
 9209TIP3   OH227590   7.077   5.088   2.075 -0.4870  0.2312  0.3393
 9209TIP3    H127591   7.132   5.085   1.997 -0.7869 -1.4344  0.1578
 9209TIP3    H227592   7.083   5.000   2.112  0.7625  1.3042  3.0094
 9210TIP3   OH227593   4.504   5.771   1.658 -0.6648 -0.1680  0.6406
 9210TIP3    H127594   4.517   5.787   1.751  0.3174  0.9432  0.3413
 9210TIP3    H227595   4.461   5.851   1.626  0.2622  0.0676 -0.0877
 9211TIP3   OH227596   1.745   1.707   1.251  0.1489  0.1454  0.1481
 9211TIP3    H127597   1.827   1.672   1.285  0.5125 -0.1456 -1.0059
 9211TIP3    H227598   1.680   1.641   1.272  0.4961 -0.3596 -0.3482
 9212TIP3   OH227599   0.302   2.536   2.755  0.4431 -0.0227  0.5246
 9212TIP3    H127600   0.230   2.502   2.701 -1.6489  0.7417  2.6185
 9212TIP3    H227601   0.336   2.610   2.705  1.3466 -1.7215 -1.5331
 9213TIP3   OH227602   3.376   2.781   4.777 -0.2616  0.0999  0.3061
 9213TIP3    H127603   3.447   2.738   4.730 -1.3506 -0.1529 -1.1738
 9213TIP3    H227604   3.297   2.747   4.736 -1.2126  1.2968  1.1033
 9214TIP3   OH227605   2.832   2.939   3.231  0.2559  0.3756  0.2614
 9214TIP3    H127606   2.926   2.952   3.244  0.4310  0.3553 -0.8349
 9214TIP3    H227607   2.801   3.022   3.196 -0.0858  0.2987  0.3779
 9215TIP3   OH227608   1.424   3.343   2.916  0.2498  0.2864  0.6347
 9215TIP3    H127609   1.471   3.329   2.834 -1.5662 -0.6707 -0.3073
 9215TIP3    H227610   1.366   3.417   2.898 -0.2775 -0.0336  0.9868
 9216TIP3   OH227611   2.122   2.639   5.037  0.3706 -0.3746  0.3352
 9216TIP3    H127612   2.108   2.733   5.044  3.8521  0.2551  0.6519
 9216TIP3    H227613   2.101   2.605   5.124  0.4463  0.3754  0.6589
 9217TIP3   OH227614   0.894   0.111   1.745 -0.3990 -0.6418  0.7009
 9217TIP3    H127615   0.847   0.120   1.828  1.4733  0.5636  1.7017
 9217TIP3    H227616   0.928   0.198   1.727 -3.3404 -0.0156 -3.0557
 9218TIP3   OH227617   0.195   2.397   5.267  0.0093  0.0218  0.7081
 9218TIP3    H127618   0.187   2.448   5.187  2.7069  0.1132  0.3941
 9218TIP3    H227619   0.189   2.305   5.238 -1.7956  0.0690  0.8435
 9219TIP3   OH227620   4.117   6.373   0.596  0.8253  0.1010  0.0431
 9219TIP3    H127621   4.175   6.449   0.599  2.0966 -0.8596  1.0361
 9219TIP3    H227622   4.069   6.376   0.679  2.6115 -1.4201  1.2150
 9220TIP3   OH227623   3.363   1.598   2.267  0.1058 -0.3830  0.3268
 9220TIP3    H127624   3.445   1.645   2.278  0.8140 -1.4574 -0.1803
 9220TIP3    H227625   3.311   1.623   2.343  0.0871  1.8720 -0.3403
 9221TIP3   OH227626   2.539   3.855   1.644 -0.3034  0.8076  0.3347
 9221TIP3    H127627   2.601   3.924   1.668  0.7704  0.0920 -0.2981
 9221TIP3    H227628   2.592   3.790   1.598 -1.5798  0.3192 -0.5041
 9222TIP3   OH227629   4.271   6.014   5.469 -0.1108 -0.0869  0.4177
 9222TIP3    H127630   4.193   6.025   5.414 -0.1916  1.0587  0.7396
 9222TIP3    H227631   4.236   5.995   5.556 -0.0460  0.6114  0.6026
 9223TIP3   OH227632   5.363   4.200   4.669  0.1326  0.5211 -0.5067
 9223TIP3    H127633   5.451   4.216   4.704  0.6859  0.6573 -1.8837
 9223TIP3    H227634   5.377   4.142   4.595 -0.9606  0.4403 -0.6644
 9224TIP3   OH227635   0.248   4.446   4.800 -0.1448  0.5948  0.6567
 9224TIP3    H127636   0.205   4.369   4.763  0.4837  0.9229 -0.8348
 9224TIP3    H227637   0.189   4.519   4.780 -0.3154  0.6338  1.2796
 9225TIP3   OH227638   5.751   2.970   3.130  0.5119 -0.1647 -0.1525
 9225TIP3    H127639   5.686   3.006   3.070  1.2089  0.0412 -0.7863
 9225TIP3    H227640   5.835   3.002   3.098  0.8615  0.3826  1.2364
 9226TIP3   OH227641   6.239   3.067   2.791  0.0506 -0.5253  0.5356
 9226TIP3    H127642   6.222   2.977   2.818  0.1753 -0.2632  1.5512
 9226TIP3    H227643   6.163   3.117   2.822 -0.3928 -0.3933 -0.7130
 9227TIP3   OH227644   4.224   0.271   4.602  0.7647 -0.2092  0.2342
 9227TIP3    H127645   4.247   0.277   4.695 -2.2130 -0.3502  1.0670
 9227TIP3    H227646   4.187   0.356   4.580  0.4433 -0.5315 -0.5107
 9228TIP3   OH227647   5.343   3.039   4.680 -0.7655  0.4409 -0.1666
 9228TIP3    H127648   5.388   3.082   4.754 -2.0137  0.1827  0.7817
 9228TIP3    H227649   5.408   3.038   4.610  0.6773  0.1371  1.1247
 9229TIP3   OH227650   2.038   1.280   5.107 -0.3524 -0.0721 -0.0682
 9229TIP3    H127651   1.983   1.243   5.177  0.0053 -1.7680 -0.6430
 9229TIP3    H227652   2.079   1.204   5.066  0.1439  0.9593 -1.5559
 9230TIP3   OH227653   6.103   4.263   4.258  0.0313  0.6991 -0.2751
 9230TIP3    H127654   6.052   4.340   4.231  0.2012  1.4834  1.5145
 9230TIP3    H227655   6.038   4.193   4.266 -0.0646  0.4907 -2.3529
 9231TIP3   OH227656   4.585   4.443   3.501 -0.3855 -0.0069 -0.3005
 9231TIP3    H127657   4.558   4.534   3.518 -1.4900 -0.4966  0.7526
 9231TIP3    H227658   4.559   4.427   3.411 -0.5888  0.5988 -0.3591
 9232TIP3   OH227659   5.675   1.184   2.331  0.3319 -0.1516 -0.4629
 9232TIP3    H127660   5.685   1.234   2.250  2.2461  0.6991  0.2521
 9232TIP3    H227661   5.670   1.249   2.400  1.5061 -0.8830  0.3539
 9233TIP3   OH227662   1.741   2.831   2.104  0.1335  0.5454  0.1061
 9233TIP3    H127663   1.801   2.827   2.178 -1.3257 -2.9890  1.2924
 9233TIP3    H227664   1.657   2.858   2.142 -0.6467 -1.3796 -0.1029
 9234TIP3   OH227665   3.068   0.049   5.593  0.4456 -0.0692 -1.0066
 9234TIP3    H127666   3.141   0.105   5.566  0.7182  0.1665  0.1528
 9234TIP3    H227667   3.039   0.006   5.512  2.2782 -0.6518 -1.4054
 9235TIP3   OH227668   3.864   4.265   0.065  0.9913  0.0605 -0.1028
 9235TIP3    H127669   3.953   4.256   0.100  0.6137  0.4571  1.0101
 9235TIP3    H227670   3.843   4.357   0.078  0.7490  0.1800 -1.2258
 9236TIP3   OH227671   3.317   2.161   2.241  0.0208  0.3969  0.1739
 9236TIP3    H127672   3.322   2.179   2.147  1.2289  1.8299  0.4690
 9236TIP3    H227673   3.398   2.113   2.260 -0.2762  0.0094  0.4544
 9237TIP3   OH227674   5.801   6.609   3.580 -0.7348  0.3590  0.2008
 9237TIP3    H127675   5.832   6.549   3.648 -0.0967  0.0822 -0.3302
 9237TIP3    H227676   5.821   6.565   3.498 -2.1322  0.3724 -0.1811
 9238TIP3   OH227677   0.767   3.048   2.122 -0.2321 -0.4294  0.6044
 9238TIP3    H127678   0.783   2.960   2.089  0.3424 -0.6301  1.3888
 9238TIP3    H227679   0.817   3.052   2.203  1.7726  1.4741 -0.6418
 9239TIP3   OH227680   6.937   2.765   3.486  0.3924 -0.3072  0.0836
 9239TIP3    H127681   6.968   2.680   3.517 -2.0601 -1.4390 -0.3708
 9239TIP3    H227682   6.927   2.754   3.391  1.6270  1.0680 -0.2588
 9240TIP3   OH227683   6.334   1.349   5.463 -0.0534  0.9830 -0.1648
 9240TIP3    H127684   6.349   1.330   5.370  2.9134 -1.6876  0.6833
 9240TIP3    H227685   6.413   1.395   5.491  0.9530 -1.6853  1.7687
 9241TIP3   OH227686   5.706   6.491   1.123  0.0021 -0.0035 -0.1174
 9241TIP3    H127687   5.669   6.474   1.210  1.1584  0.1916  0.4352
 9241TIP3    H227688   5.630   6.515   1.070 -0.5988  1.0698  1.1485
 9242TIP3   OH227689   0.763   6.362   0.244 -0.6951 -0.4456  0.2069
 9242TIP3    H127690   0.759   6.304   0.320  0.6541 -1.1504 -0.2200
 9242TIP3    H227691   0.850   6.401   0.249 -1.8280  2.1754  0.8898
 9243TIP3   OH227692   4.844   3.467   5.438  0.0574 -0.5460  0.1549
 9243TIP3    H127693   4.799   3.548   5.413  0.7470 -0.3960 -0.6570
 9243TIP3    H227694   4.789   3.429   5.507 -0.3932  0.4979  0.3915
 9244TIP3   OH227695   3.980   3.449   5.380 -0.1714  0.4153  0.0239
 9244TIP3    H127696   4.056   3.445   5.438  0.0465 -0.5147 -0.3168
 9244TIP3    H227697   3.926   3.519   5.417 -0.5341 -0.7969  1.9479
 9245TIP3   OH227698   5.352   5.139   3.925 -0.5934 -0.3486 -0.3539
 9245TIP3    H127699   5.290   5.169   3.991 -1.0362 -0.0063 -0.9116
 9245TIP3    H227700   5.431   5.191   3.940 -0.7054 -0.2453 -0.1215
 9246TIP3   OH227701   4.752   2.248   4.362  0.3195  0.6833  0.1261
 9246TIP3    H127702   4.779   2.268   4.272  2.9408  1.1294  0.9223
 9246TIP3    H227703   4.759   2.153   4.368 -1.1068  0.5147 -0.4568
 9247TIP3   OH227704   1.727   5.719   4.272  0.5822 -0.4241 -0.6895
 9247TIP3    H127705   1.643   5.707   4.229 -0.4853  0.1818  1.1013
 9247TIP3    H227706   1.763   5.798   4.233 -0.4210  0.1943 -0.3844
 9248TIP3   OH227707   6.455   1.581   3.153  0.1078  0.4288 -0.4305
 9248TIP3    H127708   6.528   1.558   3.096  0.5318  0.4888  0.0789
 9248TIP3    H227709   6.496   1.612   3.234 -0.4742  1.0001 -0.3433
 9249TIP3   OH227710   0.956   5.489   1.307  0.2237  0.0920  0.0156
 9249TIP3    H127711   0.972   5.583   1.312  0.6375 -0.0011  0.5069
 9249TIP3    H227712   1.017   5.451   1.369 -1.0976 -0.3771  1.0695
 9250TIP3   OH227713   3.920   3.201   1.339 -0.4133 -0.8842  0.4323
 9250TIP3    H127714   3.830   3.174   1.358 -0.7860  0.9229  1.6229
 9250TIP3    H227715   3.919   3.296   1.352  1.1780 -0.5141 -1.6715
 9251TIP3   OH227716   4.540   4.391   1.463 -0.2043  0.3497  0.2091
 9251TIP3    H127717   4.582   4.323   1.515  0.0290  0.6521  0.4230
 9251TIP3    H227718   4.561   4.473   1.509  2.4755  0.9619 -1.8800
 9252TIP3   OH227719   1.104   5.288   4.786 -0.4043  0.0962 -0.5078
 9252TIP3    H127720   1.064   5.373   4.806  1.9556  1.6211 -1.7617
 9252TIP3    H227721   1.052   5.225   4.835 -0.3323  2.5703  3.1614
 9253TIP3   OH227722   3.443   2.326   2.553  0.2963 -0.5502  0.3070
 9253TIP3    H127723   3.432   2.419   2.532  1.9283  0.1286  2.1092
 9253TIP3    H227724   3.362   2.302   2.598  1.8624  1.7279  5.0129
 9254TIP3   OH227725   1.254   5.023   5.116  0.2043 -0.3476  0.0959
 9254TIP3    H127726   1.244   4.970   5.194  0.2588 -0.2258  0.1870
 9254TIP3    H227727   1.268   5.112   5.149 -2.0941  0.1326 -0.0604
 9255TIP3   OH227728   6.144   6.186   2.659  0.1950 -0.0833  0.1242
 9255TIP3    H127729   6.112   6.127   2.727  0.2204 -0.2727 -0.0272
 9255TIP3    H227730   6.220   6.141   2.622 -1.4032 -1.3387 -1.9269
 9256TIP3   OH227731   7.059   0.758   1.454 -0.1130  0.3499 -0.0639
 9256TIP3    H127732   7.103   0.693   1.399 -1.7963 -0.4725 -0.5228
 9256TIP3    H227733   7.040   0.711   1.536 -0.6300  0.4952 -0.0954
 9257TIP3   OH227734   3.690   4.274   0.941  0.1272 -0.1063  0.0442
 9257TIP3    H127735   3.746   4.212   0.987  1.2419  1.2203  0.5192
 9257TIP3    H227736   3.712   4.359   0.978 -0.7077  0.7025 -1.2342
 9258TIP3   OH227737   1.604   6.125   2.015  0.3920  0.2493  0.0529
 9258TIP3    H127738   1.670   6.195   2.012  0.3983  0.2225 -0.5584
 9258TIP3    H227739   1.550   6.146   2.091 -0.0609  1.3508 -0.5457
 9259TIP3   OH227740   5.487   4.568   3.201  0.0643  0.3059 -0.5990
 9259TIP3    H127741   5.446   4.601   3.281  2.8284  1.0250  0.6201
 9259TIP3    H227742   5.471   4.474   3.203 -1.4875  0.5525 -0.1945
 9260TIP3   OH227743   6.648   1.228   5.495 -0.0185  0.5274  0.3636
 9260TIP3    H127744   6.674   1.313   5.532 -0.0035  1.0275 -0.7610
 9260TIP3    H227745   6.710   1.213   5.424 -1.1651  0.4905 -0.6682
 9261TIP3   OH227746   7.172   4.836   5.759 -0.8144  0.4895 -0.0710
 9261TIP3    H127747   7.116   4.838   5.682  0.6369 -0.0316 -1.1829
 9261TIP3    H227748   7.221   4.754   5.752 -0.1617  0.7534  1.0503
 9262TIP3   OH227749   0.780   6.487   2.370 -0.4049 -0.4260 -0.2989
 9262TIP3    H127750   0.777   6.497   2.465 -2.4092  0.2488 -0.3882
 9262TIP3    H227751   0.871   6.463   2.351 -0.3491 -2.3011  1.9215
 9263TIP3   OH227752   2.966   4.987   0.222  0.3721  0.4761 -0.5532
 9263TIP3    H127753   2.939   5.003   0.132  1.0986  1.2069 -0.6578
 9263TIP3    H227754   2.996   5.072   0.253  3.3597 -0.3775 -0.7509
 9264TIP3   OH227755   0.399   6.268   5.024  0.0157 -0.2783 -0.1958
 9264TIP3    H127756   0.355   6.322   4.958 -0.4633  1.9076  1.7775
 9264TIP3    H227757   0.491   6.270   4.998  0.1076  2.0679  0.1000
 9265TIP3   OH227758   0.231   6.270   0.193  0.3670 -0.1263  0.3174
 9265TIP3    H127759   0.284   6.286   0.272 -0.1854  1.0043  0.4686
 9265TIP3    H227760   0.259   6.337   0.131  0.4397 -0.6999 -0.2881
 9266TIP3   OH227761   1.196   5.310   0.923  0.4245  0.3813 -0.3244
 9266TIP3    H127762   1.179   5.403   0.910 -2.7145  0.1184  0.9109
 9266TIP3    H227763   1.182   5.270   0.838  0.7599  0.9311 -0.6390
 9267TIP3   OH227764   4.769   2.630   3.397  0.2486 -0.4687  0.1671
 9267TIP3    H127765   4.702   2.650   3.462  0.9434 -1.1436  1.1244
 9267TIP3    H227766   4.814   2.553   3.433  1.2973 -0.2366 -0.6237
 9268TIP3   OH227767   5.205   1.409   0.373  0.0814  0.4182  0.3704
 9268TIP3    H127768   5.129   1.456   0.408  0.3057  1.3592 -0.3620
 9268TIP3    H227769   5.214   1.332   0.429 -1.5164  0.1981  0.3665
 9269TIP3   OH227770   2.989   4.900   0.634 -0.0115  0.5355  0.0808
 9269TIP3    H127771   2.924   4.902   0.704  0.1289  1.1736  0.2006
 9269TIP3    H227772   2.991   4.990   0.600  0.6763  0.4844 -0.0403
 9270TIP3   OH227773   2.539   1.975   5.277 -0.2948 -0.3728 -0.1742
 9270TIP3    H127774   2.447   1.947   5.279 -0.7978  0.7923 -2.7762
 9270TIP3    H227775   2.586   1.901   5.239 -0.4592 -0.3110 -0.5011
 9271TIP3   OH227776   3.153   4.272   2.577 -0.9913  0.4075  0.1738
 9271TIP3    H127777   3.211   4.203   2.545  0.5074  1.6145  0.1656
 9271TIP3    H227778   3.087   4.282   2.508 -2.1641 -2.0127  0.8498
 9272TIP3   OH227779   5.361   5.152   1.745 -0.1636  0.4495 -0.0152
 9272TIP3    H127780   5.367   5.081   1.809 -0.8069 -0.8670 -1.3755
 9272TIP3    H227781   5.300   5.120   1.678  0.4091  1.8256 -1.2516
 9273TIP3   OH227782   2.588   6.226   3.355 -0.8835  0.3677 -0.4608
 9273TIP3    H127783   2.620   6.279   3.428  2.0780 -0.0341 -1.3063
 9273TIP3    H227784   2.504   6.265   3.331 -2.7098 -0.2591  3.8825
 9274TIP3   OH227785   4.708   6.236   2.814  0.0928 -0.3838 -0.7442
 9274TIP3    H127786   4.656   6.182   2.755 -1.7873  1.4213 -0.8443
 9274TIP3    H227787   4.692   6.199   2.901  1.1212 -1.6950 -1.0799
 9275TIP3   OH227788   6.646   5.569   1.936  0.5405 -0.1135 -0.1119
 9275TIP3    H127789   6.553   5.587   1.919  0.2893 -0.9512  0.3508
 9275TIP3    H227790   6.646   5.523   2.020  1.5342  1.5891  0.8793
 9276TIP3   OH227791   3.012   5.574   1.285  0.1379  0.7719 -0.2589
 9276TIP3    H127792   2.976   5.642   1.342 -0.3943 -0.6566  1.1712
 9276TIP3    H227793   2.982   5.599   1.197 -2.7018  0.7639  0.6080
 9277TIP3   OH227794   5.477   2.971   4.197 -0.3413 -0.1506  0.2398
 9277TIP3    H127795   5.447   2.900   4.140 -0.4253 -1.0856  1.3945
 9277TIP3    H227796   5.501   2.927   4.279 -0.7870  1.2067  1.1356
 9278TIP3   OH227797   1.080   3.440   0.965 -0.3138 -0.0901  0.1609
 9278TIP3    H127798   1.013   3.462   0.900 -0.9212  1.4693  1.2555
 9278TIP3    H227799   1.032   3.391   1.032  0.2674 -1.5072 -0.4167
 9279TIP3   OH227800   6.861   3.530   0.297  0.3463  0.0189  1.1196
 9279TIP3    H127801   6.934   3.579   0.258  0.3586 -0.9971 -0.2116
 9279TIP3    H227802   6.896   3.442   0.310 -1.0300 -0.9443 -1.0140
 9280TIP3   OH227803   6.551   2.469   3.948  0.0042 -0.1035  0.3274
 9280TIP3    H127804   6.565   2.516   4.031  0.2143  1.3958 -0.5082
 9280TIP3    H227805   6.489   2.400   3.969 -1.4807  1.4540  1.3512
 9281TIP3   OH227806   2.268   2.362   5.123 -0.4006  0.0767  0.2818
 9281TIP3    H127807   2.261   2.435   5.061  0.5244  1.1237  1.3722
 9281TIP3    H227808   2.362   2.345   5.129 -0.4870 -0.1053  1.2871
 9282TIP3   OH227809   4.768   5.399   0.201  0.3764 -0.3476  0.3127
 9282TIP3    H127810   4.838   5.434   0.146  0.7658 -0.1529  0.9153
 9282TIP3    H227811   4.791   5.428   0.290 -0.4968 -0.2323  0.5101
 9283TIP3   OH227812   7.050   0.758   4.726  0.6366  0.6824 -0.0428
 9283TIP3    H127813   7.036   0.689   4.661 -0.9409  0.5808  0.3713
 9283TIP3    H227814   6.966   0.767   4.771  0.7504  2.9253 -0.1242
 9284TIP3   OH227815   2.546   6.634   3.233 -0.4285 -0.3521 -0.5120
 9284TIP3    H127816   2.628   6.596   3.265 -1.5142 -1.8564  0.6118
 9284TIP3    H227817   2.557   6.637   3.138  0.3959 -1.8940 -0.4945
 9285TIP3   OH227818   5.677   5.999   5.111 -0.0547  0.1447 -0.3298
 9285TIP3    H127819   5.739   5.976   5.180  0.5545  1.2152 -0.5091
 9285TIP3    H227820   5.728   6.049   5.048 -0.8722  0.1660 -0.9947
 9286TIP3   OH227821   0.571   5.432   0.931 -0.0860  0.2965  0.1860
 9286TIP3    H127822   0.499   5.370   0.940  0.4732 -0.5283 -0.7834
 9286TIP3    H227823   0.611   5.410   0.847  0.9981  1.0517  0.4838
 9287TIP3   OH227824   5.634   5.364   3.218 -0.2080 -0.3293 -0.1342
 9287TIP3    H127825   5.641   5.456   3.243  1.9758 -0.6771  0.7815
 9287TIP3    H227826   5.683   5.317   3.286 -0.0409 -2.0281 -1.3659
 9288TIP3   OH227827   5.959   2.129   1.110 -0.5979 -0.3453  0.0607
 9288TIP3    H127828   6.002   2.107   1.028 -3.1119  1.9229 -2.0700
 9288TIP3    H227829   5.902   2.054   1.128 -0.8992 -0.3782 -0.9614
 9289TIP3   OH227830   0.332   3.690   1.039  0.0331  0.0010 -0.0686
 9289TIP3    H127831   0.307   3.726   0.954 -0.9740 -1.0905 -0.2558
 9289TIP3    H227832   0.409   3.636   1.021 -0.0072 -0.0024 -0.2324
 9290TIP3   OH227833   5.935   2.598   3.588  0.4093  0.2260 -0.4581
 9290TIP3    H127834   5.916   2.663   3.655 -1.3932 -1.0403  0.3443
 9290TIP3    H227835   6.031   2.592   3.587  0.5393  1.6529  0.6333
 9291TIP3   OH227836   3.009   5.919   3.883 -0.3955 -0.3093  0.3883
 9291TIP3    H127837   3.036   5.940   3.972  0.7291 -1.4391  0.3443
 9291TIP3    H227838   2.995   6.005   3.842  2.1761  0.3786  0.7444
 9292TIP3   OH227839   6.497   6.552   4.456  0.3312 -0.6556 -0.9149
 9292TIP3    H127840   6.402   6.554   4.463  0.4432  0.1961  0.8175
 9292TIP3    H227841   6.520   6.459   4.460 -0.5107 -1.0812 -3.7465
 9293TIP3   OH227842   1.421   0.244   1.078  0.5000 -0.2741  0.3704
 9293TIP3    H127843   1.459   0.198   1.003 -0.9461 -1.6512  0.4135
 9293TIP3    H227844   1.394   0.329   1.044  0.8244 -0.4750 -0.4015
 9294TIP3   OH227845   6.295   4.970   5.310 -0.3427  0.1339  0.3114
 9294TIP3    H127846   6.338   4.923   5.239  1.1598  2.4784 -0.4835
 9294TIP3    H227847   6.342   4.942   5.389 -0.5703 -0.8769  0.0999
 9295TIP3   OH227848   5.299   5.619   4.514 -0.4013 -0.2317  0.4887
 9295TIP3    H127849   5.353   5.607   4.435  0.8786 -2.2731  1.5788
 9295TIP3    H227850   5.317   5.709   4.541 -0.6389  0.4119 -1.3648
 9296TIP3   OH227851   2.234   3.947   5.191  0.3218 -0.0876  0.0406
 9296TIP3    H127852   2.167   3.992   5.243  1.7518  0.4661  1.4721
 9296TIP3    H227853   2.254   3.868   5.241 -1.4559 -1.9460 -1.9634
 9297TIP3   OH227854   1.100   0.419   1.044 -0.4298 -0.4127  0.2237
 9297TIP3    H127855   1.176   0.457   0.999  0.3473 -1.8618  0.2828
 9297TIP3    H227856   1.122   0.424   1.137 -0.5059 -0.6272  0.2537
 9298TIP3   OH227857   5.484   0.416   3.501  0.1648 -0.3397  0.0612
 9298TIP3    H127858   5.524   0.376   3.424 -1.2204  0.8532 -1.3332
 9298TIP3    H227859   5.468   0.342   3.560 -0.3924 -1.5693 -1.5484
 9299TIP3   OH227860   3.428   2.523   5.442 -0.2536 -0.7761 -0.2927
 9299TIP3    H127861   3.397   2.602   5.399 -4.8507 -2.6986 -1.0657
 9299TIP3    H227862   3.505   2.496   5.391  1.1782  2.7764 -0.2677
 9300TIP3   OH227863   5.966   4.536   4.247  0.1477  0.3548 -0.6759
 9300TIP3    H127864   5.924   4.579   4.321  0.6923 -1.6073  0.8606
 9300TIP3    H227865   6.039   4.593   4.225 -0.5603  1.4323 -0.3108
 9301TIP3   OH227866   0.964   2.949   3.981  0.2395 -0.0162  0.0368
 9301TIP3    H127867   0.984   2.879   3.919  1.3172 -0.1765  0.5421
 9301TIP3    H227868   0.874   2.931   4.009  0.6421 -1.4493  0.4873
 9302TIP3   OH227869   3.906   3.514   3.670 -0.2140 -0.2169  0.2895
 9302TIP3    H127870   3.817   3.548   3.660 -0.5660 -1.6576 -2.6055
 9302TIP3    H227871   3.895   3.426   3.704 -0.2107 -1.4173 -2.5565
 9303TIP3   OH227872   1.966   1.310   4.246  0.5774  0.2823  0.1196
 9303TIP3    H127873   1.876   1.282   4.230  0.3255  1.1852 -0.0703
 9303TIP3    H227874   1.983   1.378   4.180  1.7450 -0.5903 -0.5320
 9304TIP3   OH227875   5.485   1.399   3.532 -0.0142  0.1730  0.2984
 9304TIP3    H127876   5.464   1.491   3.548 -0.4095  0.0522  0.4669
 9304TIP3    H227877   5.401   1.356   3.521  0.1252 -0.3757  1.3228
 9305TIP3   OH227878   5.014   3.714   0.753  0.0517 -0.3018  0.1827
 9305TIP3    H127879   5.107   3.738   0.754 -0.2335  0.8592 -0.1940
 9305TIP3    H227880   4.989   3.710   0.845 -0.0896  1.6862  0.2579
 9306TIP3   OH227881   0.877   2.929   2.380 -0.7229  0.1226 -0.4768
 9306TIP3    H127882   0.876   3.006   2.438 -1.4369  0.4788 -0.9422
 9306TIP3    H227883   0.953   2.943   2.323 -0.9829  0.6070 -0.7118
 9307TIP3   OH227884   3.442   1.956   4.120 -0.4805 -0.3840  0.1783
 9307TIP3    H127885   3.499   2.030   4.100  0.0605 -1.1356 -1.1826
 9307TIP3    H227886   3.354   1.990   4.108 -0.2189 -0.3429 -2.0636
 9308TIP3   OH227887   2.178   4.018   0.435  0.9755 -0.0735  0.6988
 9308TIP3    H127888   2.243   3.957   0.402 -0.4499 -0.9856 -0.5493
 9308TIP3    H227889   2.135   3.971   0.507  1.2845  0.3159  1.1512
 9309TIP3   OH227890   3.059   3.102   4.973  0.0188 -0.0267  0.2004
 9309TIP3    H127891   3.067   3.148   4.890  1.3275  0.5421  0.6191
 9309TIP3    H227892   3.022   3.017   4.950 -0.0966  0.3141 -0.8942
 9310TIP3   OH227893   6.075   3.129   4.271 -0.3443  0.5278  0.1535
 9310TIP3    H127894   6.052   3.094   4.357  0.1974  0.4623  0.2697
 9310TIP3    H227895   6.069   3.054   4.212 -0.4991  0.5261  0.1710
 9311TIP3   OH227896   3.824   4.682   0.350  0.2562 -0.7738  0.3124
 9311TIP3    H127897   3.863   4.663   0.435  1.5594 -3.5215 -0.7945
 9311TIP3    H227898   3.867   4.622   0.289 -1.0464  0.6777 -2.2164
 9312TIP3   OH227899   7.059   5.767   5.043 -0.1583 -0.0132  0.4945
 9312TIP3    H127900   7.068   5.717   4.961 -1.4635 -0.1810  0.4355
 9312TIP3    H227901   7.033   5.702   5.108  1.5526 -0.0066  1.2343
 9313TIP3   OH227902   2.097   1.586   4.300  0.0702  0.0762  0.3357
 9313TIP3    H127903   2.098   1.562   4.393  0.7340 -1.0202  0.0629
 9313TIP3    H227904   2.098   1.682   4.300  0.5784  0.0860  1.4633
 9314TIP3   OH227905   5.376   4.765   5.364 -0.0432 -0.5786  0.6514
 9314TIP3    H127906   5.444   4.825   5.334  0.0451 -0.2336  1.5220
 9314TIP3    H227907   5.337   4.808   5.439  0.5054 -1.9091  1.7565
 9315TIP3   OH227908   3.633   5.806   3.915  0.0602  0.5325 -0.1013
 9315TIP3    H127909   3.585   5.774   3.838  0.1598  1.3272 -0.5088
 9315TIP3    H227910   3.662   5.894   3.890  0.4416  0.6448  0.7015
 9316TIP3   OH227911   6.743   5.490   5.280 -0.2148 -0.3884  0.0251
 9316TIP3    H127912   6.796   5.558   5.321 -0.4312  0.9099 -1.7223
 9316TIP3    H227913   6.791   5.409   5.295  0.3384  0.1974  1.6752
 9317TIP3   OH227914   3.069   3.684   4.951  0.0053 -0.1209  1.0270
 9317TIP3    H127915   3.048   3.771   4.986 -0.0365 -0.2966  1.4392
 9317TIP3    H227916   3.006   3.626   4.993 -0.4984 -0.2366  0.1333
 9318TIP3   OH227917   4.845   1.163   2.673 -1.0170 -0.8810 -0.2887
 9318TIP3    H127918   4.851   1.254   2.702 -1.7683 -1.0514  0.4381
 9318TIP3    H227919   4.788   1.166   2.596 -0.4994 -0.6614 -0.6727
 9319TIP3   OH227920   6.054   1.971   3.147 -0.4739 -0.2069  0.5792
 9319TIP3    H127921   6.064   2.064   3.128 -1.5450  0.2062  1.9181
 9319TIP3    H227922   6.130   1.930   3.106 -0.1169  1.2171 -0.2399
 9320TIP3   OH227923   6.836   3.538   4.084  0.2162 -0.3830 -0.3809
 9320TIP3    H127924   6.841   3.570   4.174 -2.2454 -1.3863  0.1918
 9320TIP3    H227925   6.793   3.609   4.035 -0.8645 -0.8553 -0.1499
 9321TIP3   OH227926   0.205   2.741   2.948  0.4791  0.0131 -0.1411
 9321TIP3    H127927   0.219   2.762   3.041 -2.3351 -0.5147  0.4891
 9321TIP3    H227928   0.256   2.662   2.934 -0.8865 -1.2757  1.6727
 9322TIP3   OH227929   1.570   3.325   1.194  0.1017 -0.2049 -0.4511
 9322TIP3    H127930   1.484   3.324   1.152  0.1741 -1.1708 -0.5946
 9322TIP3    H227931   1.618   3.394   1.149 -0.2482 -0.3766 -1.0890
 9323TIP3   OH227932   5.386   0.149   1.078  0.3635  0.2762 -0.5382
 9323TIP3    H127933   5.384   0.142   0.982  0.5367 -0.3520 -0.5013
 9323TIP3    H227934   5.462   0.204   1.096  0.0005  0.8666 -0.7813
 9324TIP3   OH227935   7.083   2.260   2.885  0.1029 -0.4510 -0.1611
 9324TIP3    H127936   7.149   2.196   2.912 -1.1732 -1.8432 -0.1828
 9324TIP3    H227937   7.132   2.341   2.871  1.8465 -1.5210 -0.5319
 9325TIP3   OH227938   6.994   4.574   5.396  0.2271  0.3871  0.0273
 9325TIP3    H127939   7.049   4.512   5.347 -0.2698  0.9437 -1.2796
 9325TIP3    H227940   6.928   4.603   5.333 -0.0304  1.6502  0.8352
 9326TIP3   OH227941   0.692   3.379   4.330 -0.3411 -0.0106 -0.1808
 9326TIP3    H127942   0.654   3.291   4.342 -1.2630  0.2962 -0.7777
 9326TIP3    H227943   0.758   3.367   4.262  2.5895 -1.0855  2.5850
 9327TIP3   OH227944   6.980   6.389   5.602 -0.3931  0.4360  0.0269
 9327TIP3    H127945   6.910   6.368   5.662 -0.9422  1.1235 -0.3563
 9327TIP3    H227946   6.942   6.377   5.515  0.2184  0.0088 -0.1940
 9328TIP3   OH227947   4.750   3.758   0.121 -0.1569  0.0935  0.6742
 9328TIP3    H127948   4.843   3.747   0.143  0.0202  1.2253  0.5530
 9328TIP3    H227949   4.749   3.767   0.025 -0.2854  0.9514  0.7488
 9329TIP3   OH227950   3.970   4.420   0.918 -0.0045  0.3845 -0.0365
 9329TIP3    H127951   3.916   4.451   0.845 -0.8735 -1.9693 -0.5002
 9329TIP3    H227952   4.013   4.498   0.952 -1.5415  1.9224 -1.4634
 9330TIP3   OH227953   0.124   1.608   5.476  0.2920 -0.0944 -0.6091
 9330TIP3    H127954   0.149   1.659   5.553  0.6897  0.7532 -1.2806
 9330TIP3    H227955   0.183   1.533   5.477  1.0292  0.4718 -0.6716
 9331TIP3   OH227956   4.359   5.732   3.795  0.4525 -0.3601 -0.0076
 9331TIP3    H127957   4.428   5.797   3.778  0.6719 -0.2257  1.2884
 9331TIP3    H227958   4.359   5.723   3.890 -2.2048  0.5950  0.1538
 9332TIP3   OH227959   6.512   1.458   4.905  0.0760 -0.0834 -0.3150
 9332TIP3    H127960   6.570   1.424   4.837 -0.6521 -1.0712 -0.4507
 9332TIP3    H227961   6.541   1.415   4.986 -0.2439 -0.3152 -0.3232
 9333TIP3   OH227962   1.141   6.752   0.778  0.5273  0.6105 -0.5080
 9333TIP3    H127963   1.181   6.694   0.714  0.5138 -0.3399  0.3199
 9333TIP3    H227964   1.058   6.709   0.802  2.1872 -1.1260  2.9170
 9334TIP3   OH227965   0.608   1.196   1.538 -0.0131  0.7027  0.5442
 9334TIP3    H127966   0.658   1.125   1.577  0.7956  0.3622 -1.0314
 9334TIP3    H227967   0.622   1.270   1.596  0.1182 -0.1066  1.5627
 9335TIP3   OH227968   5.941   5.675   3.161  0.2519 -0.3514  0.1728
 9335TIP3    H127969   5.985   5.595   3.191  1.3325  0.1794  0.0574
 9335TIP3    H227970   6.005   5.745   3.177 -1.5328  0.8982  2.5920
 9336TIP3   OH227971   2.129   4.226   4.462  0.4197 -0.4209  0.2528
 9336TIP3    H127972   2.115   4.132   4.450 -1.2479 -0.1513 -0.1759
 9336TIP3    H227973   2.056   4.267   4.415  1.7368  1.1326 -0.5417
 9337TIP3   OH227974   4.221   2.267   1.842  0.2834  0.0028 -0.6439
 9337TIP3    H127975   4.133   2.302   1.844 -0.1542 -1.0800  0.1445
 9337TIP3    H227976   4.277   2.339   1.870 -0.7382 -0.3090  2.6330
 9338TIP3   OH227977   4.923   4.347   1.078  0.8979  0.3028 -0.4027
 9338TIP3    H127978   4.901   4.367   1.169  1.3302  1.4494 -0.5273
 9338TIP3    H227979   4.854   4.286   1.049  0.8864 -0.2616  0.7450
 9339TIP3   OH227980   0.632   5.967   5.461 -0.0837 -0.1611 -0.1011
 9339TIP3    H127981   0.705   5.931   5.512 -0.5169 -0.6179  0.2083
 9339TIP3    H227982   0.570   5.998   5.527  0.7160  2.1405 -0.3391
 9340TIP3   OH227983   3.279   1.772   3.726 -0.2201 -0.3595 -0.8098
 9340TIP3    H127984   3.318   1.753   3.811 -0.5317 -0.0222 -0.5864
 9340TIP3    H227985   3.284   1.867   3.718 -0.7062 -0.3375 -0.9117
 9341TIP3   OH227986   5.821   1.104   4.724 -0.4361 -0.6159  0.1813
 9341TIP3    H127987   5.779   1.190   4.731  0.5498 -0.0498 -0.5528
 9341TIP3    H227988   5.786   1.054   4.797 -0.6626  0.5699  0.9150
 9342TIP3   OH227989   3.378   2.929   2.051  0.2055  0.4433 -0.1955
 9342TIP3    H127990   3.446   2.930   1.984 -0.6605 -0.9304 -1.1260
 9342TIP3    H227991   3.298   2.954   2.005 -0.1107  1.1861  0.7132
 9343TIP3   OH227992   1.294   3.102   1.410 -0.0158  0.0233 -0.0341
 9343TIP3    H127993   1.209   3.118   1.369 -0.6372  2.2048  1.8728
 9343TIP3    H227994   1.272   3.071   1.498  1.1201  1.0789  0.6473
 9344TIP3   OH227995   5.647   0.200   2.791 -0.0881  0.1560 -0.2202
 9344TIP3    H127996   5.694   0.283   2.794  1.0454 -0.4475 -0.4986
 9344TIP3    H227997   5.688   0.152   2.719 -1.9413  0.0531 -1.2610
 9345TIP3   OH227998   6.522   4.488   3.019  0.4796 -0.5179 -0.8233
 9345TIP3    H127999   6.474   4.428   3.076 -0.8246 -0.8855 -2.2585
 9345TIP3    H228000   6.600   4.510   3.069 -1.3757  0.4998  1.8203
 9346TIP3   OH228001   3.139   2.014   5.374 -0.0635 -0.2533 -0.0933
 9346TIP3    H128002   3.156   1.977   5.461  1.6281 -2.1296 -1.1272
 9346TIP3    H228003   3.197   2.090   5.368  1.4590 -1.3787 -0.3026
 9347TIP3   OH228004   5.436   6.039   1.714  0.5317 -0.8419  0.4351
 9347TIP3    H128005   5.351   6.063   1.751  1.1120  1.3118  0.5131
 9347TIP3    H228006   5.494   6.034   1.789  1.0821  0.6173  0.1306
 9348TIP3   OH228007   5.400   5.178   0.141  0.1705  0.3087 -0.2506
 9348TIP3    H128008   5.356   5.184   0.226  0.9156 -0.5248  0.2252
 9348TIP3    H228009   5.479   5.126   0.160  0.2312 -0.0747 -1.4957
 9349TIP3   OH228010   3.629   3.698   1.249 -0.2429 -0.6384 -0.8681
 9349TIP3    H128011   3.655   3.673   1.160 -0.7043 -0.1062 -1.1620
 9349TIP3    H228012   3.595   3.787   1.239  0.9753 -0.0417  0.0722
 9350TIP3   OH228013   0.137   0.124   3.600 -0.4957 -0.2708 -0.2698
 9350TIP3    H128014   0.150   0.152   3.510 -0.0737  0.3040 -0.0352
 9350TIP3    H228015   0.145   0.029   3.598 -0.7837 -0.2822 -0.8863
 9351TIP3   OH228016   4.127   2.222   0.976  0.4806  0.1932  0.2827
 9351TIP3    H128017   4.204   2.164   0.984  0.4280  0.0923  0.0527
 9351TIP3    H228018   4.058   2.165   0.944 -0.2168 -0.1757  2.2656
 9352TIP3   OH228019   5.192   0.696   1.307 -0.2037  0.1048 -0.4998
 9352TIP3    H128020   5.232   0.778   1.276 -1.2302  0.5883 -0.5762
 9352TIP3    H228021   5.102   0.699   1.274 -0.2855 -1.0140 -0.4104
 9353TIP3   OH228022   1.837   4.130   0.653  0.5276 -0.4115 -0.1084
 9353TIP3    H128023   1.889   4.203   0.685 -0.3770  0.1083  0.2373
 9353TIP3    H228024   1.746   4.155   0.672  0.1271 -1.1647 -0.9262
 9354TIP3   OH228025   1.624   5.192   1.561  0.2370  0.8975 -0.6539
 9354TIP3    H128026   1.662   5.214   1.476 -1.6018 -0.0021 -1.7779
 9354TIP3    H228027   1.531   5.179   1.543 -0.3559  1.4521  1.6632
 9355TIP3   OH228028   4.736   2.754   5.403  0.0269 -0.1339  0.1785
 9355TIP3    H128029   4.769   2.778   5.489  1.5145 -2.6687  0.4080
 9355TIP3    H228030   4.661   2.697   5.421  0.9111 -1.4301 -0.1421
 9356TIP3   OH228031   0.767   4.718   1.941 -0.2113 -0.1654  0.2008
 9356TIP3    H128032   0.818   4.637   1.948 -0.0487 -0.0350  0.5036
 9356TIP3    H228033   0.813   4.770   1.875 -1.0955 -0.8997 -1.0427
 9357TIP3   OH228034   5.793   1.254   1.259  0.0505  0.2544 -0.1076
 9357TIP3    H128035   5.790   1.256   1.354  0.4525 -1.0301 -0.0568
 9357TIP3    H228036   5.745   1.175   1.234  0.8125  0.0238 -0.9184
 9358TIP3   OH228037   2.950   4.226   1.384 -0.4791 -0.1300  0.1902
 9358TIP3    H128038   2.909   4.292   1.328  1.8565  0.4682 -0.9332
 9358TIP3    H228039   2.974   4.274   1.463  0.9113  0.3204 -0.4863
 9359TIP3   OH228040   4.087   1.616   2.097  0.3125 -0.4136 -0.2736
 9359TIP3    H128041   4.053   1.674   2.166  0.4591 -1.4562  0.7069
 9359TIP3    H228042   4.079   1.667   2.017  0.6236  1.0473  0.5797
 9360TIP3   OH228043   3.075   2.549   5.309  0.1070 -0.4605  0.5569
 9360TIP3    H128044   3.129   2.619   5.346  0.1301 -0.4545  0.5126
 9360TIP3    H228045   3.002   2.540   5.370  0.2807 -0.6294  0.7445
 9361TIP3   OH228046   2.621   3.254   0.737  0.0703  0.4140  0.8436
 9361TIP3    H128047   2.668   3.296   0.809  0.3020 -1.6526  1.9733
 9361TIP3    H228048   2.633   3.161   0.752 -0.8995 -0.0970 -1.2296
 9362TIP3   OH228049   5.259   4.498   1.058  0.0984 -0.2304 -0.1296
 9362TIP3    H128050   5.354   4.484   1.060 -0.1306 -1.9473  0.6879
 9362TIP3    H228051   5.222   4.410   1.069 -1.5993  0.2833 -1.3840
 9363TIP3   OH228052   1.442   5.162   3.681 -0.4160 -0.4123  0.2513
 9363TIP3    H128053   1.425   5.070   3.704 -2.7740  0.2956  1.7183
 9363TIP3    H228054   1.452   5.161   3.586  0.4261 -2.2687  0.2977
 9364TIP3   OH228055   5.060   2.344   0.153  0.1144 -0.0452  0.9566
 9364TIP3    H128056   5.114   2.301   0.087 -1.6897 -1.8041  0.5489
 9364TIP3    H228057   5.036   2.428   0.114  1.1559  0.0412  0.4652
 9365TIP3   OH228058   4.384   2.825   5.040 -0.2658  0.0597 -0.1068
 9365TIP3    H128059   4.449   2.768   4.999 -1.0348  0.1310 -1.4829
 9365TIP3    H228060   4.434   2.878   5.102  0.8552 -0.4321 -0.5627
 9366TIP3   OH228061   5.438   0.920   2.650  0.5290  0.5158 -0.5787
 9366TIP3    H128062   5.414   1.004   2.690  0.9318  0.2072  0.3396
 9366TIP3    H228063   5.408   0.854   2.713  2.2397  0.0580 -0.1918
 9367TIP3   OH228064   6.219   2.924   1.256 -0.2296 -0.0724 -0.3436
 9367TIP3    H128065   6.257   2.890   1.176  3.9937  2.1863  0.4303
 9367TIP3    H228066   6.148   2.980   1.227 -0.2755 -1.0549 -2.2799
 9368TIP3   OH228067   5.587   5.534   1.978 -0.4800 -0.1219 -0.4200
 9368TIP3    H128068   5.665   5.544   1.924 -1.1693 -1.1093 -1.6591
 9368TIP3    H228069   5.616   5.552   2.068  1.2434 -0.8469 -0.8073
 9369TIP3   OH228070   5.885   5.893   1.644  0.0718 -0.3867  0.1391
 9369TIP3    H128071   5.813   5.854   1.694  2.4377 -0.3667  3.9937
 9369TIP3    H228072   5.960   5.837   1.664  1.9490  1.7803 -0.4716
 9370TIP3   OH228073   5.891   6.529   2.277  0.4175 -0.1776 -0.1004
 9370TIP3    H128074   5.975   6.525   2.232  0.5348  1.3961 -0.0957
 9370TIP3    H228075   5.900   6.604   2.336 -1.1947  0.4208 -0.5674
 9371TIP3   OH228076   5.422   1.668   0.613  0.3235  0.1517  0.4716
 9371TIP3    H128077   5.374   1.748   0.635 -0.5853 -0.3001  0.1709
 9371TIP3    H228078   5.406   1.609   0.687  0.6885  0.1140  0.5213
 9372TIP3   OH228079   7.196   6.343   2.611  0.1726  0.0814 -0.5939
 9372TIP3    H128080   7.156   6.277   2.554 -1.1731 -2.5168  2.9910
 9372TIP3    H228081   7.276   6.302   2.644  0.8128  1.4178 -0.3928
 9373TIP3   OH228082   5.172   2.678   3.416  0.6094 -0.3717 -0.1656
 9373TIP3    H128083   5.264   2.697   3.434  0.3842  0.0296  0.6142
 9373TIP3    H228084   5.157   2.593   3.458  1.3524 -1.9047 -2.7814
 9374TIP3   OH228085   1.811   6.094   5.307 -0.9734  0.1185 -0.7033
 9374TIP3    H128086   1.747   6.137   5.251 -0.2783 -2.2767 -3.5892
 9374TIP3    H228087   1.797   6.001   5.293  1.7277 -0.5308  0.2186
 9375TIP3   OH228088   3.523   2.914   1.297  0.0135 -0.2109  0.4598
 9375TIP3    H128089   3.583   2.968   1.246 -1.2372  0.5015 -0.3086
 9375TIP3    H228090   3.443   2.911   1.245 -1.3109  0.5027  2.3509
 9376TIP3   OH228091   6.041   0.779   1.382  0.2521 -0.2173 -0.4176
 9376TIP3    H128092   5.949   0.802   1.384 -0.5325 -3.0242  1.3644
 9376TIP3    H228093   6.081   0.830   1.452  0.2337  1.4738 -1.5996
 9377TIP3   OH228094   5.893   2.964   2.033 -0.3046  0.2112  0.2444
 9377TIP3    H128095   5.805   2.985   2.002  0.0488  2.3091  0.5316
 9377TIP3    H228096   5.925   3.045   2.072  1.2727 -0.8756  1.3376
 9378TIP3   OH228097   4.356   0.232   1.290  0.0380 -1.1539  0.0733
 9378TIP3    H128098   4.372   0.183   1.210 -1.2146 -1.5298  0.0272
 9378TIP3    H228099   4.333   0.320   1.261 -0.1338 -1.2137  0.0243
 9379TIP3   OH228100   0.431   1.137   5.548  0.3005  0.3561  0.1057
 9379TIP3    H128101   0.365   1.095   5.492  0.6175  0.1908 -0.1474
 9379TIP3    H228102   0.420   1.095   5.633 -1.1049  1.5538  0.5670
 9380TIP3   OH228103   3.679   2.774   3.224  0.0247 -0.5960  0.1716
 9380TIP3    H128104   3.585   2.770   3.209  0.0452 -0.0303 -0.1403
 9380TIP3    H228105   3.691   2.741   3.313 -0.6766  1.1430  0.9526
 9381TIP3   OH228106   4.265   6.591   3.422  0.9322  0.1388 -0.0780
 9381TIP3    H128107   4.249   6.569   3.331 -1.6950  1.1359  0.0621
 9381TIP3    H228108   4.351   6.633   3.422  1.4603 -0.8460 -1.8911
 9382TIP3   OH228109   3.081   1.442   2.753 -0.5372 -0.0567  0.3482
 9382TIP3    H128110   3.016   1.497   2.710 -0.5810 -0.9822 -0.8499
 9382TIP3    H228111   3.032   1.366   2.784 -0.6299  0.9121  2.7516
 9383TIP3   OH228112   4.285   3.275   3.367  0.5790 -0.4074 -0.0756
 9383TIP3    H128113   4.348   3.282   3.295  1.5249  1.2279  0.8363
 9383TIP3    H228114   4.209   3.230   3.329  0.8518  0.8096 -2.2475
 9384TIP3   OH228115   5.029   4.140   5.489  0.0724 -0.7015 -0.8861
 9384TIP3    H128116   5.051   4.172   5.402  1.5580 -1.5662 -0.8569
 9384TIP3    H228117   5.091   4.183   5.547 -0.0762 -1.1059 -0.4237
 9385TIP3   OH228118   1.033   2.953   2.134 -0.8994  0.5498 -0.7450
 9385TIP3    H128119   1.041   2.859   2.117  0.1774  0.7205 -1.2582
 9385TIP3    H228120   1.121   2.980   2.160 -1.5469  1.1243  1.0079
 9386TIP3   OH228121   2.047   2.001   4.091 -0.1218  0.6039 -0.6878
 9386TIP3    H128122   2.103   1.925   4.103  1.4499  1.6058 -1.2841
 9386TIP3    H228123   2.104   2.076   4.109 -1.5226  1.6579 -0.4468
 9387TIP3   OH228124   4.484   5.826   4.505  0.1873  0.1055 -0.0061
 9387TIP3    H128125   4.395   5.818   4.471 -0.4033 -0.4717  1.5771
 9387TIP3    H228126   4.540   5.792   4.434 -1.0514 -1.9038 -0.1097
 9388TIP3   OH228127   3.162   4.651   1.422 -0.2869  0.3149 -0.3869
 9388TIP3    H128128   3.256   4.646   1.405 -0.3715 -1.5342 -0.5534
 9388TIP3    H228129   3.157   4.678   1.514  0.4465 -0.2019 -0.1750
 9389TIP3   OH228130   6.699   1.432   2.168  0.0171 -0.2669 -0.2575
 9389TIP3    H128131   6.772   1.373   2.186 -2.6107 -3.3740  1.3064
 9389TIP3    H228132   6.623   1.388   2.206 -2.3597  3.9339  0.4983
 9390TIP3   OH228133   2.151   0.604   2.422 -1.3871 -0.1115 -0.2878
 9390TIP3    H128134   2.193   0.536   2.369 -2.0822 -0.3054 -0.5960
 9390TIP3    H228135   2.194   0.599   2.507  0.4457  0.8387 -1.0926
 9391TIP3   OH228136   5.441   0.338   2.896  0.2474  0.2393 -0.4443
 9391TIP3    H128137   5.489   0.285   2.832 -2.4251 -2.0683 -0.7088
 9391TIP3    H228138   5.384   0.394   2.842  0.5534  0.8908 -0.1027
 9392TIP3   OH228139   6.576   0.002   0.264 -0.2091  0.2080  0.0567
 9392TIP3    H128140   6.627   0.067   0.314 -2.1109  2.0610 -0.2677
 9392TIP3    H228141   6.601   0.018   0.173 -1.8668  1.7222 -0.1958
 9393TIP3   OH228142   7.227   4.630   4.784  0.1097  0.5383  0.1205
 9393TIP3    H128143   7.158   4.564   4.776  0.9935 -0.4416  0.3762
 9393TIP3    H228144   7.205   4.679   4.863 -0.6400  0.6578 -0.1573
 9394TIP3   OH228145   4.385   0.318   5.436  0.2591 -0.0964 -0.1829
 9394TIP3    H128146   4.453   0.319   5.503  0.3726 -0.4034 -0.2922
 9394TIP3    H228147   4.408   0.245   5.380  1.0096  1.0709 -1.4500
 9395TIP3   OH228148   2.417   1.556   1.974 -0.4109  0.3554  0.3120
 9395TIP3    H128149   2.417   1.460   1.984 -2.9481  0.2784  0.0803
 9395TIP3    H228150   2.509   1.580   1.983  0.3451 -2.1309  0.1110
 9396TIP3   OH228151   6.603   4.505   0.700  0.0549  0.0847  0.3680
 9396TIP3    H128152   6.642   4.437   0.646 -0.6373  0.9013 -1.2340
 9396TIP3    H228153   6.659   4.508   0.778  1.4562 -0.7410 -0.5448
 9397TIP3   OH228154   2.988   4.291   2.370  0.3618 -0.1295  0.0191
 9397TIP3    H128155   3.030   4.345   2.303 -0.8870  2.2462  1.0412
 9397TIP3    H228156   2.918   4.245   2.323  0.7849 -0.0740 -0.6793
 9398TIP3   OH228157   7.162   0.349   2.520 -0.3840 -0.0058  0.0671
 9398TIP3    H128158   7.132   0.387   2.437 -0.0499 -0.6780 -0.3731
 9398TIP3    H228159   7.222   0.415   2.556 -0.7206  0.4002 -0.0979
 9399TIP3   OH228160   4.078   5.166   4.647 -0.1637 -0.4677 -0.4472
 9399TIP3    H128161   4.108   5.181   4.558 -0.6538  2.2888 -0.2477
 9399TIP3    H228162   3.983   5.151   4.639  0.0426 -1.8930 -0.4826
 9400TIP3   OH228163   2.611   2.484   2.533  0.0288 -0.2248  0.0096
 9400TIP3    H128164   2.602   2.547   2.604 -4.4028  2.4132 -2.4412
 9400TIP3    H228165   2.646   2.535   2.460 -1.4142 -1.1842 -1.4040
 9401TIP3   OH228166   3.494   3.312   3.902  0.2235 -0.1940  0.8239
 9401TIP3    H128167   3.514   3.234   3.851 -1.3076 -2.0558  2.8595
 9401TIP3    H228168   3.560   3.313   3.971  0.5453  0.6278  0.5142
 9402TIP3   OH228169   2.655   2.201   3.324 -0.2045 -0.0421 -0.1122
 9402TIP3    H128170   2.597   2.276   3.334  1.6200  1.8191 -2.3359
 9402TIP3    H228171   2.737   2.228   3.364 -0.6400 -2.5719  2.8669
 9403TIP3   OH228172   2.274   1.565   2.599  0.7086 -0.2348 -0.0683
 9403TIP3    H128173   2.191   1.541   2.640  0.0516  0.1496 -1.1591
 9403TIP3    H228174   2.340   1.523   2.655 -0.0994  0.8525  1.8076
 9404TIP3   OH228175   4.076   2.201   4.437  0.1805 -0.2597 -0.0930
 9404TIP3    H128176   4.075   2.138   4.509 -2.8791 -0.0241  0.2059
 9404TIP3    H228177   3.988   2.196   4.400  0.1376  3.0620 -0.7245
 9405TIP3   OH228178   6.848   1.888   5.442  0.3019 -0.4794 -0.2263
 9405TIP3    H128179   6.922   1.944   5.466 -0.3599 -0.0176  0.7838
 9405TIP3    H228180   6.770   1.938   5.466 -0.3133 -2.5691  2.6682
 9406TIP3   OH228181   2.000   4.852   1.193  0.7489 -0.0529 -0.1051
 9406TIP3    H128182   2.038   4.931   1.153 -0.3099 -0.3203 -1.7223
 9406TIP3    H228183   2.062   4.782   1.169  2.4658  0.4133  2.5381
 9407TIP3   OH228184   5.264   2.806   1.667 -0.0284  0.1791 -0.2845
 9407TIP3    H128185   5.339   2.865   1.655  0.0628  0.1975  0.3713
 9407TIP3    H228186   5.205   2.854   1.726 -1.3019  0.8528 -1.9837
 9408TIP3   OH228187   2.637   5.853   2.615  0.1807  0.4479 -0.3830
 9408TIP3    H128188   2.610   5.857   2.523 -0.6030 -1.5428 -0.2953
 9408TIP3    H228189   2.683   5.769   2.622 -0.1793  0.3576  1.1495
 9409TIP3   OH228190   0.791   6.568   2.950  0.3913  0.1212 -0.0231
 9409TIP3    H128191   0.839   6.556   3.032 -2.0170  1.5927  1.7338
 9409TIP3    H228192   0.767   6.660   2.950 -1.5817 -0.3259 -1.2335
 9410TIP3   OH228193   6.255   1.690   5.754  0.5634 -0.3765 -0.1916
 9410TIP3    H128194   6.216   1.710   5.839  0.7182 -3.1182  0.6100
 9410TIP3    H228195   6.183   1.699   5.692 -0.6561 -2.2694  0.8363
 9411TIP3   OH228196   4.347   3.724   4.245  0.0439 -0.2285  0.3669
 9411TIP3    H128197   4.442   3.727   4.237 -0.0482 -0.8691 -1.5095
 9411TIP3    H228198   4.331   3.719   4.339  1.7651  2.2026  0.8776
 9412TIP3   OH228199   1.211   1.357   4.759  0.1109  0.3542 -0.7344
 9412TIP3    H128200   1.136   1.377   4.704  0.2579 -0.0457 -1.0860
 9412TIP3    H228201   1.285   1.398   4.714  0.2094  0.1446 -0.7668
 9413TIP3   OH228202   6.649   5.163   1.179  0.1678 -0.5557  0.8198
 9413TIP3    H128203   6.569   5.209   1.204  1.3881  1.5622  1.0594
 9413TIP3    H228204   6.703   5.163   1.258  1.1952 -0.1199  0.1468
 9414TIP3   OH228205   0.235   5.353   3.124  0.6336  0.2755 -0.2427
 9414TIP3    H128206   0.216   5.309   3.041  1.0825 -0.9999  0.3129
 9414TIP3    H228207   0.286   5.289   3.174  1.8712  1.6630  0.3445
 9415TIP3   OH228208   3.051   6.426   0.336 -0.0752 -0.2299  0.6813
 9415TIP3    H128209   3.031   6.360   0.269 -0.2691  0.3402  0.1649
 9415TIP3    H228210   3.146   6.440   0.327  0.1542 -1.1857  1.4989
 9416TIP3   OH228211   3.474   6.377   2.291  0.1072 -0.0525  0.0834
 9416TIP3    H128212   3.555   6.329   2.307  2.0079  2.6023 -0.8765
 9416TIP3    H228213   3.423   6.366   2.372  1.1895 -2.1160  0.5476
 9417TIP3   OH228214   5.534   4.133   4.998 -0.0472  0.2356 -0.1081
 9417TIP3    H128215   5.524   4.038   5.002 -0.6489  0.3332  1.8063
 9417TIP3    H228216   5.598   4.153   5.067 -0.2943  1.2453 -0.1578
 9418TIP3   OH228217   0.235   3.199   2.687 -0.0109 -0.0918 -0.0322
 9418TIP3    H128218   0.262   3.109   2.703  1.5765 -0.0582 -2.1438
 9418TIP3    H228219   0.210   3.200   2.595 -0.8921  1.4422  0.1972
 9419TIP3   OH228220   4.632   6.796   1.108 -0.2552  0.1872 -0.2741
 9419TIP3    H128221   4.588   6.754   1.034  0.4722  1.2577 -1.3615
 9419TIP3    H228222   4.725   6.798   1.082  0.2611 -0.7573  1.3402
 9420TIP3   OH228223   4.491   6.779   3.671  0.1937  0.2797 -0.3206
 9420TIP3    H128224   4.577   6.787   3.710 -0.3882 -2.3860  1.7701
 9420TIP3    H228225   4.506   6.732   3.588  0.8900  1.4210 -0.8599
 9421TIP3   OH228226   5.781   4.900   4.595  0.2595 -0.0289  0.3188
 9421TIP3    H128227   5.733   4.976   4.629  0.6389 -0.2200  1.3357
 9421TIP3    H228228   5.872   4.917   4.620  0.2866 -1.0066  0.9500
 9422TIP3   OH228229   5.864   6.113   4.897  0.2273 -0.0024  0.1156
 9422TIP3    H128230   5.954   6.102   4.928  0.0666 -0.0924  0.5707
 9422TIP3    H228231   5.854   6.049   4.827  0.8653  0.7828 -0.7242
 9423TIP3   OH228232   0.387   4.473   5.036 -0.3667  0.3355  0.1635
 9423TIP3    H128233   0.349   4.393   5.073 -0.6856  0.6911  0.6065
 9423TIP3    H228234   0.323   4.502   4.970 -0.3057  0.2927  0.0848
 9424TIP3   OH228235   6.226   1.073   0.103  0.4159 -0.1020  0.1106
 9424TIP3    H128236   6.172   1.065   0.182 -0.5544  0.1336 -0.5114
 9424TIP3    H228237   6.208   0.992   0.054  0.7202 -0.0729 -0.0494
 9425TIP3   OH228238   0.947   1.055   0.713  0.4574  0.1347  0.3772
 9425TIP3    H128239   1.030   1.008   0.701  1.7984  2.5343 -0.4876
 9425TIP3    H228240   0.967   1.122   0.779 -1.1652 -0.0214  1.0602
 9426TIP3   OH228241   6.323   0.673   5.617  0.2280  0.6398  0.2905
 9426TIP3    H128242   6.235   0.691   5.582  0.9452 -1.5688 -3.1751
 9426TIP3    H228243   6.379   0.739   5.575  0.5881  0.3888  0.3771
 9427TIP3   OH228244   6.592   0.379   2.613 -0.1824  0.8372  0.0186
 9427TIP3    H128245   6.683   0.407   2.606 -0.0783  1.1935  2.0765
 9427TIP3    H228246   6.552   0.444   2.671 -1.8758  0.9433 -1.2022
 9428TIP3   OH228247   1.454   4.377   1.301  0.2487  0.8999 -0.2434
 9428TIP3    H128248   1.421   4.466   1.292  0.4039  1.0253  0.3894
 9428TIP3    H228249   1.547   4.387   1.319  0.0913  0.6487  0.7546
 9429TIP3   OH228250   0.428   0.956   2.117  0.0501  0.0253 -0.1590
 9429TIP3    H128251   0.413   0.871   2.076 -1.4952  0.2087 -0.0523
 9429TIP3    H228252   0.479   1.005   2.053  0.8356 -0.9101 -0.2833
 9430TIP3   OH228253   4.094   1.142   0.512 -0.7670 -0.2967  0.7303
 9430TIP3    H128254   4.119   1.051   0.494 -0.6065 -0.1416  0.1627
 9430TIP3    H228255   4.040   1.168   0.437  1.1043  0.8165 -0.3107
 9431TIP3   OH228256   5.767   4.977   1.347  0.5419  0.1876 -0.1527
 9431TIP3    H128257   5.703   4.943   1.410  0.2280  0.7031 -0.1826
 9431TIP3    H228258   5.787   5.065   1.379 -0.1935  0.7527 -1.1773
 9432TIP3   OH228259   2.796   4.909   4.529  0.0008 -0.4175  0.2671
 9432TIP3    H128260   2.763   4.914   4.440  3.2721  1.0718 -1.0286
 9432TIP3    H228261   2.852   4.831   4.530 -0.7753 -0.9834  1.3417
 9433TIP3   OH228262   3.820   2.356   3.474  0.0008  0.8920 -0.1122
 9433TIP3    H128263   3.914   2.357   3.493  0.4446  0.8804 -2.1081
 9433TIP3    H228264   3.793   2.266   3.493 -0.1380  1.4345  2.6059
 9434TIP3   OH228265   6.670   5.749   1.310  0.0899  0.0898 -0.1955
 9434TIP3    H128266   6.735   5.713   1.370  0.7356  0.4626 -0.6549
 9434TIP3    H228267   6.706   5.833   1.282 -0.4189  0.1410 -0.7318
 9435TIP3   OH228268   5.391   4.345   2.733 -0.7201 -0.0806  0.5470
 9435TIP3    H128269   5.375   4.253   2.754  0.5738 -1.1736 -2.5841
 9435TIP3    H228270   5.333   4.362   2.659  1.6037  0.4008 -1.2910
 9436TIP3   OH228271   6.144   1.856   4.606 -0.4372  0.9424  0.8937
 9436TIP3    H128272   6.166   1.926   4.545  0.5415  0.4461  0.6558
 9436TIP3    H228273   6.212   1.861   4.674  0.8893 -1.0045 -0.1673
 9437TIP3   OH228274   7.134   6.457   5.223 -0.0359  0.1382  0.0295
 9437TIP3    H128275   7.130   6.550   5.197  1.0195  0.3140  0.4343
 9437TIP3    H228276   7.190   6.417   5.156  0.3067 -0.0040  0.4035
 9438TIP3   OH228277   1.275   4.535   4.975  0.4746 -0.2023 -0.1798
 9438TIP3    H128278   1.336   4.585   4.921  0.2883  0.6061  0.3395
 9438TIP3    H228279   1.326   4.513   5.054  0.1497  0.3621  0.1973
 9439TIP3   OH228280   6.727   5.777   2.128  0.0830  0.0244  0.2364
 9439TIP3    H128281   6.711   5.692   2.087 -0.5309 -0.2643  1.0451
 9439TIP3    H228282   6.774   5.757   2.208 -1.1754  0.3249  1.0703
 9440TIP3   OH228283   3.297   1.503   5.150  0.0859 -0.3713  0.3535
 9440TIP3    H128284   3.220   1.448   5.133 -0.1563 -0.2645  1.0520
 9440TIP3    H228285   3.278   1.585   5.105 -1.1666  0.4103  2.1812
 9441TIP3   OH228286   4.586   1.887   2.920 -0.0265  0.2566 -0.4207
 9441TIP3    H128287   4.500   1.885   2.877 -0.1266 -1.1417 -0.2234
 9441TIP3    H228288   4.635   1.817   2.877 -0.3305 -1.6328  2.0560
 9442TIP3   OH228289   5.531   4.993   2.582 -0.1514  0.0610 -0.3854
 9442TIP3    H128290   5.613   4.976   2.629  0.0055 -0.7656 -0.9500
 9442TIP3    H228291   5.464   4.994   2.651 -0.0337 -1.9188 -0.1987
 9443TIP3   OH228292   5.990   4.909   5.266 -0.1611  0.0493  0.4853
 9443TIP3    H128293   6.035   4.934   5.186 -2.4640  0.7799 -0.6814
 9443TIP3    H228294   6.011   4.816   5.278  0.9069  0.1526 -0.4514
 9444TIP3   OH228295   1.687   2.184   1.905 -0.7246  0.0474 -0.0716
 9444TIP3    H128296   1.644   2.209   1.823 -2.2165 -1.3998  0.2067
 9444TIP3    H228297   1.655   2.246   1.970 -0.8102  0.2005 -0.2585
 9445TIP3   OH228298   6.757   5.397   4.981  0.2339  0.3836  0.0830
 9445TIP3    H128299   6.700   5.363   5.050 -0.6861  2.2076  0.2854
 9445TIP3    H228300   6.711   5.475   4.948  0.4975 -0.5796 -2.8240
 9446TIP3   OH228301   0.289   1.200   2.173 -0.3042  0.6690  0.0371
 9446TIP3    H128302   0.292   1.244   2.088  1.0877  0.9301  0.2057
 9446TIP3    H228303   0.302   1.108   2.152 -1.2440  0.5617 -0.1331
 9447TIP3   OH228304   0.906   4.532   3.355  0.1744  0.2323 -0.4090
 9447TIP3    H128305   0.898   4.605   3.293 -0.9154  0.1990 -0.3161
 9447TIP3    H228306   0.879   4.568   3.439 -1.1662 -0.4562 -0.5072
 9448TIP3   OH228307   5.932   2.170   1.451  0.2942 -0.2602 -0.0316
 9448TIP3    H128308   5.936   2.263   1.426 -0.3920  0.3344  1.8702
 9448TIP3    H228309   5.838   2.149   1.447  0.5698 -1.3607 -1.9290
 9449TIP3   OH228310   3.041   0.801   0.291 -0.3845  0.3417  0.1631
 9449TIP3    H128311   2.994   0.810   0.374  1.0241  2.6337  0.8066
 9449TIP3    H228312   3.133   0.802   0.316  0.0669 -0.4504 -1.3418
 9450TIP3   OH228313   4.325   4.043   3.952 -0.2292  0.1897 -0.0165
 9450TIP3    H128314   4.364   3.958   3.932  0.3931  0.4658  0.0115
 9450TIP3    H228315   4.399   4.104   3.953 -0.8655  1.0608 -1.8070
 9451TIP3   OH228316   2.488   1.604   2.853  0.1445 -0.1674 -0.3536
 9451TIP3    H128317   2.521   1.693   2.842 -1.1527  0.1561 -1.8866
 9451TIP3    H228318   2.566   1.549   2.841  1.0017  0.7155  0.7978
 9452TIP3   OH228319   4.185   2.241   3.040 -0.1415  0.8686  0.4234
 9452TIP3    H128320   4.201   2.161   2.989 -0.0881  1.8182 -1.1167
 9452TIP3    H228321   4.099   2.271   3.012 -0.0768  1.4626  0.8400
 9453TIP3   OH228322   3.369   2.667   2.702 -0.1717 -0.2384  0.6547
 9453TIP3    H128323   3.294   2.615   2.673 -0.0952  0.6685 -1.3637
 9453TIP3    H228324   3.352   2.754   2.667  1.9407 -0.0721 -0.1018
 9454TIP3   OH228325   6.819   5.231   4.783 -0.0366  0.3211 -0.2305
 9454TIP3    H128326   6.804   5.273   4.867 -0.6100  0.9416 -0.6308
 9454TIP3    H228327   6.801   5.299   4.718  1.1204  0.0701 -0.8425
 9455TIP3   OH228328   3.550   3.747   0.486 -0.1913 -0.2702 -0.3395
 9455TIP3    H128329   3.486   3.801   0.440 -1.1766 -0.5061  0.7187
 9455TIP3    H228330   3.498   3.679   0.530  0.6116  0.2853  1.5821
 9456TIP3   OH228331   0.568   0.959   0.453 -0.1510  0.6344  0.2027
 9456TIP3    H128332   0.572   0.922   0.541 -1.1154 -0.9703 -0.3759
 9456TIP3    H228333   0.475   0.978   0.439 -0.1158  0.2362 -0.6888
 9457TIP3   OH228334   2.907   0.392   5.147  0.0742 -0.0984  0.2635
 9457TIP3    H128335   2.907   0.314   5.091  0.4454 -0.5436  0.8773
 9457TIP3    H228336   2.819   0.428   5.137 -0.3760 -1.0746  0.6332
 9458TIP3   OH228337   1.072   2.688   0.118 -0.0007  0.4325  0.2868
 9458TIP3    H128338   1.007   2.619   0.104  0.8967 -0.6405  1.2963
 9458TIP3    H228339   1.110   2.669   0.204  1.1890  1.4343  0.0118
 9459TIP3   OH228340   2.261   2.161   5.387 -0.7518  0.1564  0.2845
 9459TIP3    H128341   2.318   2.203   5.452 -0.5388  1.6786 -0.8139
 9459TIP3    H228342   2.178   2.207   5.395 -0.8108  0.1650 -0.3008
 9460TIP3   OH228343   2.674   5.264   0.788 -0.1063  0.5520  0.2517
 9460TIP3    H128344   2.705   5.184   0.829  0.5241  0.2701 -0.7452
 9460TIP3    H228345   2.731   5.333   0.823  0.8740  0.2156 -0.6403
 9461TIP3   OH228346   5.808   0.361   2.647  0.2563 -0.0781 -0.0572
 9461TIP3    H128347   5.772   0.295   2.588  0.9545 -0.6944  0.1851
 9461TIP3    H228348   5.903   0.346   2.644  0.3265  0.1513  0.9044
 9462TIP3   OH228349   7.138   3.284   0.287  0.0284  0.1282  0.2058
 9462TIP3    H128350   7.092   3.301   0.205 -1.0150 -0.2623  0.6972
 9462TIP3    H228351   7.116   3.193   0.309  0.3577  0.2010  0.8816
 9463TIP3   OH228352   0.354   2.998   0.076 -0.4507  0.1003  0.8365
 9463TIP3    H128353   0.272   3.034   0.043 -0.4005 -1.8277 -1.7144
 9463TIP3    H228354   0.364   2.914   0.031  3.6444  0.8779 -0.1630
 9464TIP3   OH228355   2.099   2.496   3.655  0.0235  0.3923 -0.1418
 9464TIP3    H128356   2.103   2.545   3.737  4.3943 -2.1626  1.4798
 9464TIP3    H228357   2.056   2.413   3.678 -1.0780  0.6401 -1.1686
 9465TIP3   OH228358   5.240   6.558   1.781  0.0174 -0.0003 -0.1282
 9465TIP3    H128359   5.177   6.600   1.722 -1.3859  1.0958  2.0126
 9465TIP3    H228360   5.266   6.628   1.841  0.8063 -1.2400  1.0188
 9466TIP3   OH228361   5.290   0.865   2.146 -0.0848  0.5544 -0.2586
 9466TIP3    H128362   5.327   0.935   2.091  2.1735 -0.7343 -0.5038
 9466TIP3    H228363   5.350   0.860   2.221  0.2508 -1.5768 -0.6143
 9467TIP3   OH228364   5.737   6.356   4.804 -0.0527  0.0939 -0.1976
 9467TIP3    H128365   5.783   6.284   4.847 -1.7490 -0.5125  0.6875
 9467TIP3    H228366   5.714   6.321   4.718  0.7259  0.2516 -0.4818
 9468TIP3   OH228367   6.132   4.666   2.179 -0.1785 -0.0680 -0.3559
 9468TIP3    H128368   6.132   4.574   2.153 -0.2654 -0.5880  1.3721
 9468TIP3    H228369   6.042   4.695   2.164  0.2431  0.2811 -2.5695
 9469TIP3   OH228370   0.491   3.791   4.075 -0.0895  0.1396  0.0225
 9469TIP3    H128371   0.408   3.833   4.099 -0.1748 -0.0394  0.0372
 9469TIP3    H228372   0.474   3.697   4.082 -0.8055 -0.0516 -2.9660
 9470TIP3   OH228373   3.777   6.744   4.772  0.3353 -0.3688  0.0416
 9470TIP3    H128374   3.706   6.807   4.758  0.8744  0.4011  0.6896
 9470TIP3    H228375   3.834   6.754   4.696  0.3335 -0.1946  0.0623
 9471TIP3   OH228376   3.015   0.719   1.377 -0.0754 -0.2340  0.1382
 9471TIP3    H128377   2.962   0.771   1.316 -0.6414 -0.8582  0.0867
 9471TIP3    H228378   2.963   0.717   1.458  0.4282  0.1497  0.4781
 9472TIP3   OH228379   6.982   3.882   1.138 -0.2643 -0.3437  0.2661
 9472TIP3    H128380   7.055   3.874   1.077 -0.4897  0.6385 -0.1537
 9472TIP3    H228381   6.970   3.976   1.149 -1.2795 -0.4940  0.5553
 9473TIP3   OH228382   6.129   2.339   4.352  0.0088 -0.2752  0.4223
 9473TIP3    H128383   6.168   2.379   4.274 -1.3568  1.7806  0.7080
 9473TIP3    H228384   6.037   2.365   4.348 -0.4965 -1.7645  1.7371
 9474TIP3   OH228385   3.197   1.567   0.792 -0.2824  0.1878  0.5144
 9474TIP3    H128386   3.103   1.559   0.780 -0.3262  0.0132  0.9913
 9474TIP3    H228387   3.207   1.615   0.874 -0.0188  3.2559 -1.1382
 9475TIP3   OH228388   3.245   4.800   0.088  0.1844 -0.1334  0.3149
 9475TIP3    H128389   3.174   4.810   0.024  0.5680  0.0668 -0.0848
 9475TIP3    H228390   3.262   4.706   0.090 -0.9784 -0.3481  1.3935
 9476TIP3   OH228391   5.058   6.541   4.052  0.1910 -0.0086  0.8798
 9476TIP3    H128392   5.097   6.454   4.057  0.0837 -0.1639 -0.4426
 9476TIP3    H228393   4.964   6.525   4.061  0.3270  0.2740  3.2154
 9477TIP3   OH228394   0.337   4.473   3.451  0.2024  0.1738  0.3245
 9477TIP3    H128395   0.268   4.493   3.515 -1.3309 -1.3079 -0.7699
 9477TIP3    H228396   0.366   4.559   3.419 -2.6042  0.8719 -0.6376
 9478TIP3   OH228397   2.816   0.382   3.751 -0.0331  0.3193  0.3922
 9478TIP3    H128398   2.777   0.330   3.681  0.3484 -0.3145  0.6314
 9478TIP3    H228399   2.747   0.389   3.817 -0.2148  0.4473  0.1892
 9479TIP3   OH228400   5.231   6.186   2.748 -0.2382  0.1841 -0.1350
 9479TIP3    H128401   5.148   6.227   2.725 -0.8108 -1.2249 -0.6649
 9479TIP3    H228402   5.212   6.093   2.755  0.8035  0.0816  2.1527
 9480TIP3   OH228403   2.895   3.881   2.405  0.0783  0.4143  0.2618
 9480TIP3    H128404   2.864   3.947   2.467  1.1722  0.1506  1.1251
 9480TIP3    H228405   2.944   3.931   2.340 -1.0521  0.6898 -0.3867
 9481TIP3   OH228406   3.776   0.980   0.598 -0.2241  0.2581  0.0658
 9481TIP3    H128407   3.735   0.995   0.683 -0.0065  0.6308  0.1074
 9481TIP3    H228408   3.863   0.944   0.619  0.0316  0.8350  0.0206
 9482TIP3   OH228409   3.116   3.142   4.223  0.8479  0.4314  0.2833
 9482TIP3    H128410   3.083   3.057   4.194 -1.4494  0.3340  2.7990
 9482TIP3    H228411   3.060   3.206   4.180 -0.7591  0.3820  2.1424
 9483TIP3   OH228412   3.328   2.399   4.815  0.2026 -0.3634  0.1901
 9483TIP3    H128413   3.313   2.431   4.726  1.4376 -0.8320 -0.2172
 9483TIP3    H228414   3.260   2.441   4.867 -0.4182  0.0871 -0.9362
 9484TIP3   OH228415   5.915   5.184   0.721  0.1309  0.3498 -0.0067
 9484TIP3    H128416   5.889   5.229   0.802  0.1167  0.9970 -0.3637
 9484TIP3    H228417   5.841   5.197   0.662 -0.0332 -0.4778  0.0069
 9485TIP3   OH228418   4.521   6.630   3.128  0.0494  0.1447  0.4981
 9485TIP3    H128419   4.509   6.558   3.189  0.6072 -2.0769 -1.8187
 9485TIP3    H228420   4.611   6.658   3.141  0.0894 -0.1358  0.8303
 9486TIP3   OH228421   1.428   6.609   5.214 -0.1457 -0.3697  0.1720
 9486TIP3    H128422   1.430   6.618   5.309  2.1149  1.0185  0.0646
 9486TIP3    H228423   1.517   6.632   5.185 -0.8665 -0.3403 -2.3055
 9487TIP3   OH228424   4.773   6.508   2.441 -0.3235 -0.4880  0.0819
 9487TIP3    H128425   4.738   6.541   2.358  1.4004 -1.2541 -1.0133
 9487TIP3    H228426   4.824   6.431   2.416  3.6227  1.4985  1.1625
 9488TIP3   OH228427   3.236   5.906   5.688 -0.2229 -0.4576 -0.1798
 9488TIP3    H128428   3.185   5.945   5.617  0.7139 -0.3913 -0.8382
 9488TIP3    H228429   3.174   5.898   5.760 -0.9063  0.5636 -0.6209
 9489TIP3   OH228430   4.731   4.227   4.263  0.3793  0.2193 -0.2054
 9489TIP3    H128431   4.654   4.170   4.275  0.0266  0.7312  0.0404
 9489TIP3    H228432   4.765   4.204   4.177 -1.4221  1.5838 -1.3342
 9490TIP3   OH228433   3.514   4.342   4.774 -0.5853  0.0294 -0.3938
 9490TIP3    H128434   3.438   4.283   4.770 -0.7279  0.1748  0.0068
 9490TIP3    H228435   3.514   4.372   4.865 -0.1262  0.1393 -0.4315
 9491TIP3   OH228436   6.634   5.478   4.201 -0.2772 -0.2389 -0.8227
 9491TIP3    H128437   6.671   5.394   4.226 -0.9165 -0.2478  0.1254
 9491TIP3    H228438   6.647   5.535   4.277  0.3674  0.6080 -1.5350
 9492TIP3   OH228439   1.038   3.140   5.265  0.1102  0.0730  0.3284
 9492TIP3    H128440   0.968   3.106   5.321  0.7741 -0.5619  0.7931
 9492TIP3    H228441   0.992   3.186   5.195 -0.7949 -0.9041  0.2540
 9493TIP3   OH228442   4.886   2.814   3.828  0.3306 -0.5361 -0.3265
 9493TIP3    H128443   4.879   2.723   3.799 -0.1942 -1.2923  1.9463
 9493TIP3    H228444   4.979   2.827   3.846  0.2256 -1.1713  0.8071
 9494TIP3   OH228445   1.064   3.356   0.263  0.1609 -0.4541  0.1043
 9494TIP3    H128446   1.082   3.265   0.284 -1.3490 -0.5551  1.1731
 9494TIP3    H228447   1.136   3.405   0.303  0.3937 -1.1012  0.4976
 9495TIP3   OH228448   5.707   4.061   3.603  0.5097 -0.4379 -0.6056
 9495TIP3    H128449   5.678   4.121   3.671 -0.6226  0.4070 -1.7856
 9495TIP3    H228450   5.702   3.974   3.643 -2.0435 -0.1702 -0.1711
 9496TIP3   OH228451   4.281   0.664   2.470 -0.2136 -0.5305 -0.4842
 9496TIP3    H128452   4.296   0.571   2.455  1.4972 -0.3547 -0.0982
 9496TIP3    H228453   4.195   0.668   2.511  0.0006 -2.0187  0.1876
 9497TIP3   OH228454   6.459   3.562   0.132 -0.3728 -0.2738  0.1396
 9497TIP3    H128455   6.387   3.618   0.159 -2.0091 -1.7626 -0.9466
 9497TIP3    H228456   6.431   3.473   0.154  1.0917 -0.9163 -0.4069
 9498TIP3   OH228457   3.865   4.912   5.688  0.6512  0.3983 -0.2189
 9498TIP3    H128458   3.774   4.941   5.679  0.1189 -1.5337 -1.7147
 9498TIP3    H228459   3.898   4.908   5.599  1.7145 -0.4343  0.1884
 9499TIP3   OH228460   2.912   0.735   3.691 -0.0049 -0.5319 -0.4314
 9499TIP3    H128461   2.990   0.725   3.746 -0.2759 -1.3824 -0.1976
 9499TIP3    H228462   2.911   0.657   3.636  0.5871  0.5796 -2.0915
 9500TIP3   OH228463   0.845   0.278   1.451  0.0610 -0.5054 -0.3823
 9500TIP3    H128464   0.882   0.318   1.530 -1.0865 -1.2701  0.5978
 9500TIP3    H228465   0.771   0.334   1.428  1.1912  0.4902 -1.7751
 9501TIP3   OH228466   2.621   4.423   4.873  0.2179  0.3854  0.2706
 9501TIP3    H128467   2.657   4.507   4.845  0.4274  0.8825  1.9197
 9501TIP3    H228468   2.677   4.396   4.946 -0.4777 -0.6878  0.4273
 9502TIP3   OH228469   5.484   1.856   2.921 -0.4705 -0.0657  0.2043
 9502TIP3    H128470   5.451   1.923   2.981 -0.0956  0.9731 -0.7222
 9502TIP3    H228471   5.430   1.866   2.842  0.6280  0.2229 -0.5274
 9503TIP3   OH228472   0.990   4.789   1.616 -0.1063 -0.0672  0.1010
 9503TIP3    H128473   0.967   4.852   1.685 -2.8589  0.6284 -1.3178
 9503TIP3    H228474   0.984   4.704   1.658 -1.1387  0.3766  0.8782
 9504TIP3   OH228475   2.515   3.907   4.799  0.5609 -0.6071 -0.1766
 9504TIP3    H128476   2.598   3.945   4.827  0.2018 -0.2884  0.4826
 9504TIP3    H228477   2.448   3.962   4.839 -0.0674 -3.5426  3.3520
 9505TIP3   OH228478   1.091   3.570   0.109 -0.2159 -0.3726 -0.6615
 9505TIP3    H128479   1.015   3.625   0.129  0.8359  0.8286  0.1701
 9505TIP3    H228480   1.079   3.493   0.163 -0.4094  0.2105  0.1515
 9506TIP3   OH228481   4.998   4.497   0.101 -0.3763 -0.0833  0.4705
 9506TIP3    H128482   4.903   4.508   0.104 -0.4063 -0.5840  1.4033
 9506TIP3    H228483   5.028   4.573   0.051 -1.0264  1.6710  2.5710
 9507TIP3   OH228484   0.612   5.154   4.010  0.3308  0.0619 -0.4566
 9507TIP3    H128485   0.608   5.163   4.105 -3.9011 -0.6499 -0.3787
 9507TIP3    H228486   0.616   5.059   3.995  0.7849  0.1590 -1.0058
 9508TIP3   OH228487   5.579   2.390   1.325 -0.4011  0.0533  0.3458
 9508TIP3    H128488   5.504   2.441   1.293  0.9721  2.3309  0.5263
 9508TIP3    H228489   5.636   2.381   1.248  0.0350  0.0380  0.6689
 9509TIP3   OH228490   6.694   2.687   4.992  0.1814 -0.0145 -0.0737
 9509TIP3    H128491   6.707   2.768   5.041  1.2660 -0.7065  0.8106
 9509TIP3    H228492   6.637   2.634   5.047  1.1044 -0.6471  0.2923
 9510TIP3   OH228493   6.655   4.178   3.573 -0.2386  0.3477 -0.2406
 9510TIP3    H128494   6.717   4.249   3.557  2.0805 -1.0725  1.7297
 9510TIP3    H228495   6.633   4.145   3.486  0.1477  2.2179 -1.0766
 9511TIP3   OH228496   6.226   1.201   1.968 -0.3398  0.0903  0.2418
 9511TIP3    H128497   6.144   1.153   1.973  0.3089 -0.9351  1.8999
 9511TIP3    H228498   6.264   1.193   2.056  2.2081 -0.7021 -0.8401
 9512TIP3   OH228499   0.967   3.538   2.684  0.0273 -0.2643  0.0226
 9512TIP3    H128500   0.896   3.506   2.740  0.1490 -0.0604  0.2936
 9512TIP3    H228501   0.945   3.629   2.667  0.6394  0.0247  0.7608
 9513TIP3   OH228502   2.121   5.267   1.859  0.0418  0.0620 -0.0900
 9513TIP3    H128503   2.087   5.351   1.829  0.8712  0.4662  0.0595
 9513TIP3    H228504   2.194   5.290   1.916 -1.6335 -0.6416  2.5329
 9514TIP3   OH228505   2.706   5.346   4.650  0.0745  0.4408 -0.4751
 9514TIP3    H128506   2.733   5.378   4.563 -1.9658 -0.3287 -1.4432
 9514TIP3    H228507   2.755   5.265   4.661  0.5746  0.6948 -0.7646
 9515TIP3   OH228508   5.081   4.001   3.742 -0.1127  0.2709  0.3287
 9515TIP3    H128509   5.110   4.073   3.687  0.3923  0.8069  1.2752
 9515TIP3    H228510   5.018   3.953   3.688 -1.0036  1.8292 -0.0634
 9516TIP3   OH228511   0.254   1.011   4.417 -0.0783  0.1368 -0.1344
 9516TIP3    H128512   0.236   0.968   4.500 -1.7039  0.6618 -0.1660
 9516TIP3    H228513   0.168   1.041   4.387  0.4683 -0.0847 -2.0272
 9517TIP3   OH228514   1.444   4.966   0.802 -0.3109  0.1369 -0.6679
 9517TIP3    H128515   1.461   5.037   0.864 -1.0555  0.8293 -1.2438
 9517TIP3    H228516   1.429   5.010   0.718  0.7373 -0.7869 -1.3681
 9518TIP3   OH228517   0.256   0.450   1.773 -0.4367 -0.1255 -0.5140
 9518TIP3    H128518   0.251   0.457   1.678 -0.3309  1.4246 -0.4385
 9518TIP3    H228519   0.239   0.539   1.804 -1.3264 -0.7831  0.9616
 9519TIP3   OH228520   4.663   0.390   3.077 -0.8265 -0.6818 -0.1206
 9519TIP3    H128521   4.579   0.436   3.076 -0.3835  0.1505  0.1427
 9519TIP3    H228522   4.703   0.412   2.993  0.6022  1.7779  1.0909
 9520TIP3   OH228523   5.705   1.136   3.812  0.0116 -0.0356  0.3288
 9520TIP3    H128524   5.679   1.056   3.768  1.1277 -0.5751  0.6122
 9520TIP3    H228525   5.684   1.120   3.905 -0.1195  0.1587  0.3340
 9521TIP3   OH228526   7.182   3.968   3.085 -0.5637 -0.7093  0.1168
 9521TIP3    H128527   7.115   3.951   3.152 -0.1433 -0.1623  0.6951
 9521TIP3    H228528   7.263   3.979   3.135 -0.2001 -0.5041 -0.5077
 9522TIP3   OH228529   1.113   2.671   3.558 -0.1104 -0.2728  0.1576
 9522TIP3    H128530   1.130   2.741   3.495  0.0245 -0.8053 -0.4192
 9522TIP3    H228531   1.092   2.716   3.639 -2.3030  0.4797 -0.7482
 9523TIP3   OH228532   6.032   0.298   3.848 -0.2882  0.2074 -0.2924
 9523TIP3    H128533   5.992   0.255   3.772 -0.2699 -1.4974  0.6100
 9523TIP3    H228534   6.113   0.337   3.813  0.2194 -1.3705 -1.0068
 9524TIP3   OH228535   3.254   0.132   4.250 -0.2870  0.3341  0.6291
 9524TIP3    H128536   3.344   0.134   4.285 -0.8287 -0.8132  2.1734
 9524TIP3    H228537   3.264   0.098   4.161  0.8200  0.3326  0.7382
 9525TIP3   OH228538   0.856   6.662   4.359  0.6244  0.1528  0.3424
 9525TIP3    H128539   0.792   6.725   4.390 -0.6534 -0.9116 -0.0601
 9525TIP3    H228540   0.846   6.661   4.264 -0.9630 -2.2127  0.4566
 9526TIP3   OH228541   1.312   6.409   2.175 -0.1942  0.0786 -0.1688
 9526TIP3    H128542   1.327   6.500   2.149  1.4927 -0.1885 -0.2211
 9526TIP3    H228543   1.316   6.360   2.093  0.3357 -0.1953  0.0138
 9527TIP3   OH228544   2.560   1.611   5.470 -0.0848  0.1029  0.1180
 9527TIP3    H128545   2.620   1.651   5.532 -0.7130  0.4764  0.4934
 9527TIP3    H228546   2.500   1.560   5.524  0.8087 -1.5361 -0.3565
 9528TIP3   OH228547   5.038   3.444   3.587  0.0657 -0.7682  0.1760
 9528TIP3    H128548   4.962   3.392   3.612  0.7100 -1.0705  1.5827
 9528TIP3    H228549   5.026   3.528   3.632  0.9386 -1.0994  1.0497
 9529TIP3   OH228550   6.529   0.326   2.075  0.7055  0.1654 -0.1460
 9529TIP3    H128551   6.515   0.372   2.158  0.9253 -0.8754  0.4854
 9529TIP3    H228552   6.598   0.375   2.030 -0.9928  2.1078 -0.7865
 9530TIP3   OH228553   2.659   3.966   5.391  0.4408  0.6012 -0.0701
 9530TIP3    H128554   2.597   3.958   5.319  0.7115 -0.9971 -0.1625
 9530TIP3    H228555   2.740   3.998   5.351  1.0455 -1.6417 -0.7994
 9531TIP3   OH228556   1.297   2.329   5.638  0.4119  0.4736  0.4804
 9531TIP3    H128557   1.360   2.402   5.639  0.6550  0.2663  0.5501
 9531TIP3    H228558   1.257   2.331   5.725  0.2139  0.7008  0.3827
 9532TIP3   OH228559   6.941   1.170   3.280 -0.2484  0.3019 -0.2459
 9532TIP3    H128560   7.012   1.218   3.324  0.2817  0.4795 -1.2649
 9532TIP3    H228561   6.909   1.230   3.213  2.4410 -1.6357 -3.6384
 9533TIP3   OH228562   5.257   5.935   3.988  0.3417  0.0283  0.2860
 9533TIP3    H128563   5.312   5.982   4.051  1.6733 -0.5156 -0.4328
 9533TIP3    H228564   5.298   5.952   3.903  1.7056 -3.4118  0.1015
 9534TIP3   OH228565   1.750   0.243   1.999  0.5587  0.4333 -0.5043
 9534TIP3    H128566   1.790   0.172   2.050 -1.3202 -0.8271 -0.6711
 9534TIP3    H228567   1.731   0.203   1.914  0.7942  1.6000 -1.1278
 9535TIP3   OH228568   6.637   6.095   2.903 -0.2825  0.4050  0.3641
 9535TIP3    H128569   6.647   6.172   2.847  0.2116 -0.0988 -0.2584
 9535TIP3    H228570   6.725   6.077   2.935 -0.5155  0.5182  1.0856
 9536TIP3   OH228571   4.847   2.569   0.786 -0.1394  0.4905 -0.7114
 9536TIP3    H128572   4.778   2.593   0.849 -1.6988  0.6230 -2.4051
 9536TIP3    H228573   4.851   2.643   0.726  2.1213  0.8601 -0.2050
 9537TIP3   OH228574   2.087   1.247   2.900  0.7107  0.7032  0.0583
 9537TIP3    H128575   2.183   1.248   2.906  0.6455  2.6732  1.7594
 9537TIP3    H228576   2.065   1.324   2.848  0.0455 -0.6406 -1.7530
 9538TIP3   OH228577   2.344   5.045   1.567 -0.1670 -0.1978 -0.1559
 9538TIP3    H128578   2.284   5.051   1.642 -0.0219  1.1836 -0.1131
 9538TIP3    H228579   2.428   5.074   1.602  0.4541 -1.7449 -0.3180
 9539TIP3   OH228580   2.045   3.014   4.034  0.3853 -0.3436  0.5113
 9539TIP3    H128581   1.966   2.973   3.998 -0.1455  1.5946 -0.7140
 9539TIP3    H228582   2.015   3.101   4.063  2.0367  0.4087  0.0787
 9540TIP3   OH228583   3.592   3.044   3.444  0.0766 -0.1077 -0.0317
 9540TIP3    H128584   3.687   3.038   3.435  0.2629  0.5216  1.1797
 9540TIP3    H228585   3.564   2.955   3.462  0.4151 -0.3207 -0.5295
 9541TIP3   OH228586   1.582   5.084   3.134  0.8766  0.0706  0.5117
 9541TIP3    H128587   1.643   5.119   3.200 -0.7654 -0.0190  2.1568
 9541TIP3    H228588   1.556   4.999   3.169  1.4150 -0.8765 -1.2531
 9542TIP3   OH228589   4.667   5.347   1.061  0.1905 -0.1173 -0.2791
 9542TIP3    H128590   4.681   5.417   1.125  0.9190  0.2749 -0.8579
 9542TIP3    H228591   4.714   5.272   1.098 -1.0842 -0.4889  0.6317
 9543TIP3   OH228592   2.416   2.448   3.987  0.0293 -0.4021 -0.4179
 9543TIP3    H128593   2.430   2.369   3.934 -2.0553 -0.9858 -0.2054
 9543TIP3    H228594   2.391   2.414   4.074 -0.7802  0.4827 -0.2935
 9544TIP3   OH228595   1.515   1.093   2.123  0.6994 -0.3921 -0.1261
 9544TIP3    H128596   1.470   1.136   2.196  0.2294 -0.5191 -0.3414
 9544TIP3    H228597   1.482   1.003   2.123  0.1892 -0.2157 -0.9071
 9545TIP3   OH228598   3.334   5.263   1.271  0.6237 -0.2360 -0.1087
 9545TIP3    H128599   3.354   5.174   1.242 -0.6166 -1.0984  1.5207
 9545TIP3    H228600   3.404   5.316   1.234  2.6377 -2.2174  0.6602
 9546TIP3   OH228601   4.998   4.205   4.930 -0.0563 -0.4704 -0.4049
 9546TIP3    H128602   5.043   4.123   4.951 -1.1779 -1.0281 -0.0399
 9546TIP3    H228603   5.061   4.255   4.879  1.2280 -0.8930  0.6946
 9547TIP3   OH228604   4.627   4.075   3.994 -0.1661 -0.5040 -0.0968
 9547TIP3    H128605   4.594   4.157   4.029  1.8994 -0.1627  1.1812
 9547TIP3    H228606   4.721   4.089   3.982  0.1314 -2.4764 -0.4522
 9548TIP3   OH228607   7.008   5.024   1.094  0.0954 -0.4087 -0.1393
 9548TIP3    H128608   7.061   5.059   1.023 -1.5053 -0.7565 -1.5662
 9548TIP3    H228609   6.989   5.100   1.150  2.0687 -0.2918  0.4379
 9549TIP3   OH228610   5.456   3.251   4.415 -0.2594 -0.2853  0.1875
 9549TIP3    H128611   5.541   3.205   4.416 -0.6477 -1.0701 -1.0461
 9549TIP3    H228612   5.429   3.249   4.324 -0.9055  1.3145  0.3205
 9550TIP3   OH228613   5.844   1.073   0.932 -0.1216  0.2930 -0.2886
 9550TIP3    H128614   5.799   1.021   0.866 -0.5780 -0.4602  0.6000
 9550TIP3    H228615   5.779   1.137   0.961  0.5528  1.6635 -1.6552
 9551TIP3   OH228616   5.771   6.294   0.116  0.5097  0.6757  0.1775
 9551TIP3    H128617   5.847   6.253   0.075  1.3459  1.1894  1.1571
 9551TIP3    H228618   5.779   6.271   0.209 -0.7164  0.4668  0.2506
 9552TIP3   OH228619   0.755   0.336   1.942 -0.0671  0.2047  0.8412
 9552TIP3    H128620   0.661   0.330   1.924  0.2453  0.2680 -0.9961
 9552TIP3    H228621   0.782   0.420   1.903  0.5795  0.7104  2.2891
 9553TIP3   OH228622   3.803   4.910   3.569 -0.1335  0.5538  0.0511
 9553TIP3    H128623   3.891   4.872   3.574 -0.0621  0.5551 -0.9863
 9553TIP3    H228624   3.744   4.834   3.567 -0.0432  0.5091 -1.1248
 9554TIP3   OH228625   5.595   5.090   3.698  0.4390  0.3423  0.0213
 9554TIP3    H128626   5.506   5.070   3.668  0.7719 -0.9043 -0.2330
 9554TIP3    H228627   5.590   5.085   3.793 -0.0011  1.3979  0.0567
 9555TIP3   OH228628   3.300   0.349   0.507 -0.1665 -0.0303  0.4125
 9555TIP3    H128629   3.311   0.408   0.433  0.3628 -1.0823 -0.3786
 9555TIP3    H228630   3.347   0.270   0.482  0.5810 -0.1892  2.1465
 9556TIP3   OH228631   1.788   0.752   3.750  0.3706 -0.2137  0.2464
 9556TIP3    H128632   1.797   0.812   3.824 -3.0362 -0.3389  0.9496
 9556TIP3    H228633   1.800   0.807   3.673 -1.0174  1.0700  0.8922
 9557TIP3   OH228634   0.036   1.181   5.614  0.1735 -0.3518  0.1441
 9557TIP3    H128635   0.101   1.117   5.582  1.3480 -0.2273  2.0896
 9557TIP3    H228636   0.076   1.266   5.597  1.0547 -0.2822  2.1623
 9558TIP3   OH228637   5.925   6.777   2.772 -0.6444  0.0517  0.2747
 9558TIP3    H128638   5.838   6.757   2.737  0.0977 -0.0985 -1.6028
 9558TIP3    H228639   5.965   6.833   2.705  2.3303 -3.4681 -1.2355
 9559TIP3   OH228640   3.911   1.430   5.475  0.3401  0.1209 -0.0916
 9559TIP3    H128641   3.879   1.484   5.403  2.0760  0.5940 -0.5379
 9559TIP3    H228642   4.005   1.447   5.479  0.7390 -1.9036  0.5683
 9560TIP3   OH228643   5.029   4.576   3.355  0.1826  0.1561 -0.2583
 9560TIP3    H128644   4.993   4.661   3.328  1.4851  0.7567 -0.1967
 9560TIP3    H228645   4.958   4.514   3.340 -0.5123  1.1234 -1.1336
 9561TIP3   OH228646   0.999   5.776   1.269  0.2269 -0.1812 -0.2333
 9561TIP3    H128647   0.996   5.803   1.177  0.0974  0.2207 -0.1116
 9561TIP3    H228648   1.087   5.802   1.298  0.1550 -0.0236 -0.1568
 9562TIP3   OH228649   0.814   0.049   0.273  0.5975  0.1548  0.2860
 9562TIP3    H128650   0.879   0.038   0.343  0.8501  1.5064  0.2835
 9562TIP3    H228651   0.783  -0.040   0.256  3.3128 -0.7358 -0.5631
 9563TIP3   OH228652   2.718   5.417   1.133 -0.5010 -0.7577  0.2607
 9563TIP3    H128653   2.659   5.357   1.179 -0.2887 -0.8740  0.3835
 9563TIP3    H228654   2.797   5.419   1.187 -0.8082  0.2631  0.7025
 9564TIP3   OH228655   2.879   4.455   1.225 -0.0950 -0.0999 -0.0614
 9564TIP3    H128656   2.790   4.485   1.203 -0.6788 -1.7830 -0.1241
 9564TIP3    H228657   2.928   4.464   1.144 -0.7413 -0.9960 -0.5651
 9565TIP3   OH228658   6.213   1.536   2.187 -0.5734  0.5710 -0.4129
 9565TIP3    H128659   6.238   1.622   2.219  0.5437  0.3532 -0.6719
 9565TIP3    H228660   6.227   1.477   2.262  1.6059  0.1356 -1.1037
 9566TIP3   OH228661   6.868   6.306   4.051 -0.2984 -0.1653 -0.3702
 9566TIP3    H128662   6.847   6.254   4.129 -1.2883 -0.2691 -0.6969
 9566TIP3    H228663   6.911   6.384   4.086 -2.5999  0.8073  0.5161
 9567TIP3   OH228664   6.348   4.457   4.769  0.2467 -0.0596  0.6161
 9567TIP3    H128665   6.350   4.463   4.865  1.2607  0.6125  0.5726
 9567TIP3    H228666   6.256   4.443   4.748 -0.1053  0.5647  1.6532
 9568TIP3   OH228667   1.955   3.445   0.425  0.2803  0.0366 -0.9952
 9568TIP3    H128668   1.875   3.499   0.425  0.1270 -0.1140  0.8973
 9568TIP3    H228669   2.012   3.486   0.360 -1.6070 -0.3073 -2.9785
 9569TIP3   OH228670   6.511   3.517   4.228  0.0380 -0.2874  0.1997
 9569TIP3    H128671   6.540   3.606   4.245  0.9614  0.0697 -2.7198
 9569TIP3    H228672   6.423   3.512   4.267 -0.1243  1.9484  0.2103
 9570TIP3   OH228673   2.236   0.040   5.372 -0.1596 -0.3986  0.2805
 9570TIP3    H128674   2.328   0.047   5.348 -0.6590  0.8466 -1.5513
 9570TIP3    H228675   2.209   0.130   5.390 -1.1517 -0.6717  0.2261
 9571TIP3   OH228676   5.956   2.675   1.064  0.7988  0.1366 -0.1905
 9571TIP3    H128677   5.909   2.615   1.007 -0.6459  1.7328 -0.7569
 9571TIP3    H228678   5.893   2.744   1.085  1.7335  0.3673  2.1825
 9572TIP3   OH228679   3.507   3.759   2.454 -0.3305  0.5854 -0.6230
 9572TIP3    H128680   3.570   3.701   2.496  0.7149  1.0346 -1.5153
 9572TIP3    H228681   3.549   3.784   2.372 -1.8008  0.6826 -1.3744
 9573TIP3   OH228682   3.622   3.977   1.384  0.4125 -0.3566  0.6001
 9573TIP3    H128683   3.582   4.040   1.324  0.8489 -2.1953 -1.7838
 9573TIP3    H228684   3.654   4.030   1.457  0.2551  2.0971 -0.9913
 9574TIP3   OH228685   2.807   3.035   5.773 -0.3359 -0.2473  0.4930
 9574TIP3    H128686   2.817   3.127   5.797 -0.5511 -0.5431  1.7915
 9574TIP3    H228687   2.808   3.035   5.677 -0.3721  1.1063  0.4724
 9575TIP3   OH228688   2.021   1.047   1.724 -0.1991 -0.4080  0.4940
 9575TIP3    H128689   1.994   1.092   1.643 -0.5036  0.5916  1.1274
 9575TIP3    H228690   1.967   1.088   1.792  0.4781 -0.8231  1.2869
 9576TIP3   OH228691   6.796   0.084   5.461  0.0243  0.9754 -0.5004
 9576TIP3    H128692   6.852   0.078   5.538  0.7176  0.3932 -1.0377
 9576TIP3    H228693   6.824   0.164   5.417  0.7149  0.4826 -0.9738
 9577TIP3   OH228694   0.256   2.941   2.736  0.6372 -0.6269  0.2630
 9577TIP3    H128695   0.235   2.905   2.650 -3.7429  0.2377  0.7072
 9577TIP3    H228696   0.267   2.864   2.792  0.6525 -1.2010 -0.5124
 9578TIP3   OH228697   5.056   1.810   2.431  0.6568 -0.2068 -0.6200
 9578TIP3    H128698   5.037   1.873   2.500 -0.2488 -0.0460 -0.9970
 9578TIP3    H228699   4.996   1.737   2.447 -0.0182  0.1130 -1.5815
 9579TIP3   OH228700   3.500   2.134   4.553  0.0099 -0.2037  0.2926
 9579TIP3    H128701   3.576   2.157   4.607  0.2675  0.3977 -0.3003
 9579TIP3    H228702   3.525   2.052   4.510  0.6483  0.3692 -0.4721
 9580TIP3   OH228703   5.920   5.862   2.233 -0.8415  0.0541  0.0917
 9580TIP3    H128704   5.995   5.811   2.264 -0.8276  0.6879  1.1506
 9580TIP3    H228705   5.947   5.953   2.243 -1.6468  0.2876  0.2072
 9581TIP3   OH228706   0.545   4.468   0.680  0.1538  0.3947  0.4221
 9581TIP3    H128707   0.521   4.453   0.772 -0.3726  0.0057  0.2258
 9581TIP3    H228708   0.465   4.502   0.640  0.4327  0.7252  0.1444
 9582TIP3   OH228709   0.502   2.567   4.194 -0.0919  0.0860 -0.0892
 9582TIP3    H128710   0.480   2.603   4.108 -2.1015  1.4645  0.9259
 9582TIP3    H228711   0.568   2.626   4.228 -1.0568  0.9932  0.2623
 9583TIP3   OH228712   0.788   6.434   4.582  0.5886 -0.5679 -0.7877
 9583TIP3    H128713   0.743   6.351   4.599  1.7348 -0.8011  1.4053
 9583TIP3    H228714   0.723   6.501   4.601  0.4602 -0.9412  0.1449
 9584TIP3   OH228715   3.332   3.141   1.289  0.1825 -0.3474  0.4893
 9584TIP3    H128716   3.338   3.222   1.238 -0.5358  0.9291  2.2913
 9584TIP3    H228717   3.423   3.115   1.303  0.5132  1.0972  1.2438
 9585TIP3   OH228718   2.833   0.768   3.202 -0.0301 -0.1706 -0.5854
 9585TIP3    H128719   2.846   0.676   3.182 -0.2101  0.0034 -1.5738
 9585TIP3    H228720   2.752   0.771   3.254  0.2719 -0.6160 -0.0943
 9586TIP3   OH228721   5.028   4.387   2.581  0.1903  0.4132  0.1367
 9586TIP3    H128722   4.966   4.338   2.527  1.0737 -1.4604  0.7336
 9586TIP3    H228723   4.975   4.428   2.649 -0.6159  0.5900 -0.5810
 9587TIP3   OH228724   2.611   2.781   3.314 -0.3823 -0.0738 -0.3281
 9587TIP3    H128725   2.584   2.827   3.393 -1.5516  0.1721 -0.8422
 9587TIP3    H228726   2.689   2.827   3.284 -0.1827  0.0957  0.4491
 9588TIP3   OH228727   5.930   4.398   0.417 -0.0475  0.3179  0.1520
 9588TIP3    H128728   5.924   4.477   0.471 -1.5229  0.3518 -0.0015
 9588TIP3    H228729   5.944   4.327   0.479  1.6196  0.7113  0.2646
 9589TIP3   OH228730   2.778   2.154   0.406 -0.1135  0.0375 -0.2680
 9589TIP3    H128731   2.705   2.159   0.344 -0.7137  3.5942  0.4838
 9589TIP3    H228732   2.737   2.131   0.489 -0.1528  0.3814 -0.1883
 9590TIP3   OH228733   2.299   5.039   4.945 -0.1381 -0.1635 -0.0069
 9590TIP3    H128734   2.236   5.074   5.008 -1.2795 -1.0438 -0.6240
 9590TIP3    H228735   2.248   4.979   4.891  1.1758 -0.6652 -0.7305
 9591TIP3   OH228736   1.008   0.432   2.909  0.0266  0.5020  0.0940
 9591TIP3    H128737   1.025   0.524   2.887 -0.7297  0.6059 -0.0753
 9591TIP3    H228738   1.078   0.409   2.971  1.2001  0.6992 -1.1165
 9592TIP3   OH228739   3.218   3.454   0.211  0.0808  0.1161  0.4614
 9592TIP3    H128740   3.142   3.493   0.167  0.6389  0.6334 -0.0512
 9592TIP3    H228741   3.289   3.461   0.147  0.2055 -1.7474  0.3568
 9593TIP3   OH228742   2.770   4.079   3.185 -0.6659  0.0292 -0.4047
 9593TIP3    H128743   2.858   4.111   3.204 -0.8620  0.2172  0.2086
 9593TIP3    H228744   2.718   4.158   3.170 -0.5979 -0.1036 -1.3839
 9594TIP3   OH228745   1.797   4.031   4.364 -0.3130  0.3020 -0.3405
 9594TIP3    H128746   1.753   3.950   4.386 -0.7077  0.3653 -0.8642
 9594TIP3    H228747   1.726   4.093   4.346 -0.0777  1.3253  1.8841
 9595TIP3   OH228748   0.109   2.273   1.796  0.1936  0.5011 -0.3824
 9595TIP3    H128749   0.088   2.228   1.714 -0.5203  0.5971 -0.2561
 9595TIP3    H228750   0.203   2.292   1.789 -0.0037  1.1763 -1.5127
 9596TIP3   OH228751   1.902   0.801   4.227  0.7027  0.2286  0.9550
 9596TIP3    H128752   1.910   0.708   4.251 -0.0903 -0.0006  0.3840
 9596TIP3    H228753   1.860   0.842   4.302 -3.0651 -0.7378 -0.3709
 9597TIP3   OH228754   5.454   0.865   3.912 -0.2219  0.3716 -0.0536
 9597TIP3    H128755   5.431   0.935   3.973 -1.6841 -0.1656  0.0517
 9597TIP3    H228756   5.456   0.786   3.965  1.0301  0.2460 -0.2473
 9598TIP3   OH228757   4.986   1.683   0.181 -0.1934 -0.5811 -0.0702
 9598TIP3    H128758   5.067   1.645   0.148  1.2393  1.0631  1.3803
 9598TIP3    H228759   4.982   1.657   0.273 -1.4219 -0.8020 -0.1660
 9599TIP3   OH228760   0.619   5.771   3.593 -0.2690 -0.1066 -0.1299
 9599TIP3    H128761   0.563   5.758   3.669  0.1286  1.5477  0.4841
 9599TIP3    H228762   0.622   5.685   3.551  1.0202 -1.6368  2.7499
 9600TIP3   OH228763   6.412   3.811   2.410 -0.1204 -0.3881 -0.1206
 9600TIP3    H128764   6.482   3.774   2.356  0.1831 -0.3558  0.2441
 9600TIP3    H228765   6.433   3.904   2.418 -0.5416 -0.2539 -0.5153
 9601TIP3   OH228766   2.037   3.955   3.836  0.0526  0.0965 -0.2121
 9601TIP3    H128767   1.949   3.990   3.844 -0.0975 -0.3792  0.3348
 9601TIP3    H228768   2.068   3.948   3.927  0.4057 -0.3354 -0.3605
 9602TIP3   OH228769   4.120   4.941   1.466  0.7297 -0.1196  0.5688
 9602TIP3    H128770   4.169   4.909   1.390 -0.8133  1.0329 -1.0053
 9602TIP3    H228771   4.032   4.907   1.453  0.9014 -1.7042  3.0561
 9603TIP3   OH228772   3.260   4.526   5.058 -0.3844  0.2410  0.0502
 9603TIP3    H128773   3.321   4.464   5.019  0.5832  0.2664  1.4215
 9603TIP3    H228774   3.262   4.602   5.000  0.1153 -0.1552 -0.4642
 9604TIP3   OH228775   5.876   1.049   5.626  0.1090 -0.1080 -0.1970
 9604TIP3    H128776   5.893   0.987   5.555 -2.6855  0.3307 -1.3835
 9604TIP3    H228777   5.953   1.105   5.629  2.5183 -3.1613  0.5536
 9605TIP3   OH228778   3.372   3.592   0.025 -0.2090  0.2264 -0.2938
 9605TIP3    H128779   3.393   3.610  -0.067 -1.2459  1.5714 -0.2939
 9605TIP3    H228780   3.454   3.608   0.072  0.6913 -1.6977 -1.0775
 9606TIP3   OH228781   2.171   5.273   0.754  0.0576  0.1578  0.9452
 9606TIP3    H128782   2.145   5.277   0.846  0.7708  2.3154  1.1025
 9606TIP3    H228783   2.250   5.220   0.755  0.0005  0.0687  1.5555
 9607TIP3   OH228784   0.694   4.249   1.583  0.3688 -0.4652 -0.4397
 9607TIP3    H128785   0.605   4.266   1.552  0.0277  0.4704  0.9648
 9607TIP3    H228786   0.703   4.154   1.579 -0.9769 -0.6373  0.1265
 9608TIP3   OH228787   1.609   6.193   2.551  0.0720 -0.0124 -0.0663
 9608TIP3    H128788   1.562   6.196   2.467  1.0494  0.5120 -0.6132
 9608TIP3    H228789   1.613   6.285   2.579  1.1124  0.0052 -0.2337
 9609TIP3   OH228790   3.173   6.052   1.048 -0.2814  0.1012  0.2563
 9609TIP3    H128791   3.144   6.132   1.003 -0.7662 -0.0771  0.2409
 9609TIP3    H228792   3.183   5.987   0.979 -2.2028 -0.5182  0.4989
 9610TIP3   OH228793   3.292   3.311   2.860  0.0696 -0.2632 -0.4113
 9610TIP3    H128794   3.319   3.393   2.901 -1.3400  0.4298 -0.7911
 9610TIP3    H228795   3.278   3.334   2.768 -2.3291 -0.3851 -0.1439
 9611TIP3   OH228796   4.988   5.961   3.809  0.0027  0.3544 -0.6264
 9611TIP3    H128797   4.945   6.039   3.775 -1.5787 -1.0193 -1.9491
 9611TIP3    H228798   4.956   5.890   3.754  0.5781 -1.4058  1.1845
 9612TIP3   OH228799   6.667   2.659   0.633 -0.2932 -0.0224  0.1896
 9612TIP3    H128800   6.745   2.679   0.685 -0.8224  1.5069  0.4273
 9612TIP3    H228801   6.702   2.638   0.546  0.3895  0.7324  0.2695
 9613TIP3   OH228802   7.126   6.034   4.277  0.0910 -0.1750 -0.1019
 9613TIP3    H128803   7.099   5.945   4.255  1.3902 -0.7270  0.4159
 9613TIP3    H228804   7.151   6.074   4.194  1.4062 -0.9893 -0.1219
 9614TIP3   OH228805   5.341   1.145   1.047 -0.0400 -0.6002 -0.2466
 9614TIP3    H128806   5.359   1.109   1.134 -0.5097 -1.1316 -0.3669
 9614TIP3    H228807   5.292   1.225   1.063  1.8823  0.5894  0.0724
 9615TIP3   OH228808   3.956   4.184   3.021 -0.7699  0.0874  0.4201
 9615TIP3    H128809   3.909   4.130   2.957 -1.4253  0.2906  0.7232
 9615TIP3    H228810   3.891   4.205   3.087 -0.3065  0.5771  0.7292
 9616TIP3   OH228811   4.813   0.793   0.266  0.9378 -0.2368 -0.6143
 9616TIP3    H128812   4.818   0.868   0.207 -0.8379 -1.6541 -2.7207
 9616TIP3    H228813   4.863   0.724   0.222  0.7234 -0.9300  0.2072
 9617TIP3   OH228814   2.189   2.453   4.450  0.2606  0.2898 -0.2338
 9617TIP3    H128815   2.130   2.448   4.375 -1.5519  1.3264  1.0257
 9617TIP3    H228816   2.149   2.519   4.506  2.4165  0.6880  0.9221
 9618TIP3   OH228817   5.701   3.570   3.284 -0.1253  0.1323  0.0797
 9618TIP3    H128818   5.670   3.497   3.231  2.2474 -1.4909  0.7589
 9618TIP3    H228819   5.682   3.543   3.374  0.0064  0.7235  0.2868
 9619TIP3   OH228820   4.927   1.939   4.141  0.4116 -0.6927 -0.0541
 9619TIP3    H128821   5.010   1.937   4.189  0.2664  1.6970  0.4483
 9619TIP3    H228822   4.867   1.987   4.199 -0.3256  0.5968 -1.7779
 9620TIP3   OH228823   5.857   5.755   0.446  0.1506 -0.4425 -0.2905
 9620TIP3    H128824   5.851   5.659   0.444 -1.8808 -0.3631  0.2994
 9620TIP3    H228825   5.777   5.783   0.490  0.3044  1.5807 -1.2075
 9621TIP3   OH228826   1.863   4.121   2.679 -0.2451  0.2855  0.0201
 9621TIP3    H128827   1.949   4.161   2.668  0.5695 -1.2242  0.6679
 9621TIP3    H228828   1.832   4.154   2.763  0.7436 -0.9650  0.9009
 9622TIP3   OH228829   5.203   1.297   3.550  0.9915 -0.0565 -0.1544
 9622TIP3    H128830   5.109   1.297   3.570  0.5134 -0.6515 -2.1740
 9622TIP3    H228831   5.232   1.209   3.575  0.3938 -0.8020 -1.8826
 9623TIP3   OH228832   6.962   2.650   2.794  0.2401  0.3791  0.3253
 9623TIP3    H128833   6.939   2.570   2.843  1.1886 -0.1282 -0.0182
 9623TIP3    H228834   7.015   2.701   2.855 -0.6721  0.9404  0.6727
 9624TIP3   OH228835   2.903   6.634   5.492  0.3971 -0.2758  0.0217
 9624TIP3    H128836   2.916   6.728   5.489  0.4726 -0.3037 -0.7849
 9624TIP3    H228837   2.981   6.600   5.536  0.2597  0.0535  0.5215
 9625TIP3   OH228838   1.760   0.478   0.186  0.1670 -0.0846 -0.4250
 9625TIP3    H128839   1.751   0.495   0.280 -0.4562 -0.3309 -0.4400
 9625TIP3    H228840   1.671   0.471   0.154  0.1520  3.4325 -1.6788
 9626TIP3   OH228841   1.711   1.082   0.483  0.3672 -0.0427 -0.0599
 9626TIP3    H128842   1.686   1.129   0.563 -1.5893 -1.1780  0.0513
 9626TIP3    H228843   1.795   1.041   0.506  0.5172  0.7567  0.9259
 9627TIP3   OH228844   0.434   4.987   2.812 -0.3089  0.1408 -0.2980
 9627TIP3    H128845   0.523   4.951   2.816 -0.2545 -0.3557 -3.4481
 9627TIP3    H228846   0.442   5.075   2.848  1.0234 -0.5664  1.2547
 9628TIP3   OH228847   1.352   1.169   4.903 -0.0026 -0.7265  0.4509
 9628TIP3    H128848   1.289   1.232   4.867  0.5038  0.2737  1.2600
 9628TIP3    H228849   1.406   1.143   4.828  0.0567  0.1472  0.1773
 9629TIP3   OH228850   1.463   0.539   5.454  0.3320  0.0447  0.3345
 9629TIP3    H128851   1.373   0.572   5.448 -0.1219 -1.3354 -1.6634
 9629TIP3    H228852   1.453   0.448   5.484  0.9410 -0.4115 -0.7640
 9630TIP3   OH228853   6.434   2.765   4.148 -0.1901  0.1148  0.3215
 9630TIP3    H128854   6.340   2.754   4.161 -0.3779 -0.5047 -1.2895
 9630TIP3    H228855   6.473   2.687   4.185 -0.6325 -1.2085 -1.8180
 9631TIP3   OH228856   5.391   2.695   4.329 -0.5450  0.0584  0.2049
 9631TIP3    H128857   5.371   2.616   4.379 -3.0653  0.1708 -0.5156
 9631TIP3    H228858   5.408   2.665   4.240 -0.3853  0.2331  0.1742
 9632TIP3   OH228859   3.521   2.932   5.630 -0.1695  0.0857 -0.4893
 9632TIP3    H128860   3.525   3.025   5.655 -1.3520  0.8421 -2.7707
 9632TIP3    H228861   3.600   2.917   5.578 -0.7414  0.2973 -1.4491
 9633TIP3   OH228862   7.164   5.713   5.449  0.3240  0.3219  0.3778
 9633TIP3    H128863   7.224   5.668   5.390 -0.6041 -0.9043  0.3332
 9633TIP3    H228864   7.215   5.786   5.485  2.0734 -1.1232  0.9360
 9634TIP3   OH228865   6.422   2.648   5.397 -0.4050 -0.1507  0.3290
 9634TIP3    H128866   6.348   2.695   5.436  0.2187  2.3859 -1.3723
 9634TIP3    H228867   6.382   2.569   5.359 -2.2030  0.9745 -0.2537
 9635TIP3   OH228868   3.370   2.582   2.996  0.3757 -0.0787  0.1834
 9635TIP3    H128869   3.455   2.617   2.968  1.1184 -0.4351  1.8551
 9635TIP3    H228870   3.314   2.591   2.919  1.3332  2.1060 -0.3309
 9636TIP3   OH228871   5.584   1.496   1.843  0.8753  0.1044 -0.3346
 9636TIP3    H128872   5.673   1.460   1.841  0.8261 -0.0049 -0.6548
 9636TIP3    H228873   5.549   1.478   1.756  0.1242 -0.8814  0.1590
 9637TIP3   OH228874   6.965   4.749   0.543 -0.3990 -0.1743  0.3492
 9637TIP3    H128875   6.963   4.687   0.470  0.6310  0.0291  0.1464
 9637TIP3    H228876   6.889   4.806   0.528 -1.6152 -1.5927  0.7503
 9638TIP3   OH228877   4.387   0.370   1.817  0.0892 -0.0041 -0.1284
 9638TIP3    H128878   4.321   0.346   1.882  0.6967 -0.5537  0.3015
 9638TIP3    H228879   4.355   0.331   1.735  0.2540 -0.9315  0.2344
 9639TIP3   OH228880   5.056   2.300   2.687 -0.2659 -0.0110 -0.2982
 9639TIP3    H128881   4.983   2.322   2.745 -1.2015  0.9958 -1.7859
 9639TIP3    H228882   5.046   2.206   2.670  0.1767 -0.3736  1.3258
 9640TIP3   OH228883   5.497   4.482   0.235  0.5144 -0.2949  0.0958
 9640TIP3    H128884   5.450   4.549   0.284 -0.0947 -0.9932  0.4832
 9640TIP3    H228885   5.478   4.501   0.144  0.3853  0.0826  0.1994
 9641TIP3   OH228886   0.932   2.065   3.827 -0.0627  0.6404  0.6122
 9641TIP3    H128887   1.012   2.076   3.878 -0.2548 -0.5945  1.1926
 9641TIP3    H228888   0.953   2.105   3.742  1.3797 -0.1651  0.5572
 9642TIP3   OH228889   5.851   4.869   3.477 -0.3244  0.4072 -0.0743
 9642TIP3    H128890   5.901   4.821   3.411 -0.2400 -1.6700  1.3695
 9642TIP3    H228891   5.761   4.870   3.444 -0.0240  0.7688 -0.9094
 9643TIP3   OH228892   5.023   4.607   0.363 -0.0445 -0.3566 -0.0194
 9643TIP3    H128893   5.003   4.541   0.429 -0.3292 -0.0953  0.1575
 9643TIP3    H228894   5.014   4.561   0.279  0.9278 -0.8546  0.1349
 9644TIP3   OH228895   0.041   5.971   5.073  0.2616 -0.2416  0.0856
 9644TIP3    H128896  -0.023   5.900   5.080  2.5038 -2.2844  1.8137
 9644TIP3    H228897   0.125   5.927   5.056  1.0451  2.4338 -4.7434
 9645TIP3   OH228898   1.491   5.660   5.113 -0.5975 -0.0533  0.8914
 9645TIP3    H128899   1.507   5.752   5.091  3.2640 -0.2429  2.1652
 9645TIP3    H228900   1.440   5.663   5.193  0.8770  1.0953  1.8332
 9646TIP3   OH228901   4.845   2.905   1.939 -0.3010 -0.7945  0.4676
 9646TIP3    H128902   4.843   2.871   1.850 -1.7586  2.2945 -0.8504
 9646TIP3    H228903   4.762   2.952   1.949  1.2795  1.9917  2.0629
 9647TIP3   OH228904   5.839   0.249   4.325  0.0086 -0.0442  0.3645
 9647TIP3    H128905   5.886   0.216   4.248 -1.4583 -1.5968  0.0741
 9647TIP3    H228906   5.892   0.221   4.399  1.9138  2.2374 -0.0323
 9648TIP3   OH228907   1.742   2.465   4.563 -0.1770 -0.3873  0.0319
 9648TIP3    H128908   1.803   2.405   4.521  0.5995  0.9099 -0.7661
 9648TIP3    H228909   1.793   2.505   4.633 -0.8506 -1.0163  0.9068
 9649TIP3   OH228910   1.650   5.795   1.434 -0.5875  0.0297 -0.1398
 9649TIP3    H128911   1.721   5.812   1.372 -0.3462  0.6476  0.2801
 9649TIP3    H228912   1.599   5.876   1.434  0.1135  0.5260  1.3336
 9650TIP3   OH228913   1.202   0.932   0.694 -0.4590 -0.7064 -0.6174
 9650TIP3    H128914   1.272   0.995   0.707 -1.4344  0.1756  0.6354
 9650TIP3    H228915   1.242   0.846   0.709  0.0812 -0.1439  1.3547
 9651TIP3   OH228916   5.658   3.028   2.316  0.1278  0.6775 -0.4639
 9651TIP3    H128917   5.613   3.043   2.233 -0.8549 -0.8113 -0.2546
 9651TIP3    H228918   5.686   3.115   2.345 -1.3418  1.4783 -1.3360
 9652TIP3   OH228919   4.922   5.809   1.197 -0.5801 -0.1039 -0.2381
 9652TIP3    H128920   5.013   5.835   1.189 -0.4900 -0.5382 -0.6961
 9652TIP3    H228921   4.875   5.889   1.221 -0.2055  0.3014 -0.8393
 9653TIP3   OH228922   1.771   6.583   4.525  0.2357  0.1272 -0.3709
 9653TIP3    H128923   1.831   6.637   4.577 -1.5692 -0.0554  2.1141
 9653TIP3    H228924   1.827   6.532   4.468  2.2740  1.4943  0.2893
 9654TIP3   OH228925   2.176   3.629   1.998 -0.9026 -0.0095 -0.1453
 9654TIP3    H128926   2.208   3.639   1.909 -0.3309  3.4080  0.3176
 9654TIP3    H228927   2.230   3.559   2.035 -1.0049 -1.3438 -2.3298
 9655TIP3   OH228928   4.622   4.879   3.125 -0.0697  0.1916 -0.1909
 9655TIP3    H128929   4.583   4.920   3.048  1.3238 -0.7274 -1.4434
 9655TIP3    H228930   4.583   4.792   3.129 -1.4811  0.8402  1.2489
 9656TIP3   OH228931   4.719   4.504   0.142  0.1654 -0.0518 -0.4757
 9656TIP3    H128932   4.650   4.523   0.205  0.6196 -0.0942  0.0423
 9656TIP3    H228933   4.756   4.421   0.173  1.1511  0.5085 -0.1295
 9657TIP3   OH228934   2.451   3.025   3.531  0.1538  0.2268 -0.2718
 9657TIP3    H128935   2.362   3.056   3.550  0.6382  1.0434  0.7798
 9657TIP3    H228936   2.497   3.102   3.498  1.0595  0.4083  1.2974
 9658TIP3   OH228937   2.941   3.670   5.418  0.3028 -0.0536 -0.0504
 9658TIP3    H128938   2.953   3.633   5.506  2.7873 -2.4743 -1.2584
 9658TIP3    H228939   2.850   3.700   5.417 -0.2666 -1.3225  2.8401
 9659TIP3   OH228940   2.082   5.028   2.154 -0.2646 -0.0205  0.3237
 9659TIP3    H128941   2.126   5.000   2.235  1.5566 -0.3225 -0.7272
 9659TIP3    H228942   2.108   5.120   2.143 -1.1171  0.2502  0.4340
 9660TIP3   OH228943   5.769   2.262   4.539  0.0215 -0.0712  0.3942
 9660TIP3    H128944   5.708   2.237   4.608 -1.5202  1.4352 -0.3421
 9660TIP3    H228945   5.720   2.247   4.458  1.3160 -0.5424 -0.3331
 9661TIP3   OH228946   4.736   6.068   3.795 -0.2186 -0.0504  0.0703
 9661TIP3    H128947   4.643   6.081   3.813 -0.1472  1.2353 -0.4344
 9661TIP3    H228948   4.779   6.144   3.834  0.4088  0.3624 -1.3681
 9662TIP3   OH228949   6.677   3.229   5.282 -0.0846  0.1058 -0.4248
 9662TIP3    H128950   6.615   3.204   5.213 -0.7261 -0.8911  0.4881
 9662TIP3    H228951   6.763   3.208   5.245 -0.3597  0.2685 -1.1918
 9663TIP3   OH228952   2.038   0.167   5.628 -0.2309 -0.0323 -0.9533
 9663TIP3    H128953   2.087   0.191   5.550  1.6544 -0.9061 -0.1001
 9663TIP3    H228954   2.027   0.072   5.621 -0.8277  0.0028 -0.5819
 9664TIP3   OH228955   5.168   2.269   3.755 -0.4792 -0.4202 -0.2150
 9664TIP3    H128956   5.174   2.177   3.730 -0.0694 -0.2065 -0.9202
 9664TIP3    H228957   5.193   2.271   3.847  1.3754 -0.7714 -0.6708
 9665TIP3   OH228958   4.474   3.760   2.205  0.1240  0.6230  0.2760
 9665TIP3    H128959   4.518   3.709   2.273  0.2958  0.1927 -0.1503
 9665TIP3    H228960   4.511   3.727   2.123 -2.4439 -1.2419 -0.2486
 9666TIP3   OH228961   0.130   5.589   0.159  0.9747 -0.1741  0.5465
 9666TIP3    H128962   0.155   5.657   0.096  0.8768  0.7052  1.4264
 9666TIP3    H228963   0.103   5.638   0.237  0.6856 -1.2277  1.1221
 9667TIP3   OH228964   0.575   3.408   0.675 -0.3301 -0.1934 -0.2269
 9667TIP3    H128965   0.591   3.442   0.587 -1.3594  0.5380 -0.1486
 9667TIP3    H228966   0.532   3.324   0.660 -0.4580 -0.0945 -0.4248
 9668TIP3   OH228967   0.058   0.169   0.594  0.1023 -0.1217 -0.2532
 9668TIP3    H128968   0.151   0.174   0.575  0.0210  1.3095 -0.3654
 9668TIP3    H228969   0.023   0.254   0.567 -1.1194 -0.3951  0.3852
 9669TIP3   OH228970   7.079   5.391   3.541  0.1892  0.2957 -0.4199
 9669TIP3    H128971   7.146   5.402   3.609  0.2824 -1.6412 -0.1449
 9669TIP3    H228972   7.004   5.441   3.574  0.5585  0.1711  0.6579
 9670TIP3   OH228973   4.062   3.129   1.580  0.1855 -0.5375 -0.1896
 9670TIP3    H128974   3.970   3.134   1.607 -0.1750 -2.5004 -0.8906
 9670TIP3    H228975   4.064   3.162   1.491 -0.2649 -2.3704 -0.9312
 9671TIP3   OH228976   1.639   3.666   4.141 -0.1903 -0.0173  0.4378
 9671TIP3    H128977   1.682   3.737   4.092 -0.7377  0.0719  0.0702
 9671TIP3    H228978   1.550   3.699   4.156 -1.0152 -1.2855 -1.2357
 9672TIP3   OH228979   6.033   4.640   5.249 -0.1656 -0.0264  0.2297
 9672TIP3    H128980   5.987   4.576   5.195 -0.4512  1.1000 -0.9039
 9672TIP3    H228981   6.104   4.672   5.194  0.6887 -0.1866  1.1996
 9673TIP3   OH228982   3.646   5.686   5.841 -0.0076 -0.0521  0.5087
 9673TIP3    H128983   3.689   5.732   5.769 -0.7725 -0.8286 -0.4575
 9673TIP3    H228984   3.719   5.655   5.896  0.5441  1.5250  0.7212
 9674TIP3   OH228985   2.865   5.936   5.513 -0.2462 -0.5105  0.7454
 9674TIP3    H128986   2.923   5.894   5.448  0.6774 -0.9531  1.8266
 9674TIP3    H228987   2.846   5.866   5.576  0.6861  0.4657  2.1582
 9675TIP3   OH228988   3.267   5.461   5.157 -0.3231 -0.4713 -0.2151
 9675TIP3    H128989   3.173   5.450   5.151 -0.4134  0.1972 -0.0997
 9675TIP3    H228990   3.283   5.553   5.135  0.4856 -0.9940 -2.0621
 9676TIP3   OH228991   3.633   2.664   2.948 -0.3018  0.2870 -0.8361
 9676TIP3    H128992   3.694   2.730   2.916  0.2498  0.2135  0.0461
 9676TIP3    H228993   3.654   2.654   3.041  0.4839 -2.0254 -1.1858
 9677TIP3   OH228994  -0.035   6.110   5.287 -0.0457  0.0313  0.2617
 9677TIP3    H128995   0.002   6.061   5.214  0.6826  1.0797 -0.1058
 9677TIP3    H228996   0.038   6.162   5.320 -0.7239  0.6842  0.7708
 9678TIP3   OH228997   6.925   5.088   0.654 -0.6605 -0.0947 -0.1078
 9678TIP3    H128998   7.011   5.122   0.633 -1.1000  0.5940 -0.8481
 9678TIP3    H228999   6.910   5.117   0.745 -0.2873  0.1489 -0.1198
 9679TIP3   OH229000   3.049   4.624   3.178  0.3924 -0.3073 -0.0823
 9679TIP3    H129001   2.990   4.601   3.251  0.0858 -0.2221 -0.3021
 9679TIP3    H229002   3.135   4.630   3.219 -0.1930  3.1552  1.0224
 9680TIP3   OH229003   2.350   5.656   0.511 -0.4355 -0.0791  0.3985
 9680TIP3    H129004   2.400   5.717   0.455  0.6112 -0.5989  0.7507
 9680TIP3    H229005   2.415   5.619   0.570 -0.9251 -2.0148 -0.2027
 9681TIP3   OH229006   6.637   6.229   0.850  0.6909  0.1086  0.2945
 9681TIP3    H129007   6.570   6.204   0.786 -0.4267  0.2292  1.3630
 9681TIP3    H229008   6.695   6.154   0.855 -0.3071 -0.6670  0.5119
 9682TIP3   OH229009   2.178   5.412   5.671  0.5946 -0.2119 -0.2190
 9682TIP3    H129010   2.227   5.460   5.604  0.8904  0.1987  0.2798
 9682TIP3    H229011   2.224   5.432   5.752  0.3289 -0.8237  0.0856
 9683TIP3   OH229012   5.591   0.716   5.602  0.6258  0.4791 -0.1224
 9683TIP3    H129013   5.498   0.739   5.590  0.7393  1.0378  0.0439
 9683TIP3    H229014   5.592   0.620   5.600 -0.5419  0.2049  4.0538
 9684TIP3   OH229015   2.125   1.297   3.379 -0.1163  0.3343 -0.1411
 9684TIP3    H129016   2.213   1.291   3.344 -0.1959  0.9250 -0.4450
 9684TIP3    H229017   2.068   1.297   3.301 -0.3524  0.5215  0.0304
 9685TIP3   OH229018   6.641   6.442   4.800  0.1603 -0.0121  0.1087
 9685TIP3    H129019   6.635   6.515   4.739 -0.6135 -0.2103 -0.0593
 9685TIP3    H229020   6.723   6.398   4.777 -0.4390 -0.4785 -1.2379
 9686TIP3   OH229021   4.644   2.530   3.688 -0.2801  0.6655 -0.5177
 9686TIP3    H129022   4.579   2.508   3.622 -0.5813  0.3981 -0.1338
 9686TIP3    H229023   4.594   2.545   3.768  0.1958 -0.4403  0.0022
 9687TIP3   OH229024   5.581   4.416   2.485  0.1042  0.4125  0.4035
 9687TIP3    H129025   5.608   4.506   2.499  0.7636 -0.0093  2.0953
 9687TIP3    H229026   5.486   4.417   2.498 -0.0839  1.0758 -0.9094
 9688TIP3   OH229027   5.067   4.637   2.941  0.2162 -0.1655 -0.1536
 9688TIP3    H129028   4.996   4.674   2.993  0.5969 -2.1026  1.8754
 9688TIP3    H229029   5.135   4.705   2.942 -0.3985  0.4544  0.5468
 9689TIP3   OH229030   3.399   3.509   0.548  0.3476  0.4799 -0.4585
 9689TIP3    H129031   3.378   3.416   0.549 -0.8847  0.7118  1.6583
 9689TIP3    H229032   3.318   3.552   0.521  0.1969  1.0299  0.8076
 9690TIP3   OH229033   2.721   5.799   4.903 -0.0613 -0.2223  0.4770
 9690TIP3    H129034   2.733   5.745   4.981  0.2731 -0.3990  0.3095
 9690TIP3    H229035   2.810   5.810   4.868 -0.1130  0.5154  0.5573
 9691TIP3   OH229036   6.431   4.856   0.927 -0.2134 -0.1220 -0.8336
 9691TIP3    H129037   6.517   4.897   0.916 -0.0820 -0.4508 -1.0487
 9691TIP3    H229038   6.379   4.888   0.853 -0.7997  1.3700  0.1665
 9692TIP3   OH229039   5.914   1.507   1.942 -0.4449 -0.2364 -0.1109
 9692TIP3    H129040   5.894   1.465   1.859 -2.5296 -1.8130  1.0917
 9692TIP3    H229041   6.002   1.544   1.930 -0.5382 -0.7224 -2.8423
 9693TIP3   OH229042   7.178   2.724   3.797  0.1900 -0.2283  0.5592
 9693TIP3    H129043   7.140   2.800   3.755  0.8794  0.3940  1.0201
 9693TIP3    H229044   7.115   2.654   3.783  0.5195 -0.1377 -1.7440
 9694TIP3   OH229045   3.584   1.995   1.092  0.3274 -0.3231  0.1823
 9694TIP3    H129046   3.521   1.937   1.134  0.0996 -0.4668 -0.3560
 9694TIP3    H229047   3.669   1.954   1.108  0.1644 -0.8321 -0.2321
 9695TIP3   OH229048   1.675   4.089   4.624 -0.5064  0.1641  0.3854
 9695TIP3    H129049   1.660   4.029   4.551  2.2711 -1.0609  0.7137
 9695TIP3    H229050   1.675   4.033   4.702  0.9932  0.7261  0.8187
 9696TIP3   OH229051   2.112   0.879   1.278 -0.4242  0.0080  0.1011
 9696TIP3    H129052   2.152   0.965   1.292 -1.1727  0.3239  0.3408
 9696TIP3    H229053   2.184   0.817   1.289 -0.1848  0.5015  1.5020
 9697TIP3   OH229054   1.603   4.852   5.006 -0.1780  0.0279  0.3619
 9697TIP3    H129055   1.597   4.868   5.100  0.6163 -1.4420  0.6912
 9697TIP3    H229056   1.666   4.917   4.975 -0.5774  0.6393  0.8159
 9698TIP3   OH229057   0.706   2.283   0.152 -0.1151 -0.4823  0.0182
 9698TIP3    H129058   0.659   2.273   0.235  0.8739 -1.4111  0.4942
 9698TIP3    H229059   0.646   2.248   0.086 -0.4306 -0.8690  0.5029
 9699TIP3   OH229060   2.306   2.172   2.032  0.6796  0.4236 -0.1309
 9699TIP3    H129061   2.347   2.187   2.117  0.6015 -0.7298  0.1347
 9699TIP3    H229062   2.214   2.191   2.046  1.1736  4.5841 -1.1251
 9700TIP3   OH229063   0.454   0.296   4.588  0.2145  0.0145 -0.0998
 9700TIP3    H129064   0.410   0.348   4.655 -0.9724 -0.7299 -0.2814
 9700TIP3    H229065   0.514   0.240   4.637 -0.1540 -0.0501  0.2805
 9701TIP3   OH229066   2.728   4.387   3.515 -0.2249  0.5905 -0.2252
 9701TIP3    H129067   2.666   4.418   3.449 -0.7547  0.0119 -0.0141
 9701TIP3    H229068   2.691   4.304   3.545  0.2367  0.6310  0.4847
 9702TIP3   OH229069   1.348   6.225   5.042  0.3858 -0.4304 -0.5958
 9702TIP3    H129070   1.329   6.281   4.967 -0.5268 -1.0004 -0.7955
 9702TIP3    H229071   1.306   6.269   5.116 -1.2183 -1.3470 -0.9243
 9703TIP3   OH229072   2.038   2.536   0.941  0.1224 -0.0159  0.4806
 9703TIP3    H129073   2.058   2.514   1.032 -0.6445 -0.3339  0.5849
 9703TIP3    H229074   2.088   2.473   0.889 -0.8975 -1.0949  0.7441
 9704TIP3   OH229075   4.792   4.103   5.642 -0.0603 -0.8886  0.3400
 9704TIP3    H129076   4.861   4.113   5.577  0.5382  0.1431  1.0970
 9704TIP3    H229077   4.729   4.044   5.602  0.0914  0.0263 -1.3240
 9705TIP3   OH229078   6.853   5.720   1.542  0.3694  0.4166  0.1644
 9705TIP3    H129079   6.866   5.677   1.627  0.1160 -3.4703 -1.5145
 9705TIP3    H229080   6.933   5.771   1.529  1.3641 -0.5812  1.8875
 9706TIP3   OH229081   2.686   0.138   2.164  0.0905 -0.2835 -0.3405
 9706TIP3    H129082   2.620   0.087   2.117 -0.9684 -0.5427  1.3389
 9706TIP3    H229083   2.736   0.074   2.213 -0.8265  0.1822  1.2724
 9707TIP3   OH229084   0.222   1.811   4.584  0.0890  0.2934  0.5303
 9707TIP3    H129085   0.136   1.773   4.598  1.6196 -4.0645 -0.3718
 9707TIP3    H229086   0.260   1.817   4.672 -0.5080  0.6168  0.7695
 9708TIP3   OH229087   0.485   0.963   4.233 -0.1063 -0.4897 -0.2333
 9708TIP3    H129088   0.405   0.932   4.276  0.0374 -0.9402 -0.2876
 9708TIP3    H229089   0.458   0.978   4.142 -0.7944  1.8871  0.2846
 9709TIP3   OH229090   4.517   6.719   1.344  0.3326 -0.0953 -0.2231
 9709TIP3    H129091   4.444   6.703   1.284 -0.1004 -0.0568  0.2923
 9709TIP3    H229092   4.592   6.736   1.286 -0.3179  1.0390 -0.7527
 9710TIP3   OH229093   4.758   0.854   2.339  0.0736  0.6331  0.7123
 9710TIP3    H129094   4.848   0.859   2.307 -0.7146 -1.1882 -2.1444
 9710TIP3    H229095   4.710   0.918   2.285 -0.7798 -0.3586  0.2672
 9711TIP3   OH229096   3.261   5.129   4.442  0.3389 -0.3869  0.0722
 9711TIP3    H129097   3.174   5.140   4.482  0.7630  0.6290  0.7354
 9711TIP3    H229098   3.256   5.043   4.400 -0.6475 -0.8081  0.9836
 9712TIP3   OH229099   6.048   5.557   1.282  0.4716 -0.0129  0.3148
 9712TIP3    H129100   5.997   5.513   1.214  0.9862  0.3018 -0.2844
 9712TIP3    H229101   6.006   5.642   1.292  0.6701  0.1173  0.0591
 9713TIP3   OH229102   5.100   4.117   2.636  0.4250 -0.0599  0.0305
 9713TIP3    H129103   5.166   4.098   2.703  1.3851 -0.0016 -0.8606
 9713TIP3    H229104   5.084   4.211   2.645  1.1986  0.1235 -0.3605
 9714TIP3   OH229105   2.111   6.734   0.537  0.6239 -0.0818 -0.7005
 9714TIP3    H129106   2.195   6.691   0.549  0.8937  0.3900 -0.8999
 9714TIP3    H229107   2.120   6.782   0.454  0.7850  1.4484  0.1750
 9715TIP3   OH229108   6.640   0.269   4.548 -0.1133  0.6588 -0.8723
 9715TIP3    H129109   6.618   0.359   4.525 -1.4867  0.9054  1.1165
 9715TIP3    H229110   6.565   0.218   4.519  0.5227  0.1819 -1.7085
 9716TIP3   OH229111   3.229   3.695   5.468 -0.1793  0.4571 -0.0842
 9716TIP3    H129112   3.137   3.707   5.445 -0.3228  0.2103  0.3438
 9716TIP3    H229113   3.277   3.746   5.403 -0.6043  0.3580 -0.4818
 9717TIP3   OH229114   6.099   6.394   0.113 -0.4481  0.1693  0.0896
 9717TIP3    H129115   6.080   6.391   0.207 -0.2655  1.2669  0.1694
 9717TIP3    H229116   6.195   6.393   0.108 -0.4564 -0.9900 -0.1407
 9718TIP3   OH229117   1.883   4.398   5.566 -0.3789  0.5855 -0.3164
 9718TIP3    H129118   1.855   4.370   5.654 -1.4536  0.0896 -0.8036
 9718TIP3    H229119   1.812   4.452   5.534 -0.1091  0.5455 -0.9905
 9719TIP3   OH229120   6.806   6.400   3.591  0.2772  0.3518 -0.1376
 9719TIP3    H129121   6.723   6.431   3.557 -0.1158 -1.2088 -0.6813
 9719TIP3    H229122   6.867   6.409   3.518 -0.3677 -2.1797 -1.1020
 9720TIP3   OH229123   0.882   5.973   0.134  0.3211  0.1585 -0.0984
 9720TIP3    H129124   0.804   5.920   0.122  1.7296 -2.0511 -0.1111
 9720TIP3    H229125   0.915   5.948   0.221  1.6989  0.0694 -0.6255
 9721TIP3   OH229126   1.849   4.556   3.307  0.7582 -0.5845 -0.7478
 9721TIP3    H129127   1.763   4.519   3.287  1.4251 -2.0043 -1.1061
 9721TIP3    H229128   1.840   4.589   3.397 -0.9272  1.7747 -1.6616
 9722TIP3   OH229129   0.187   5.153   2.126  0.0681 -0.0439 -0.4449
 9722TIP3    H129130   0.228   5.109   2.051  0.5195  0.2448 -0.3670
 9722TIP3    H229131   0.167   5.081   2.187 -0.5206 -0.3078 -0.9386
 9723TIP3   OH229132   1.214   4.238   1.211  0.2333  0.0255  0.7804
 9723TIP3    H129133   1.307   4.248   1.232  0.6580  1.2095 -1.3055
 9723TIP3    H229134   1.207   4.150   1.175  0.1878 -0.6852  2.4720
 9724TIP3   OH229135   1.472   0.029   3.894  0.0519 -0.0592 -0.4693
 9724TIP3    H129136   1.471  -0.067   3.903 -3.9897 -0.2816 -1.5519
 9724TIP3    H229137   1.436   0.061   3.977 -1.3781  0.2690 -1.1867
 9725TIP3   OH229138   3.265   6.291   5.182  0.4429 -0.1880 -0.5648
 9725TIP3    H129139   3.211   6.369   5.196  1.3479  0.6157 -1.3793
 9725TIP3    H229140   3.333   6.295   5.249  0.6163 -0.1532 -0.7398
 9726TIP3   OH229141   3.583   5.028   0.785 -0.6702 -0.1421  0.2149
 9726TIP3    H129142   3.597   4.996   0.696  0.5032  0.4538  0.1661
 9726TIP3    H229143   3.582   5.124   0.776  1.4864  0.0225  1.0708
 9727TIP3   OH229144   2.474   4.353   1.035  0.0279  0.2531  0.0555
 9727TIP3    H129145   2.521   4.433   1.059 -0.6428  0.4726  0.6786
 9727TIP3    H229146   2.469   4.304   1.117  1.5016 -1.0172 -0.5580
 9728TIP3   OH229147   6.275   1.025   1.622 -0.1913  0.2446  0.0917
 9728TIP3    H129148   6.249   1.110   1.657  0.5684  0.0896  1.0809
 9728TIP3    H229149   6.197   0.971   1.628 -1.1214  1.2469 -1.9030
 9729TIP3   OH229150   0.876   0.266   3.787 -0.1693 -0.2657 -0.1913
 9729TIP3    H129151   0.829   0.348   3.797 -0.2398 -0.3556  0.2509
 9729TIP3    H229152   0.816   0.208   3.740 -1.3725 -1.0704  2.1604
 9730TIP3   OH229153   6.099   6.509   1.471  0.0997 -0.3432 -0.1937
 9730TIP3    H129154   6.187   6.545   1.463 -0.4813  0.8462 -1.4456
 9730TIP3    H229155   6.079   6.474   1.384 -0.2927 -1.5483  0.3512
 9731TIP3   OH229156   5.434   6.508   5.500  0.1477  0.8457 -0.2194
 9731TIP3    H129157   5.371   6.452   5.456 -0.4518  0.3944  1.1531
 9731TIP3    H229158   5.425   6.593   5.458  0.7829  0.0568 -2.0565
 9732TIP3   OH229159   5.228   1.452   0.769 -0.7727 -0.1036  0.7037
 9732TIP3    H129160   5.216   1.359   0.786  0.3501 -0.1381  1.4132
 9732TIP3    H229161   5.272   1.486   0.847 -0.8358  0.9508  0.3069
 9733TIP3   OH229162   2.539   4.782   4.114  0.2742  0.0013 -0.2028
 9733TIP3    H129163   2.554   4.875   4.128 -1.2272  0.1880  0.3129
 9733TIP3    H229164   2.459   4.763   4.162 -1.1132 -0.8908 -2.7021
 9734TIP3   OH229165   2.918   0.363   1.000  0.5490  0.3528  0.1978
 9734TIP3    H129166   2.837   0.413   0.990  0.3121  0.6274  2.6774
 9734TIP3    H229167   2.944   0.380   1.091  2.4830 -1.0800 -0.0447
 9735TIP3   OH229168   5.320   4.741   2.554  0.4692 -0.2183  0.2671
 9735TIP3    H129169   5.351   4.703   2.636  1.8467 -0.6712 -0.4482
 9735TIP3    H229170   5.359   4.828   2.551 -1.3134  0.6715  1.0817
 9736TIP3   OH229171   2.846   0.673   2.882  0.2071  0.0081 -0.3238
 9736TIP3    H129172   2.822   0.692   2.973 -0.3026  2.3753 -0.8807
 9736TIP3    H229173   2.833   0.756   2.837 -0.4521 -1.3417 -2.7650
 9737TIP3   OH229174   4.321   4.681   3.412 -0.1382  0.5713 -0.5685
 9737TIP3    H129175   4.403   4.634   3.399  0.3824  0.8607  1.3521
 9737TIP3    H229176   4.257   4.634   3.358  1.3462  0.6238 -2.4669
 9738TIP3   OH229177   1.765   3.907   4.011  0.3663 -0.8395 -0.7327
 9738TIP3    H129178   1.804   3.990   4.038  0.9013 -1.3100 -0.0137
 9738TIP3    H229179   1.730   3.924   3.924 -1.7260  0.8407  0.3327
 9739TIP3   OH229180   4.755   5.189   4.202 -0.4399  0.2909 -0.7799
 9739TIP3    H129181   4.835   5.214   4.249 -0.8019  2.3635 -1.1629
 9739TIP3    H229182   4.702   5.144   4.267  0.1247  0.8763  0.1053
 9740TIP3   OH229183   3.229   5.485   5.460  0.1947  0.3825  0.0325
 9740TIP3    H129184   3.296   5.546   5.431  1.7656 -1.4732 -0.4899
 9740TIP3    H229185   3.182   5.461   5.380  0.8098 -0.4582 -0.0930
 9741TIP3   OH229186   0.915   1.820   0.126 -0.3789 -0.3512 -0.8336
 9741TIP3    H129187   0.945   1.837   0.215  0.2922 -0.4351 -1.0402
 9741TIP3    H229188   0.825   1.852   0.125  0.0243  0.8328 -0.4891
 9742TIP3   OH229189   5.531   0.911   4.298  0.4978 -0.3233  0.4246
 9742TIP3    H129190   5.522   1.006   4.293  1.6521 -0.1830  0.8438
 9742TIP3    H229191   5.611   0.892   4.250  0.0425 -1.1382 -0.0261
 9743TIP3   OH229192   6.281   6.171   1.098  0.3492 -0.3240  0.0865
 9743TIP3    H129193   6.341   6.096   1.105  0.2331 -0.4168  0.0852
 9743TIP3    H229194   6.335   6.241   1.063  0.4872 -0.3766  0.1922
 9744TIP3   OH229195   2.036   6.657   4.684 -0.1606  0.2229 -0.2221
 9744TIP3    H129196   2.112   6.715   4.690  0.4689 -0.4432 -1.3551
 9744TIP3    H229197   2.070   6.579   4.639 -1.8167  0.4529 -1.9862
 9745TIP3   OH229198   6.598   1.192   4.243 -0.1298  0.5609 -0.2723
 9745TIP3    H129199   6.627   1.198   4.151  0.0818  1.6490 -0.1399
 9745TIP3    H229200   6.647   1.260   4.288 -1.0507  0.7618  0.4515
 9746TIP3   OH229201   2.085   3.513   5.201 -0.0791 -0.1789 -0.6159
 9746TIP3    H129202   2.026   3.565   5.147 -0.4220 -0.8102 -0.8564
 9746TIP3    H229203   2.146   3.473   5.139  1.6525  1.7212 -0.2646
 9747TIP3   OH229204   4.370   3.299   1.265  0.0186 -0.0001  0.1494
 9747TIP3    H129205   4.452   3.315   1.219 -0.1245  1.6509  0.4378
 9747TIP3    H229206   4.393   3.304   1.358 -0.6902  2.2763  0.2549
 9748TIP3   OH229207   1.542   2.441   1.781  0.1656  0.4907 -0.1778
 9748TIP3    H129208   1.496   2.505   1.835  1.1982  0.4682  0.7659
 9748TIP3    H229209   1.633   2.471   1.781  0.0947  0.8234 -2.4290
 9749TIP3   OH229210   0.980   1.108   5.287 -0.5118 -0.0555 -0.0610
 9749TIP3    H129211   1.029   1.186   5.258  0.3888 -1.2978 -2.0537
 9749TIP3    H229212   0.905   1.103   5.228 -1.1192 -0.1795  0.7010
   7.21353   6.80099   5.88982   0.00000   0.00000  -2.40451   0.00000  -2.40451  -3.40049
